<event>
 5    1  0.1764318E-003  0.9118800E+02  0.7818608E-02  0.1130116E+00
         25   -1    0    0    0    0  0.00000000000E+00  0.00000000000E+00  0.99999998245E-14  0.12500000000E+03  0.12500000000E+03 0.  0.
        -13    1    3    3    0    0  0.29780807068E+02  0.29941800347E+02  0.17468454461E+02  0.45700830878E+02  0.10566000000E+00 0. -1.
         23    2    1    0    0    0 -0.23467228189E+01  0.13465761788E+02  0.36148945202E+02  0.86353136120E+02  0.77222302672E+02 0.  0.
         13    1    3    3    0    0 -0.32127529886E+02 -0.16476038559E+02  0.18680490741E+02  0.40652305243E+02  0.10566000000E+00 0.  1.
         22    1    1    0    0    0  0.23467228189E+01 -0.13465761788E+02 -0.36148945202E+02  0.38646863880E+02  0.00000000000E+00 0. -1.
</event>
<event>
 5    1  0.1764318E-003  0.9118800E+02  0.7818608E-02  0.1130116E+00
         25   -1    0    0    0    0  0.00000000000E+00  0.00000000000E+00  0.99999998245E-14  0.12500000000E+03  0.12500000000E+03 0.  0.
        -13    1    3    3    0    0  0.22373055328E+01 -0.35463299872E+02 -0.31848054372E+02  0.47717511515E+02  0.10566000000E+00 0.  1.
         23    2    1    0    0    0 -0.19091919571E+02 -0.19418908276E+02  0.88316376453E+01  0.96371461528E+02  0.92021005113E+02 0.  0.
         13    1    3    3    0    0 -0.21329225104E+02  0.16044391596E+02  0.40679692017E+02  0.48653950013E+02  0.10566000000E+00 0. -1.
         22    1    1    0    0    0  0.19091919571E+02  0.19418908276E+02 -0.88316376453E+01  0.28628538472E+02  0.00000000000E+00 0. -1.
</event>
<event>
 5    1  0.1764318E-003  0.9118800E+02  0.7818608E-02  0.1130116E+00
         25   -1    0    0    0    0  0.00000000000E+00  0.00000000000E+00  0.99999998245E-14  0.12500000000E+03  0.12500000000E+03 0.  0.
        -13    1    3    3    0    0  0.96715954222E+01  0.23633875279E+02 -0.32426128384E+02  0.41274262982E+02  0.10566000000E+00 0.  1.
         23    2    1    0    0    0 -0.28849356381E+02  0.55968186120E+01  0.13399071865E+01  0.95582231671E+02  0.90942607824E+02 0.  0.
         13    1    3    3    0    0 -0.38520951803E+02 -0.18037056667E+02  0.33766035570E+02  0.54307968690E+02  0.10566000000E+00 0. -1.
         22    1    1    0    0    0  0.28849356381E+02 -0.55968186120E+01 -0.13399071865E+01  0.29417768329E+02  0.00000000000E+00 0. -1.
</event>
<event>
 5    1  0.1764318E-003  0.9118800E+02  0.7818608E-02  0.1130116E+00
         25   -1    0    0    0    0  0.00000000000E+00  0.00000000000E+00  0.99999998245E-14  0.12500000000E+03  0.12500000000E+03 0.  0.
        -13    1    3    3    0    0 -0.39316980003E+02  0.26240072884E+02  0.68756193487E+01  0.47766637384E+02  0.10566000000E+00 0. -1.
         23    2    1    0    0    0 -0.12754425021E+02 -0.98658356327E+01  0.24281742504E+02  0.95851876743E+02  0.91312480997E+02 0.  0.
         13    1    3    3    0    0  0.26562554982E+02 -0.36105908516E+02  0.17406123155E+02  0.48085239360E+02  0.10566000000E+00 0.  1.
         22    1    1    0    0    0  0.12754425021E+02  0.98658356327E+01 -0.24281742504E+02  0.29148123257E+02  0.00000000000E+00 0.  1.
</event>
<event>
 5    1  0.1764318E-003  0.9118800E+02  0.7818608E-02  0.1130116E+00
         25   -1    0    0    0    0  0.00000000000E+00  0.00000000000E+00  0.99999998245E-14  0.12500000000E+03  0.12500000000E+03 0.  0.
        -13    1    3    3    0    0 -0.32678458818E+02  0.76924356685E+01 -0.17033904242E+02  0.37645986439E+02  0.10566000000E+00 0.  1.
         23    2    1    0    0    0  0.25710376203E+02  0.52814666232E+01 -0.11493079176E+02  0.96346759291E+02  0.91987443831E+02 0.  0.
         13    1    3    3    0    0  0.58388835021E+02 -0.24109690452E+01  0.55408250666E+01  0.58700772851E+02  0.10566000000E+00 0. -1.
         22    1    1    0    0    0 -0.25710376203E+02 -0.52814666232E+01  0.11493079176E+02  0.28653240709E+02  0.00000000000E+00 0. -1.
</event>
<event>
 5    1  0.1764318E-003  0.9118800E+02  0.7818608E-02  0.1130116E+00
         25   -1    0    0    0    0  0.00000000000E+00  0.00000000000E+00  0.99999998245E-14  0.12500000000E+03  0.12500000000E+03 0.  0.
        -13    1    3    3    0    0 -0.53640483092E+02  0.13332138586E+02 -0.27715488945E+02  0.61832085822E+02  0.10566000000E+00 0.  1.
         23    2    1    0    0    0 -0.24636762158E+02  0.12638000291E+02 -0.12064216938E+02  0.94796781110E+02  0.89856526071E+02 0.  0.
         13    1    3    3    0    0  0.29003720934E+02 -0.69413829524E+00  0.15651272007E+02  0.32964695288E+02  0.10566000000E+00 0. -1.
         22    1    1    0    0    0  0.24636762158E+02 -0.12638000291E+02  0.12064216938E+02  0.30203218890E+02  0.00000000000E+00 0.  1.
</event>
<event>
 5    1  0.1764318E-003  0.9118800E+02  0.7818608E-02  0.1130116E+00
         25   -1    0    0    0    0  0.00000000000E+00  0.00000000000E+00  0.99999998245E-14  0.12500000000E+03  0.12500000000E+03 0.  0.
        -13    1    3    3    0    0 -0.15373467782E+02  0.48331131029E+02  0.15085349566E+01  0.50739812573E+02  0.10566000000E+00 0.  1.
         23    2    1    0    0    0  0.56943921571E+01  0.17002162772E+02  0.24270399537E+02  0.94824646900E+02  0.89895281996E+02 0.  0.
         13    1    3    3    0    0  0.21067859939E+02 -0.31328968257E+02  0.22761864581E+02  0.44084834328E+02  0.10566000000E+00 0. -1.
         22    1    1    0    0    0 -0.56943921571E+01 -0.17002162772E+02 -0.24270399537E+02  0.30175353100E+02  0.00000000000E+00 0. -1.
</event>
<event>
 5    1  0.1764318E-003  0.9118800E+02  0.7818608E-02  0.1130116E+00
         25   -1    0    0    0    0  0.00000000000E+00  0.00000000000E+00  0.99999998245E-14  0.12500000000E+03  0.12500000000E+03 0.  0.
        -13    1    3    3    0    0 -0.10584192871E+02 -0.13485124814E+02  0.41365188821E+02  0.44776821461E+02  0.10566000000E+00 0. -1.
         23    2    1    0    0    0  0.26794361361E+02 -0.97959689008E+01  0.71409451544E+01  0.95590955385E+02  0.90954597719E+02 0.  0.
         13    1    3    3    0    0  0.37378554232E+02  0.36891559131E+01 -0.34224243666E+02  0.50814133924E+02  0.10566000000E+00 0.  1.
         22    1    1    0    0    0 -0.26794361361E+02  0.97959689008E+01 -0.71409451544E+01  0.29409044615E+02  0.00000000000E+00 0. -1.
</event>
<event>
 5    1  0.1764318E-003  0.9118800E+02  0.7818608E-02  0.1130116E+00
         25   -1    0    0    0    0  0.00000000000E+00  0.00000000000E+00  0.99999998245E-14  0.12500000000E+03  0.12500000000E+03 0.  0.
        -13    1    3    3    0    0  0.18644355126E+02  0.56334234606E+02  0.55715528692E+01  0.59600430637E+02  0.10566000000E+00 0.  1.
         23    2    1    0    0    0  0.19250944964E+02  0.21768064997E+02 -0.44652679980E+01  0.95599555207E+02  0.90966415791E+02 0.  0.
         13    1    3    3    0    0  0.60658983780E+00 -0.34566169609E+02 -0.10036820867E+02  0.35999124570E+02  0.10566000000E+00 0. -1.
         22    1    1    0    0    0 -0.19250944964E+02 -0.21768064997E+02  0.44652679980E+01  0.29400444793E+02  0.00000000000E+00 0.  1.
</event>
<event>
 5    1  0.1764318E-003  0.9118800E+02  0.7818608E-02  0.1130116E+00
         25   -1    0    0    0    0  0.00000000000E+00  0.00000000000E+00  0.99999998245E-14  0.12500000000E+03  0.12500000000E+03 0.  0.
        -13    1    3    3    0    0  0.33153729350E+02 -0.11470228855E+02  0.24385182150E+01  0.35166652598E+02  0.10566000000E+00 0. -1.
         23    2    1    0    0    0 -0.11444359993E+02  0.26020507158E+02 -0.10226949134E+02  0.94790222494E+02  0.89847401873E+02 0.  0.
         13    1    3    3    0    0 -0.44598089343E+02  0.37490736013E+02 -0.12665467349E+02  0.59623569896E+02  0.10566000000E+00 0.  1.
         22    1    1    0    0    0  0.11444359993E+02 -0.26020507158E+02  0.10226949134E+02  0.30209777506E+02  0.00000000000E+00 0.  1.
</event>
<event>
 5    1  0.1764318E-003  0.9118800E+02  0.7818608E-02  0.1130116E+00
         25   -1    0    0    0    0  0.00000000000E+00  0.00000000000E+00  0.99999998245E-14  0.12500000000E+03  0.12500000000E+03 0.  0.
        -13    1    3    3    0    0  0.56304881892E+02 -0.22868392946E+02 -0.70905524028E+01  0.61184068336E+02  0.10566000000E+00 0.  1.
         23    2    1    0    0    0  0.22131599404E+02 -0.18319705524E+02 -0.60582429792E+00  0.96263501853E+02  0.91874237212E+02 0.  0.
         13    1    3    3    0    0 -0.34173282488E+02  0.45486874223E+01  0.64847281049E+01  0.35079433517E+02  0.10566000000E+00 0. -1.
         22    1    1    0    0    0 -0.22131599404E+02  0.18319705524E+02  0.60582429792E+00  0.28736498147E+02  0.00000000000E+00 0.  1.
</event>
<event>
 5    1  0.1764318E-003  0.9118800E+02  0.7818608E-02  0.1130116E+00
         25   -1    0    0    0    0  0.00000000000E+00  0.00000000000E+00  0.99999998245E-14  0.12500000000E+03  0.12500000000E+03 0.  0.
        -13    1    3    3    0    0 -0.32165840940E+02  0.45899910008E+02  0.20653371923E+02  0.59732872005E+02  0.10566000000E+00 0.  1.
         23    2    1    0    0    0 -0.24631030846E+02  0.12635949185E+02  0.72108784684E+01  0.96393153606E+02  0.92050466601E+02 0.  0.
         13    1    3    3    0    0  0.75348100944E+01 -0.33263960823E+02 -0.13442493455E+02  0.36660281601E+02  0.10566000000E+00 0. -1.
         22    1    1    0    0    0  0.24631030846E+02 -0.12635949185E+02 -0.72108784684E+01  0.28606846394E+02  0.00000000000E+00 0.  1.
</event>
<event>
 5    1  0.1764318E-003  0.9118800E+02  0.7818608E-02  0.1130116E+00
         25   -1    0    0    0    0  0.00000000000E+00  0.00000000000E+00  0.99999998245E-14  0.12500000000E+03  0.12500000000E+03 0.  0.
        -13    1    3    3    0    0  0.47663153920E+02 -0.25845957780E+02  0.22100348841E+02  0.58551057703E+02  0.10566000000E+00 0. -1.
         23    2    1    0    0    0  0.27121162866E+02 -0.10503895446E+02 -0.45841023991E+01  0.95556778547E+02  0.90907615944E+02 0.  0.
         13    1    3    3    0    0 -0.20541991054E+02  0.15342062334E+02 -0.26684451240E+02  0.37005720844E+02  0.10566000000E+00 0.  1.
         22    1    1    0    0    0 -0.27121162866E+02  0.10503895446E+02  0.45841023991E+01  0.29443221453E+02  0.00000000000E+00 0. -1.
</event>
<event>
 5    1  0.1764318E-003  0.9118800E+02  0.7818608E-02  0.1130116E+00
         25   -1    0    0    0    0  0.00000000000E+00  0.00000000000E+00  0.99999998245E-14  0.12500000000E+03  0.12500000000E+03 0.  0.
        -13    1    3    3    0    0 -0.23457007515E+02  0.22136310902E+02 -0.36538824641E+02  0.48737504368E+02  0.10566000000E+00 0.  1.
         23    2    1    0    0    0  0.15903536584E+02  0.21975818160E+02 -0.10605304986E+02  0.95873868201E+02  0.91342580708E+02 0.  0.
         13    1    3    3    0    0  0.39360544099E+02 -0.16049274186E+00  0.25933519655E+02  0.47136363833E+02  0.10566000000E+00 0. -1.
         22    1    1    0    0    0 -0.15903536584E+02 -0.21975818160E+02  0.10605304986E+02  0.29126131799E+02  0.00000000000E+00 0.  1.
</event>
<event>
 5    1  0.1764318E-003  0.9118800E+02  0.7818608E-02  0.1130116E+00
         25   -1    0    0    0    0  0.00000000000E+00  0.00000000000E+00  0.99999998245E-14  0.12500000000E+03  0.12500000000E+03 0.  0.
        -13    1    3    3    0    0  0.15295786797E+02 -0.56212410126E+02 -0.16937626364E+00  0.58256639091E+02  0.10566000000E+00 0. -1.
         23    2    1    0    0    0  0.10788825712E+02 -0.21633656672E+02  0.15284312309E+02  0.96398880022E+02  0.92058242463E+02 0.  0.
         13    1    3    3    0    0 -0.45069610852E+01  0.34578753454E+02  0.15453688573E+02  0.38142240930E+02  0.10566000000E+00 0.  1.
         22    1    1    0    0    0 -0.10788825712E+02  0.21633656672E+02 -0.15284312309E+02  0.28601119978E+02  0.00000000000E+00 0. -1.
</event>
<event>
 5    1  0.1764318E-003  0.9118800E+02  0.7818608E-02  0.1130116E+00
         25   -1    0    0    0    0  0.00000000000E+00  0.00000000000E+00  0.99999998245E-14  0.12500000000E+03  0.12500000000E+03 0.  0.
        -13    1    3    3    0    0  0.41061333815E+02 -0.20591354733E+02  0.38350254540E+02  0.59839704309E+02  0.10566000000E+00 0. -1.
         23    2    1    0    0    0  0.26373819346E+02 -0.95701473936E+00  0.11468739967E+02  0.96224555251E+02  0.91821232908E+02 0.  0.
         13    1    3    3    0    0 -0.14687514470E+02  0.19634339994E+02 -0.26881514573E+02  0.36384850942E+02  0.10566000000E+00 0.  1.
         22    1    1    0    0    0 -0.26373819346E+02  0.95701473936E+00 -0.11468739967E+02  0.28775444749E+02  0.00000000000E+00 0. -1.
</event>
<event>
 5    1  0.1764318E-003  0.9118800E+02  0.7818608E-02  0.1130116E+00
         25   -1    0    0    0    0  0.00000000000E+00  0.00000000000E+00  0.99999998245E-14  0.12500000000E+03  0.12500000000E+03 0.  0.
        -13    1    3    3    0    0  0.26400516836E+02 -0.20317691402E+02 -0.50328655037E+02  0.60355451742E+02  0.10566000000E+00 0. -1.
         23    2    1    0    0    0  0.55471541721E+01 -0.18867705204E+02 -0.24372296122E+02  0.93682751760E+02  0.88293193056E+02 0.  0.
         13    1    3    3    0    0 -0.20853362664E+02  0.14499861976E+01  0.25956358915E+02  0.33327300018E+02  0.10566000000E+00 0.  1.
         22    1    1    0    0    0 -0.55471541721E+01  0.18867705204E+02  0.24372296122E+02  0.31317248240E+02  0.00000000000E+00 0. -1.
</event>
<event>
 5    1  0.1764318E-003  0.9118800E+02  0.7818608E-02  0.1130116E+00
         25   -1    0    0    0    0  0.00000000000E+00  0.00000000000E+00  0.99999998245E-14  0.12500000000E+03  0.12500000000E+03 0.  0.
        -13    1    3    3    0    0 -0.11406787495E+02  0.10680841703E+02 -0.56923444884E+02  0.59029525849E+02  0.10566000000E+00 0.  1.
         23    2    1    0    0    0 -0.11920262991E+01 -0.92427757887E+01 -0.27237580647E+02  0.96212231235E+02  0.91804454188E+02 0.  0.
         13    1    3    3    0    0  0.10214761196E+02 -0.19923617492E+02  0.29685864238E+02  0.37182705386E+02  0.10566000000E+00 0. -1.
         22    1    1    0    0    0  0.11920262991E+01  0.92427757887E+01  0.27237580647E+02  0.28787768765E+02  0.00000000000E+00 0.  1.
</event>
<event>
 5    1  0.1764318E-003  0.9118800E+02  0.7818608E-02  0.1130116E+00
         25   -1    0    0    0    0  0.00000000000E+00  0.00000000000E+00  0.99999998245E-14  0.12500000000E+03  0.12500000000E+03 0.  0.
        -13    1    3    3    0    0  0.29112487292E+02 -0.21883641264E+02  0.14280840756E+02  0.39120125870E+02  0.10566000000E+00 0. -1.
         23    2    1    0    0    0 -0.16461413103E+02  0.10292879377E+02  0.22245550016E+02  0.95473977872E+02  0.90793691785E+02 0.  0.
         13    1    3    3    0    0 -0.45573900396E+02  0.32176520641E+02  0.79647092597E+01  0.56353852002E+02  0.10566000000E+00 0.  1.
         22    1    1    0    0    0  0.16461413103E+02 -0.10292879377E+02 -0.22245550016E+02  0.29526022128E+02  0.00000000000E+00 0.  1.
</event>
<event>
 5    1  0.1764318E-003  0.9118800E+02  0.7818608E-02  0.1130116E+00
         25   -1    0    0    0    0  0.00000000000E+00  0.00000000000E+00  0.99999998245E-14  0.12500000000E+03  0.12500000000E+03 0.  0.
        -13    1    3    3    0    0  0.35069296122E+02  0.33730379479E+02 -0.61709587942E+01  0.49047792272E+02  0.10566000000E+00 0. -1.
         23    2    1    0    0    0  0.23704436176E+02 -0.49144567024E+01 -0.21962043221E+02  0.92313863465E+02  0.86333457398E+02 0.  0.
         13    1    3    3    0    0 -0.11364859945E+02 -0.38644836181E+02 -0.15791084427E+02  0.43266071193E+02  0.10566000000E+00 0.  1.
         22    1    1    0    0    0 -0.23704436176E+02  0.49144567024E+01  0.21962043221E+02  0.32686136535E+02  0.00000000000E+00 0. -1.
</event>
<event>
 5    1  0.1764318E-003  0.9118800E+02  0.7818608E-02  0.1130116E+00
         25   -1    0    0    0    0  0.00000000000E+00  0.00000000000E+00  0.99999998245E-14  0.12500000000E+03  0.12500000000E+03 0.  0.
        -13    1    3    3    0    0 -0.37078156126E+02  0.18855152457E+02  0.27839213791E+02  0.50053365765E+02  0.10566000000E+00 0.  1.
         23    2    1    0    0    0 -0.28108403876E+01 -0.36269215484E+01  0.33287158273E+02  0.91398061225E+02  0.84997148812E+02 0.  0.
         13    1    3    3    0    0  0.34267315739E+02 -0.22482074006E+02  0.54479444818E+01  0.41344695459E+02  0.10566000000E+00 0. -1.
         22    1    1    0    0    0  0.28108403876E+01  0.36269215484E+01 -0.33287158273E+02  0.33601938775E+02  0.00000000000E+00 0.  1.
</event>
<event>
 5    1  0.1764318E-003  0.9118800E+02  0.7818608E-02  0.1130116E+00
         25   -1    0    0    0    0  0.00000000000E+00  0.00000000000E+00  0.99999998245E-14  0.12500000000E+03  0.12500000000E+03 0.  0.
        -13    1    3    3    0    0 -0.12939311807E+01 -0.42529893297E+02 -0.29698591904E+02  0.51889147293E+02  0.10566000000E+00 0. -1.
         23    2    1    0    0    0  0.68590621597E+01  0.15162728100E+01 -0.27368676210E+02  0.96744199632E+02  0.92525941811E+02 0.  0.
         13    1    3    3    0    0  0.81529933404E+01  0.44046166107E+02  0.23299156938E+01  0.44855052339E+02  0.10566000000E+00 0.  1.
         22    1    1    0    0    0 -0.68590621597E+01 -0.15162728100E+01  0.27368676210E+02  0.28255800368E+02  0.00000000000E+00 0. -1.
</event>
<event>
 5    1  0.1764318E-003  0.9118800E+02  0.7818608E-02  0.1130116E+00
         25   -1    0    0    0    0  0.00000000000E+00  0.00000000000E+00  0.99999998245E-14  0.12500000000E+03  0.12500000000E+03 0.  0.
        -13    1    3    3    0    0 -0.48338279545E+02  0.25664797874E+02 -0.16075495948E+02  0.57041246947E+02  0.10566000000E+00 0. -1.
         23    2    1    0    0    0 -0.13786774567E+02  0.27877284217E+02 -0.10881861486E+02  0.92051054074E+02  0.85952100140E+02 0.  0.
         13    1    3    3    0    0  0.34551504978E+02  0.22124863422E+01  0.51936344627E+01  0.35009807127E+02  0.10566000000E+00 0.  1.
         22    1    1    0    0    0  0.13786774567E+02 -0.27877284217E+02  0.10881861486E+02  0.32948945926E+02  0.00000000000E+00 0. -1.
</event>
<event>
 5    1  0.1764318E-003  0.9118800E+02  0.7818608E-02  0.1130116E+00
         25   -1    0    0    0    0  0.00000000000E+00  0.00000000000E+00  0.99999998245E-14  0.12500000000E+03  0.12500000000E+03 0.  0.
        -13    1    3    3    0    0 -0.65044290868E+01 -0.33190880452E+02 -0.65935266082E+01  0.34459075729E+02  0.10566000000E+00 0. -1.
         23    2    1    0    0    0  0.12932016478E+02  0.21772374043E+02  0.13724048831E+02  0.96196825904E+02  0.91783476051E+02 0.  0.
         13    1    3    3    0    0  0.19436445565E+02  0.54963254495E+02  0.20317575440E+02  0.61737750175E+02  0.10566000000E+00 0.  1.
         22    1    1    0    0    0 -0.12932016478E+02 -0.21772374043E+02 -0.13724048831E+02  0.28803174096E+02  0.00000000000E+00 0.  1.
</event>
<event>
 5    1  0.1764318E-003  0.9118800E+02  0.7818608E-02  0.1130116E+00
         25   -1    0    0    0    0  0.00000000000E+00  0.00000000000E+00  0.99999998245E-14  0.12500000000E+03  0.12500000000E+03 0.  0.
        -13    1    3    3    0    0  0.19286737760E+02  0.43520039052E+02  0.28833595121E+02  0.55653925506E+02  0.10566000000E+00 0. -1.
         23    2    1    0    0    0 -0.11321466540E+02  0.22797243521E+02  0.16695262570E+02  0.94559538292E+02  0.89525887725E+02 0.  0.
         13    1    3    3    0    0 -0.30608204300E+02 -0.20722795532E+02 -0.12138332552E+02  0.38905612786E+02  0.10566000000E+00 0.  1.
         22    1    1    0    0    0  0.11321466540E+02 -0.22797243521E+02 -0.16695262570E+02  0.30440461708E+02  0.00000000000E+00 0. -1.
</event>
<event>
 5    1  0.1764318E-003  0.9118800E+02  0.7818608E-02  0.1130116E+00
         25   -1    0    0    0    0  0.00000000000E+00  0.00000000000E+00  0.99999998245E-14  0.12500000000E+03  0.12500000000E+03 0.  0.
        -13    1    3    3    0    0 -0.31120731876E+02 -0.33511397630E+01  0.18754563233E+02  0.36489380597E+02  0.10566000000E+00 0. -1.
         23    2    1    0    0    0  0.27350569519E+02 -0.58724325087E+01  0.58460306895E+01  0.96421770675E+02  0.92089318971E+02 0.  0.
         13    1    3    3    0    0  0.58471301395E+02 -0.25212927458E+01 -0.12908532544E+02  0.59932390078E+02  0.10566000000E+00 0.  1.
         22    1    1    0    0    0 -0.27350569519E+02  0.58724325087E+01 -0.58460306895E+01  0.28578229325E+02  0.00000000000E+00 0.  1.
</event>
<event>
 5    1  0.1764318E-003  0.9118800E+02  0.7818608E-02  0.1130116E+00
         25   -1    0    0    0    0  0.00000000000E+00  0.00000000000E+00  0.99999998245E-14  0.12500000000E+03  0.12500000000E+03 0.  0.
        -13    1    3    3    0    0  0.51291871290E+02 -0.30266979421E+02  0.18528282160E+02  0.62371904794E+02  0.10566000000E+00 0.  1.
         23    2    1    0    0    0  0.27306388455E+02 -0.13530398965E+02  0.76251802314E+01  0.93585768828E+02  0.88155783740E+02 0.  0.
         13    1    3    3    0    0 -0.23985482835E+02  0.16736580456E+02 -0.10903101929E+02  0.31213864034E+02  0.10566000000E+00 0. -1.
         22    1    1    0    0    0 -0.27306388455E+02  0.13530398965E+02 -0.76251802314E+01  0.31414231172E+02  0.00000000000E+00 0.  1.
</event>
<event>
 5    1  0.1764318E-003  0.9118800E+02  0.7818608E-02  0.1130116E+00
         25   -1    0    0    0    0  0.00000000000E+00  0.00000000000E+00  0.99999998245E-14  0.12500000000E+03  0.12500000000E+03 0.  0.
        -13    1    3    3    0    0  0.13020852349E+02  0.49210657660E+02  0.26494796995E+02  0.57386556397E+02  0.10566000000E+00 0.  1.
         23    2    1    0    0    0 -0.23371513421E+01  0.14868394514E+02  0.25938851050E+02  0.95010744830E+02  0.90153681054E+02 0.  0.
         13    1    3    3    0    0 -0.15358003691E+02 -0.34342263146E+02 -0.55594594431E+00  0.37624188434E+02  0.10566000000E+00 0. -1.
         22    1    1    0    0    0  0.23371513421E+01 -0.14868394514E+02 -0.25938851050E+02  0.29989255170E+02  0.00000000000E+00 0.  1.
</event>
<event>
 4    1  0.1764318E-003  0.9118800E+02  0.7818608E-02  0.1130116E+00
         25   -1    0    0    0    0  0.00000000000E+00  0.00000000000E+00  0.99999998245E-14  0.12500000000E+03  0.12500000000E+03 0.  0.
        -13    1    1    0    0    0  0.86029575454E+00 -0.13002842479E+02 -0.18800325733E+02  0.22875258097E+02  0.10566000000E+00 0.  1.
         13    1    1    0    0    0 -0.29932421336E+02 -0.33858935816E+02  0.98905712581E+01  0.46262424768E+02  0.10566000000E+00 0. -1.
         22    1    1    0    0    0  0.29072125581E+02  0.46861778296E+02  0.89097544744E+01  0.55862317134E+02  0.00000000000E+00 0. -1.
</event>
<event>
 5    1  0.1764318E-003  0.9118800E+02  0.7818608E-02  0.1130116E+00
         25   -1    0    0    0    0  0.00000000000E+00  0.00000000000E+00  0.99999998245E-14  0.12500000000E+03  0.12500000000E+03 0.  0.
        -13    1    3    3    0    0 -0.17223337389E+02 -0.37429029418E+02 -0.15303411551E+02  0.43952032526E+02  0.10566000000E+00 0.  1.
         23    2    1    0    0    0  0.34082368516E+01  0.98891241701E+01 -0.26269579348E+02  0.96724539713E+02  0.92499377989E+02 0.  0.
         13    1    3    3    0    0  0.20631574241E+02  0.47318153588E+02 -0.10966167798E+02  0.52772507188E+02  0.10566000000E+00 0. -1.
         22    1    1    0    0    0 -0.34082368516E+01 -0.98891241701E+01  0.26269579348E+02  0.28275460287E+02  0.00000000000E+00 0. -1.
</event>
<event>
 5    1  0.1764318E-003  0.9118800E+02  0.7818608E-02  0.1130116E+00
         25   -1    0    0    0    0  0.00000000000E+00  0.00000000000E+00  0.99999998245E-14  0.12500000000E+03  0.12500000000E+03 0.  0.
        -13    1    3    3    0    0  0.12665747058E+01 -0.50338867479E+02  0.46337409760E+01  0.50567662691E+02  0.10566000000E+00 0. -1.
         23    2    1    0    0    0  0.16237165682E+02 -0.82121708966E+01  0.20111474594E+02  0.97878851231E+02  0.94046333303E+02 0.  0.
         13    1    3    3    0    0  0.14970590976E+02  0.42126696582E+02  0.15477733618E+02  0.47311188540E+02  0.10566000000E+00 0.  1.
         22    1    1    0    0    0 -0.16237165682E+02  0.82121708966E+01 -0.20111474594E+02  0.27121148769E+02  0.00000000000E+00 0. -1.
</event>
<event>
 5    1  0.1764318E-003  0.9118800E+02  0.7818608E-02  0.1130116E+00
         25   -1    0    0    0    0  0.00000000000E+00  0.00000000000E+00  0.99999998245E-14  0.12500000000E+03  0.12500000000E+03 0.  0.
        -13    1    3    3    0    0  0.16830196722E+02  0.26927681808E+02 -0.34412106286E+02  0.46824777547E+02  0.10566000000E+00 0. -1.
         23    2    1    0    0    0 -0.22609558079E+02  0.16049467452E+01 -0.16340642490E+02  0.97057477430E+02  0.92948207931E+02 0.  0.
         13    1    3    3    0    0 -0.39439754801E+02 -0.25322735062E+02  0.18071463796E+02  0.50232699883E+02  0.10566000000E+00 0.  1.
         22    1    1    0    0    0  0.22609558079E+02 -0.16049467452E+01  0.16340642490E+02  0.27942522570E+02  0.00000000000E+00 0.  1.
</event>
<event>
 5    1  0.1764318E-003  0.9118800E+02  0.7818608E-02  0.1130116E+00
         25   -1    0    0    0    0  0.00000000000E+00  0.00000000000E+00  0.99999998245E-14  0.12500000000E+03  0.12500000000E+03 0.  0.
        -13    1    3    3    0    0 -0.60603648646E+01  0.32726369064E+02  0.45883065276E+02  0.56683419953E+02  0.10566000000E+00 0. -1.
         23    2    1    0    0    0 -0.11969156913E+02 -0.12003292915E+01  0.25761115363E+02  0.96568739522E+02  0.92288595615E+02 0.  0.
         13    1    3    3    0    0 -0.59087920489E+01 -0.33926698355E+02 -0.20121949914E+02  0.39885319569E+02  0.10566000000E+00 0.  1.
         22    1    1    0    0    0  0.11969156913E+02  0.12003292915E+01 -0.25761115363E+02  0.28431260478E+02  0.00000000000E+00 0. -1.
</event>
<event>
 5    1  0.1764318E-003  0.9118800E+02  0.7818608E-02  0.1130116E+00
         25   -1    0    0    0    0  0.00000000000E+00  0.00000000000E+00  0.99999998245E-14  0.12500000000E+03  0.12500000000E+03 0.  0.
        -13    1    3    3    0    0  0.33656917636E+02 -0.10715773362E+02 -0.16188924862E+00  0.35322135775E+02  0.10566000000E+00 0.  1.
         23    2    1    0    0    0 -0.21078606300E+02 -0.21871043588E+02 -0.11854538727E+02  0.92393554631E+02  0.86448763194E+02 0.  0.
         13    1    3    3    0    0 -0.54735523937E+02 -0.11155270226E+02 -0.11692649478E+02  0.57071418856E+02  0.10566000000E+00 0. -1.
         22    1    1    0    0    0  0.21078606300E+02  0.21871043588E+02  0.11854538727E+02  0.32606445369E+02  0.00000000000E+00 0. -1.
</event>
<event>
 4    1  0.1764318E-003  0.9118800E+02  0.7818608E-02  0.1130116E+00
         25   -1    0    0    0    0  0.00000000000E+00  0.00000000000E+00  0.99999998245E-14  0.12500000000E+03  0.12500000000E+03 0.  0.
        -13    1    1    0    0    0 -0.21102509161E+02 -0.22993229513E+02 -0.13215935775E+01  0.31237193695E+02  0.10566000000E+00 0.  1.
         13    1    1    0    0    0  0.23063713836E+02 -0.29844717059E+02  0.12469926733E+02  0.39725964670E+02  0.10566000000E+00 0. -1.
         22    1    1    0    0    0 -0.19612046748E+01  0.52837946572E+02 -0.11148333156E+02  0.54036841635E+02  0.00000000000E+00 0. -1.
</event>
<event>
 5    1  0.1764318E-003  0.9118800E+02  0.7818608E-02  0.1130116E+00
         25   -1    0    0    0    0  0.00000000000E+00  0.00000000000E+00  0.99999998245E-14  0.12500000000E+03  0.12500000000E+03 0.  0.
        -13    1    3    3    0    0  0.36905906020E+02 -0.79336517640E+00  0.32783761308E+01  0.37059873739E+02  0.10566000000E+00 0.  1.
         23    2    1    0    0    0 -0.13486023917E+02 -0.13376097001E+02 -0.22919908503E+02  0.95232315880E+02  0.90460372374E+02 0.  0.
         13    1    3    3    0    0 -0.50391929936E+02 -0.12582731825E+02 -0.26198284634E+02  0.58172442141E+02  0.10566000000E+00 0. -1.
         22    1    1    0    0    0  0.13486023917E+02  0.13376097001E+02  0.22919908503E+02  0.29767684120E+02  0.00000000000E+00 0. -1.
</event>
<event>
 5    1  0.1764318E-003  0.9118800E+02  0.7818608E-02  0.1130116E+00
         25   -1    0    0    0    0  0.00000000000E+00  0.00000000000E+00  0.99999998245E-14  0.12500000000E+03  0.12500000000E+03 0.  0.
        -13    1    3    3    0    0 -0.10811361828E+02 -0.32131173765E+02 -0.45974749683E+02  0.57122558105E+02  0.10566000000E+00 0.  1.
         23    2    1    0    0    0  0.61634971672E+01 -0.27348584431E+02 -0.13940283978E+02  0.93690811491E+02  0.88304602783E+02 0.  0.
         13    1    3    3    0    0  0.16974858995E+02  0.47825893340E+01  0.32034465704E+02  0.36568253385E+02  0.10566000000E+00 0. -1.
         22    1    1    0    0    0 -0.61634971672E+01  0.27348584431E+02  0.13940283978E+02  0.31309188509E+02  0.00000000000E+00 0.  1.
</event>
<event>
 5    1  0.1764318E-003  0.9118800E+02  0.7818608E-02  0.1130116E+00
         25   -1    0    0    0    0  0.00000000000E+00  0.00000000000E+00  0.99999998245E-14  0.12500000000E+03  0.12500000000E+03 0.  0.
        -13    1    3    3    0    0  0.59263158799E+01 -0.49123899413E+02 -0.36882562917E+02  0.61713963775E+02  0.10566000000E+00 0. -1.
         23    2    1    0    0    0  0.20797855489E+01 -0.21317829457E+02 -0.24677270494E+02  0.92323662388E+02  0.86347643842E+02 0.  0.
         13    1    3    3    0    0 -0.38465303310E+01  0.27806069957E+02  0.12205292423E+02  0.30609698613E+02  0.10566000000E+00 0.  1.
         22    1    1    0    0    0 -0.20797855489E+01  0.21317829457E+02  0.24677270494E+02  0.32676337612E+02  0.00000000000E+00 0. -1.
</event>
<event>
 5    1  0.1764318E-003  0.9118800E+02  0.7818608E-02  0.1130116E+00
         25   -1    0    0    0    0  0.00000000000E+00  0.00000000000E+00  0.99999998245E-14  0.12500000000E+03  0.12500000000E+03 0.  0.
        -13    1    3    3    0    0 -0.31228643239E+02  0.30286112641E+02  0.75221036858E+01  0.44148272734E+02  0.10566000000E+00 0. -1.
         23    2    1    0    0    0  0.21495275635E+02  0.58059320039E+01  0.39394021351E+01  0.10238861768E+03  0.99860675048E+02 0.  0.
         13    1    3    3    0    0  0.52723918874E+02 -0.24480180637E+02 -0.35827015507E+01  0.58240344950E+02  0.10566000000E+00 0.  1.
         22    1    1    0    0    0 -0.21495275635E+02 -0.58059320039E+01 -0.39394021351E+01  0.22611382316E+02  0.00000000000E+00 0.  1.
</event>
<event>
 5    1  0.1764318E-003  0.9118800E+02  0.7818608E-02  0.1130116E+00
         25   -1    0    0    0    0  0.00000000000E+00  0.00000000000E+00  0.99999998245E-14  0.12500000000E+03  0.12500000000E+03 0.  0.
        -13    1    3    3    0    0  0.42517030445E+02  0.17681927941E+02  0.34074708644E+02  0.57283901637E+02  0.10566000000E+00 0.  1.
         23    2    1    0    0    0  0.47001016171E+01  0.14567468987E+02  0.23983803799E+02  0.96547848015E+02  0.92260294839E+02 0.  0.
         13    1    3    3    0    0 -0.37816928828E+02 -0.31144589541E+01 -0.10090904845E+02  0.39263946378E+02  0.10566000000E+00 0. -1.
         22    1    1    0    0    0 -0.47001016171E+01 -0.14567468987E+02 -0.23983803799E+02  0.28452151985E+02  0.00000000000E+00 0.  1.
</event>
<event>
 5    1  0.1764318E-003  0.9118800E+02  0.7818608E-02  0.1130116E+00
         25   -1    0    0    0    0  0.00000000000E+00  0.00000000000E+00  0.99999998245E-14  0.12500000000E+03  0.12500000000E+03 0.  0.
        -13    1    3    3    0    0 -0.29490428697E+02 -0.45972402316E+02 -0.63280141691E+01  0.54983652905E+02  0.10566000000E+00 0. -1.
         23    2    1    0    0    0 -0.19466452346E+02 -0.14853779227E+02  0.17038596232E+02  0.95168954329E+02  0.90372775670E+02 0.  0.
         13    1    3    3    0    0  0.10023976352E+02  0.31118623089E+02  0.23366610401E+02  0.40185301424E+02  0.10566000000E+00 0.  1.
         22    1    1    0    0    0  0.19466452346E+02  0.14853779227E+02 -0.17038596232E+02  0.29831045671E+02  0.00000000000E+00 0. -1.
</event>
<event>
 5    1  0.1764318E-003  0.9118800E+02  0.7818608E-02  0.1130116E+00
         25   -1    0    0    0    0  0.00000000000E+00  0.00000000000E+00  0.99999998245E-14  0.12500000000E+03  0.12500000000E+03 0.  0.
        -13    1    3    3    0    0  0.34077481281E+02  0.58549669954E+01 -0.19397136198E+02  0.39646127499E+02  0.10566000000E+00 0. -1.
         23    2    1    0    0    0 -0.20756980011E+02  0.16239972213E+02 -0.12337379087E+02  0.95900174581E+02  0.91378573228E+02 0.  0.
         13    1    3    3    0    0 -0.54834461292E+02  0.10385005218E+02  0.70597571107E+01  0.56254047082E+02  0.10566000000E+00 0.  1.
         22    1    1    0    0    0  0.20756980011E+02 -0.16239972213E+02  0.12337379087E+02  0.29099825419E+02  0.00000000000E+00 0.  1.
</event>
<event>
 5    1  0.1764318E-003  0.9118800E+02  0.7818608E-02  0.1130116E+00
         25   -1    0    0    0    0  0.00000000000E+00  0.00000000000E+00  0.99999998245E-14  0.12500000000E+03  0.12500000000E+03 0.  0.
        -13    1    3    3    0    0 -0.36269405520E+02  0.33042385769E+01 -0.30948567515E+02  0.47793438510E+02  0.10566000000E+00 0.  1.
         23    2    1    0    0    0 -0.14779931352E+02 -0.24664325196E+02  0.21546748357E+01  0.96165681353E+02  0.91741050454E+02 0.  0.
         13    1    3    3    0    0  0.21489474168E+02 -0.27968563773E+02  0.33103242350E+02  0.48372242843E+02  0.10566000000E+00 0. -1.
         22    1    1    0    0    0  0.14779931352E+02  0.24664325196E+02 -0.21546748357E+01  0.28834318647E+02  0.00000000000E+00 0.  1.
</event>
<event>
 5    1  0.1764318E-003  0.9118800E+02  0.7818608E-02  0.1130116E+00
         25   -1    0    0    0    0  0.00000000000E+00  0.00000000000E+00  0.99999998245E-14  0.12500000000E+03  0.12500000000E+03 0.  0.
        -13    1    3    3    0    0  0.39531826412E+01  0.34309209407E+02 -0.44680829916E+02  0.56472446637E+02  0.10566000000E+00 0.  1.
         23    2    1    0    0    0  0.18867714732E+02  0.19975460897E+02 -0.12303653105E+02  0.94893695395E+02  0.89991243178E+02 0.  0.
         13    1    3    3    0    0  0.14914532091E+02 -0.14333748510E+02  0.32377176811E+02  0.38421248758E+02  0.10566000000E+00 0. -1.
         22    1    1    0    0    0 -0.18867714732E+02 -0.19975460897E+02  0.12303653105E+02  0.30106304605E+02  0.00000000000E+00 0.  1.
</event>
<event>
 5    1  0.1764318E-003  0.9118800E+02  0.7818608E-02  0.1130116E+00
         25   -1    0    0    0    0  0.00000000000E+00  0.00000000000E+00  0.99999998245E-14  0.12500000000E+03  0.12500000000E+03 0.  0.
        -13    1    3    3    0    0 -0.88081410996E+01 -0.49259573525E+02 -0.14325519472E+00  0.50041189231E+02  0.10566000000E+00 0.  1.
         23    2    1    0    0    0  0.12420929527E+02 -0.29933556897E+02 -0.21747971078E+02  0.85970888239E+02  0.76601057824E+02 0.  0.
         13    1    3    3    0    0  0.21229070627E+02  0.19326016628E+02 -0.21604715883E+02  0.35929699008E+02  0.10566000000E+00 0. -1.
         22    1    1    0    0    0 -0.12420929527E+02  0.29933556897E+02  0.21747971078E+02  0.39029111761E+02  0.00000000000E+00 0.  1.
</event>
<event>
 5    1  0.1764318E-003  0.9118800E+02  0.7818608E-02  0.1130116E+00
         25   -1    0    0    0    0  0.00000000000E+00  0.00000000000E+00  0.99999998245E-14  0.12500000000E+03  0.12500000000E+03 0.  0.
        -13    1    3    3    0    0  0.99506444722E+01 -0.22035352248E+02  0.24418082825E+02  0.34363148968E+02  0.10566000000E+00 0. -1.
         23    2    1    0    0    0 -0.96314306356E+01  0.11113958415E+02 -0.24384113062E+02  0.96524229641E+02  0.92228289641E+02 0.  0.
         13    1    3    3    0    0 -0.19582075108E+02  0.33149310664E+02 -0.48802195887E+02  0.62161080673E+02  0.10566000000E+00 0.  1.
         22    1    1    0    0    0  0.96314306356E+01 -0.11113958415E+02  0.24384113062E+02  0.28475770359E+02  0.00000000000E+00 0.  1.
</event>
<event>
 5    1  0.1764318E-003  0.9118800E+02  0.7818608E-02  0.1130116E+00
         25   -1    0    0    0    0  0.00000000000E+00  0.00000000000E+00  0.99999998245E-14  0.12500000000E+03  0.12500000000E+03 0.  0.
        -13    1    3    3    0    0 -0.49592055152E+02 -0.18787722009E+01  0.21905096192E+02  0.54247083999E+02  0.10566000000E+00 0.  1.
         23    2    1    0    0    0 -0.14029679970E+02  0.18135021688E+02  0.19113292202E+02  0.95149893292E+02  0.90346407360E+02 0.  0.
         13    1    3    3    0    0  0.35562375182E+02  0.20013793889E+02 -0.27918039900E+01  0.40902809292E+02  0.10566000000E+00 0. -1.
         22    1    1    0    0    0  0.14029679970E+02 -0.18135021688E+02 -0.19113292202E+02  0.29850106708E+02  0.00000000000E+00 0.  1.
</event>
<event>
 5    1  0.1764318E-003  0.9118800E+02  0.7818608E-02  0.1130116E+00
         25   -1    0    0    0    0  0.00000000000E+00  0.00000000000E+00  0.99999998245E-14  0.12500000000E+03  0.12500000000E+03 0.  0.
        -13    1    3    3    0    0 -0.23017798066E+02  0.71424263852E+01  0.26855203719E+02  0.36083880241E+02  0.10566000000E+00 0.  1.
         23    2    1    0    0    0  0.19037596855E+02  0.15415736584E+02 -0.15231847349E+02  0.96154130242E+02  0.91725310359E+02 0.  0.
         13    1    3    3    0    0  0.42055394921E+02  0.82733101989E+01 -0.42087051067E+02  0.60070250001E+02  0.10566000000E+00 0. -1.
         22    1    1    0    0    0 -0.19037596855E+02 -0.15415736584E+02  0.15231847349E+02  0.28845869758E+02  0.00000000000E+00 0. -1.
</event>
<event>
 5    1  0.1764318E-003  0.9118800E+02  0.7818608E-02  0.1130116E+00
         25   -1    0    0    0    0  0.00000000000E+00  0.00000000000E+00  0.99999998245E-14  0.12500000000E+03  0.12500000000E+03 0.  0.
        -13    1    3    3    0    0 -0.43326767021E+02 -0.42962221127E+02  0.44189596034E+01  0.61175972020E+02  0.10566000000E+00 0.  1.
         23    2    1    0    0    0 -0.16138774831E+02 -0.25604404898E+02  0.81712002345E+01  0.93650133708E+02  0.88247002368E+02 0.  0.
         13    1    3    3    0    0  0.27187992190E+02  0.17357816229E+02  0.37522406311E+01  0.32474161688E+02  0.10566000000E+00 0. -1.
         22    1    1    0    0    0  0.16138774831E+02  0.25604404898E+02 -0.81712002345E+01  0.31349866292E+02  0.00000000000E+00 0.  1.
</event>
<event>
 5    1  0.1764318E-003  0.9118800E+02  0.7818608E-02  0.1130116E+00
         25   -1    0    0    0    0  0.00000000000E+00  0.00000000000E+00  0.99999998245E-14  0.12500000000E+03  0.12500000000E+03 0.  0.
        -13    1    3    3    0    0 -0.21571377787E+02 -0.10786765648E+02 -0.10308729298E+02  0.26228986190E+02  0.10566000000E+00 0.  1.
         23    2    1    0    0    0  0.42785052628E+00  0.25094477641E+02  0.30940026144E+02  0.85160307708E+02  0.75266705302E+02 0.  0.
         13    1    3    3    0    0  0.21999228314E+02  0.35881243289E+02  0.41248755442E+02  0.58931321518E+02  0.10566000000E+00 0. -1.
         22    1    1    0    0    0 -0.42785052628E+00 -0.25094477641E+02 -0.30940026144E+02  0.39839692292E+02  0.00000000000E+00 0. -1.
</event>
<event>
 5    1  0.1764318E-003  0.9118800E+02  0.7818608E-02  0.1130116E+00
         25   -1    0    0    0    0  0.00000000000E+00  0.00000000000E+00  0.99999998245E-14  0.12500000000E+03  0.12500000000E+03 0.  0.
        -13    1    3    3    0    0  0.25313164185E+02  0.33668809857E+02 -0.79337376724E+01  0.42863742204E+02  0.10566000000E+00 0.  1.
         23    2    1    0    0    0 -0.12357780403E+02  0.13316251199E+02  0.23003104523E+02  0.95688225913E+02  0.91088179684E+02 0.  0.
         13    1    3    3    0    0 -0.37670944587E+02 -0.20352558658E+02  0.30936842195E+02  0.52824483709E+02  0.10566000000E+00 0. -1.
         22    1    1    0    0    0  0.12357780403E+02 -0.13316251199E+02 -0.23003104523E+02  0.29311774087E+02  0.00000000000E+00 0. -1.
</event>
<event>
 5    1  0.1764318E-003  0.9118800E+02  0.7818608E-02  0.1130116E+00
         25   -1    0    0    0    0  0.00000000000E+00  0.00000000000E+00  0.99999998245E-14  0.12500000000E+03  0.12500000000E+03 0.  0.
        -13    1    3    3    0    0  0.44161836270E+02 -0.11687719793E+02  0.26679104287E+01  0.45760239147E+02  0.10566000000E+00 0. -1.
         23    2    1    0    0    0 -0.40706116158E+01  0.49144984082E+01  0.23342678339E+02  0.10080076849E+03  0.97852910651E+02 0.  0.
         13    1    3    3    0    0 -0.48232447886E+02  0.16602218202E+02  0.20674767911E+02  0.55040529344E+02  0.10566000000E+00 0.  1.
         22    1    1    0    0    0  0.40706116158E+01 -0.49144984082E+01 -0.23342678339E+02  0.24199231508E+02  0.00000000000E+00 0.  1.
</event>
<event>
 5    1  0.1764318E-003  0.9118800E+02  0.7818608E-02  0.1130116E+00
         25   -1    0    0    0    0  0.00000000000E+00  0.00000000000E+00  0.99999998245E-14  0.12500000000E+03  0.12500000000E+03 0.  0.
        -13    1    3    3    0    0 -0.25070531486E+01  0.20124505486E+02 -0.34253031318E+02  0.39806561709E+02  0.10566000000E+00 0.  1.
         23    2    1    0    0    0  0.17340348831E+02  0.91783267990E+01  0.19003528710E+02  0.97685837303E+02  0.93789441440E+02 0.  0.
         13    1    3    3    0    0  0.19847401980E+02 -0.10946178687E+02  0.53256560028E+02  0.57879275594E+02  0.10566000000E+00 0. -1.
         22    1    1    0    0    0 -0.17340348831E+02 -0.91783267990E+01 -0.19003528710E+02  0.27314162697E+02  0.00000000000E+00 0. -1.
</event>
<event>
 5    1  0.1764318E-003  0.9118800E+02  0.7818608E-02  0.1130116E+00
         25   -1    0    0    0    0  0.00000000000E+00  0.00000000000E+00  0.99999998245E-14  0.12500000000E+03  0.12500000000E+03 0.  0.
        -13    1    3    3    0    0  0.35799846216E+02  0.12310013949E+02 -0.34661432552E+02  0.51328271967E+02  0.10566000000E+00 0. -1.
         23    2    1    0    0    0  0.23192991651E+02 -0.17015690708E+02 -0.33536706199E+01  0.96039756586E+02  0.91569313345E+02 0.  0.
         13    1    3    3    0    0 -0.12606854565E+02 -0.29325704657E+02  0.31307761932E+02  0.44711484619E+02  0.10566000000E+00 0.  1.
         22    1    1    0    0    0 -0.23192991651E+02  0.17015690708E+02  0.33536706199E+01  0.28960243414E+02  0.00000000000E+00 0. -1.
</event>
<event>
 5    1  0.1764318E-003  0.9118800E+02  0.7818608E-02  0.1130116E+00
         25   -1    0    0    0    0  0.00000000000E+00  0.00000000000E+00  0.99999998245E-14  0.12500000000E+03  0.12500000000E+03 0.  0.
        -13    1    3    3    0    0 -0.13081665757E+02  0.36854094509E+02 -0.10353364143E+02  0.40454388812E+02  0.10566000000E+00 0.  1.
         23    2    1    0    0    0  0.24995363989E+02  0.88815067831E+01  0.15463619773E+02  0.94295392526E+02  0.89156312909E+02 0.  0.
         13    1    3    3    0    0  0.38077029746E+02 -0.27972587726E+02  0.25816983916E+02  0.53841003714E+02  0.10566000000E+00 0. -1.
         22    1    1    0    0    0 -0.24995363989E+02 -0.88815067831E+01 -0.15463619773E+02  0.30704607474E+02  0.00000000000E+00 0. -1.
</event>
<event>
 5    1  0.1764318E-003  0.9118800E+02  0.7818608E-02  0.1130116E+00
         25   -1    0    0    0    0  0.00000000000E+00  0.00000000000E+00  0.99999998245E-14  0.12500000000E+03  0.12500000000E+03 0.  0.
        -13    1    3    3    0    0 -0.23678425379E+02  0.29241001675E+02 -0.10387173807E+02  0.39033428636E+02  0.10566000000E+00 0.  1.
         23    2    1    0    0    0 -0.58547191099E+01 -0.18405308031E+02 -0.26331359313E+02  0.92344623982E+02  0.86377983280E+02 0.  0.
         13    1    3    3    0    0  0.17823706269E+02 -0.47646309706E+02 -0.15944185506E+02  0.53311195346E+02  0.10566000000E+00 0. -1.
         22    1    1    0    0    0  0.58547191099E+01  0.18405308031E+02  0.26331359313E+02  0.32655376018E+02  0.00000000000E+00 0. -1.
</event>
<event>
 5    1  0.1764318E-003  0.9118800E+02  0.7818608E-02  0.1130116E+00
         25   -1    0    0    0    0  0.00000000000E+00  0.00000000000E+00  0.99999998245E-14  0.12500000000E+03  0.12500000000E+03 0.  0.
        -13    1    3    3    0    0 -0.31953717823E+02  0.39319078779E+02 -0.29956530539E+02  0.58859450598E+02  0.10566000000E+00 0.  1.
         23    2    1    0    0    0 -0.26457590224E+02  0.10338637736E+02 -0.84515833878E+01  0.95363522942E+02  0.90641495660E+02 0.  0.
         13    1    3    3    0    0  0.54961275993E+01 -0.28980441043E+02  0.21504947151E+02  0.36504072344E+02  0.10566000000E+00 0. -1.
         22    1    1    0    0    0  0.26457590224E+02 -0.10338637736E+02  0.84515833878E+01  0.29636477058E+02  0.00000000000E+00 0.  1.
</event>
<event>
 5    1  0.1764318E-003  0.9118800E+02  0.7818608E-02  0.1130116E+00
         25   -1    0    0    0    0  0.00000000000E+00  0.00000000000E+00  0.99999998245E-14  0.12500000000E+03  0.12500000000E+03 0.  0.
        -13    1    3    3    0    0  0.50797024951E+02 -0.10525273251E+02 -0.21021138276E+02  0.55973373485E+02  0.10566000000E+00 0.  1.
         23    2    1    0    0    0  0.10383477011E+02 -0.10008573231E+02 -0.24532343677E+02  0.96542592893E+02  0.92253174598E+02 0.  0.
         13    1    3    3    0    0 -0.40413547940E+02  0.51670001992E+00 -0.35112054002E+01  0.40569219408E+02  0.10566000000E+00 0. -1.
         22    1    1    0    0    0 -0.10383477011E+02  0.10008573231E+02  0.24532343677E+02  0.28457407107E+02  0.00000000000E+00 0.  1.
</event>
<event>
 5    1  0.1764318E-003  0.9118800E+02  0.7818608E-02  0.1130116E+00
         25   -1    0    0    0    0  0.00000000000E+00  0.00000000000E+00  0.99999998245E-14  0.12500000000E+03  0.12500000000E+03 0.  0.
        -13    1    3    3    0    0  0.24722625159E+02 -0.24004950143E+02 -0.19213416034E+02  0.39453926875E+02  0.10566000000E+00 0. -1.
         23    2    1    0    0    0 -0.13426499660E+02  0.17277935459E+02 -0.19537425562E+02  0.95665567256E+02  0.91057079977E+02 0.  0.
         13    1    3    3    0    0 -0.38149124820E+02  0.41282885602E+02 -0.32400952795E+00  0.56211640381E+02  0.10566000000E+00 0.  1.
         22    1    1    0    0    0  0.13426499660E+02 -0.17277935459E+02  0.19537425562E+02  0.29334432744E+02  0.00000000000E+00 0.  1.
</event>
<event>
 5    1  0.1764318E-003  0.9118800E+02  0.7818608E-02  0.1130116E+00
         25   -1    0    0    0    0  0.00000000000E+00  0.00000000000E+00  0.99999998245E-14  0.12500000000E+03  0.12500000000E+03 0.  0.
        -13    1    3    3    0    0  0.12931042863E+02  0.32911596515E+02  0.12417346488E+02  0.37477816272E+02  0.10566000000E+00 0.  1.
         23    2    1    0    0    0 -0.25566843152E+02 -0.51094721841E+01 -0.11335403054E+02  0.96570059143E+02  0.92290382954E+02 0.  0.
         13    1    3    3    0    0 -0.38497886015E+02 -0.38021068699E+02 -0.23752749542E+02  0.59092242871E+02  0.10566000000E+00 0. -1.
         22    1    1    0    0    0  0.25566843152E+02  0.51094721841E+01  0.11335403054E+02  0.28429940857E+02  0.00000000000E+00 0. -1.
</event>
<event>
 5    1  0.1764318E-003  0.9118800E+02  0.7818608E-02  0.1130116E+00
         25   -1    0    0    0    0  0.00000000000E+00  0.00000000000E+00  0.99999998245E-14  0.12500000000E+03  0.12500000000E+03 0.  0.
        -13    1    3    3    0    0  0.17202412952E+02  0.31346325374E+02 -0.24214762375E+02  0.43184268047E+02  0.10566000000E+00 0. -1.
         23    2    1    0    0    0 -0.25130983840E+02  0.39108644736E+01 -0.17618837419E+02  0.94059983166E+02  0.88825648275E+02 0.  0.
         13    1    3    3    0    0 -0.42333396792E+02 -0.27435460901E+02  0.65959249559E+01  0.50875715119E+02  0.10566000000E+00 0.  1.
         22    1    1    0    0    0  0.25130983840E+02 -0.39108644736E+01  0.17618837419E+02  0.30940016834E+02  0.00000000000E+00 0.  1.
</event>
<event>
 5    1  0.1764318E-003  0.9118800E+02  0.7818608E-02  0.1130116E+00
         25   -1    0    0    0    0  0.00000000000E+00  0.00000000000E+00  0.99999998245E-14  0.12500000000E+03  0.12500000000E+03 0.  0.
        -13    1    3    3    0    0 -0.34333622001E+02 -0.13467970084E+02 -0.24128181855E+01  0.36959662790E+02  0.10566000000E+00 0.  1.
         23    2    1    0    0    0  0.11487755453E+02  0.23783130418E+02 -0.10526427720E+02  0.96567421883E+02  0.92286810926E+02 0.  0.
         13    1    3    3    0    0  0.45821377454E+02  0.37251100502E+02 -0.81136095343E+01  0.59607759094E+02  0.10566000000E+00 0. -1.
         22    1    1    0    0    0 -0.11487755453E+02 -0.23783130418E+02  0.10526427720E+02  0.28432578117E+02  0.00000000000E+00 0. -1.
</event>
<event>
 5    1  0.1764318E-003  0.9118800E+02  0.7818608E-02  0.1130116E+00
         25   -1    0    0    0    0  0.00000000000E+00  0.00000000000E+00  0.99999998245E-14  0.12500000000E+03  0.12500000000E+03 0.  0.
        -13    1    3    3    0    0  0.32994100674E+02 -0.25455806785E+02 -0.38372581377E+01  0.41849067999E+02  0.10566000000E+00 0.  1.
         23    2    1    0    0    0 -0.13677826378E+02 -0.28617108259E+02  0.11778679581E+02  0.91165710999E+02  0.84654756214E+02 0.  0.
         13    1    3    3    0    0 -0.46671927053E+02 -0.31613014744E+01  0.15615937719E+02  0.49316642999E+02  0.10566000000E+00 0. -1.
         22    1    1    0    0    0  0.13677826378E+02  0.28617108259E+02 -0.11778679581E+02  0.33834289001E+02  0.00000000000E+00 0.  1.
</event>
<event>
 5    1  0.1764318E-003  0.9118800E+02  0.7818608E-02  0.1130116E+00
         25   -1    0    0    0    0  0.00000000000E+00  0.00000000000E+00  0.99999998245E-14  0.12500000000E+03  0.12500000000E+03 0.  0.
        -13    1    3    3    0    0 -0.29448558617E+02 -0.41831659641E+02  0.16839724834E+01  0.51185469425E+02  0.10566000000E+00 0. -1.
         23    2    1    0    0    0 -0.22191784144E+02 -0.80962533277E-02  0.17760319988E+02  0.96576342334E+02  0.92298892645E+02 0.  0.
         13    1    3    3    0    0  0.72567744725E+01  0.41823563388E+02  0.16076347505E+02  0.45390872908E+02  0.10566000000E+00 0.  1.
         22    1    1    0    0    0  0.22191784144E+02  0.80962533277E-02 -0.17760319988E+02  0.28423657666E+02  0.00000000000E+00 0. -1.
</event>
<event>
 5    1  0.1764318E-003  0.9118800E+02  0.7818608E-02  0.1130116E+00
         25   -1    0    0    0    0  0.00000000000E+00  0.00000000000E+00  0.99999998245E-14  0.12500000000E+03  0.12500000000E+03 0.  0.
        -13    1    3    3    0    0  0.18664522330E+02 -0.52299446503E+02 -0.15034420669E+02  0.57529483460E+02  0.10566000000E+00 0. -1.
         23    2    1    0    0    0  0.21067794087E+02 -0.17106727451E+02  0.39292428142E+01  0.97578639333E+02  0.93646461936E+02 0.  0.
         13    1    3    3    0    0  0.24032717567E+01  0.35192719051E+02  0.18963663483E+02  0.40049155873E+02  0.10566000000E+00 0.  1.
         22    1    1    0    0    0 -0.21067794087E+02  0.17106727451E+02 -0.39292428142E+01  0.27421360667E+02  0.00000000000E+00 0.  1.
</event>
<event>
 5    1  0.1764318E-003  0.9118800E+02  0.7818608E-02  0.1130116E+00
         25   -1    0    0    0    0  0.00000000000E+00  0.00000000000E+00  0.99999998245E-14  0.12500000000E+03  0.12500000000E+03 0.  0.
        -13    1    3    3    0    0 -0.24982548299E+02  0.10151584482E+02  0.28361571050E+02  0.39135307121E+02  0.10566000000E+00 0.  1.
         23    2    1    0    0    0 -0.27270103654E+01  0.99868186318E+01 -0.25534897841E+02  0.97446340721E+02  0.93469701937E+02 0.  0.
         13    1    3    3    0    0  0.22255537933E+02 -0.16476585046E+00 -0.53896468891E+02  0.58311033600E+02  0.10566000000E+00 0. -1.
         22    1    1    0    0    0  0.27270103654E+01 -0.99868186318E+01  0.25534897841E+02  0.27553659279E+02  0.00000000000E+00 0. -1.
</event>
<event>
 5    1  0.1764318E-003  0.9118800E+02  0.7818608E-02  0.1130116E+00
         25   -1    0    0    0    0  0.00000000000E+00  0.00000000000E+00  0.99999998245E-14  0.12500000000E+03  0.12500000000E+03 0.  0.
        -13    1    3    3    0    0 -0.54777787178E+01  0.50415850932E+02  0.18793676184E+01  0.50747485372E+02  0.10566000000E+00 0.  1.
         23    2    1    0    0    0  0.64604573074E+01  0.14937055650E+02 -0.23818214854E+02  0.96152807781E+02  0.91723508138E+02 0.  0.
         13    1    3    3    0    0  0.11938236025E+02 -0.35478795282E+02 -0.25697582472E+02  0.45405322408E+02  0.10566000000E+00 0. -1.
         22    1    1    0    0    0 -0.64604573074E+01 -0.14937055650E+02  0.23818214854E+02  0.28847192219E+02  0.00000000000E+00 0.  1.
</event>
<event>
 5    1  0.1764318E-003  0.9118800E+02  0.7818608E-02  0.1130116E+00
         25   -1    0    0    0    0  0.00000000000E+00  0.00000000000E+00  0.99999998245E-14  0.12500000000E+03  0.12500000000E+03 0.  0.
        -13    1    3    3    0    0 -0.51071152154E+02 -0.15607216540E+02 -0.18153371771E+02  0.56403934802E+02  0.10566000000E+00 0. -1.
         23    2    1    0    0    0 -0.30691811641E+02 -0.51075562273E+01  0.96349812927E+01  0.92428428086E+02  0.86499173531E+02 0.  0.
         13    1    3    3    0    0  0.20379340512E+02  0.10499660313E+02  0.27788353063E+02  0.36024493284E+02  0.10566000000E+00 0.  1.
         22    1    1    0    0    0  0.30691811641E+02  0.51075562273E+01 -0.96349812927E+01  0.32571571914E+02  0.00000000000E+00 0. -1.
</event>
<event>
 5    1  0.1764318E-003  0.9118800E+02  0.7818608E-02  0.1130116E+00
         25   -1    0    0    0    0  0.00000000000E+00  0.00000000000E+00  0.99999998245E-14  0.12500000000E+03  0.12500000000E+03 0.  0.
        -13    1    3    3    0    0 -0.13092567959E+02 -0.39011767408E+01 -0.34184091653E+02  0.36813011313E+02  0.10566000000E+00 0. -1.
         23    2    1    0    0    0  0.13954815903E+02 -0.21851849301E+02  0.14474095032E+02  0.95305899041E+02  0.90561994016E+02 0.  0.
         13    1    3    3    0    0  0.27047383862E+02 -0.17950672561E+02  0.48658186686E+02  0.58492887728E+02  0.10566000000E+00 0.  1.
         22    1    1    0    0    0 -0.13954815903E+02  0.21851849301E+02 -0.14474095032E+02  0.29694100959E+02  0.00000000000E+00 0.  1.
</event>
<event>
 5    1  0.1764318E-003  0.9118800E+02  0.7818608E-02  0.1130116E+00
         25   -1    0    0    0    0  0.00000000000E+00  0.00000000000E+00  0.99999998245E-14  0.12500000000E+03  0.12500000000E+03 0.  0.
        -13    1    3    3    0    0  0.20162502611E+02 -0.29668534169E+02  0.10416505713E+01  0.35886552233E+02  0.10566000000E+00 0.  1.
         23    2    1    0    0    0  0.52109949599E+01  0.28057830016E+02  0.63851027209E+01  0.95756781462E+02  0.91182209699E+02 0.  0.
         13    1    3    3    0    0 -0.14951507651E+02  0.57726364185E+02  0.53434521497E+01  0.59870229229E+02  0.10566000000E+00 0. -1.
         22    1    1    0    0    0 -0.52109949599E+01 -0.28057830016E+02 -0.63851027209E+01  0.29243218538E+02  0.00000000000E+00 0. -1.
</event>
<event>
 5    1  0.1764318E-003  0.9118800E+02  0.7818608E-02  0.1130116E+00
         25   -1    0    0    0    0  0.00000000000E+00  0.00000000000E+00  0.99999998245E-14  0.12500000000E+03  0.12500000000E+03 0.  0.
        -13    1    3    3    0    0 -0.15234385855E+02 -0.17951849002E+02 -0.50456673114E+02  0.55679820588E+02  0.10566000000E+00 0. -1.
         23    2    1    0    0    0 -0.22477024483E+02 -0.51172722622E+01 -0.80364707557E+01  0.10058713521E+03  0.97579628010E+02 0.  0.
         13    1    3    3    0    0 -0.72426386284E+01  0.12834576740E+02  0.42420202359E+02  0.44907314622E+02  0.10566000000E+00 0.  1.
         22    1    1    0    0    0  0.22477024483E+02  0.51172722622E+01  0.80364707557E+01  0.24412864789E+02  0.00000000000E+00 0. -1.
</event>
<event>
 5    1  0.1764318E-003  0.9118800E+02  0.7818608E-02  0.1130116E+00
         25   -1    0    0    0    0  0.00000000000E+00  0.00000000000E+00  0.99999998245E-14  0.12500000000E+03  0.12500000000E+03 0.  0.
        -13    1    3    3    0    0 -0.21853365194E+02 -0.43398597054E+02 -0.18814773529E+02  0.52105802590E+02  0.10566000000E+00 0. -1.
         23    2    1    0    0    0 -0.20907500930E+02 -0.14943396694E+02  0.14149641744E+02  0.95663315433E+02  0.91053988700E+02 0.  0.
         13    1    3    3    0    0  0.94586426417E+00  0.28455200359E+02  0.32964415273E+02  0.43557512843E+02  0.10566000000E+00 0.  1.
         22    1    1    0    0    0  0.20907500930E+02  0.14943396694E+02 -0.14149641744E+02  0.29336684567E+02  0.00000000000E+00 0. -1.
</event>
<event>
 5    1  0.1764318E-003  0.9118800E+02  0.7818608E-02  0.1130116E+00
         25   -1    0    0    0    0  0.00000000000E+00  0.00000000000E+00  0.99999998245E-14  0.12500000000E+03  0.12500000000E+03 0.  0.
        -13    1    3    3    0    0  0.10674722814E+02 -0.23113628839E+02 -0.30648107075E+02  0.39843533686E+02  0.10566000000E+00 0.  1.
         23    2    1    0    0    0 -0.26804057960E+02  0.88849411003E+01 -0.23666100546E+01  0.96662735759E+02  0.92415820831E+02 0.  0.
         13    1    3    3    0    0 -0.37478780774E+02  0.31998569940E+02  0.28281497020E+02  0.56819202073E+02  0.10566000000E+00 0. -1.
         22    1    1    0    0    0  0.26804057960E+02 -0.88849411003E+01  0.23666100546E+01  0.28337264241E+02  0.00000000000E+00 0. -1.
</event>
<event>
 5    1  0.1764318E-003  0.9118800E+02  0.7818608E-02  0.1130116E+00
         25   -1    0    0    0    0  0.00000000000E+00  0.00000000000E+00  0.99999998245E-14  0.12500000000E+03  0.12500000000E+03 0.  0.
        -13    1    3    3    0    0  0.38837402570E+01 -0.27917677483E+02 -0.30891957856E+02  0.41818708477E+02  0.10566000000E+00 0. -1.
         23    2    1    0    0    0 -0.32650213431E+02 -0.67957476249E+01 -0.51390698886E+01  0.91256427839E+02  0.84788601591E+02 0.  0.
         13    1    3    3    0    0 -0.36533953688E+02  0.21121929858E+02  0.25752887967E+02  0.49437719362E+02  0.10566000000E+00 0.  1.
         22    1    1    0    0    0  0.32650213431E+02  0.67957476249E+01  0.51390698886E+01  0.33743572161E+02  0.00000000000E+00 0.  1.
</event>
<event>
 5    1  0.1764318E-003  0.9118800E+02  0.7818608E-02  0.1130116E+00
         25   -1    0    0    0    0  0.00000000000E+00  0.00000000000E+00  0.99999998245E-14  0.12500000000E+03  0.12500000000E+03 0.  0.
        -13    1    3    3    0    0  0.54501166575E+02  0.27003633273E+02 -0.14782096270E+01  0.60842169880E+02  0.10566000000E+00 0.  1.
         23    2    1    0    0    0  0.30093154931E+02  0.37855395193E+01 -0.26839639080E+01  0.94551158553E+02  0.89514186799E+02 0.  0.
         13    1    3    3    0    0 -0.24408011643E+02 -0.23218093754E+02 -0.12057542810E+01  0.33708988673E+02  0.10566000000E+00 0. -1.
         22    1    1    0    0    0 -0.30093154931E+02 -0.37855395193E+01  0.26839639080E+01  0.30448841447E+02  0.00000000000E+00 0.  1.
</event>
<event>
 5    1  0.1764318E-003  0.9118800E+02  0.7818608E-02  0.1130116E+00
         25   -1    0    0    0    0  0.00000000000E+00  0.00000000000E+00  0.99999998245E-14  0.12500000000E+03  0.12500000000E+03 0.  0.
        -13    1    3    3    0    0  0.10143010146E+02  0.27655469685E+02  0.31247577550E+02  0.42943310598E+02  0.10566000000E+00 0.  1.
         23    2    1    0    0    0 -0.21874044953E+01 -0.22964331509E+02  0.45427914253E+01  0.10148867902E+03  0.98727755754E+02 0.  0.
         13    1    3    3    0    0 -0.12330414641E+02 -0.50619801194E+02 -0.26704786125E+02  0.58545368426E+02  0.10566000000E+00 0. -1.
         22    1    1    0    0    0  0.21874044953E+01  0.22964331509E+02 -0.45427914253E+01  0.23511320975E+02  0.00000000000E+00 0. -1.
</event>
<event>
 5    1  0.1764318E-003  0.9118800E+02  0.7818608E-02  0.1130116E+00
         25   -1    0    0    0    0  0.00000000000E+00  0.00000000000E+00  0.99999998245E-14  0.12500000000E+03  0.12500000000E+03 0.  0.
        -13    1    3    3    0    0  0.26792180724E+02  0.34198138827E+01 -0.30122405868E+02  0.40458454917E+02  0.10566000000E+00 0.  1.
         23    2    1    0    0    0 -0.12959104152E+02  0.24913528400E+02  0.33827498054E+01  0.96714574884E+02  0.92485910933E+02 0.  0.
         13    1    3    3    0    0 -0.39751284876E+02  0.21493714517E+02  0.33505155673E+02  0.56256119967E+02  0.10566000000E+00 0. -1.
         22    1    1    0    0    0  0.12959104152E+02 -0.24913528400E+02 -0.33827498054E+01  0.28285425116E+02  0.00000000000E+00 0. -1.
</event>
<event>
 5    1  0.1764318E-003  0.9118800E+02  0.7818608E-02  0.1130116E+00
         25   -1    0    0    0    0  0.00000000000E+00  0.00000000000E+00  0.99999998245E-14  0.12500000000E+03  0.12500000000E+03 0.  0.
        -13    1    3    3    0    0  0.41861043526E+02  0.35131690095E+02  0.54510672620E+00  0.54652455750E+02  0.10566000000E+00 0.  1.
         23    2    1    0    0    0  0.48466786982E+01 -0.92665454944E+01  0.63799439083E+01  0.11274998596E+03  0.11208254319E+03 0.  0.
         13    1    3    3    0    0 -0.37014364828E+02 -0.44398235590E+02  0.58348371821E+01  0.58097530207E+02  0.10566000000E+00 0. -1.
         22    1    1    0    0    0 -0.48466786982E+01  0.92665454944E+01 -0.63799439083E+01  0.12250014044E+02  0.00000000000E+00 0. -1.
</event>
<event>
 5    1  0.1764318E-003  0.9118800E+02  0.7818608E-02  0.1130116E+00
         25   -1    0    0    0    0  0.00000000000E+00  0.00000000000E+00  0.99999998245E-14  0.12500000000E+03  0.12500000000E+03 0.  0.
        -13    1    3    3    0    0  0.23131561329E+02  0.12153725718E+02 -0.49601496445E+02  0.56063372999E+02  0.10566000000E+00 0. -1.
         23    2    1    0    0    0  0.27445194707E+02  0.12693263377E+00 -0.13391340804E+02  0.94461780783E+02  0.89389290163E+02 0.  0.
         13    1    3    3    0    0  0.43136333777E+01 -0.12026793084E+02  0.36210155641E+02  0.38398407785E+02  0.10566000000E+00 0.  1.
         22    1    1    0    0    0 -0.27445194707E+02 -0.12693263377E+00  0.13391340804E+02  0.30538219217E+02  0.00000000000E+00 0. -1.
</event>
<event>
 5    1  0.1764318E-003  0.9118800E+02  0.7818608E-02  0.1130116E+00
         25   -1    0    0    0    0  0.00000000000E+00  0.00000000000E+00  0.99999998245E-14  0.12500000000E+03  0.12500000000E+03 0.  0.
        -13    1    3    3    0    0  0.62157794397E+01  0.50546634875E+01 -0.59570909457E+02  0.60107320308E+02  0.10566000000E+00 0. -1.
         23    2    1    0    0    0 -0.43628678146E+01 -0.75298792417E+01 -0.27643833868E+02  0.96018708658E+02  0.91540576601E+02 0.  0.
         13    1    3    3    0    0 -0.10578647254E+02 -0.12584542729E+02  0.31927075590E+02  0.35911388349E+02  0.10566000000E+00 0.  1.
         22    1    1    0    0    0  0.43628678146E+01  0.75298792417E+01  0.27643833868E+02  0.28981291342E+02  0.00000000000E+00 0. -1.
</event>
<event>
 5    1  0.1764318E-003  0.9118800E+02  0.7818608E-02  0.1130116E+00
         25   -1    0    0    0    0  0.00000000000E+00  0.00000000000E+00  0.99999998245E-14  0.12500000000E+03  0.12500000000E+03 0.  0.
        -13    1    3    3    0    0 -0.34972913231E+02  0.20173125148E+02 -0.43211427228E+02  0.59137959427E+02  0.10566000000E+00 0.  1.
         23    2    1    0    0    0 -0.22878283289E+02  0.18316006340E+02 -0.10827076182E+02  0.93757120601E+02  0.88398417125E+02 0.  0.
         13    1    3    3    0    0  0.12094629943E+02 -0.18571188077E+01  0.32384351045E+02  0.34619161174E+02  0.10566000000E+00 0. -1.
         22    1    1    0    0    0  0.22878283289E+02 -0.18316006340E+02  0.10827076182E+02  0.31242879399E+02  0.00000000000E+00 0.  1.
</event>
<event>
 5    1  0.1764318E-003  0.9118800E+02  0.7818608E-02  0.1130116E+00
         25   -1    0    0    0    0  0.00000000000E+00  0.00000000000E+00  0.99999998245E-14  0.12500000000E+03  0.12500000000E+03 0.  0.
        -13    1    3    3    0    0 -0.27626067921E+02  0.47131606735E+01  0.33656219080E+02  0.43796869284E+02  0.10566000000E+00 0.  1.
         23    2    1    0    0    0  0.10289899321E+01  0.30596439041E+02  0.99776358316E+00  0.94370007600E+02  0.89260864324E+02 0.  0.
         13    1    3    3    0    0  0.28655057853E+02  0.25883278368E+02 -0.32658455497E+02  0.50573138316E+02  0.10566000000E+00 0. -1.
         22    1    1    0    0    0 -0.10289899321E+01 -0.30596439041E+02 -0.99776358316E+00  0.30629992400E+02  0.00000000000E+00 0. -1.
</event>
<event>
 5    1  0.1764318E-003  0.9118800E+02  0.7818608E-02  0.1130116E+00
         25   -1    0    0    0    0  0.00000000000E+00  0.00000000000E+00  0.99999998245E-14  0.12500000000E+03  0.12500000000E+03 0.  0.
        -13    1    3    3    0    0 -0.19073744847E+02  0.22425490246E+02 -0.50738205614E+02  0.58660779301E+02  0.10566000000E+00 0. -1.
         23    2    1    0    0    0  0.42382549419E+01  0.50493025164E+01 -0.29770891945E+02  0.94507963858E+02  0.89453848238E+02 0.  0.
         13    1    3    3    0    0  0.23311999789E+02 -0.17376187729E+02  0.20967313669E+02  0.35847184557E+02  0.10566000000E+00 0.  1.
         22    1    1    0    0    0 -0.42382549419E+01 -0.50493025164E+01  0.29770891945E+02  0.30492036142E+02  0.00000000000E+00 0. -1.
</event>
<event>
 5    1  0.1764318E-003  0.9118800E+02  0.7818608E-02  0.1130116E+00
         25   -1    0    0    0    0  0.00000000000E+00  0.00000000000E+00  0.99999998245E-14  0.12500000000E+03  0.12500000000E+03 0.  0.
        -13    1    3    3    0    0 -0.11262666248E+02 -0.66533753721E+01  0.40696427084E+02  0.42747226767E+02  0.10566000000E+00 0.  1.
         23    2    1    0    0    0  0.28641374120E+02  0.56545758975E+01  0.11894632629E+02  0.93475647105E+02  0.87999498727E+02 0.  0.
         13    1    3    3    0    0  0.39904040368E+02  0.12307951270E+02 -0.28801794455E+02  0.50728420338E+02  0.10566000000E+00 0. -1.
         22    1    1    0    0    0 -0.28641374120E+02 -0.56545758975E+01 -0.11894632629E+02  0.31524352895E+02  0.00000000000E+00 0.  1.
</event>
<event>
 5    1  0.1764318E-003  0.9118800E+02  0.7818608E-02  0.1130116E+00
         25   -1    0    0    0    0  0.00000000000E+00  0.00000000000E+00  0.99999998245E-14  0.12500000000E+03  0.12500000000E+03 0.  0.
        -13    1    3    3    0    0  0.17551165154E+02  0.37352174926E+02  0.24630344876E+02  0.48061350613E+02  0.10566000000E+00 0.  1.
         23    2    1    0    0    0 -0.19873279197E+02  0.22993340214E+02  0.10013511546E+01  0.94592046692E+02  0.89571265889E+02 0.  0.
         13    1    3    3    0    0 -0.37424444351E+02 -0.14358834712E+02 -0.23628993722E+02  0.46530696079E+02  0.10566000000E+00 0. -1.
         22    1    1    0    0    0  0.19873279197E+02 -0.22993340214E+02 -0.10013511546E+01  0.30407953308E+02  0.00000000000E+00 0.  1.
</event>
<event>
 5    1  0.1764318E-003  0.9118800E+02  0.7818608E-02  0.1130116E+00
         25   -1    0    0    0    0  0.00000000000E+00  0.00000000000E+00  0.99999998245E-14  0.12500000000E+03  0.12500000000E+03 0.  0.
        -13    1    3    3    0    0  0.27712254242E+02 -0.18313329004E+02 -0.19384650605E+02  0.38459366837E+02  0.10566000000E+00 0.  1.
         23    2    1    0    0    0 -0.19956158135E+02  0.14362557613E+01  0.14589514102E+02  0.10023783128E+03  0.97131137229E+02 0.  0.
         13    1    3    3    0    0 -0.47668412377E+02  0.19749584765E+02  0.33974164708E+02  0.61778464440E+02  0.10566000000E+00 0. -1.
         22    1    1    0    0    0  0.19956158135E+02 -0.14362557613E+01 -0.14589514102E+02  0.24762168723E+02  0.00000000000E+00 0. -1.
</event>
<event>
 5    1  0.1764318E-003  0.9118800E+02  0.7818608E-02  0.1130116E+00
         25   -1    0    0    0    0  0.00000000000E+00  0.00000000000E+00  0.99999998245E-14  0.12500000000E+03  0.12500000000E+03 0.  0.
        -13    1    3    3    0    0 -0.40027535329E+01  0.79277549227E+01 -0.39929798980E+02  0.40905639520E+02  0.10566000000E+00 0.  1.
         23    2    1    0    0    0 -0.12574738982E+02 -0.45716481595E+01  0.19004597821E+02  0.10175782356E+03  0.99067935730E+02 0.  0.
         13    1    3    3    0    0 -0.85719854494E+01 -0.12499403082E+02  0.58934396801E+02  0.60852184039E+02  0.10566000000E+00 0. -1.
         22    1    1    0    0    0  0.12574738982E+02  0.45716481595E+01 -0.19004597821E+02  0.23242176441E+02  0.00000000000E+00 0. -1.
</event>
<event>
 5    1  0.1764318E-003  0.9118800E+02  0.7818608E-02  0.1130116E+00
         25   -1    0    0    0    0  0.00000000000E+00  0.00000000000E+00  0.99999998245E-14  0.12500000000E+03  0.12500000000E+03 0.  0.
        -13    1    3    3    0    0 -0.16082049214E+02 -0.19820381695E+02  0.53471578910E+02  0.59251166678E+02  0.10566000000E+00 0. -1.
         23    2    1    0    0    0  0.33951726381E+01 -0.18418570647E+02  0.26473855389E+02  0.92571062905E+02  0.86705050178E+02 0.  0.
         13    1    3    3    0    0  0.19477221852E+02  0.14018110488E+01 -0.26997723521E+02  0.33319896228E+02  0.10566000000E+00 0.  1.
         22    1    1    0    0    0 -0.33951726381E+01  0.18418570647E+02 -0.26473855389E+02  0.32428937095E+02  0.00000000000E+00 0. -1.
</event>
<event>
 5    1  0.1764318E-003  0.9118800E+02  0.7818608E-02  0.1130116E+00
         25   -1    0    0    0    0  0.00000000000E+00  0.00000000000E+00  0.99999998245E-14  0.12500000000E+03  0.12500000000E+03 0.  0.
        -13    1    3    3    0    0 -0.28740357296E+02  0.27971181675E+01  0.36167315786E+02  0.46280858924E+02  0.10566000000E+00 0.  1.
         23    2    1    0    0    0 -0.16789527995E+02 -0.19073115747E+02 -0.91445433713E+01  0.97994543735E+02  0.94199978417E+02 0.  0.
         13    1    3    3    0    0  0.11950829301E+02 -0.21870233915E+02 -0.45311859157E+02  0.51713684811E+02  0.10566000000E+00 0. -1.
         22    1    1    0    0    0  0.16789527995E+02  0.19073115747E+02  0.91445433713E+01  0.27005456265E+02  0.00000000000E+00 0.  1.
</event>
<event>
 5    1  0.1764318E-003  0.9118800E+02  0.7818608E-02  0.1130116E+00
         25   -1    0    0    0    0  0.00000000000E+00  0.00000000000E+00  0.99999998245E-14  0.12500000000E+03  0.12500000000E+03 0.  0.
        -13    1    3    3    0    0 -0.14323254474E+02  0.58720745974E+02 -0.73080558585E+01  0.60882677922E+02  0.10566000000E+00 0.  1.
         23    2    1    0    0    0 -0.99587714826E+01  0.27095249594E+02  0.60759299218E+01  0.95500057552E+02  0.90829589827E+02 0.  0.
         13    1    3    3    0    0  0.43644829914E+01 -0.31625496380E+02  0.13383985780E+02  0.34617379631E+02  0.10566000000E+00 0. -1.
         22    1    1    0    0    0  0.99587714826E+01 -0.27095249594E+02 -0.60759299218E+01  0.29499942448E+02  0.00000000000E+00 0.  1.
</event>
<event>
 5    1  0.1764318E-003  0.9118800E+02  0.7818608E-02  0.1130116E+00
         25   -1    0    0    0    0  0.00000000000E+00  0.00000000000E+00  0.99999998245E-14  0.12500000000E+03  0.12500000000E+03 0.  0.
        -13    1    3    3    0    0 -0.27206073537E+02 -0.13757292258E+02  0.43766069394E+02  0.53337730753E+02  0.10566000000E+00 0. -1.
         23    2    1    0    0    0  0.45824042273E+01 -0.23094274956E+02  0.16447881537E+02  0.96279331984E+02  0.91895772460E+02 0.  0.
         13    1    3    3    0    0  0.31788477764E+02 -0.93369826981E+01 -0.27318187858E+02  0.42941601232E+02  0.10566000000E+00 0.  1.
         22    1    1    0    0    0 -0.45824042273E+01  0.23094274956E+02 -0.16447881537E+02  0.28720668016E+02  0.00000000000E+00 0. -1.
</event>
<event>
 5    1  0.1764318E-003  0.9118800E+02  0.7818608E-02  0.1130116E+00
         25   -1    0    0    0    0  0.00000000000E+00  0.00000000000E+00  0.99999998245E-14  0.12500000000E+03  0.12500000000E+03 0.  0.
        -13    1    3    3    0    0 -0.15956703360E+02 -0.31398461840E+02 -0.29191138807E+02  0.45745093036E+02  0.10566000000E+00 0. -1.
         23    2    1    0    0    0 -0.23490650694E+02 -0.67427647439E+01  0.14578199162E+02  0.96543024805E+02  0.92253759822E+02 0.  0.
         13    1    3    3    0    0 -0.75339473344E+01  0.24655697096E+02  0.43769337969E+02  0.50797931769E+02  0.10566000000E+00 0.  1.
         22    1    1    0    0    0  0.23490650694E+02  0.67427647439E+01 -0.14578199162E+02  0.28456975195E+02  0.00000000000E+00 0. -1.
</event>
<event>
 5    1  0.1764318E-003  0.9118800E+02  0.7818608E-02  0.1130116E+00
         25   -1    0    0    0    0  0.00000000000E+00  0.00000000000E+00  0.99999998245E-14  0.12500000000E+03  0.12500000000E+03 0.  0.
        -13    1    3    3    0    0  0.41041907874E+01  0.50602033959E+02 -0.12419051449E+02  0.52265229606E+02  0.10566000000E+00 0. -1.
         23    2    1    0    0    0  0.26381873936E+01  0.12249521731E+02 -0.28491125909E+02  0.93875169544E+02  0.88565187212E+02 0.  0.
         13    1    3    3    0    0 -0.14660033938E+01 -0.38352512228E+02 -0.16072074460E+02  0.41609939938E+02  0.10566000000E+00 0.  1.
         22    1    1    0    0    0 -0.26381873936E+01 -0.12249521731E+02  0.28491125909E+02  0.31124830456E+02  0.00000000000E+00 0.  1.
</event>
<event>
 5    1  0.1764318E-003  0.9118800E+02  0.7818608E-02  0.1130116E+00
         25   -1    0    0    0    0  0.00000000000E+00  0.00000000000E+00  0.99999998245E-14  0.12500000000E+03  0.12500000000E+03 0.  0.
        -13    1    3    3    0    0  0.18442778684E+02  0.66645998042E+01 -0.45874304135E+02  0.49890038284E+02  0.10566000000E+00 0.  1.
         23    2    1    0    0    0  0.26529383233E+02 -0.12129645537E+02 -0.52714738453E+01  0.95356705445E+02  0.90632093439E+02 0.  0.
         13    1    3    3    0    0  0.80866045492E+01 -0.18794245341E+02  0.40602830289E+02  0.45466667160E+02  0.10566000000E+00 0. -1.
         22    1    1    0    0    0 -0.26529383233E+02  0.12129645537E+02  0.52714738453E+01  0.29643294555E+02  0.00000000000E+00 0. -1.
</event>
<event>
 5    1  0.1764318E-003  0.9118800E+02  0.7818608E-02  0.1130116E+00
         25   -1    0    0    0    0  0.00000000000E+00  0.00000000000E+00  0.99999998245E-14  0.12500000000E+03  0.12500000000E+03 0.  0.
        -13    1    3    3    0    0 -0.41640770959E+02 -0.16759057864E+01  0.18682654641E+02  0.45670726015E+02  0.10566000000E+00 0. -1.
         23    2    1    0    0    0 -0.44358157786E+01  0.28667734097E+02  0.53006972260E+01  0.95510801453E+02  0.90844374417E+02 0.  0.
         13    1    3    3    0    0  0.37204955180E+02  0.30343639884E+02 -0.13381957415E+02  0.49840075438E+02  0.10566000000E+00 0.  1.
         22    1    1    0    0    0  0.44358157786E+01 -0.28667734097E+02 -0.53006972260E+01  0.29489198547E+02  0.00000000000E+00 0.  1.
</event>
<event>
 5    1  0.1764318E-003  0.9118800E+02  0.7818608E-02  0.1130116E+00
         25   -1    0    0    0    0  0.00000000000E+00  0.00000000000E+00  0.99999998245E-14  0.12500000000E+03  0.12500000000E+03 0.  0.
        -13    1    3    3    0    0  0.22365096225E+01  0.37123838804E+02  0.21091945272E+02  0.42755849918E+02  0.10566000000E+00 0. -1.
         23    2    1    0    0    0  0.27481643216E+02 -0.67396172884E+01  0.28159658112E+01  0.96564233464E+02  0.92282492197E+02 0.  0.
         13    1    3    3    0    0  0.25245133593E+02 -0.43863456092E+02 -0.18275979461E+02  0.53808383546E+02  0.10566000000E+00 0.  1.
         22    1    1    0    0    0 -0.27481643216E+02  0.67396172884E+01 -0.28159658112E+01  0.28435766536E+02  0.00000000000E+00 0.  1.
</event>
<event>
 5    1  0.1764318E-003  0.9118800E+02  0.7818608E-02  0.1130116E+00
         25   -1    0    0    0    0  0.00000000000E+00  0.00000000000E+00  0.99999998245E-14  0.12500000000E+03  0.12500000000E+03 0.  0.
        -13    1    3    3    0    0  0.39141390912E+02  0.23376919938E+02  0.19816009657E+02  0.49711309288E+02  0.10566000000E+00 0.  1.
         23    2    1    0    0    0  0.67969138651E+01  0.26034072300E+02 -0.12340752725E+02  0.95398224100E+02  0.90689337990E+02 0.  0.
         13    1    3    3    0    0 -0.32344477047E+02  0.26571523623E+01 -0.32156762382E+02  0.45686914812E+02  0.10566000000E+00 0. -1.
         22    1    1    0    0    0 -0.67969138651E+01 -0.26034072300E+02  0.12340752725E+02  0.29601775900E+02  0.00000000000E+00 0.  1.
</event>
<event>
 5    1  0.1764318E-003  0.9118800E+02  0.7818608E-02  0.1130116E+00
         25   -1    0    0    0    0  0.00000000000E+00  0.00000000000E+00  0.99999998245E-14  0.12500000000E+03  0.12500000000E+03 0.  0.
        -13    1    3    3    0    0 -0.69681415557E+01 -0.48038878387E+01  0.26404558473E+02  0.27728040091E+02  0.10566000000E+00 0. -1.
         23    2    1    0    0    0  0.29124663012E+01 -0.31204665229E+02 -0.24031093318E+02  0.85506873534E+02  0.75840084279E+02 0.  0.
         13    1    3    3    0    0  0.98806078569E+01 -0.26400777390E+02 -0.50435651791E+02  0.57778833443E+02  0.10566000000E+00 0.  1.
         22    1    1    0    0    0 -0.29124663012E+01  0.31204665229E+02  0.24031093318E+02  0.39493126466E+02  0.00000000000E+00 0.  1.
</event>
<event>
 5    1  0.1764318E-003  0.9118800E+02  0.7818608E-02  0.1130116E+00
         25   -1    0    0    0    0  0.00000000000E+00  0.00000000000E+00  0.99999998245E-14  0.12500000000E+03  0.12500000000E+03 0.  0.
        -13    1    3    3    0    0  0.12481290110E+02 -0.31731335810E+02  0.83920273698E+01  0.35115488926E+02  0.10566000000E+00 0. -1.
         23    2    1    0    0    0 -0.27325230457E+00  0.17758894828E+02 -0.23639905759E+02  0.95431466783E+02  0.90735145868E+02 0.  0.
         13    1    3    3    0    0 -0.12754542415E+02  0.49490230638E+02 -0.32031933129E+02  0.60315977857E+02  0.10566000000E+00 0.  1.
         22    1    1    0    0    0  0.27325230457E+00 -0.17758894828E+02  0.23639905759E+02  0.29568533217E+02  0.00000000000E+00 0.  1.
</event>
<event>
 5    1  0.1764318E-003  0.9118800E+02  0.7818608E-02  0.1130116E+00
         25   -1    0    0    0    0  0.00000000000E+00  0.00000000000E+00  0.99999998245E-14  0.12500000000E+03  0.12500000000E+03 0.  0.
        -13    1    3    3    0    0 -0.31202197379E+02  0.23558858877E+02 -0.42344421875E+02  0.57633828441E+02  0.10566000000E+00 0.  1.
         23    2    1    0    0    0  0.14281814729E+01  0.17810841101E+02 -0.22548974452E+02  0.96229841643E+02  0.91828429207E+02 0.  0.
         13    1    3    3    0    0  0.32630378852E+02 -0.57480177760E+01  0.19795447423E+02  0.38596013201E+02  0.10566000000E+00 0. -1.
         22    1    1    0    0    0 -0.14281814729E+01 -0.17810841101E+02  0.22548974452E+02  0.28770158357E+02  0.00000000000E+00 0.  1.
</event>
<event>
 5    1  0.1764318E-003  0.9118800E+02  0.7818608E-02  0.1130116E+00
         25   -1    0    0    0    0  0.00000000000E+00  0.00000000000E+00  0.99999998245E-14  0.12500000000E+03  0.12500000000E+03 0.  0.
        -13    1    3    3    0    0 -0.25840321044E+01 -0.55051581178E+01  0.32820594939E+02  0.33379433847E+02  0.10566000000E+00 0. -1.
         23    2    1    0    0    0 -0.37946216090E+01  0.19333599921E+02 -0.23134943199E+02  0.94612291368E+02  0.89599513626E+02 0.  0.
         13    1    3    3    0    0 -0.12105895046E+01  0.24838758038E+02 -0.55955538138E+02  0.61232857521E+02  0.10566000000E+00 0.  1.
         22    1    1    0    0    0  0.37946216090E+01 -0.19333599921E+02  0.23134943199E+02  0.30387708632E+02  0.00000000000E+00 0.  1.
</event>
<event>
 5    1  0.1764318E-003  0.9118800E+02  0.7818608E-02  0.1130116E+00
         25   -1    0    0    0    0  0.00000000000E+00  0.00000000000E+00  0.99999998245E-14  0.12500000000E+03  0.12500000000E+03 0.  0.
        -13    1    3    3    0    0  0.13195713749E+02 -0.28017345995E+02 -0.13768895400E+02  0.33892361713E+02  0.10566000000E+00 0.  1.
         23    2    1    0    0    0 -0.30537626305E+02  0.84498954622E+01  0.27855559206E+01  0.93192663182E+02  0.87596608356E+02 0.  0.
         13    1    3    3    0    0 -0.43733340054E+02  0.36467241457E+02  0.16554451321E+02  0.59300301469E+02  0.10566000000E+00 0. -1.
         22    1    1    0    0    0  0.30537626305E+02 -0.84498954622E+01 -0.27855559206E+01  0.31807336818E+02  0.00000000000E+00 0. -1.
</event>
<event>
 5    1  0.1764318E-003  0.9118800E+02  0.7818608E-02  0.1130116E+00
         25   -1    0    0    0    0  0.00000000000E+00  0.00000000000E+00  0.99999998245E-14  0.12500000000E+03  0.12500000000E+03 0.  0.
        -13    1    3    3    0    0 -0.13602839141E+02  0.44372828052E+02 -0.28851891592E+02  0.54648219683E+02  0.10566000000E+00 0. -1.
         23    2    1    0    0    0 -0.24618349289E+02  0.77258790300E+01 -0.13498416422E+02  0.95880254562E+02  0.91351319862E+02 0.  0.
         13    1    3    3    0    0 -0.11015510148E+02 -0.36646949022E+02  0.15353475171E+02  0.41232034879E+02  0.10566000000E+00 0.  1.
         22    1    1    0    0    0  0.24618349289E+02 -0.77258790300E+01  0.13498416422E+02  0.29119745438E+02  0.00000000000E+00 0. -1.
</event>
<event>
 5    1  0.1764318E-003  0.9118800E+02  0.7818608E-02  0.1130116E+00
         25   -1    0    0    0    0  0.00000000000E+00  0.00000000000E+00  0.99999998245E-14  0.12500000000E+03  0.12500000000E+03 0.  0.
        -13    1    3    3    0    0 -0.18753262236E+02  0.26174536723E+02  0.26002875640E+02  0.41387823363E+02  0.10566000000E+00 0. -1.
         23    2    1    0    0    0 -0.21321187171E+02 -0.20278880101E+02 -0.16832599752E+01  0.95526972251E+02  0.90866622381E+02 0.  0.
         13    1    3    3    0    0 -0.25679249344E+01 -0.46453416824E+02 -0.27686135615E+02  0.54139148889E+02  0.10566000000E+00 0.  1.
         22    1    1    0    0    0  0.21321187171E+02  0.20278880101E+02  0.16832599752E+01  0.29473027749E+02  0.00000000000E+00 0.  1.
</event>
<event>
 5    1  0.1764318E-003  0.9118800E+02  0.7818608E-02  0.1130116E+00
         25   -1    0    0    0    0  0.00000000000E+00  0.00000000000E+00  0.99999998245E-14  0.12500000000E+03  0.12500000000E+03 0.  0.
        -13    1    3    3    0    0  0.16323267345E+02 -0.30346273291E+02  0.16576742912E+02  0.38238003728E+02  0.10566000000E+00 0.  1.
         23    2    1    0    0    0  0.65963781795E+01  0.26221857309E+02  0.10641579578E+02  0.95942449832E+02  0.91436384761E+02 0.  0.
         13    1    3    3    0    0 -0.97268891657E+01  0.56568130600E+02 -0.59351633340E+01  0.57704446105E+02  0.10566000000E+00 0. -1.
         22    1    1    0    0    0 -0.65963781795E+01 -0.26221857309E+02 -0.10641579578E+02  0.29057550168E+02  0.00000000000E+00 0. -1.
</event>
<event>
 5    1  0.1764318E-003  0.9118800E+02  0.7818608E-02  0.1130116E+00
         25   -1    0    0    0    0  0.00000000000E+00  0.00000000000E+00  0.99999998245E-14  0.12500000000E+03  0.12500000000E+03 0.  0.
        -13    1    3    3    0    0  0.19412388996E+02  0.45345698788E+02  0.15855211705E+02  0.51811891949E+02  0.10566000000E+00 0. -1.
         23    2    1    0    0    0  0.13922216301E+02  0.16737540456E+02 -0.18198108508E+02  0.96624931356E+02  0.92364673112E+02 0.  0.
         13    1    3    3    0    0 -0.54901726950E+01 -0.28608158332E+02 -0.34053320213E+02  0.44813039407E+02  0.10566000000E+00 0.  1.
         22    1    1    0    0    0 -0.13922216301E+02 -0.16737540456E+02  0.18198108508E+02  0.28375068644E+02  0.00000000000E+00 0. -1.
</event>
<event>
 5    1  0.1764318E-003  0.9118800E+02  0.7818608E-02  0.1130116E+00
         25   -1    0    0    0    0  0.00000000000E+00  0.00000000000E+00  0.99999998245E-14  0.12500000000E+03  0.12500000000E+03 0.  0.
        -13    1    3    3    0    0  0.81366362361E+01  0.11582225235E+02  0.33669251011E+02  0.36523724047E+02  0.10566000000E+00 0. -1.
         23    2    1    0    0    0  0.10850304126E+02 -0.73873262233E+01 -0.24192323147E+02  0.97476007056E+02  0.93509367253E+02 0.  0.
         13    1    3    3    0    0  0.27136678896E+01 -0.18969551458E+02 -0.57861574157E+02  0.60952283009E+02  0.10566000000E+00 0.  1.
         22    1    1    0    0    0 -0.10850304126E+02  0.73873262233E+01  0.24192323147E+02  0.27523992944E+02  0.00000000000E+00 0.  1.
</event>
<event>
 5    1  0.1764318E-003  0.9118800E+02  0.7818608E-02  0.1130116E+00
         25   -1    0    0    0    0  0.00000000000E+00  0.00000000000E+00  0.99999998245E-14  0.12500000000E+03  0.12500000000E+03 0.  0.
        -13    1    3    3    0    0 -0.46878994800E+02  0.67402945733E+01 -0.39520287814E+02  0.61684163586E+02  0.10566000000E+00 0.  1.
         23    2    1    0    0    0 -0.18646677093E+02  0.97145299690E+01 -0.15368338419E+02  0.98956642212E+02  0.95468112754E+02 0.  0.
         13    1    3    3    0    0  0.28232317706E+02  0.29742353957E+01  0.24151949395E+02  0.37272478625E+02  0.10566000000E+00 0. -1.
         22    1    1    0    0    0  0.18646677093E+02 -0.97145299690E+01  0.15368338419E+02  0.26043357788E+02  0.00000000000E+00 0.  1.
</event>
<event>
 5    1  0.1764318E-003  0.9118800E+02  0.7818608E-02  0.1130116E+00
         25   -1    0    0    0    0  0.00000000000E+00  0.00000000000E+00  0.99999998245E-14  0.12500000000E+03  0.12500000000E+03 0.  0.
        -13    1    3    3    0    0  0.33261177153E+02 -0.24561281695E+02  0.28130730314E+02  0.50009115331E+02  0.10566000000E+00 0. -1.
         23    2    1    0    0    0  0.13032138801E+02 -0.24740551159E+02 -0.11703961249E+02  0.94686402024E+02  0.89702845584E+02 0.  0.
         13    1    3    3    0    0 -0.20229038352E+02 -0.17926946327E+00 -0.39834691564E+02  0.44677286693E+02  0.10566000000E+00 0.  1.
         22    1    1    0    0    0 -0.13032138801E+02  0.24740551159E+02  0.11703961249E+02  0.30313597976E+02  0.00000000000E+00 0. -1.
</event>
<event>
 5    1  0.1764318E-003  0.9118800E+02  0.7818608E-02  0.1130116E+00
         25   -1    0    0    0    0  0.00000000000E+00  0.00000000000E+00  0.99999998245E-14  0.12500000000E+03  0.12500000000E+03 0.  0.
        -13    1    3    3    0    0  0.32924877003E+01  0.69848283217E+01 -0.42315852698E+02  0.43014774852E+02  0.10566000000E+00 0.  1.
         23    2    1    0    0    0  0.57257104059E+01  0.28190780071E+02  0.58017712859E+01  0.95654397421E+02  0.91041745125E+02 0.  0.
         13    1    3    3    0    0  0.24332227057E+01  0.21205951749E+02  0.48117623984E+02  0.52639622569E+02  0.10566000000E+00 0. -1.
         22    1    1    0    0    0 -0.57257104059E+01 -0.28190780071E+02 -0.58017712859E+01  0.29345602579E+02  0.00000000000E+00 0. -1.
</event>
<event>
 5    1  0.1764318E-003  0.9118800E+02  0.7818608E-02  0.1130116E+00
         25   -1    0    0    0    0  0.00000000000E+00  0.00000000000E+00  0.99999998245E-14  0.12500000000E+03  0.12500000000E+03 0.  0.
        -13    1    3    3    0    0  0.17081048936E+02 -0.46314990140E+02  0.77443459606E+01  0.49968255952E+02  0.10566000000E+00 0.  1.
         23    2    1    0    0    0 -0.19383251308E+02 -0.27288794037E+02  0.24330200932E+01  0.91439483049E+02  0.85058043489E+02 0.  0.
         13    1    3    3    0    0 -0.36464300244E+02  0.19026196103E+02 -0.53113258675E+01  0.41471227097E+02  0.10566000000E+00 0. -1.
         22    1    1    0    0    0  0.19383251308E+02  0.27288794037E+02 -0.24330200932E+01  0.33560516951E+02  0.00000000000E+00 0. -1.
</event>
<event>
 5    1  0.1764318E-003  0.9118800E+02  0.7818608E-02  0.1130116E+00
         25   -1    0    0    0    0  0.00000000000E+00  0.00000000000E+00  0.99999998245E-14  0.12500000000E+03  0.12500000000E+03 0.  0.
        -13    1    3    3    0    0 -0.29972215118E+02  0.15429116388E+02  0.14353295159E+02  0.36639044168E+02  0.10566000000E+00 0.  1.
         23    2    1    0    0    0  0.20563370645E+02  0.13496051901E+02 -0.16033845594E+02  0.95638803946E+02  0.91020332819E+02 0.  0.
         13    1    3    3    0    0  0.50535585763E+02 -0.19330644866E+01 -0.30387140753E+02  0.58999759778E+02  0.10566000000E+00 0. -1.
         22    1    1    0    0    0 -0.20563370645E+02 -0.13496051901E+02  0.16033845594E+02  0.29361196054E+02  0.00000000000E+00 0. -1.
</event>
<event>
 5    1  0.1764318E-003  0.9118800E+02  0.7818608E-02  0.1130116E+00
         25   -1    0    0    0    0  0.00000000000E+00  0.00000000000E+00  0.99999998245E-14  0.12500000000E+03  0.12500000000E+03 0.  0.
        -13    1    3    3    0    0 -0.14943687762E+02 -0.13070168136E+02 -0.47408024687E+02  0.51397228211E+02  0.10566000000E+00 0.  1.
         23    2    1    0    0    0 -0.15412195605E+02  0.18596447964E+02 -0.15822419515E+02  0.96125918031E+02  0.91686855697E+02 0.  0.
         13    1    3    3    0    0 -0.46850784372E+00  0.31666616100E+02  0.31585605172E+02  0.44728689820E+02  0.10566000000E+00 0. -1.
         22    1    1    0    0    0  0.15412195605E+02 -0.18596447964E+02  0.15822419515E+02  0.28874081969E+02  0.00000000000E+00 0.  1.
</event>
<event>
 5    1  0.1764318E-003  0.9118800E+02  0.7818608E-02  0.1130116E+00
         25   -1    0    0    0    0  0.00000000000E+00  0.00000000000E+00  0.99999998245E-14  0.12500000000E+03  0.12500000000E+03 0.  0.
        -13    1    3    3    0    0 -0.11205968045E+02 -0.10190021240E+02 -0.44826236873E+02  0.47316095876E+02  0.10566000000E+00 0.  1.
         23    2    1    0    0    0 -0.23390974191E+01  0.25719338689E+02 -0.13123557159E+02  0.96031335691E+02  0.91557817377E+02 0.  0.
         13    1    3    3    0    0  0.88668706263E+01  0.35909359929E+02  0.31702679714E+02  0.48715239816E+02  0.10566000000E+00 0. -1.
         22    1    1    0    0    0  0.23390974191E+01 -0.25719338689E+02  0.13123557159E+02  0.28968664309E+02  0.00000000000E+00 0. -1.
</event>
<event>
 5    1  0.1764318E-003  0.9118800E+02  0.7818608E-02  0.1130116E+00
         25   -1    0    0    0    0  0.00000000000E+00  0.00000000000E+00  0.99999998245E-14  0.12500000000E+03  0.12500000000E+03 0.  0.
        -13    1    3    3    0    0  0.43523076816E+02  0.20785522180E+02  0.38623426848E+02  0.61790585152E+02  0.10566000000E+00 0.  1.
         23    2    1    0    0    0  0.16155709461E+02  0.14873557961E+02  0.18735924703E+02  0.96133677943E+02  0.91697434456E+02 0.  0.
         13    1    3    3    0    0 -0.27367367356E+02 -0.59119642185E+01 -0.19887502145E+02  0.34343092792E+02  0.10566000000E+00 0. -1.
         22    1    1    0    0    0 -0.16155709461E+02 -0.14873557961E+02 -0.18735924703E+02  0.28866322057E+02  0.00000000000E+00 0.  1.
</event>
<event>
 5    1  0.1764318E-003  0.9118800E+02  0.7818608E-02  0.1130116E+00
         25   -1    0    0    0    0  0.00000000000E+00  0.00000000000E+00  0.99999998245E-14  0.12500000000E+03  0.12500000000E+03 0.  0.
        -13    1    3    3    0    0  0.85967953886E+01 -0.23560893375E+02 -0.46018955862E+02  0.52409694239E+02  0.10566000000E+00 0. -1.
         23    2    1    0    0    0 -0.10265792916E+01  0.13342701271E+02 -0.26637905255E+02  0.95189606869E+02  0.90401336922E+02 0.  0.
         13    1    3    3    0    0 -0.96233746802E+01  0.36903594646E+02  0.19381050607E+02  0.42779912631E+02  0.10566000000E+00 0.  1.
         22    1    1    0    0    0  0.10265792916E+01 -0.13342701271E+02  0.26637905255E+02  0.29810393131E+02  0.00000000000E+00 0. -1.
</event>
<event>
 5    1  0.1764318E-003  0.9118800E+02  0.7818608E-02  0.1130116E+00
         25   -1    0    0    0    0  0.00000000000E+00  0.00000000000E+00  0.99999998245E-14  0.12500000000E+03  0.12500000000E+03 0.  0.
        -13    1    3    3    0    0  0.36763827807E+02 -0.24973617183E+02 -0.26882879494E+01  0.44525258521E+02  0.10566000000E+00 0.  1.
         23    2    1    0    0    0 -0.73327639439E+01 -0.14162046836E+02 -0.25180677166E+02  0.95193968728E+02  0.90407367963E+02 0.  0.
         13    1    3    3    0    0 -0.44096591751E+02  0.10811570347E+02 -0.22492389217E+02  0.50668710208E+02  0.10566000000E+00 0. -1.
         22    1    1    0    0    0  0.73327639439E+01  0.14162046836E+02  0.25180677166E+02  0.29806031272E+02  0.00000000000E+00 0. -1.
</event>
<event>
 5    1  0.1764318E-003  0.9118800E+02  0.7818608E-02  0.1130116E+00
         25   -1    0    0    0    0  0.00000000000E+00  0.00000000000E+00  0.99999998245E-14  0.12500000000E+03  0.12500000000E+03 0.  0.
        -13    1    3    3    0    0  0.71042258446E+00 -0.27205215050E+02  0.28867713507E+02  0.39673473169E+02  0.10566000000E+00 0.  1.
         23    2    1    0    0    0 -0.24456098704E+02  0.45990652424E+00 -0.14202533211E+02  0.96715300471E+02  0.92486891599E+02 0.  0.
         13    1    3    3    0    0 -0.25166521289E+02  0.27665121574E+02 -0.43070246718E+02  0.57041827301E+02  0.10566000000E+00 0. -1.
         22    1    1    0    0    0  0.24456098704E+02 -0.45990652424E+00  0.14202533211E+02  0.28284699529E+02  0.00000000000E+00 0. -1.
</event>
<event>
 5    1  0.1764318E-003  0.9118800E+02  0.7818608E-02  0.1130116E+00
         25   -1    0    0    0    0  0.00000000000E+00  0.00000000000E+00  0.99999998245E-14  0.12500000000E+03  0.12500000000E+03 0.  0.
        -13    1    3    3    0    0  0.22167887793E+02 -0.20842277957E+02  0.32269822307E+01  0.30598045330E+02  0.10566000000E+00 0. -1.
         23    2    1    0    0    0  0.40452196152E+01  0.23122918411E+02 -0.28735429148E+02  0.87895309651E+02  0.79679529446E+02 0.  0.
         13    1    3    3    0    0 -0.18122668178E+02  0.43965196367E+02 -0.31962411379E+02  0.57297264321E+02  0.10566000000E+00 0.  1.
         22    1    1    0    0    0 -0.40452196152E+01 -0.23122918411E+02  0.28735429148E+02  0.37104690349E+02  0.00000000000E+00 0.  1.
</event>
<event>
 5    1  0.1764318E-003  0.9118800E+02  0.7818608E-02  0.1130116E+00
         25   -1    0    0    0    0  0.00000000000E+00  0.00000000000E+00  0.99999998245E-14  0.12500000000E+03  0.12500000000E+03 0.  0.
        -13    1    3    3    0    0  0.24251655200E+02  0.30695391204E+02  0.55993079241E+01  0.39518517613E+02  0.10566000000E+00 0. -1.
         23    2    1    0    0    0 -0.23386748178E+02  0.79742058341E+01 -0.14908033992E+02  0.96142116735E+02  0.91708937317E+02 0.  0.
         13    1    3    3    0    0 -0.47638403378E+02 -0.22721185370E+02 -0.20507341917E+02  0.56623599122E+02  0.10566000000E+00 0.  1.
         22    1    1    0    0    0  0.23386748178E+02 -0.79742058341E+01  0.14908033992E+02  0.28857883265E+02  0.00000000000E+00 0.  1.
</event>
<event>
 5    1  0.1764318E-003  0.9118800E+02  0.7818608E-02  0.1130116E+00
         25   -1    0    0    0    0  0.00000000000E+00  0.00000000000E+00  0.99999998245E-14  0.12500000000E+03  0.12500000000E+03 0.  0.
        -13    1    3    3    0    0 -0.38676825825E+02  0.43153742561E+00 -0.68038598704E+01  0.39273232024E+02  0.10566000000E+00 0. -1.
         23    2    1    0    0    0  0.74730487343E+01  0.21727243699E+02  0.17984158786E+02  0.95822105227E+02  0.91271716905E+02 0.  0.
         13    1    3    3    0    0  0.46149874560E+02  0.21295706273E+02  0.24788018657E+02  0.56548873203E+02  0.10566000000E+00 0.  1.
         22    1    1    0    0    0 -0.74730487343E+01 -0.21727243699E+02 -0.17984158786E+02  0.29177894773E+02  0.00000000000E+00 0.  1.
</event>
<event>
 5    1  0.1764318E-003  0.9118800E+02  0.7818608E-02  0.1130116E+00
         25   -1    0    0    0    0  0.00000000000E+00  0.00000000000E+00  0.99999998245E-14  0.12500000000E+03  0.12500000000E+03 0.  0.
        -13    1    3    3    0    0  0.69838465555E+01 -0.23629626464E+02 -0.34524941686E+02  0.42415988990E+02  0.10566000000E+00 0.  1.
         23    2    1    0    0    0 -0.28726996570E+02 -0.92607334356E+01  0.10052233615E+01  0.94800463751E+02  0.89861648870E+02 0.  0.
         13    1    3    3    0    0 -0.35710843125E+02  0.14368893028E+02  0.35530165048E+02  0.52384474760E+02  0.10566000000E+00 0. -1.
         22    1    1    0    0    0  0.28726996570E+02  0.92607334356E+01 -0.10052233615E+01  0.30199536249E+02  0.00000000000E+00 0.  1.
</event>
<event>
 5    1  0.1764318E-003  0.9118800E+02  0.7818608E-02  0.1130116E+00
         25   -1    0    0    0    0  0.00000000000E+00  0.00000000000E+00  0.99999998245E-14  0.12500000000E+03  0.12500000000E+03 0.  0.
        -13    1    3    3    0    0 -0.41347016069E+02  0.73149698526E+01 -0.60376021469E+01  0.42421083502E+02  0.10566000000E+00 0. -1.
         23    2    1    0    0    0  0.93103605079E-01 -0.26396092517E+02 -0.11673134531E+02  0.96137837257E+02  0.91703104169E+02 0.  0.
         13    1    3    3    0    0  0.41440119674E+02 -0.33711062369E+02 -0.56355323837E+01  0.53716753755E+02  0.10566000000E+00 0.  1.
         22    1    1    0    0    0 -0.93103605079E-01  0.26396092517E+02  0.11673134531E+02  0.28862162743E+02  0.00000000000E+00 0.  1.
</event>
<event>
 5    1  0.1764318E-003  0.9118800E+02  0.7818608E-02  0.1130116E+00
         25   -1    0    0    0    0  0.00000000000E+00  0.00000000000E+00  0.99999998245E-14  0.12500000000E+03  0.12500000000E+03 0.  0.
        -13    1    3    3    0    0  0.37094711413E+02  0.15846564157E+01  0.12071347136E+02  0.39041738390E+02  0.10566000000E+00 0.  1.
         23    2    1    0    0    0 -0.18065686985E+01 -0.36811813539E+01 -0.28915411637E+02  0.95795277492E+02  0.91234967929E+02 0.  0.
         13    1    3    3    0    0 -0.38901280112E+02 -0.52658377696E+01 -0.40986758774E+02  0.56753539102E+02  0.10566000000E+00 0. -1.
         22    1    1    0    0    0  0.18065686985E+01  0.36811813539E+01  0.28915411637E+02  0.29204722508E+02  0.00000000000E+00 0. -1.
</event>
<event>
 5    1  0.1764318E-003  0.9118800E+02  0.7818608E-02  0.1130116E+00
         25   -1    0    0    0    0  0.00000000000E+00  0.00000000000E+00  0.99999998245E-14  0.12500000000E+03  0.12500000000E+03 0.  0.
        -13    1    3    3    0    0  0.23140094804E+02  0.20847381803E+02  0.10356479133E+02  0.32822936182E+02  0.10566000000E+00 0. -1.
         23    2    1    0    0    0 -0.61209908293E+01 -0.30924460079E+02 -0.14074312716E+01  0.93444182427E+02  0.87954792973E+02 0.  0.
         13    1    3    3    0    0 -0.29261085633E+02 -0.51771841882E+02 -0.11763910404E+02  0.60621246245E+02  0.10566000000E+00 0.  1.
         22    1    1    0    0    0  0.61209908293E+01  0.30924460079E+02  0.14074312716E+01  0.31555817573E+02  0.00000000000E+00 0.  1.
</event>
<event>
 5    1  0.1764318E-003  0.9118800E+02  0.7818608E-02  0.1130116E+00
         25   -1    0    0    0    0  0.00000000000E+00  0.00000000000E+00  0.99999998245E-14  0.12500000000E+03  0.12500000000E+03 0.  0.
        -13    1    3    3    0    0 -0.55432167350E+01  0.75972144371E+01  0.57549010144E+02  0.58312474236E+02  0.10566000000E+00 0. -1.
         23    2    1    0    0    0  0.59119747425E+01 -0.10109155448E+02  0.28309985622E+02  0.94363391912E+02  0.89251599303E+02 0.  0.
         13    1    3    3    0    0  0.11455191478E+02 -0.17706369885E+02 -0.29239024522E+02  0.36050917676E+02  0.10566000000E+00 0.  1.
         22    1    1    0    0    0 -0.59119747425E+01  0.10109155448E+02 -0.28309985622E+02  0.30636608088E+02  0.00000000000E+00 0. -1.
</event>
<event>
 5    1  0.1764318E-003  0.9118800E+02  0.7818608E-02  0.1130116E+00
         25   -1    0    0    0    0  0.00000000000E+00  0.00000000000E+00  0.99999998245E-14  0.12500000000E+03  0.12500000000E+03 0.  0.
        -13    1    3    3    0    0  0.36358207285E+02  0.61351590064E+01 -0.66503540511E+01  0.37467289547E+02  0.10566000000E+00 0. -1.
         23    2    1    0    0    0 -0.21629617400E+02  0.12250328831E+01  0.13986124801E+02  0.99213322405E+02  0.95803604323E+02 0.  0.
         13    1    3    3    0    0 -0.57987824685E+02 -0.49101261233E+01  0.20636478852E+02  0.61746032858E+02  0.10566000000E+00 0.  1.
         22    1    1    0    0    0  0.21629617400E+02 -0.12250328831E+01 -0.13986124801E+02  0.25786677595E+02  0.00000000000E+00 0.  1.
</event>
<event>
 5    1  0.1764318E-003  0.9118800E+02  0.7818608E-02  0.1130116E+00
         25   -1    0    0    0    0  0.00000000000E+00  0.00000000000E+00  0.99999998245E-14  0.12500000000E+03  0.12500000000E+03 0.  0.
        -13    1    3    3    0    0  0.22386225813E+02 -0.29458571125E+02  0.87405474394E+01  0.38017875434E+02  0.10566000000E+00 0. -1.
         23    2    1    0    0    0 -0.29269210702E+02 -0.13925880827E+02  0.60628335958E+01  0.92024633389E+02  0.85913667989E+02 0.  0.
         13    1    3    3    0    0 -0.51655436515E+02  0.15532690298E+02 -0.26777138436E+01  0.54006757956E+02  0.10566000000E+00 0.  1.
         22    1    1    0    0    0  0.29269210702E+02  0.13925880827E+02 -0.60628335958E+01  0.32975366611E+02  0.00000000000E+00 0.  1.
</event>
<event>
 5    1  0.1764318E-003  0.9118800E+02  0.7818608E-02  0.1130116E+00
         25   -1    0    0    0    0  0.00000000000E+00  0.00000000000E+00  0.99999998245E-14  0.12500000000E+03  0.12500000000E+03 0.  0.
        -13    1    3    3    0    0 -0.36978366065E+02 -0.83767972269E+01  0.21653673874E+02  0.43663062707E+02  0.10566000000E+00 0.  1.
         23    2    1    0    0    0 -0.18002242600E+02  0.18974222623E+02 -0.16326499246E+02  0.94167282955E+02  0.88976517906E+02 0.  0.
         13    1    3    3    0    0  0.18976123466E+02  0.27351019850E+02 -0.37980173120E+02  0.50504220248E+02  0.10566000000E+00 0. -1.
         22    1    1    0    0    0  0.18002242600E+02 -0.18974222623E+02  0.16326499246E+02  0.30832717045E+02  0.00000000000E+00 0.  1.
</event>
<event>
 5    1  0.1764318E-003  0.9118800E+02  0.7818608E-02  0.1130116E+00
         25   -1    0    0    0    0  0.00000000000E+00  0.00000000000E+00  0.99999998245E-14  0.12500000000E+03  0.12500000000E+03 0.  0.
        -13    1    3    3    0    0 -0.79062538472E+01 -0.23017693439E+02 -0.55749311812E+02  0.60830255570E+02  0.10566000000E+00 0. -1.
         23    2    1    0    0    0  0.76090436378E+00 -0.20689333010E+02 -0.26826557981E+02  0.91113547117E+02  0.84577696701E+02 0.  0.
         13    1    3    3    0    0  0.86671582110E+01  0.23283604294E+01  0.28922753831E+02  0.30283291547E+02  0.10566000000E+00 0.  1.
         22    1    1    0    0    0 -0.76090436378E+00  0.20689333010E+02  0.26826557981E+02  0.33886452883E+02  0.00000000000E+00 0. -1.
</event>
<event>
 5    1  0.1764318E-003  0.9118800E+02  0.7818608E-02  0.1130116E+00
         25   -1    0    0    0    0  0.00000000000E+00  0.00000000000E+00  0.99999998245E-14  0.12500000000E+03  0.12500000000E+03 0.  0.
        -13    1    3    3    0    0  0.22603779798E+02 -0.38369103761E+02  0.17450654119E+02  0.47829441538E+02  0.10566000000E+00 0. -1.
         23    2    1    0    0    0 -0.14689026287E+02 -0.21334838204E+02 -0.10070103098E+02  0.97208818110E+02  0.93151513823E+02 0.  0.
         13    1    3    3    0    0 -0.37292806085E+02  0.17034265557E+02 -0.27520757218E+02  0.49379376572E+02  0.10566000000E+00 0.  1.
         22    1    1    0    0    0  0.14689026287E+02  0.21334838204E+02  0.10070103098E+02  0.27791181890E+02  0.00000000000E+00 0.  1.
</event>
<event>
 5    1  0.1764318E-003  0.9118800E+02  0.7818608E-02  0.1130116E+00
         25   -1    0    0    0    0  0.00000000000E+00  0.00000000000E+00  0.99999998245E-14  0.12500000000E+03  0.12500000000E+03 0.  0.
        -13    1    3    3    0    0  0.78626275798E+01 -0.33346535733E+02  0.18687220086E+01  0.34312033514E+02  0.10566000000E+00 0. -1.
         23    2    1    0    0    0 -0.25416695760E+01  0.28165224093E+02  0.21454652935E+00  0.96719512687E+02  0.92492584415E+02 0.  0.
         13    1    3    3    0    0 -0.10404297156E+02  0.61511759826E+02 -0.16541754792E+01  0.62407479173E+02  0.10566000000E+00 0.  1.
         22    1    1    0    0    0  0.25416695760E+01 -0.28165224093E+02 -0.21454652935E+00  0.28280487313E+02  0.00000000000E+00 0.  1.
</event>
<event>
 5    1  0.1764318E-003  0.9118800E+02  0.7818608E-02  0.1130116E+00
         25   -1    0    0    0    0  0.00000000000E+00  0.00000000000E+00  0.99999998245E-14  0.12500000000E+03  0.12500000000E+03 0.  0.
        -13    1    3    3    0    0  0.26502755438E+02 -0.26633675029E+02 -0.22371939168E+02  0.43729435367E+02  0.10566000000E+00 0. -1.
         23    2    1    0    0    0  0.48553608407E+01  0.21533570955E+02 -0.17629039310E+02  0.96750181700E+02  0.92534023068E+02 0.  0.
         13    1    3    3    0    0 -0.21647394597E+02  0.48167245985E+02  0.47428998582E+01  0.53020746333E+02  0.10566000000E+00 0.  1.
         22    1    1    0    0    0 -0.48553608407E+01 -0.21533570955E+02  0.17629039310E+02  0.28249818300E+02  0.00000000000E+00 0.  1.
</event>
<event>
 5    1  0.1764318E-003  0.9118800E+02  0.7818608E-02  0.1130116E+00
         25   -1    0    0    0    0  0.00000000000E+00  0.00000000000E+00  0.99999998245E-14  0.12500000000E+03  0.12500000000E+03 0.  0.
        -13    1    3    3    0    0  0.31750457819E+02 -0.45536389799E+01 -0.28553929442E+00  0.32076781267E+02  0.10566000000E+00 0.  1.
         23    2    1    0    0    0 -0.12433839204E+02 -0.22012967793E+02 -0.28157533119E+02  0.87157989222E+02  0.78514312743E+02 0.  0.
         13    1    3    3    0    0 -0.44184297023E+02 -0.17459328813E+02 -0.27871993824E+02  0.55081207955E+02  0.10566000000E+00 0. -1.
         22    1    1    0    0    0  0.12433839204E+02  0.22012967793E+02  0.28157533119E+02  0.37842010778E+02  0.00000000000E+00 0. -1.
</event>
<event>
 5    1  0.1764318E-003  0.9118800E+02  0.7818608E-02  0.1130116E+00
         25   -1    0    0    0    0  0.00000000000E+00  0.00000000000E+00  0.99999998245E-14  0.12500000000E+03  0.12500000000E+03 0.  0.
        -13    1    3    3    0    0  0.43928444278E+02 -0.70674179145E+01 -0.14062302517E+02  0.46662791695E+02  0.10566000000E+00 0.  1.
         23    2    1    0    0    0  0.80818057542E+01 -0.17480373281E+02 -0.31668884700E+02  0.87935228418E+02  0.79742128794E+02 0.  0.
         13    1    3    3    0    0 -0.35846638524E+02 -0.10412955366E+02 -0.17606582182E+02  0.41272436723E+02  0.10566000000E+00 0. -1.
         22    1    1    0    0    0 -0.80818057542E+01  0.17480373281E+02  0.31668884700E+02  0.37064771582E+02  0.00000000000E+00 0.  1.
</event>
<event>
 5    1  0.1764318E-003  0.9118800E+02  0.7818608E-02  0.1130116E+00
         25   -1    0    0    0    0  0.00000000000E+00  0.00000000000E+00  0.99999998245E-14  0.12500000000E+03  0.12500000000E+03 0.  0.
        -13    1    3    3    0    0 -0.17833861747E+02 -0.61554051933E+01 -0.28406254465E+02  0.34100763842E+02  0.10566000000E+00 0. -1.
         23    2    1    0    0    0  0.21793287250E+02 -0.27255345757E+01  0.18982986571E+02  0.95970193128E+02  0.91474303943E+02 0.  0.
         13    1    3    3    0    0  0.39627148997E+02  0.34298706176E+01  0.47389241036E+02  0.61869429285E+02  0.10566000000E+00 0.  1.
         22    1    1    0    0    0 -0.21793287250E+02  0.27255345757E+01 -0.18982986571E+02  0.29029806872E+02  0.00000000000E+00 0.  1.
</event>
<event>
 5    1  0.1764318E-003  0.9118800E+02  0.7818608E-02  0.1130116E+00
         25   -1    0    0    0    0  0.00000000000E+00  0.00000000000E+00  0.99999998245E-14  0.12500000000E+03  0.12500000000E+03 0.  0.
        -13    1    3    3    0    0 -0.42196701339E+02 -0.12701628296E+02 -0.11146333537E+02  0.45454866413E+02  0.10566000000E+00 0.  1.
         23    2    1    0    0    0 -0.12072057439E+02  0.29679332348E+01  0.26242462460E+02  0.95961920957E+02  0.91462999291E+02 0.  0.
         13    1    3    3    0    0  0.30124643900E+02  0.15669561531E+02  0.37388795997E+02  0.50507054545E+02  0.10566000000E+00 0. -1.
         22    1    1    0    0    0  0.12072057439E+02 -0.29679332348E+01 -0.26242462460E+02  0.29038079043E+02  0.00000000000E+00 0. -1.
</event>
<event>
 5    1  0.1764318E-003  0.9118800E+02  0.7818608E-02  0.1130116E+00
         25   -1    0    0    0    0  0.00000000000E+00  0.00000000000E+00  0.99999998245E-14  0.12500000000E+03  0.12500000000E+03 0.  0.
        -13    1    3    3    0    0  0.32861937601E+02 -0.15498878544E+02 -0.19804489935E+02  0.41380565059E+02  0.10566000000E+00 0.  1.
         23    2    1    0    0    0 -0.20253553745E+02 -0.17721011115E+02 -0.13429714681E+02  0.94923465780E+02  0.90032585463E+02 0.  0.
         13    1    3    3    0    0 -0.53115491346E+02 -0.22221325706E+01  0.63747752536E+01  0.53542900721E+02  0.10566000000E+00 0. -1.
         22    1    1    0    0    0  0.20253553745E+02  0.17721011115E+02  0.13429714681E+02  0.30076534220E+02  0.00000000000E+00 0. -1.
</event>
<event>
 5    1  0.1764318E-003  0.9118800E+02  0.7818608E-02  0.1130116E+00
         25   -1    0    0    0    0  0.00000000000E+00  0.00000000000E+00  0.99999998245E-14  0.12500000000E+03  0.12500000000E+03 0.  0.
        -13    1    3    3    0    0  0.16358861031E+02  0.16137993709E+02 -0.24646317365E+02  0.33697170488E+02  0.10566000000E+00 0.  1.
         23    2    1    0    0    0  0.12999132353E+01 -0.84441854499E+01  0.29091819675E+02  0.94679577603E+02  0.89693335319E+02 0.  0.
         13    1    3    3    0    0 -0.15058947796E+02 -0.24582179159E+02  0.53738137041E+02  0.60982407115E+02  0.10566000000E+00 0. -1.
         22    1    1    0    0    0 -0.12999132353E+01  0.84441854499E+01 -0.29091819675E+02  0.30320422397E+02  0.00000000000E+00 0. -1.
</event>
<event>
 5    1  0.1764318E-003  0.9118800E+02  0.7818608E-02  0.1130116E+00
         25   -1    0    0    0    0  0.00000000000E+00  0.00000000000E+00  0.99999998245E-14  0.12500000000E+03  0.12500000000E+03 0.  0.
        -13    1    3    3    0    0 -0.55329100183E+01  0.51575812782E+01 -0.35689444441E+02  0.36482342941E+02  0.10566000000E+00 0.  1.
         23    2    1    0    0    0 -0.14648599814E+02  0.11112237676E+02  0.22648506656E+02  0.95827784513E+02  0.91279494566E+02 0.  0.
         13    1    3    3    0    0 -0.91156897958E+01  0.59546563977E+01  0.58337951096E+02  0.59345441572E+02  0.10566000000E+00 0. -1.
         22    1    1    0    0    0  0.14648599814E+02 -0.11112237676E+02 -0.22648506656E+02  0.29172215487E+02  0.00000000000E+00 0. -1.
</event>
<event>
 5    1  0.1764318E-003  0.9118800E+02  0.7818608E-02  0.1130116E+00
         25   -1    0    0    0    0  0.00000000000E+00  0.00000000000E+00  0.99999998245E-14  0.12500000000E+03  0.12500000000E+03 0.  0.
        -13    1    3    3    0    0 -0.50856084051E+02  0.26826342659E+02 -0.10671739317E+02  0.58479835239E+02  0.10566000000E+00 0. -1.
         23    2    1    0    0    0 -0.14275118962E+02  0.22257241778E+02 -0.13228697837E+02  0.95433764538E+02  0.90738311282E+02 0.  0.
         13    1    3    3    0    0  0.36580965089E+02 -0.45691008808E+01 -0.25569585200E+01  0.36953929299E+02  0.10566000000E+00 0.  1.
         22    1    1    0    0    0  0.14275118962E+02 -0.22257241778E+02  0.13228697837E+02  0.29566235462E+02  0.00000000000E+00 0. -1.
</event>
<event>
 5    1  0.1764318E-003  0.9118800E+02  0.7818608E-02  0.1130116E+00
         25   -1    0    0    0    0  0.00000000000E+00  0.00000000000E+00  0.99999998245E-14  0.12500000000E+03  0.12500000000E+03 0.  0.
        -13    1    3    3    0    0 -0.43585883769E+02  0.23289928144E+02  0.18382626036E+02  0.52726484055E+02  0.10566000000E+00 0. -1.
         23    2    1    0    0    0 -0.95276029314E+01  0.24784364212E+02 -0.95320928173E+01  0.96788287530E+02  0.92585484189E+02 0.  0.
         13    1    3    3    0    0  0.34058280837E+02  0.14944360686E+01 -0.27914718853E+02  0.44061803475E+02  0.10566000000E+00 0.  1.
         22    1    1    0    0    0  0.95276029314E+01 -0.24784364212E+02  0.95320928173E+01  0.28211712470E+02  0.00000000000E+00 0.  1.
</event>
<event>
 5    1  0.1764318E-003  0.9118800E+02  0.7818608E-02  0.1130116E+00
         25   -1    0    0    0    0  0.00000000000E+00  0.00000000000E+00  0.99999998245E-14  0.12500000000E+03  0.12500000000E+03 0.  0.
        -13    1    3    3    0    0 -0.18461222891E+01  0.52872374136E+02 -0.32305387562E+02  0.61988267792E+02  0.10566000000E+00 0. -1.
         23    2    1    0    0    0  0.31215454101E+01  0.13802163752E+02 -0.46813217243E+01  0.11009501617E+03  0.10908141016E+03 0.  0.
         13    1    3    3    0    0  0.49676676993E+01 -0.39070210384E+02  0.27624065837E+02  0.48106748375E+02  0.10566000000E+00 0.  1.
         22    1    1    0    0    0 -0.31215454101E+01 -0.13802163752E+02  0.46813217243E+01  0.14904983833E+02  0.00000000000E+00 0. -1.
</event>
<event>
 5    1  0.1764318E-003  0.9118800E+02  0.7818608E-02  0.1130116E+00
         25   -1    0    0    0    0  0.00000000000E+00  0.00000000000E+00  0.99999998245E-14  0.12500000000E+03  0.12500000000E+03 0.  0.
        -13    1    3    3    0    0 -0.57317738804E+01  0.26737321283E+02 -0.15538291533E+01  0.27389106051E+02  0.10566000000E+00 0. -1.
         23    2    1    0    0    0  0.63728966801E+01 -0.33417009744E+02  0.93695444710E+01  0.89714043645E+02  0.82483397791E+02 0.  0.
         13    1    3    3    0    0  0.12104670561E+02 -0.60154331027E+02  0.10923373624E+02  0.62324937594E+02  0.10566000000E+00 0.  1.
         22    1    1    0    0    0 -0.63728966801E+01  0.33417009744E+02 -0.93695444710E+01  0.35285956355E+02  0.00000000000E+00 0.  1.
</event>
<event>
 5    1  0.1764318E-003  0.9118800E+02  0.7818608E-02  0.1130116E+00
         25   -1    0    0    0    0  0.00000000000E+00  0.00000000000E+00  0.99999998245E-14  0.12500000000E+03  0.12500000000E+03 0.  0.
        -13    1    3    3    0    0 -0.27135271284E+01  0.24422020936E+02 -0.55550017707E+02  0.60742192645E+02  0.10566000000E+00 0. -1.
         23    2    1    0    0    0 -0.95587511278E+01  0.51759145723E+01 -0.27396312493E+02  0.95525981730E+02  0.90865259767E+02 0.  0.
         13    1    3    3    0    0 -0.68452239994E+01 -0.19246106364E+02  0.28153705214E+02  0.34783789085E+02  0.10566000000E+00 0.  1.
         22    1    1    0    0    0  0.95587511278E+01 -0.51759145723E+01  0.27396312493E+02  0.29474018270E+02  0.00000000000E+00 0. -1.
</event>
<event>
 5    1  0.1764318E-003  0.9118800E+02  0.7818608E-02  0.1130116E+00
         25   -1    0    0    0    0  0.00000000000E+00  0.00000000000E+00  0.99999998245E-14  0.12500000000E+03  0.12500000000E+03 0.  0.
        -13    1    3    3    0    0  0.29453612296E+01 -0.13950954700E+01  0.33326130502E+02  0.33485274113E+02  0.10566000000E+00 0.  1.
         23    2    1    0    0    0 -0.12595497636E+02  0.16743577766E+02 -0.22529324705E+02  0.94233712788E+02  0.89069793966E+02 0.  0.
         13    1    3    3    0    0 -0.15540858866E+02  0.18138673236E+02 -0.55855455207E+02  0.60748438675E+02  0.10566000000E+00 0. -1.
         22    1    1    0    0    0  0.12595497636E+02 -0.16743577766E+02  0.22529324705E+02  0.30766287212E+02  0.00000000000E+00 0. -1.
</event>
<event>
 5    1  0.1764318E-003  0.9118800E+02  0.7818608E-02  0.1130116E+00
         25   -1    0    0    0    0  0.00000000000E+00  0.00000000000E+00  0.99999998245E-14  0.12500000000E+03  0.12500000000E+03 0.  0.
        -13    1    3    3    0    0 -0.23026492424E+02  0.40123853662E+01 -0.10137222186E+01  0.23395670250E+02  0.10566000000E+00 0.  1.
         23    2    1    0    0    0  0.30695390463E+02 -0.18497702366E+02 -0.19104532603E+02  0.84387746252E+02  0.73972539249E+02 0.  0.
         13    1    3    3    0    0  0.53721882887E+02 -0.22510087732E+02 -0.18090810385E+02  0.60992076002E+02  0.10566000000E+00 0. -1.
         22    1    1    0    0    0 -0.30695390463E+02  0.18497702366E+02  0.19104532603E+02  0.40612253748E+02  0.00000000000E+00 0. -1.
</event>
<event>
 5    1  0.1764318E-003  0.9118800E+02  0.7818608E-02  0.1130116E+00
         25   -1    0    0    0    0  0.00000000000E+00  0.00000000000E+00  0.99999998245E-14  0.12500000000E+03  0.12500000000E+03 0.  0.
        -13    1    3    3    0    0 -0.70752070585E+01 -0.31132522874E+02  0.35718727678E+02  0.47907527659E+02  0.10566000000E+00 0.  1.
         23    2    1    0    0    0  0.17700942868E+02  0.83256298549E+01  0.19859193182E+02  0.97124795162E+02  0.93038695125E+02 0.  0.
         13    1    3    3    0    0  0.24776149927E+02  0.39458152729E+02 -0.15859534496E+02  0.49217267503E+02  0.10566000000E+00 0. -1.
         22    1    1    0    0    0 -0.17700942868E+02 -0.83256298549E+01 -0.19859193182E+02  0.27875204838E+02  0.00000000000E+00 0. -1.
</event>
<event>
 5    1  0.1764318E-003  0.9118800E+02  0.7818608E-02  0.1130116E+00
         25   -1    0    0    0    0  0.00000000000E+00  0.00000000000E+00  0.99999998245E-14  0.12500000000E+03  0.12500000000E+03 0.  0.
        -13    1    3    3    0    0 -0.94050518743E+01  0.58089902503E+01  0.39268354701E+02  0.40794781694E+02  0.10566000000E+00 0. -1.
         23    2    1    0    0    0  0.11210136943E+02  0.34311236478E+02  0.76295615104E+01  0.88106391776E+02  0.80009986527E+02 0.  0.
         13    1    3    3    0    0  0.20615188817E+02  0.28502246227E+02 -0.31638793191E+02  0.47311610082E+02  0.10566000000E+00 0.  1.
         22    1    1    0    0    0 -0.11210136943E+02 -0.34311236478E+02 -0.76295615104E+01  0.36893608224E+02  0.00000000000E+00 0.  1.
</event>
<event>
 5    1  0.1764318E-003  0.9118800E+02  0.7818608E-02  0.1130116E+00
         25   -1    0    0    0    0  0.00000000000E+00  0.00000000000E+00  0.99999998245E-14  0.12500000000E+03  0.12500000000E+03 0.  0.
        -13    1    3    3    0    0  0.38945036271E+02  0.11033197290E+02  0.14599718920E+02  0.43030341030E+02  0.10566000000E+00 0. -1.
         23    2    1    0    0    0 -0.60620007781E+01  0.28806200064E+02 -0.48197193394E+01  0.95170908326E+02  0.90375478320E+02 0.  0.
         13    1    3    3    0    0 -0.45007037050E+02  0.17773002774E+02 -0.19419438259E+02  0.52140567296E+02  0.10566000000E+00 0.  1.
         22    1    1    0    0    0  0.60620007781E+01 -0.28806200064E+02  0.48197193394E+01  0.29829091674E+02  0.00000000000E+00 0.  1.
</event>
<event>
 5    1  0.1764318E-003  0.9118800E+02  0.7818608E-02  0.1130116E+00
         25   -1    0    0    0    0  0.00000000000E+00  0.00000000000E+00  0.99999998245E-14  0.12500000000E+03  0.12500000000E+03 0.  0.
        -13    1    3    3    0    0 -0.27936807173E+02 -0.40601294554E+01  0.27213794223E+02  0.39211625907E+02  0.10566000000E+00 0.  1.
         23    2    1    0    0    0 -0.12903430224E+01 -0.24297379518E+02 -0.17478217285E+02  0.95041433345E+02  0.90196221297E+02 0.  0.
         13    1    3    3    0    0  0.26646464151E+02 -0.20237250063E+02 -0.44692011508E+02  0.55829807438E+02  0.10566000000E+00 0. -1.
         22    1    1    0    0    0  0.12903430224E+01  0.24297379518E+02  0.17478217285E+02  0.29958566655E+02  0.00000000000E+00 0. -1.
</event>
<event>
 5    1  0.1764318E-003  0.9118800E+02  0.7818608E-02  0.1130116E+00
         25   -1    0    0    0    0  0.00000000000E+00  0.00000000000E+00  0.99999998245E-14  0.12500000000E+03  0.12500000000E+03 0.  0.
        -13    1    3    3    0    0  0.42473585822E+02 -0.81191939017E+01  0.20784750147E+02  0.47978576520E+02  0.10566000000E+00 0.  1.
         23    2    1    0    0    0  0.55430267223E+01  0.22324082119E+02  0.17768354945E+02  0.95934483917E+02  0.91425494143E+02 0.  0.
         13    1    3    3    0    0 -0.36930559099E+02  0.30443276021E+02 -0.30163952024E+01  0.47955907398E+02  0.10566000000E+00 0. -1.
         22    1    1    0    0    0 -0.55430267223E+01 -0.22324082119E+02 -0.17768354945E+02  0.29065516083E+02  0.00000000000E+00 0. -1.
</event>
<event>
 5    1  0.1764318E-003  0.9118800E+02  0.7818608E-02  0.1130116E+00
         25   -1    0    0    0    0  0.00000000000E+00  0.00000000000E+00  0.99999998245E-14  0.12500000000E+03  0.12500000000E+03 0.  0.
        -13    1    3    3    0    0 -0.46247987687E+02 -0.39412953458E+01 -0.19158311094E+02  0.50214163561E+02  0.10566000000E+00 0. -1.
         23    2    1    0    0    0 -0.33326572594E+01 -0.16602541074E+02 -0.24437610772E+02  0.95268740445E+02  0.90510690591E+02 0.  0.
         13    1    3    3    0    0  0.42915330427E+02 -0.12661245728E+02 -0.52792996775E+01  0.45054576884E+02  0.10566000000E+00 0.  1.
         22    1    1    0    0    0  0.33326572594E+01  0.16602541074E+02  0.24437610772E+02  0.29731259555E+02  0.00000000000E+00 0.  1.
</event>
<event>
 5    1  0.1764318E-003  0.9118800E+02  0.7818608E-02  0.1130116E+00
         25   -1    0    0    0    0  0.00000000000E+00  0.00000000000E+00  0.99999998245E-14  0.12500000000E+03  0.12500000000E+03 0.  0.
        -13    1    3    3    0    0  0.68769019457E+01  0.13847628972E+02 -0.33078209622E+02  0.36513391028E+02  0.10566000000E+00 0.  1.
         23    2    1    0    0    0  0.15835227647E+02 -0.40686521237E+01  0.23408732539E+02  0.96446941953E+02  0.92123479571E+02 0.  0.
         13    1    3    3    0    0  0.89583257014E+01 -0.17916281095E+02  0.56486942162E+02  0.59933550925E+02  0.10566000000E+00 0. -1.
         22    1    1    0    0    0 -0.15835227647E+02  0.40686521237E+01 -0.23408732539E+02  0.28553058047E+02  0.00000000000E+00 0. -1.
</event>
<event>
 5    1  0.1764318E-003  0.9118800E+02  0.7818608E-02  0.1130116E+00
         25   -1    0    0    0    0  0.00000000000E+00  0.00000000000E+00  0.99999998245E-14  0.12500000000E+03  0.12500000000E+03 0.  0.
        -13    1    3    3    0    0  0.10881737067E+02  0.10396236694E+02 -0.42245322189E+02  0.44846096262E+02  0.10566000000E+00 0. -1.
         23    2    1    0    0    0  0.25342516274E+02  0.13755680188E+02  0.61920065513E+01  0.95507580403E+02  0.90839942211E+02 0.  0.
         13    1    3    3    0    0  0.14460779207E+02  0.33594434932E+01  0.48437328741E+02  0.50661484142E+02  0.10566000000E+00 0.  1.
         22    1    1    0    0    0 -0.25342516274E+02 -0.13755680188E+02 -0.61920065513E+01  0.29492419597E+02  0.00000000000E+00 0.  1.
</event>
<event>
 5    1  0.1764318E-003  0.9118800E+02  0.7818608E-02  0.1130116E+00
         25   -1    0    0    0    0  0.00000000000E+00  0.00000000000E+00  0.99999998245E-14  0.12500000000E+03  0.12500000000E+03 0.  0.
        -13    1    3    3    0    0 -0.78669018656E+01 -0.29593113797E+02  0.53564457764E+02  0.61699293584E+02  0.10566000000E+00 0.  1.
         23    2    1    0    0    0 -0.99883438979E+01 -0.10612656536E+02  0.25049541304E+02  0.96019402834E+02  0.91541524504E+02 0.  0.
         13    1    3    3    0    0 -0.21214420324E+01  0.18980457261E+02 -0.28514916460E+02  0.34320109250E+02  0.10566000000E+00 0. -1.
         22    1    1    0    0    0  0.99883438979E+01  0.10612656536E+02 -0.25049541304E+02  0.28980597166E+02  0.00000000000E+00 0.  1.
</event>
<event>
 5    1  0.1764318E-003  0.9118800E+02  0.7818608E-02  0.1130116E+00
         25   -1    0    0    0    0  0.00000000000E+00  0.00000000000E+00  0.99999998245E-14  0.12500000000E+03  0.12500000000E+03 0.  0.
        -13    1    3    3    0    0  0.23216075906E+02 -0.90667539104E+01 -0.25893079073E+02  0.35939600928E+02  0.10566000000E+00 0. -1.
         23    2    1    0    0    0 -0.17224143618E+02  0.23349927361E+02  0.39033139318E+01  0.95723284153E+02  0.91136277290E+02 0.  0.
         13    1    3    3    0    0 -0.40440219524E+02  0.32416681272E+02  0.29796393005E+02  0.59783683225E+02  0.10566000000E+00 0.  1.
         22    1    1    0    0    0  0.17224143618E+02 -0.23349927361E+02 -0.39033139318E+01  0.29276715847E+02  0.00000000000E+00 0.  1.
</event>
<event>
 5    1  0.1764318E-003  0.9118800E+02  0.7818608E-02  0.1130116E+00
         25   -1    0    0    0    0  0.00000000000E+00  0.00000000000E+00  0.99999998245E-14  0.12500000000E+03  0.12500000000E+03 0.  0.
        -13    1    3    3    0    0 -0.71570210357E+01  0.37252964470E+02  0.39179485588E+02  0.54534847271E+02  0.10566000000E+00 0. -1.
         23    2    1    0    0    0 -0.24387704926E+02  0.10280968910E+02  0.15727761919E+02  0.94213298841E+02  0.89041140548E+02 0.  0.
         13    1    3    3    0    0 -0.17230683891E+02 -0.26971995560E+02 -0.23451723669E+02  0.39678451569E+02  0.10566000000E+00 0.  1.
         22    1    1    0    0    0  0.24387704926E+02 -0.10280968910E+02 -0.15727761919E+02  0.30786701159E+02  0.00000000000E+00 0. -1.
</event>
<event>
 5    1  0.1764318E-003  0.9118800E+02  0.7818608E-02  0.1130116E+00
         25   -1    0    0    0    0  0.00000000000E+00  0.00000000000E+00  0.99999998245E-14  0.12500000000E+03  0.12500000000E+03 0.  0.
        -13    1    3    3    0    0 -0.30034291200E+02  0.95448726970E+01  0.19385654280E+02  0.36999702683E+02  0.10566000000E+00 0.  1.
         23    2    1    0    0    0  0.26523990614E+02 -0.44029015676E+01  0.11395159122E+02  0.95797991992E+02  0.91238686959E+02 0.  0.
         13    1    3    3    0    0  0.56558281814E+02 -0.13947774265E+02 -0.79904951586E+01  0.58798289309E+02  0.10566000000E+00 0. -1.
         22    1    1    0    0    0 -0.26523990614E+02  0.44029015676E+01 -0.11395159122E+02  0.29202008008E+02  0.00000000000E+00 0. -1.
</event>
<event>
 5    1  0.1764318E-003  0.9118800E+02  0.7818608E-02  0.1130116E+00
         25   -1    0    0    0    0  0.00000000000E+00  0.00000000000E+00  0.99999998245E-14  0.12500000000E+03  0.12500000000E+03 0.  0.
        -13    1    3    3    0    0  0.26285150726E+02  0.21682280546E+02 -0.36672787431E+02  0.50059314222E+02  0.10566000000E+00 0.  1.
         23    2    1    0    0    0  0.29100812364E+02  0.50997310038E+00  0.36272111637E+01  0.95669571881E+02  0.91062577222E+02 0.  0.
         13    1    3    3    0    0  0.28156616379E+01 -0.21172307446E+02  0.40299998594E+02  0.45610257660E+02  0.10566000000E+00 0. -1.
         22    1    1    0    0    0 -0.29100812364E+02 -0.50997310038E+00 -0.36272111637E+01  0.29330428119E+02  0.00000000000E+00 0.  1.
</event>
<event>
 5    1  0.1764318E-003  0.9118800E+02  0.7818608E-02  0.1130116E+00
         25   -1    0    0    0    0  0.00000000000E+00  0.00000000000E+00  0.99999998245E-14  0.12500000000E+03  0.12500000000E+03 0.  0.
        -13    1    3    3    0    0 -0.23397368924E+02  0.26303565408E+02 -0.17361593836E+01  0.35246841549E+02  0.10566000000E+00 0.  1.
         23    2    1    0    0    0  0.21662506260E+02 -0.14150706777E+02 -0.11676331122E+02  0.96612619208E+02  0.92348009194E+02 0.  0.
         13    1    3    3    0    0  0.45059875184E+02 -0.40454272185E+02 -0.99401717381E+01  0.61365777660E+02  0.10566000000E+00 0. -1.
         22    1    1    0    0    0 -0.21662506260E+02  0.14150706777E+02  0.11676331122E+02  0.28387380792E+02  0.00000000000E+00 0. -1.
</event>
<event>
 5    1  0.1764318E-003  0.9118800E+02  0.7818608E-02  0.1130116E+00
         25   -1    0    0    0    0  0.00000000000E+00  0.00000000000E+00  0.99999998245E-14  0.12500000000E+03  0.12500000000E+03 0.  0.
        -13    1    3    3    0    0 -0.32823430041E+02  0.15812077887E+02 -0.16287961987E+02  0.39908748871E+02  0.10566000000E+00 0. -1.
         23    2    1    0    0    0  0.17997402371E+01 -0.14109221953E+02  0.21476779571E+02  0.99240316971E+02  0.95838819080E+02 0.  0.
         13    1    3    3    0    0  0.34623170278E+02 -0.29921299840E+02  0.37764741558E+02  0.59331568100E+02  0.10566000000E+00 0.  1.
         22    1    1    0    0    0 -0.17997402371E+01  0.14109221953E+02 -0.21476779571E+02  0.25759683029E+02  0.00000000000E+00 0.  1.
</event>
<event>
 5    1  0.1764318E-003  0.9118800E+02  0.7818608E-02  0.1130116E+00
         25   -1    0    0    0    0  0.00000000000E+00  0.00000000000E+00  0.99999998245E-14  0.12500000000E+03  0.12500000000E+03 0.  0.
        -13    1    3    3    0    0 -0.28664319425E+02  0.32142058494E+02 -0.10238559433E+02  0.44267306171E+02  0.10566000000E+00 0. -1.
         23    2    1    0    0    0 -0.17130337210E+02 -0.80547410938E+01  0.21194874749E+02  0.96582575369E+02  0.92307333633E+02 0.  0.
         13    1    3    3    0    0  0.11533982215E+02 -0.40196799588E+02  0.31433434182E+02  0.52315269199E+02  0.10566000000E+00 0.  1.
         22    1    1    0    0    0  0.17130337210E+02  0.80547410938E+01 -0.21194874749E+02  0.28417424631E+02  0.00000000000E+00 0. -1.
</event>
<event>
 5    1  0.1764318E-003  0.9118800E+02  0.7818608E-02  0.1130116E+00
         25   -1    0    0    0    0  0.00000000000E+00  0.00000000000E+00  0.99999998245E-14  0.12500000000E+03  0.12500000000E+03 0.  0.
        -13    1    3    3    0    0 -0.41608868592E+02  0.21321537804E+02  0.25720729840E+02  0.53361718745E+02  0.10566000000E+00 0.  1.
         23    2    1    0    0    0 -0.35956836953E+01  0.17562739412E+01  0.28514729117E+02  0.96205847538E+02  0.91795761800E+02 0.  0.
         13    1    3    3    0    0  0.38013184897E+02 -0.19565263863E+02  0.27939992772E+01  0.42844128793E+02  0.10566000000E+00 0. -1.
         22    1    1    0    0    0  0.35956836953E+01 -0.17562739412E+01 -0.28514729117E+02  0.28794152462E+02  0.00000000000E+00 0.  1.
</event>
<event>
 5    1  0.1764318E-003  0.9118800E+02  0.7818608E-02  0.1130116E+00
         25   -1    0    0    0    0  0.00000000000E+00  0.00000000000E+00  0.99999998245E-14  0.12500000000E+03  0.12500000000E+03 0.  0.
        -13    1    3    3    0    0 -0.33160525869E+02  0.23079028649E+02 -0.11953396822E+02  0.42132610872E+02  0.10566000000E+00 0. -1.
         23    2    1    0    0    0 -0.13519408764E+01  0.87741612826E+01  0.28268606455E+02  0.95370154215E+02  0.90650640118E+02 0.  0.
         13    1    3    3    0    0  0.31808584993E+02 -0.14304867366E+02  0.40222003277E+02  0.53237543343E+02  0.10566000000E+00 0.  1.
         22    1    1    0    0    0  0.13519408764E+01 -0.87741612826E+01 -0.28268606455E+02  0.29629845785E+02  0.00000000000E+00 0.  1.
</event>
<event>
 5    1  0.1764318E-003  0.9118800E+02  0.7818608E-02  0.1130116E+00
         25   -1    0    0    0    0  0.00000000000E+00  0.00000000000E+00  0.99999998245E-14  0.12500000000E+03  0.12500000000E+03 0.  0.
        -13    1    3    3    0    0 -0.48675317467E+02  0.24690679458E+02 -0.25710600910E+02  0.60332100459E+02  0.10566000000E+00 0.  1.
         23    2    1    0    0    0 -0.28561816636E+02  0.87708104234E+01 -0.23453972069E+01  0.95029925374E+02  0.90180271366E+02 0.  0.
         13    1    3    3    0    0  0.20113500831E+02 -0.15919869035E+02  0.23365203703E+02  0.34697824916E+02  0.10566000000E+00 0. -1.
         22    1    1    0    0    0  0.28561816636E+02 -0.87708104234E+01  0.23453972069E+01  0.29970074626E+02  0.00000000000E+00 0.  1.
</event>
<event>
 5    1  0.1764318E-003  0.9118800E+02  0.7818608E-02  0.1130116E+00
         25   -1    0    0    0    0  0.00000000000E+00  0.00000000000E+00  0.99999998245E-14  0.12500000000E+03  0.12500000000E+03 0.  0.
        -13    1    3    3    0    0  0.55684067688E+01  0.54883354689E+02  0.21079050465E+02  0.59055290266E+02  0.10566000000E+00 0. -1.
         23    2    1    0    0    0 -0.12148546249E+02  0.22751144679E+02  0.85759523456E+01  0.97820067719E+02  0.93968169769E+02 0.  0.
         13    1    3    3    0    0 -0.17716953018E+02 -0.32132210010E+02 -0.12503098120E+02  0.38764777453E+02  0.10566000000E+00 0.  1.
         22    1    1    0    0    0  0.12148546249E+02 -0.22751144679E+02 -0.85759523456E+01  0.27179932281E+02  0.00000000000E+00 0. -1.
</event>
<event>
 5    1  0.1764318E-003  0.9118800E+02  0.7818608E-02  0.1130116E+00
         25   -1    0    0    0    0  0.00000000000E+00  0.00000000000E+00  0.99999998245E-14  0.12500000000E+03  0.12500000000E+03 0.  0.
        -13    1    3    3    0    0  0.17243118896E+01  0.24422362668E+02  0.56218651271E+02  0.61318618417E+02  0.10566000000E+00 0.  1.
         23    2    1    0    0    0  0.89875380186E+00  0.18410676792E+02  0.20993422785E+02  0.97062845911E+02  0.92955427371E+02 0.  0.
         13    1    3    3    0    0 -0.82555808778E+00 -0.60116858758E+01 -0.35225228486E+02  0.35744227494E+02  0.10566000000E+00 0. -1.
         22    1    1    0    0    0 -0.89875380186E+00 -0.18410676792E+02 -0.20993422785E+02  0.27937154089E+02  0.00000000000E+00 0.  1.
</event>
<event>
 5    1  0.1764318E-003  0.9118800E+02  0.7818608E-02  0.1130116E+00
         25   -1    0    0    0    0  0.00000000000E+00  0.00000000000E+00  0.99999998245E-14  0.12500000000E+03  0.12500000000E+03 0.  0.
        -13    1    3    3    0    0  0.15040514497E+01 -0.56417887068E+02 -0.11892261159E+02  0.57677354234E+02  0.10566000000E+00 0. -1.
         23    2    1    0    0    0  0.83865265665E+01 -0.19073723535E+02 -0.19565022528E+02  0.96417997554E+02  0.92084197279E+02 0.  0.
         13    1    3    3    0    0  0.68824751168E+01  0.37344163533E+02 -0.76727613686E+01  0.38740643319E+02  0.10566000000E+00 0.  1.
         22    1    1    0    0    0 -0.83865265665E+01  0.19073723535E+02  0.19565022528E+02  0.28582002446E+02  0.00000000000E+00 0. -1.
</event>
<event>
 5    1  0.1764318E-003  0.9118800E+02  0.7818608E-02  0.1130116E+00
         25   -1    0    0    0    0  0.00000000000E+00  0.00000000000E+00  0.99999998245E-14  0.12500000000E+03  0.12500000000E+03 0.  0.
        -13    1    3    3    0    0  0.25303629074E+02  0.20178609153E+02 -0.16027462649E+02  0.36115656365E+02  0.10566000000E+00 0. -1.
         23    2    1    0    0    0 -0.26108174303E+02  0.10516110695E+02  0.10734791586E+02  0.94875904993E+02  0.89966528489E+02 0.  0.
         13    1    3    3    0    0 -0.51411803377E+02 -0.96624984587E+01  0.26762254236E+02  0.58760248628E+02  0.10566000000E+00 0.  1.
         22    1    1    0    0    0  0.26108174303E+02 -0.10516110695E+02 -0.10734791586E+02  0.30124095007E+02  0.00000000000E+00 0.  1.
</event>
<event>
 5    1  0.1764318E-003  0.9118800E+02  0.7818608E-02  0.1130116E+00
         25   -1    0    0    0    0  0.00000000000E+00  0.00000000000E+00  0.99999998245E-14  0.12500000000E+03  0.12500000000E+03 0.  0.
        -13    1    3    3    0    0  0.37635144329E+01 -0.15240564286E+02 -0.36253644367E+02  0.39506666964E+02  0.10566000000E+00 0. -1.
         23    2    1    0    0    0 -0.86573695382E+01 -0.19765277339E+02  0.18956706371E+02  0.96277657615E+02  0.91893494894E+02 0.  0.
         13    1    3    3    0    0 -0.12420883971E+02 -0.45247130530E+01  0.55210350739E+02  0.56770990652E+02  0.10566000000E+00 0.  1.
         22    1    1    0    0    0  0.86573695382E+01  0.19765277339E+02 -0.18956706371E+02  0.28722342385E+02  0.00000000000E+00 0. -1.
</event>
<event>
 5    1  0.1764318E-003  0.9118800E+02  0.7818608E-02  0.1130116E+00
         25   -1    0    0    0    0  0.00000000000E+00  0.00000000000E+00  0.99999998245E-14  0.12500000000E+03  0.12500000000E+03 0.  0.
        -13    1    3    3    0    0  0.56224940954E+02 -0.17755425805E+02  0.20063451962E+02  0.62282039140E+02  0.10566000000E+00 0. -1.
         23    2    1    0    0    0  0.27914370125E+02 -0.85985721799E+01  0.60513233781E+01  0.95171054030E+02  0.90375679846E+02 0.  0.
         13    1    3    3    0    0 -0.28310570829E+02  0.91568536250E+01 -0.14012128584E+02  0.32889014890E+02  0.10566000000E+00 0.  1.
         22    1    1    0    0    0 -0.27914370125E+02  0.85985721799E+01 -0.60513233781E+01  0.29828945970E+02  0.00000000000E+00 0. -1.
</event>
<event>
 5    1  0.1764318E-003  0.9118800E+02  0.7818608E-02  0.1130116E+00
         25   -1    0    0    0    0  0.00000000000E+00  0.00000000000E+00  0.99999998245E-14  0.12500000000E+03  0.12500000000E+03 0.  0.
        -13    1    3    3    0    0 -0.59228661835E+02 -0.23954458612E+01  0.52794060085E+01  0.59511812571E+02  0.10566000000E+00 0.  1.
         23    2    1    0    0    0 -0.26636519113E+02 -0.14671619879E+02  0.13533855819E+01  0.94560022456E+02  0.89526563734E+02 0.  0.
         13    1    3    3    0    0  0.32592142722E+02 -0.12276174017E+02 -0.39260204266E+01  0.35048209885E+02  0.10566000000E+00 0. -1.
         22    1    1    0    0    0  0.26636519113E+02  0.14671619879E+02 -0.13533855819E+01  0.30439977544E+02  0.00000000000E+00 0.  1.
</event>
<event>
 5    1  0.1764318E-003  0.9118800E+02  0.7818608E-02  0.1130116E+00
         25   -1    0    0    0    0  0.00000000000E+00  0.00000000000E+00  0.99999998245E-14  0.12500000000E+03  0.12500000000E+03 0.  0.
        -13    1    3    3    0    0  0.30123441345E+02 -0.10609135081E+02 -0.20672387438E+02  0.38043846179E+02  0.10566000000E+00 0.  1.
         23    2    1    0    0    0 -0.25888548498E+02  0.71217204925E+00 -0.13952494615E+02  0.95582382178E+02  0.90942814694E+02 0.  0.
         13    1    3    3    0    0 -0.56011989843E+02  0.11321307130E+02  0.67198928229E+01  0.57538535999E+02  0.10566000000E+00 0. -1.
         22    1    1    0    0    0  0.25888548498E+02 -0.71217204925E+00  0.13952494615E+02  0.29417617822E+02  0.00000000000E+00 0. -1.
</event>
<event>
 5    1  0.1764318E-003  0.9118800E+02  0.7818608E-02  0.1130116E+00
         25   -1    0    0    0    0  0.00000000000E+00  0.00000000000E+00  0.99999998245E-14  0.12500000000E+03  0.12500000000E+03 0.  0.
        -13    1    3    3    0    0  0.40051997918E+02 -0.67075982795E+01 -0.11597784868E+02  0.42233567098E+02  0.10566000000E+00 0.  1.
         23    2    1    0    0    0  0.11096970517E+02  0.16197071230E+02  0.24321235426E+02  0.93742835002E+02  0.88378214231E+02 0.  0.
         13    1    3    3    0    0 -0.28955027402E+02  0.22904669509E+02  0.35919020294E+02  0.51509267904E+02  0.10566000000E+00 0. -1.
         22    1    1    0    0    0 -0.11096970517E+02 -0.16197071230E+02 -0.24321235426E+02  0.31257164998E+02  0.00000000000E+00 0. -1.
</event>
<event>
 5    1  0.1764318E-003  0.9118800E+02  0.7818608E-02  0.1130116E+00
         25   -1    0    0    0    0  0.00000000000E+00  0.00000000000E+00  0.99999998245E-14  0.12500000000E+03  0.12500000000E+03 0.  0.
        -13    1    3    3    0    0 -0.19892597403E+02  0.36881616719E+02  0.28802174304E+02  0.50848259478E+02  0.10566000000E+00 0. -1.
         23    2    1    0    0    0 -0.16259277692E+02 -0.30509255625E+01 -0.91811033579E+01  0.10608003920E+03  0.10437916363E+03 0.  0.
         13    1    3    3    0    0  0.36333197106E+01 -0.39932542282E+02 -0.37983277662E+02  0.55231779721E+02  0.10566000000E+00 0.  1.
         22    1    1    0    0    0  0.16259277692E+02  0.30509255625E+01  0.91811033579E+01  0.18919960801E+02  0.00000000000E+00 0.  1.
</event>
<event>
 5    1  0.1764318E-003  0.9118800E+02  0.7818608E-02  0.1130116E+00
         25   -1    0    0    0    0  0.00000000000E+00  0.00000000000E+00  0.99999998245E-14  0.12500000000E+03  0.12500000000E+03 0.  0.
        -13    1    3    3    0    0 -0.40741608163E+01  0.32362507375E+02  0.48346455626E+02  0.58320850522E+02  0.10566000000E+00 0.  1.
         23    2    1    0    0    0  0.10515492193E+02  0.58285957124E+01  0.27220140159E+02  0.95242914552E+02  0.90475016652E+02 0.  0.
         13    1    3    3    0    0  0.14589653009E+02 -0.26533911663E+02 -0.21126315467E+02  0.36922064031E+02  0.10566000000E+00 0. -1.
         22    1    1    0    0    0 -0.10515492193E+02 -0.58285957124E+01 -0.27220140159E+02  0.29757085448E+02  0.00000000000E+00 0.  1.
</event>
<event>
 5    1  0.1764318E-003  0.9118800E+02  0.7818608E-02  0.1130116E+00
         25   -1    0    0    0    0  0.00000000000E+00  0.00000000000E+00  0.99999998245E-14  0.12500000000E+03  0.12500000000E+03 0.  0.
        -13    1    3    3    0    0 -0.56084809286E+02  0.13350751097E+02  0.17024827402E+02  0.60113262260E+02  0.10566000000E+00 0. -1.
         23    2    1    0    0    0 -0.23738281621E+02 -0.34962669130E+01  0.15130602803E+02  0.96633381629E+02  0.92376108422E+02 0.  0.
         13    1    3    3    0    0  0.32346527665E+02 -0.16847018010E+02 -0.18942245985E+01  0.36520119368E+02  0.10566000000E+00 0.  1.
         22    1    1    0    0    0  0.23738281621E+02  0.34962669130E+01 -0.15130602803E+02  0.28366618371E+02  0.00000000000E+00 0. -1.
</event>
<event>
 5    1  0.1764318E-003  0.9118800E+02  0.7818608E-02  0.1130116E+00
         25   -1    0    0    0    0  0.00000000000E+00  0.00000000000E+00  0.99999998245E-14  0.12500000000E+03  0.12500000000E+03 0.  0.
        -13    1    3    3    0    0  0.87651555724E+01  0.20403076321E+02  0.27876357870E+02  0.35640089334E+02  0.10566000000E+00 0.  1.
         23    2    1    0    0    0  0.13892201645E+02 -0.16279319763E+01 -0.26777212427E+02  0.94789694897E+02  0.89846667853E+02 0.  0.
         13    1    3    3    0    0  0.51270460727E+01 -0.22031008297E+02 -0.54653570297E+02  0.59149605563E+02  0.10566000000E+00 0. -1.
         22    1    1    0    0    0 -0.13892201645E+02  0.16279319763E+01  0.26777212427E+02  0.30210305103E+02  0.00000000000E+00 0. -1.
</event>
<event>
 5    1  0.1764318E-003  0.9118800E+02  0.7818608E-02  0.1130116E+00
         25   -1    0    0    0    0  0.00000000000E+00  0.00000000000E+00  0.99999998245E-14  0.12500000000E+03  0.12500000000E+03 0.  0.
        -13    1    3    3    0    0  0.27738678695E+02  0.20694890922E+02 -0.20899716355E+01  0.34671197722E+02  0.10566000000E+00 0.  1.
         23    2    1    0    0    0 -0.15664555031E+02 -0.10204029285E+02  0.24472330225E+02  0.94203970310E+02  0.89028043770E+02 0.  0.
         13    1    3    3    0    0 -0.43403233726E+02 -0.30898920207E+02  0.26562301861E+02  0.59532772588E+02  0.10566000000E+00 0. -1.
         22    1    1    0    0    0  0.15664555031E+02  0.10204029285E+02 -0.24472330225E+02  0.30796029690E+02  0.00000000000E+00 0. -1.
</event>
<event>
 5    1  0.1764318E-003  0.9118800E+02  0.7818608E-02  0.1130116E+00
         25   -1    0    0    0    0  0.00000000000E+00  0.00000000000E+00  0.99999998245E-14  0.12500000000E+03  0.12500000000E+03 0.  0.
        -13    1    3    3    0    0  0.41346902704E+02 -0.78602739872E+01  0.35647078745E+02  0.55155014799E+02  0.10566000000E+00 0. -1.
         23    2    1    0    0    0  0.70280576972E+01  0.12521586037E+02  0.24508110036E+02  0.96595226292E+02  0.92324463567E+02 0.  0.
         13    1    3    3    0    0 -0.34318845007E+02  0.20381860024E+02 -0.11138968709E+02  0.41440211493E+02  0.10566000000E+00 0.  1.
         22    1    1    0    0    0 -0.70280576972E+01 -0.12521586037E+02 -0.24508110036E+02  0.28404773708E+02  0.00000000000E+00 0. -1.
</event>
<event>
 5    1  0.1764318E-003  0.9118800E+02  0.7818608E-02  0.1130116E+00
         25   -1    0    0    0    0  0.00000000000E+00  0.00000000000E+00  0.99999998245E-14  0.12500000000E+03  0.12500000000E+03 0.  0.
        -13    1    3    3    0    0 -0.43621941968E+02  0.27910217268E+02  0.12220966659E+02  0.53209183785E+02  0.10566000000E+00 0.  1.
         23    2    1    0    0    0 -0.60591701973E+01  0.19525314433E+02  0.24013550226E+02  0.93462688104E+02  0.87981089024E+02 0.  0.
         13    1    3    3    0    0  0.37562771771E+02 -0.83849028347E+01  0.11792583568E+02  0.40253504318E+02  0.10566000000E+00 0. -1.
         22    1    1    0    0    0  0.60591701973E+01 -0.19525314433E+02 -0.24013550226E+02  0.31537311896E+02  0.00000000000E+00 0.  1.
</event>
<event>
 5    1  0.1764318E-003  0.9118800E+02  0.7818608E-02  0.1130116E+00
         25   -1    0    0    0    0  0.00000000000E+00  0.00000000000E+00  0.99999998245E-14  0.12500000000E+03  0.12500000000E+03 0.  0.
        -13    1    3    3    0    0  0.32424240767E+02 -0.22564339189E+02 -0.11360706868E+02  0.41104228699E+02  0.10566000000E+00 0.  1.
         23    2    1    0    0    0 -0.18108386139E+02  0.18062779733E+00  0.14061067332E+02  0.10207272608E+03  0.99464473655E+02 0.  0.
         13    1    3    3    0    0 -0.50532626906E+02  0.22744966986E+02  0.25421774200E+02  0.60968497380E+02  0.10566000000E+00 0. -1.
         22    1    1    0    0    0  0.18108386139E+02 -0.18062779733E+00 -0.14061067332E+02  0.22927273922E+02  0.00000000000E+00 0. -1.
</event>
<event>
 5    1  0.1764318E-003  0.9118800E+02  0.7818608E-02  0.1130116E+00
         25   -1    0    0    0    0  0.00000000000E+00  0.00000000000E+00  0.99999998245E-14  0.12500000000E+03  0.12500000000E+03 0.  0.
        -13    1    3    3    0    0  0.19307593454E+02  0.16108834745E+02 -0.31440249096E+02  0.40258889069E+02  0.10566000000E+00 0.  1.
         23    2    1    0    0    0  0.14463977637E+02 -0.22999925799E+02  0.86616970892E+01  0.96482843194E+02  0.92172180176E+02 0.  0.
         13    1    3    3    0    0 -0.48436158167E+01 -0.39108760544E+02  0.40101946185E+02  0.56223954124E+02  0.10566000000E+00 0. -1.
         22    1    1    0    0    0 -0.14463977637E+02  0.22999925799E+02 -0.86616970892E+01  0.28517156806E+02  0.00000000000E+00 0. -1.
</event>
<event>
 5    1  0.1764318E-003  0.9118800E+02  0.7818608E-02  0.1130116E+00
         25   -1    0    0    0    0  0.00000000000E+00  0.00000000000E+00  0.99999998245E-14  0.12500000000E+03  0.12500000000E+03 0.  0.
        -13    1    3    3    0    0  0.36568066241E+02  0.24199617786E+02 -0.44177893239E+02  0.62245822227E+02  0.10566000000E+00 0.  1.
         23    2    1    0    0    0  0.20060099262E+02  0.13602724351E+02 -0.18774249790E+02  0.94341980701E+02  0.89221607110E+02 0.  0.
         13    1    3    3    0    0 -0.16507966980E+02 -0.10596893435E+02  0.25403643449E+02  0.32096158474E+02  0.10566000000E+00 0. -1.
         22    1    1    0    0    0 -0.20060099262E+02 -0.13602724351E+02  0.18774249790E+02  0.30658019299E+02  0.00000000000E+00 0.  1.
</event>
<event>
 5    1  0.1764318E-003  0.9118800E+02  0.7818608E-02  0.1130116E+00
         25   -1    0    0    0    0  0.00000000000E+00  0.00000000000E+00  0.99999998245E-14  0.12500000000E+03  0.12500000000E+03 0.  0.
        -13    1    3    3    0    0  0.21891378341E+02 -0.29035341008E+02  0.45521307141E+02  0.58262200791E+02  0.10566000000E+00 0.  1.
         23    2    1    0    0    0  0.20939197216E+02 -0.12387512996E+01  0.20370295659E+02  0.95760755310E+02  0.91187657210E+02 0.  0.
         13    1    3    3    0    0 -0.95218112538E+00  0.27796589709E+02 -0.25151011482E+02  0.37498554518E+02  0.10566000000E+00 0. -1.
         22    1    1    0    0    0 -0.20939197216E+02  0.12387512996E+01 -0.20370295659E+02  0.29239244690E+02  0.00000000000E+00 0.  1.
</event>
<event>
 5    1  0.1764318E-003  0.9118800E+02  0.7818608E-02  0.1130116E+00
         25   -1    0    0    0    0  0.00000000000E+00  0.00000000000E+00  0.99999998245E-14  0.12500000000E+03  0.12500000000E+03 0.  0.
        -13    1    3    3    0    0  0.78727990563E+01 -0.29504124323E+02  0.36359357657E+02  0.47481452908E+02  0.10566000000E+00 0. -1.
         23    2    1    0    0    0 -0.38666488947E+01  0.14441104133E+02  0.27319743590E+02  0.93857346740E+02  0.88540028716E+02 0.  0.
         13    1    3    3    0    0 -0.11739447951E+02  0.43945228455E+02 -0.90396140673E+01  0.46375893832E+02  0.10566000000E+00 0.  1.
         22    1    1    0    0    0  0.38666488947E+01 -0.14441104133E+02 -0.27319743590E+02  0.31142653260E+02  0.00000000000E+00 0. -1.
</event>
<event>
 5    1  0.1764318E-003  0.9118800E+02  0.7818608E-02  0.1130116E+00
         25   -1    0    0    0    0  0.00000000000E+00  0.00000000000E+00  0.99999998245E-14  0.12500000000E+03  0.12500000000E+03 0.  0.
        -13    1    3    3    0    0  0.30670076787E+02 -0.12957131447E+02  0.52623160278E+02  0.62271574792E+02  0.10566000000E+00 0.  1.
         23    2    1    0    0    0  0.13082671406E+02 -0.34745782461E+01  0.27299008163E+02  0.94529279106E+02  0.89483628539E+02 0.  0.
         13    1    3    3    0    0 -0.17587405381E+02  0.94825532005E+01 -0.25324152115E+02  0.32257704314E+02  0.10566000000E+00 0. -1.
         22    1    1    0    0    0 -0.13082671406E+02  0.34745782461E+01 -0.27299008163E+02  0.30470720894E+02  0.00000000000E+00 0.  1.
</event>
<event>
 5    1  0.1764318E-003  0.9118800E+02  0.7818608E-02  0.1130116E+00
         25   -1    0    0    0    0  0.00000000000E+00  0.00000000000E+00  0.99999998245E-14  0.12500000000E+03  0.12500000000E+03 0.  0.
        -13    1    3    3    0    0 -0.25021451462E+02  0.53080730077E+02  0.14134055055E+02  0.60360745647E+02  0.10566000000E+00 0. -1.
         23    2    1    0    0    0 -0.51011020307E+00  0.27971832072E+02  0.68142920732E+01  0.96205587723E+02  0.91795408005E+02 0.  0.
         13    1    3    3    0    0  0.24511341259E+02 -0.25108898004E+02 -0.73197629816E+01  0.35844842076E+02  0.10566000000E+00 0.  1.
         22    1    1    0    0    0  0.51011020307E+00 -0.27971832072E+02 -0.68142920732E+01  0.28794412277E+02  0.00000000000E+00 0. -1.
</event>
<event>
 5    1  0.1764318E-003  0.9118800E+02  0.7818608E-02  0.1130116E+00
         25   -1    0    0    0    0  0.00000000000E+00  0.00000000000E+00  0.99999998245E-14  0.12500000000E+03  0.12500000000E+03 0.  0.
        -13    1    3    3    0    0  0.28177919933E+02  0.21696646984E+02 -0.45174485107E+02  0.57493346839E+02  0.10566000000E+00 0. -1.
         23    2    1    0    0    0 -0.34686293358E+01  0.13359356281E+02 -0.26366329624E+02  0.95239503910E+02  0.90470304396E+02 0.  0.
         13    1    3    3    0    0 -0.31646549268E+02 -0.83372907034E+01  0.18808155483E+02  0.37746157070E+02  0.10566000000E+00 0.  1.
         22    1    1    0    0    0  0.34686293358E+01 -0.13359356281E+02  0.26366329624E+02  0.29760496090E+02  0.00000000000E+00 0. -1.
</event>
<event>
 5    1  0.1764318E-003  0.9118800E+02  0.7818608E-02  0.1130116E+00
         25   -1    0    0    0    0  0.00000000000E+00  0.00000000000E+00  0.99999998245E-14  0.12500000000E+03  0.12500000000E+03 0.  0.
        -13    1    3    3    0    0  0.30165590361E+02 -0.19561856049E+02 -0.13717540440E+02  0.38481308887E+02  0.10566000000E+00 0. -1.
         23    2    1    0    0    0 -0.20884425597E+02 -0.16161797220E+02 -0.22394629595E+02  0.90375119400E+02  0.83479218072E+02 0.  0.
         13    1    3    3    0    0 -0.51050015957E+02  0.34000588292E+01 -0.86770891551E+01  0.51893810513E+02  0.10566000000E+00 0.  1.
         22    1    1    0    0    0  0.20884425597E+02  0.16161797220E+02  0.22394629595E+02  0.34624880600E+02  0.00000000000E+00 0.  1.
</event>
<event>
 5    1  0.1764318E-003  0.9118800E+02  0.7818608E-02  0.1130116E+00
         25   -1    0    0    0    0  0.00000000000E+00  0.00000000000E+00  0.99999998245E-14  0.12500000000E+03  0.12500000000E+03 0.  0.
        -13    1    3    3    0    0  0.27669796016E+02  0.18448274109E+02  0.20665040732E+02  0.39153690780E+02  0.10566000000E+00 0. -1.
         23    2    1    0    0    0 -0.66015411589E+01  0.18073417308E+02 -0.23224689641E+02  0.94840176264E+02  0.89916873088E+02 0.  0.
         13    1    3    3    0    0 -0.34271337175E+02 -0.37485680077E+00 -0.43889730373E+02  0.55686485484E+02  0.10566000000E+00 0.  1.
         22    1    1    0    0    0  0.66015411589E+01 -0.18073417308E+02  0.23224689641E+02  0.30159823736E+02  0.00000000000E+00 0.  1.
</event>
<event>
 5    1  0.1764318E-003  0.9118800E+02  0.7818608E-02  0.1130116E+00
         25   -1    0    0    0    0  0.00000000000E+00  0.00000000000E+00  0.99999998245E-14  0.12500000000E+03  0.12500000000E+03 0.  0.
        -13    1    3    3    0    0 -0.15678076922E+02  0.37775080576E+02 -0.33705673022E+02  0.52998512869E+02  0.10566000000E+00 0. -1.
         23    2    1    0    0    0  0.25420828573E+01  0.15854808181E+02  0.10656126973E+02  0.10572851407E+03  0.10395733990E+03 0.  0.
         13    1    3    3    0    0  0.18220159779E+02 -0.21920272395E+02  0.44361799995E+02  0.52730001205E+02  0.10566000000E+00 0.  1.
         22    1    1    0    0    0 -0.25420828573E+01 -0.15854808181E+02 -0.10656126973E+02  0.19271485925E+02  0.00000000000E+00 0.  1.
</event>
<event>
 5    1  0.1764318E-003  0.9118800E+02  0.7818608E-02  0.1130116E+00
         25   -1    0    0    0    0  0.00000000000E+00  0.00000000000E+00  0.99999998245E-14  0.12500000000E+03  0.12500000000E+03 0.  0.
        -13    1    3    3    0    0  0.54701542968E+01  0.29862436604E+02  0.31637651370E+02  0.43847917353E+02  0.10566000000E+00 0. -1.
         23    2    1    0    0    0  0.26834886385E+02 -0.66351468705E+01 -0.11084455247E+01  0.97334769967E+02  0.93320375544E+02 0.  0.
         13    1    3    3    0    0  0.21364732089E+02 -0.36497583474E+02 -0.32746096894E+02  0.53486852614E+02  0.10566000000E+00 0.  1.
         22    1    1    0    0    0 -0.26834886385E+02  0.66351468705E+01  0.11084455247E+01  0.27665230033E+02  0.00000000000E+00 0.  1.
</event>
<event>
 5    1  0.1764318E-003  0.9118800E+02  0.7818608E-02  0.1130116E+00
         25   -1    0    0    0    0  0.00000000000E+00  0.00000000000E+00  0.99999998245E-14  0.12500000000E+03  0.12500000000E+03 0.  0.
        -13    1    3    3    0    0  0.51969551742E+01 -0.49896716792E+02  0.33788032556E+02  0.60484154932E+02  0.10566000000E+00 0. -1.
         23    2    1    0    0    0  0.35818368246E+01 -0.27469494370E+02  0.52689574549E+01  0.96801337113E+02  0.92603100802E+02 0.  0.
         13    1    3    3    0    0 -0.16151183497E+01  0.22427222422E+02 -0.28519075102E+02  0.36317182181E+02  0.10566000000E+00 0.  1.
         22    1    1    0    0    0 -0.35818368246E+01  0.27469494370E+02 -0.52689574549E+01  0.28198662887E+02  0.00000000000E+00 0. -1.
</event>
<event>
 5    1  0.1764318E-003  0.9118800E+02  0.7818608E-02  0.1130116E+00
         25   -1    0    0    0    0  0.00000000000E+00  0.00000000000E+00  0.99999998245E-14  0.12500000000E+03  0.12500000000E+03 0.  0.
        -13    1    3    3    0    0 -0.33953122317E+02  0.34020764383E+02 -0.38769375974E+02  0.61751944113E+02  0.10566000000E+00 0.  1.
         23    2    1    0    0    0 -0.11635818778E+02  0.21040267987E+02 -0.16591026009E+02  0.95787891215E+02  0.91224847513E+02 0.  0.
         13    1    3    3    0    0  0.22317303538E+02 -0.12980496396E+02  0.22178349965E+02  0.34035947102E+02  0.10566000000E+00 0. -1.
         22    1    1    0    0    0  0.11635818778E+02 -0.21040267987E+02  0.16591026009E+02  0.29212108785E+02  0.00000000000E+00 0.  1.
</event>
<event>
 5    1  0.1764318E-003  0.9118800E+02  0.7818608E-02  0.1130116E+00
         25   -1    0    0    0    0  0.00000000000E+00  0.00000000000E+00  0.99999998245E-14  0.12500000000E+03  0.12500000000E+03 0.  0.
        -13    1    3    3    0    0  0.86271177825E-01  0.27016505924E+02  0.25063419746E+02  0.36852207647E+02  0.10566000000E+00 0.  1.
         23    2    1    0    0    0 -0.10292729004E+02 -0.50735444754E+01 -0.25158488555E+02  0.97348044007E+02  0.93338154051E+02 0.  0.
         13    1    3    3    0    0 -0.10379000181E+02 -0.32090050399E+02 -0.50221908301E+02  0.60495836360E+02  0.10566000000E+00 0. -1.
         22    1    1    0    0    0  0.10292729004E+02  0.50735444754E+01  0.25158488555E+02  0.27651955993E+02  0.00000000000E+00 0. -1.
</event>
<event>
 5    1  0.1764318E-003  0.9118800E+02  0.7818608E-02  0.1130116E+00
         25   -1    0    0    0    0  0.00000000000E+00  0.00000000000E+00  0.99999998245E-14  0.12500000000E+03  0.12500000000E+03 0.  0.
        -13    1    3    3    0    0  0.15439022929E+02  0.86163064095E+01  0.27104800152E+02  0.32361791058E+02  0.10566000000E+00 0. -1.
         23    2    1    0    0    0 -0.15861891593E+02 -0.23536585008E+02 -0.14122259071E+02  0.93298128761E+02  0.87746978240E+02 0.  0.
         13    1    3    3    0    0 -0.31300914522E+02 -0.32152891418E+02 -0.41227059223E+02  0.60936337703E+02  0.10566000000E+00 0.  1.
         22    1    1    0    0    0  0.15861891593E+02  0.23536585008E+02  0.14122259071E+02  0.31701871239E+02  0.00000000000E+00 0.  1.
</event>
<event>
 5    1  0.1764318E-003  0.9118800E+02  0.7818608E-02  0.1130116E+00
         25   -1    0    0    0    0  0.00000000000E+00  0.00000000000E+00  0.99999998245E-14  0.12500000000E+03  0.12500000000E+03 0.  0.
        -13    1    3    3    0    0  0.85294385532E+01  0.65047948431E+01 -0.41407978349E+02  0.42774940245E+02  0.10566000000E+00 0.  1.
         23    2    1    0    0    0  0.52478972165E+01  0.26853367882E+02  0.81518710005E+01  0.96450099954E+02  0.92127764482E+02 0.  0.
         13    1    3    3    0    0 -0.32815413368E+01  0.20348573039E+02  0.49559849349E+02  0.53675159709E+02  0.10566000000E+00 0. -1.
         22    1    1    0    0    0 -0.52478972165E+01 -0.26853367882E+02 -0.81518710005E+01  0.28549900046E+02  0.00000000000E+00 0. -1.
</event>
<event>
 5    1  0.1764318E-003  0.9118800E+02  0.7818608E-02  0.1130116E+00
         25   -1    0    0    0    0  0.00000000000E+00  0.00000000000E+00  0.99999998245E-14  0.12500000000E+03  0.12500000000E+03 0.  0.
        -13    1    3    3    0    0 -0.23579436716E+02 -0.53570556893E+02  0.15878130326E+02  0.60645862088E+02  0.10566000000E+00 0. -1.
         23    2    1    0    0    0 -0.64363463593E+01 -0.22495985136E+02  0.16877282757E+02  0.96149721406E+02  0.91719301957E+02 0.  0.
         13    1    3    3    0    0  0.17143090357E+02  0.31074571757E+02  0.99915243088E+00  0.35503859318E+02  0.10566000000E+00 0.  1.
         22    1    1    0    0    0  0.64363463593E+01  0.22495985136E+02 -0.16877282757E+02  0.28850278594E+02  0.00000000000E+00 0. -1.
</event>
<event>
 5    1  0.1764318E-003  0.9118800E+02  0.7818608E-02  0.1130116E+00
         25   -1    0    0    0    0  0.00000000000E+00  0.00000000000E+00  0.99999998245E-14  0.12500000000E+03  0.12500000000E+03 0.  0.
        -13    1    3    3    0    0 -0.18389553270E+02 -0.29642322236E+02  0.45311532116E+02  0.57183818023E+02  0.10566000000E+00 0.  1.
         23    2    1    0    0    0 -0.43872893359E+01 -0.27295121709E+02  0.94000410478E+01  0.95800124169E+02  0.91241608065E+02 0.  0.
         13    1    3    3    0    0  0.14002263934E+02  0.23472005269E+01 -0.35911491068E+02  0.38616306146E+02  0.10566000000E+00 0. -1.
         22    1    1    0    0    0  0.43872893359E+01  0.27295121709E+02 -0.94000410478E+01  0.29199875831E+02  0.00000000000E+00 0.  1.
</event>
<event>
 5    1  0.1764318E-003  0.9118800E+02  0.7818608E-02  0.1130116E+00
         25   -1    0    0    0    0  0.00000000000E+00  0.00000000000E+00  0.99999998245E-14  0.12500000000E+03  0.12500000000E+03 0.  0.
        -13    1    3    3    0    0  0.44157581906E+01 -0.10368990622E+02  0.10007336453E+02  0.15072253775E+02  0.10566000000E+00 0.  1.
         23    2    1    0    0    0  0.15637187293E+02  0.19404316538E+02 -0.42071433344E+02  0.76101588672E+02  0.58312924537E+02 0.  0.
         13    1    3    3    0    0  0.11221429103E+02  0.29773307160E+02 -0.52078769798E+02  0.61029334897E+02  0.10566000000E+00 0. -1.
         22    1    1    0    0    0 -0.15637187293E+02 -0.19404316538E+02  0.42071433344E+02  0.48898411328E+02  0.00000000000E+00 0. -1.
</event>
<event>
 5    1  0.1764318E-003  0.9118800E+02  0.7818608E-02  0.1130116E+00
         25   -1    0    0    0    0  0.00000000000E+00  0.00000000000E+00  0.99999998245E-14  0.12500000000E+03  0.12500000000E+03 0.  0.
        -13    1    3    3    0    0  0.34435333158E+02  0.11204960102E+02 -0.40979675430E+02  0.54687185547E+02  0.10566000000E+00 0.  1.
         23    2    1    0    0    0  0.23558720364E+02 -0.47500442469E+00  0.27861119577E+01  0.10127235043E+03  0.98453479404E+02 0.  0.
         13    1    3    3    0    0 -0.10876612794E+02 -0.11679964526E+02  0.43765787388E+02  0.46585164880E+02  0.10566000000E+00 0. -1.
         22    1    1    0    0    0 -0.23558720364E+02  0.47500442469E+00 -0.27861119577E+01  0.23727649573E+02  0.00000000000E+00 0.  1.
</event>
<event>
 5    1  0.1764318E-003  0.9118800E+02  0.7818608E-02  0.1130116E+00
         25   -1    0    0    0    0  0.00000000000E+00  0.00000000000E+00  0.99999998245E-14  0.12500000000E+03  0.12500000000E+03 0.  0.
        -13    1    3    3    0    0  0.41426705634E+02 -0.55001365063E+01  0.34501058287E+02  0.54191859428E+02  0.10566000000E+00 0. -1.
         23    2    1    0    0    0  0.41556050341E+01 -0.19000800839E+02  0.21724163275E+02  0.95841146186E+02  0.91297790480E+02 0.  0.
         13    1    3    3    0    0 -0.37271100599E+02 -0.13500664333E+02 -0.12776895012E+02  0.41649286759E+02  0.10566000000E+00 0.  1.
         22    1    1    0    0    0 -0.41556050341E+01  0.19000800839E+02 -0.21724163275E+02  0.29158853814E+02  0.00000000000E+00 0. -1.
</event>
<event>
 5    1  0.1764318E-003  0.9118800E+02  0.7818608E-02  0.1130116E+00
         25   -1    0    0    0    0  0.00000000000E+00  0.00000000000E+00  0.99999998245E-14  0.12500000000E+03  0.12500000000E+03 0.  0.
        -13    1    3    3    0    0 -0.19652084268E+02 -0.17830739441E+02 -0.29601064842E+02  0.39753916649E+02  0.10566000000E+00 0. -1.
         23    2    1    0    0    0  0.75840562668E+01 -0.21152490972E+02  0.19005073145E+02  0.95569767431E+02  0.90925474196E+02 0.  0.
         13    1    3    3    0    0  0.27236140535E+02 -0.33217515309E+01  0.48606137987E+02  0.55815850782E+02  0.10566000000E+00 0.  1.
         22    1    1    0    0    0 -0.75840562668E+01  0.21152490972E+02 -0.19005073145E+02  0.29430232569E+02  0.00000000000E+00 0.  1.
</event>
<event>
 5    1  0.1764318E-003  0.9118800E+02  0.7818608E-02  0.1130116E+00
         25   -1    0    0    0    0  0.00000000000E+00  0.00000000000E+00  0.99999998245E-14  0.12500000000E+03  0.12500000000E+03 0.  0.
        -13    1    3    3    0    0  0.36088725428E+02  0.29628526897E+02 -0.17694317502E+02  0.49933413112E+02  0.10566000000E+00 0.  1.
         23    2    1    0    0    0  0.39353632542E+00  0.47709489796E+01 -0.29587435632E+02  0.95027793336E+02  0.90177316073E+02 0.  0.
         13    1    3    3    0    0 -0.35695189103E+02 -0.24857577917E+02 -0.11893118130E+02  0.45094380225E+02  0.10566000000E+00 0. -1.
         22    1    1    0    0    0 -0.39353632542E+00 -0.47709489796E+01  0.29587435632E+02  0.29972206664E+02  0.00000000000E+00 0.  1.
</event>
<event>
 5    1  0.1764318E-003  0.9118800E+02  0.7818608E-02  0.1130116E+00
         25   -1    0    0    0    0  0.00000000000E+00  0.00000000000E+00  0.99999998245E-14  0.12500000000E+03  0.12500000000E+03 0.  0.
        -13    1    3    3    0    0 -0.55159236107E+02 -0.19292075569E+02 -0.17689593779E+02  0.61054552653E+02  0.10566000000E+00 0.  1.
         23    2    1    0    0    0 -0.21123455268E+02 -0.16102544654E+02 -0.12547878550E+02  0.95624132985E+02  0.91000182671E+02 0.  0.
         13    1    3    3    0    0  0.34035780839E+02  0.31895309144E+01  0.51417152292E+01  0.34569580331E+02  0.10566000000E+00 0. -1.
         22    1    1    0    0    0  0.21123455268E+02  0.16102544654E+02  0.12547878550E+02  0.29375867015E+02  0.00000000000E+00 0.  1.
</event>
<event>
 5    1  0.1764318E-003  0.9118800E+02  0.7818608E-02  0.1130116E+00
         25   -1    0    0    0    0  0.00000000000E+00  0.00000000000E+00  0.99999998245E-14  0.12500000000E+03  0.12500000000E+03 0.  0.
        -13    1    3    3    0    0 -0.67982256643E+01 -0.89493520920E+01  0.32762097735E+02  0.34636295805E+02  0.10566000000E+00 0. -1.
         23    2    1    0    0    0 -0.20721399031E+01 -0.10007062085E+02 -0.27794498568E+02  0.95386334134E+02  0.90672948190E+02 0.  0.
         13    1    3    3    0    0  0.47260857612E+01 -0.10577099929E+01 -0.60556596304E+02  0.60750038329E+02  0.10566000000E+00 0.  1.
         22    1    1    0    0    0  0.20721399031E+01  0.10007062085E+02  0.27794498568E+02  0.29613665866E+02  0.00000000000E+00 0.  1.
</event>
<event>
 5    1  0.1764318E-003  0.9118800E+02  0.7818608E-02  0.1130116E+00
         25   -1    0    0    0    0  0.00000000000E+00  0.00000000000E+00  0.99999998245E-14  0.12500000000E+03  0.12500000000E+03 0.  0.
        -13    1    3    3    0    0  0.13661765494E+02  0.42323997388E+02  0.51442454892E+01  0.44770961761E+02  0.10566000000E+00 0.  1.
         23    2    1    0    0    0 -0.26372437177E+02  0.14710242433E+02 -0.48336093297E+01  0.94417971711E+02  0.89328007522E+02 0.  0.
         13    1    3    3    0    0 -0.40034202671E+02 -0.27613754955E+02 -0.99778548189E+01  0.49647009950E+02  0.10566000000E+00 0. -1.
         22    1    1    0    0    0  0.26372437177E+02 -0.14710242433E+02  0.48336093297E+01  0.30582028289E+02  0.00000000000E+00 0. -1.
</event>
<event>
 5    1  0.1764318E-003  0.9118800E+02  0.7818608E-02  0.1130116E+00
         25   -1    0    0    0    0  0.00000000000E+00  0.00000000000E+00  0.99999998245E-14  0.12500000000E+03  0.12500000000E+03 0.  0.
        -13    1    3    3    0    0 -0.28336381691E+02 -0.28149546257E+02 -0.17363583892E+02  0.43552872367E+02  0.10566000000E+00 0.  1.
         23    2    1    0    0    0  0.80325982895E+01  0.89080384990E+01 -0.26165236865E+02  0.96216403884E+02  0.91810135448E+02 0.  0.
         13    1    3    3    0    0  0.36368979980E+02  0.37057584756E+02 -0.88016529736E+01  0.52663531517E+02  0.10566000000E+00 0. -1.
         22    1    1    0    0    0 -0.80325982895E+01 -0.89080384990E+01  0.26165236865E+02  0.28783596116E+02  0.00000000000E+00 0.  1.
</event>
<event>
 5    1  0.1764318E-003  0.9118800E+02  0.7818608E-02  0.1130116E+00
         25   -1    0    0    0    0  0.00000000000E+00  0.00000000000E+00  0.99999998245E-14  0.12500000000E+03  0.12500000000E+03 0.  0.
        -13    1    3    3    0    0 -0.54518048006E+01  0.10549000854E+02  0.35566925869E+02  0.37496946201E+02  0.10566000000E+00 0.  1.
         23    2    1    0    0    0  0.19514201391E+02  0.84597757916E+01 -0.18323575632E+02  0.96926430824E+02  0.92771804477E+02 0.  0.
         13    1    3    3    0    0  0.24966006192E+02 -0.20892250629E+01 -0.53890501500E+02  0.59429484623E+02  0.10566000000E+00 0. -1.
         22    1    1    0    0    0 -0.19514201391E+02 -0.84597757916E+01  0.18323575632E+02  0.28073569176E+02  0.00000000000E+00 0. -1.
</event>
<event>
 5    1  0.1764318E-003  0.9118800E+02  0.7818608E-02  0.1130116E+00
         25   -1    0    0    0    0  0.00000000000E+00  0.00000000000E+00  0.99999998245E-14  0.12500000000E+03  0.12500000000E+03 0.  0.
        -13    1    3    3    0    0 -0.20870978830E+02  0.58233165828E+02  0.69314886074E+01  0.62247538570E+02  0.10566000000E+00 0.  1.
         23    2    1    0    0    0 -0.13325901680E+02  0.25754470264E+02  0.41440270909E+01  0.95707588787E+02  0.91114747416E+02 0.  0.
         13    1    3    3    0    0  0.75450771502E+01 -0.32478695564E+02 -0.27874615164E+01  0.33460050217E+02  0.10566000000E+00 0. -1.
         22    1    1    0    0    0  0.13325901680E+02 -0.25754470264E+02 -0.41440270909E+01  0.29292411213E+02  0.00000000000E+00 0.  1.
</event>
<event>
 5    1  0.1764318E-003  0.9118800E+02  0.7818608E-02  0.1130116E+00
         25   -1    0    0    0    0  0.00000000000E+00  0.00000000000E+00  0.99999998245E-14  0.12500000000E+03  0.12500000000E+03 0.  0.
        -13    1    3    3    0    0 -0.18410799892E+02 -0.20266346026E+02 -0.23576507546E+02  0.36132329098E+02  0.10566000000E+00 0. -1.
         23    2    1    0    0    0  0.35996837862E+01 -0.86626051074E+01  0.29119156466E+02  0.94407129525E+02  0.89312834359E+02 0.  0.
         13    1    3    3    0    0  0.22010483678E+02  0.11603740919E+02  0.52695664012E+02  0.58274800427E+02  0.10566000000E+00 0.  1.
         22    1    1    0    0    0 -0.35996837862E+01  0.86626051074E+01 -0.29119156466E+02  0.30592870475E+02  0.00000000000E+00 0.  1.
</event>
<event>
 5    1  0.1764318E-003  0.9118800E+02  0.7818608E-02  0.1130116E+00
         25   -1    0    0    0    0  0.00000000000E+00  0.00000000000E+00  0.99999998245E-14  0.12500000000E+03  0.12500000000E+03 0.  0.
        -13    1    3    3    0    0 -0.36125290832E+01 -0.38771967079E+02 -0.84416205000E+01  0.39844546907E+02  0.10566000000E+00 0. -1.
         23    2    1    0    0    0  0.12284506806E+02  0.10252610374E+02 -0.26152848512E+02  0.94340635815E+02  0.89219722897E+02 0.  0.
         13    1    3    3    0    0  0.15897035889E+02  0.49024577453E+02 -0.17711228012E+02  0.54496088908E+02  0.10566000000E+00 0.  1.
         22    1    1    0    0    0 -0.12284506806E+02 -0.10252610374E+02  0.26152848512E+02  0.30659364185E+02  0.00000000000E+00 0.  1.
</event>
<event>
 5    1  0.1764318E-003  0.9118800E+02  0.7818608E-02  0.1130116E+00
         25   -1    0    0    0    0  0.00000000000E+00  0.00000000000E+00  0.99999998245E-14  0.12500000000E+03  0.12500000000E+03 0.  0.
        -13    1    3    3    0    0  0.21226186325E+01 -0.44833319671E+01 -0.42010096255E+02  0.42302070006E+02  0.10566000000E+00 0. -1.
         23    2    1    0    0    0  0.55140815160E+01  0.26504282412E+02  0.37485387008E+01  0.97669913583E+02  0.93768216341E+02 0.  0.
         13    1    3    3    0    0  0.33914628835E+01  0.30987614379E+02  0.45758634956E+02  0.55367843578E+02  0.10566000000E+00 0.  1.
         22    1    1    0    0    0 -0.55140815160E+01 -0.26504282412E+02 -0.37485387008E+01  0.27330086417E+02  0.00000000000E+00 0. -1.
</event>
<event>
 5    1  0.1764318E-003  0.9118800E+02  0.7818608E-02  0.1130116E+00
         25   -1    0    0    0    0  0.00000000000E+00  0.00000000000E+00  0.99999998245E-14  0.12500000000E+03  0.12500000000E+03 0.  0.
        -13    1    3    3    0    0  0.14930148638E+02  0.24968548130E+02 -0.34377181506E+02  0.45034869894E+02  0.10566000000E+00 0.  1.
         23    2    1    0    0    0 -0.46428671178E+01  0.25109569645E+02  0.13036138409E+02  0.96329673747E+02  0.91964223678E+02 0.  0.
         13    1    3    3    0    0 -0.19573015755E+02  0.14102151505E+00  0.47413319915E+02  0.51294803852E+02  0.10566000000E+00 0. -1.
         22    1    1    0    0    0  0.46428671178E+01 -0.25109569645E+02 -0.13036138409E+02  0.28670326253E+02  0.00000000000E+00 0. -1.
</event>
<event>
 5    1  0.1764318E-003  0.9118800E+02  0.7818608E-02  0.1130116E+00
         25   -1    0    0    0    0  0.00000000000E+00  0.00000000000E+00  0.99999998245E-14  0.12500000000E+03  0.12500000000E+03 0.  0.
        -13    1    3    3    0    0 -0.42231921275E+02 -0.19006771195E+02  0.95721992596E+01  0.47290915497E+02  0.10566000000E+00 0. -1.
         23    2    1    0    0    0 -0.57892075540E+01  0.97228595419E+01  0.26100515125E+02  0.96552050837E+02  0.92265988908E+02 0.  0.
         13    1    3    3    0    0  0.36442713721E+02  0.28729630737E+02  0.16528315866E+02  0.49261135340E+02  0.10566000000E+00 0.  1.
         22    1    1    0    0    0  0.57892075540E+01 -0.97228595419E+01 -0.26100515125E+02  0.28447949163E+02  0.00000000000E+00 0.  1.
</event>
<event>
 5    1  0.1764318E-003  0.9118800E+02  0.7818608E-02  0.1130116E+00
         25   -1    0    0    0    0  0.00000000000E+00  0.00000000000E+00  0.99999998245E-14  0.12500000000E+03  0.12500000000E+03 0.  0.
        -13    1    3    3    0    0 -0.12431246665E+02 -0.18307107672E+02  0.23261564407E+02  0.32106037246E+02  0.10566000000E+00 0.  1.
         23    2    1    0    0    0  0.27916481181E+02 -0.14733424385E+02 -0.16940595813E+02  0.89175601859E+02  0.81663336111E+02 0.  0.
         13    1    3    3    0    0  0.40347727847E+02  0.35736832871E+01 -0.40202160221E+02  0.57069564613E+02  0.10566000000E+00 0. -1.
         22    1    1    0    0    0 -0.27916481181E+02  0.14733424385E+02  0.16940595813E+02  0.35824398141E+02  0.00000000000E+00 0. -1.
</event>
<event>
 5    1  0.1764318E-003  0.9118800E+02  0.7818608E-02  0.1130116E+00
         25   -1    0    0    0    0  0.00000000000E+00  0.00000000000E+00  0.99999998245E-14  0.12500000000E+03  0.12500000000E+03 0.  0.
        -13    1    3    3    0    0 -0.98024336450E+01 -0.14232880947E+02  0.47768440007E+02  0.50798598702E+02  0.10566000000E+00 0.  1.
         23    2    1    0    0    0  0.14238125793E+02  0.12725727003E+02  0.25167920046E+02  0.93407397174E+02  0.87902498790E+02 0.  0.
         13    1    3    3    0    0  0.24040559438E+02  0.26958607950E+02 -0.22600519961E+02  0.42608798472E+02  0.10566000000E+00 0. -1.
         22    1    1    0    0    0 -0.14238125793E+02 -0.12725727003E+02 -0.25167920046E+02  0.31592602826E+02  0.00000000000E+00 0.  1.
</event>
<event>
 5    1  0.1764318E-003  0.9118800E+02  0.7818608E-02  0.1130116E+00
         25   -1    0    0    0    0  0.00000000000E+00  0.00000000000E+00  0.99999998245E-14  0.12500000000E+03  0.12500000000E+03 0.  0.
        -13    1    3    3    0    0 -0.59324583468E+02 -0.50136140931E+01  0.35789104947E+01  0.59643627440E+02  0.10566000000E+00 0. -1.
         23    2    1    0    0    0 -0.25168059186E+02  0.71422679844E+01  0.10947244204E+02  0.96640074915E+02  0.92385165090E+02 0.  0.
         13    1    3    3    0    0  0.34156524281E+02  0.12155882077E+02  0.73683337092E+01  0.36996447475E+02  0.10566000000E+00 0.  1.
         22    1    1    0    0    0  0.25168059186E+02 -0.71422679844E+01 -0.10947244204E+02  0.28359925085E+02  0.00000000000E+00 0. -1.
</event>
<event>
 5    1  0.1764318E-003  0.9118800E+02  0.7818608E-02  0.1130116E+00
         25   -1    0    0    0    0  0.00000000000E+00  0.00000000000E+00  0.99999998245E-14  0.12500000000E+03  0.12500000000E+03 0.  0.
        -13    1    3    3    0    0 -0.27353280153E+02  0.87625723673E+01 -0.43867885736E+02  0.52434599003E+02  0.10566000000E+00 0. -1.
         23    2    1    0    0    0 -0.23581387132E+02 -0.15893714148E+02 -0.92635745209E+01  0.95091710490E+02  0.90265871859E+02 0.  0.
         13    1    3    3    0    0  0.37718930210E+01 -0.24656286515E+02  0.34604311215E+02  0.42657111487E+02  0.10566000000E+00 0.  1.
         22    1    1    0    0    0  0.23581387132E+02  0.15893714148E+02  0.92635745209E+01  0.29908289510E+02  0.00000000000E+00 0. -1.
</event>
<event>
 5    1  0.1764318E-003  0.9118800E+02  0.7818608E-02  0.1130116E+00
         25   -1    0    0    0    0  0.00000000000E+00  0.00000000000E+00  0.99999998245E-14  0.12500000000E+03  0.12500000000E+03 0.  0.
        -13    1    3    3    0    0  0.10491470806E+02  0.27636203195E+02  0.17797685008E+02  0.34505064011E+02  0.10566000000E+00 0. -1.
         23    2    1    0    0    0 -0.47896880436E-01 -0.12191767372E+02 -0.27004777259E+02  0.95370631452E+02  0.90651298187E+02 0.  0.
         13    1    3    3    0    0 -0.10539367686E+02 -0.39827970567E+02 -0.44802462267E+02  0.60865567441E+02  0.10566000000E+00 0.  1.
         22    1    1    0    0    0  0.47896880436E-01  0.12191767372E+02  0.27004777259E+02  0.29629368548E+02  0.00000000000E+00 0.  1.
</event>
<event>
 5    1  0.1764318E-003  0.9118800E+02  0.7818608E-02  0.1130116E+00
         25   -1    0    0    0    0  0.00000000000E+00  0.00000000000E+00  0.99999998245E-14  0.12500000000E+03  0.12500000000E+03 0.  0.
        -13    1    3    3    0    0 -0.87309141596E+01  0.63303195495E+01  0.28719892761E+02  0.30678090095E+02  0.10566000000E+00 0. -1.
         23    2    1    0    0    0  0.26988359727E+02  0.76534658886E+01 -0.19597738596E+02  0.90779853025E+02  0.84083073542E+02 0.  0.
         13    1    3    3    0    0  0.35719273887E+02  0.13231463390E+01 -0.48317631357E+02  0.60101762930E+02  0.10566000000E+00 0.  1.
         22    1    1    0    0    0 -0.26988359727E+02 -0.76534658886E+01  0.19597738596E+02  0.34220146975E+02  0.00000000000E+00 0.  1.
</event>
<event>
 5    1  0.1764318E-003  0.9118800E+02  0.7818608E-02  0.1130116E+00
         25   -1    0    0    0    0  0.00000000000E+00  0.00000000000E+00  0.99999998245E-14  0.12500000000E+03  0.12500000000E+03 0.  0.
        -13    1    3    3    0    0 -0.39447332865E+02 -0.25676912701E+02  0.34128855580E+02  0.58139365866E+02  0.10566000000E+00 0. -1.
         23    2    1    0    0    0 -0.27630085873E+02 -0.19210026651E+01  0.62884560814E+01  0.96598299761E+02  0.92328624707E+02 0.  0.
         13    1    3    3    0    0  0.11817246993E+02  0.23755910036E+02 -0.27840399498E+02  0.38458933895E+02  0.10566000000E+00 0.  1.
         22    1    1    0    0    0  0.27630085873E+02  0.19210026651E+01 -0.62884560814E+01  0.28401700239E+02  0.00000000000E+00 0. -1.
</event>
<event>
 5    1  0.1764318E-003  0.9118800E+02  0.7818608E-02  0.1130116E+00
         25   -1    0    0    0    0  0.00000000000E+00  0.00000000000E+00  0.99999998245E-14  0.12500000000E+03  0.12500000000E+03 0.  0.
        -13    1    3    3    0    0  0.53592956854E+00  0.50199253570E+02  0.68876669347E+01  0.50672511279E+02  0.10566000000E+00 0. -1.
         23    2    1    0    0    0 -0.26157576171E+02  0.22095705134E+02 -0.28603386349E+01  0.90639841187E+02  0.83874670174E+02 0.  0.
         13    1    3    3    0    0 -0.26693505740E+02 -0.28103548436E+02 -0.97480055695E+01  0.39967329908E+02  0.10566000000E+00 0.  1.
         22    1    1    0    0    0  0.26157576171E+02 -0.22095705134E+02  0.28603386349E+01  0.34360158813E+02  0.00000000000E+00 0. -1.
</event>
<event>
 5    1  0.1764318E-003  0.9118800E+02  0.7818608E-02  0.1130116E+00
         25   -1    0    0    0    0  0.00000000000E+00  0.00000000000E+00  0.99999998245E-14  0.12500000000E+03  0.12500000000E+03 0.  0.
        -13    1    3    3    0    0 -0.15293231552E+02  0.17356207068E+02  0.24479376620E+02  0.33680437925E+02  0.10566000000E+00 0. -1.
         23    2    1    0    0    0  0.13738915982E+02  0.71591887446E+01 -0.27124972177E+02  0.93762587952E+02  0.88406147909E+02 0.  0.
         13    1    3    3    0    0  0.29032147534E+02 -0.10197018323E+02 -0.51604348797E+02  0.60082150027E+02  0.10566000000E+00 0.  1.
         22    1    1    0    0    0 -0.13738915982E+02 -0.71591887446E+01  0.27124972177E+02  0.31237412048E+02  0.00000000000E+00 0.  1.
</event>
<event>
 5    1  0.1764318E-003  0.9118800E+02  0.7818608E-02  0.1130116E+00
         25   -1    0    0    0    0  0.00000000000E+00  0.00000000000E+00  0.99999998245E-14  0.12500000000E+03  0.12500000000E+03 0.  0.
        -13    1    3    3    0    0 -0.20085368738E+02  0.50130319040E+02 -0.11128705641E+02  0.55139189128E+02  0.10566000000E+00 0. -1.
         23    2    1    0    0    0 -0.22233811561E+02  0.16156342687E+02  0.10620016872E+02  0.95535537611E+02  0.90878404490E+02 0.  0.
         13    1    3    3    0    0 -0.21484428228E+01 -0.33973976353E+02  0.21748722513E+02  0.40396348483E+02  0.10566000000E+00 0.  1.
         22    1    1    0    0    0  0.22233811561E+02 -0.16156342687E+02 -0.10620016872E+02  0.29464462389E+02  0.00000000000E+00 0. -1.
</event>
<event>
 5    1  0.1764318E-003  0.9118800E+02  0.7818608E-02  0.1130116E+00
         25   -1    0    0    0    0  0.00000000000E+00  0.00000000000E+00  0.99999998245E-14  0.12500000000E+03  0.12500000000E+03 0.  0.
        -13    1    3    3    0    0  0.20780767230E+02 -0.40929347321E+02  0.21852537716E+02  0.50838925317E+02  0.10566000000E+00 0.  1.
         23    2    1    0    0    0 -0.17547978682E+02 -0.18394292383E+02  0.13961583218E+02  0.95996425150E+02  0.91510143086E+02 0.  0.
         13    1    3    3    0    0 -0.38328745912E+02  0.22535054937E+02 -0.78909544971E+01  0.45157499833E+02  0.10566000000E+00 0. -1.
         22    1    1    0    0    0  0.17547978682E+02  0.18394292383E+02 -0.13961583218E+02  0.29003574850E+02  0.00000000000E+00 0.  1.
</event>
<event>
 5    1  0.1764318E-003  0.9118800E+02  0.7818608E-02  0.1130116E+00
         25   -1    0    0    0    0  0.00000000000E+00  0.00000000000E+00  0.99999998245E-14  0.12500000000E+03  0.12500000000E+03 0.  0.
        -13    1    3    3    0    0  0.48947439818E+02 -0.28125540813E+02 -0.17962807257E+02  0.59241636704E+02  0.10566000000E+00 0.  1.
         23    2    1    0    0    0  0.16613955088E+02 -0.23475412620E+02 -0.60348922676E+00  0.96234000963E+02  0.91834090842E+02 0.  0.
         13    1    3    3    0    0 -0.32333484730E+02  0.46501281930E+01  0.17359318031E+02  0.36992364260E+02  0.10566000000E+00 0. -1.
         22    1    1    0    0    0 -0.16613955088E+02  0.23475412620E+02  0.60348922676E+00  0.28765999037E+02  0.00000000000E+00 0.  1.
</event>
<event>
 5    1  0.1764318E-003  0.9118800E+02  0.7818608E-02  0.1130116E+00
         25   -1    0    0    0    0  0.00000000000E+00  0.00000000000E+00  0.99999998245E-14  0.12500000000E+03  0.12500000000E+03 0.  0.
        -13    1    3    3    0    0  0.33065502144E+02 -0.48893191991E+02 -0.56371382585E+01  0.59293002512E+02  0.10566000000E+00 0.  1.
         23    2    1    0    0    0  0.19526427298E+02 -0.18741826042E+02  0.10368711449E+02  0.96016425625E+02  0.91537459033E+02 0.  0.
         13    1    3    3    0    0 -0.13539074845E+02  0.30151365949E+02  0.16005849708E+02  0.36723423113E+02  0.10566000000E+00 0. -1.
         22    1    1    0    0    0 -0.19526427298E+02  0.18741826042E+02 -0.10368711449E+02  0.28983574375E+02  0.00000000000E+00 0.  1.
</event>
<event>
 5    1  0.1764318E-003  0.9118800E+02  0.7818608E-02  0.1130116E+00
         25   -1    0    0    0    0  0.00000000000E+00  0.00000000000E+00  0.99999998245E-14  0.12500000000E+03  0.12500000000E+03 0.  0.
        -13    1    3    3    0    0  0.42826749641E+02  0.55421866041E+00 -0.30197651313E+02  0.52405600388E+02  0.10566000000E+00 0.  1.
         23    2    1    0    0    0 -0.80762374348E+00  0.31874287828E+01 -0.28665711780E+02  0.96146317562E+02  0.91714662899E+02 0.  0.
         13    1    3    3    0    0 -0.43634373384E+02  0.26332101224E+01  0.15319395334E+01  0.43740717175E+02  0.10566000000E+00 0. -1.
         22    1    1    0    0    0  0.80762374348E+00 -0.31874287828E+01  0.28665711780E+02  0.28853682438E+02  0.00000000000E+00 0.  1.
</event>
<event>
 5    1  0.1764318E-003  0.9118800E+02  0.7818608E-02  0.1130116E+00
         25   -1    0    0    0    0  0.00000000000E+00  0.00000000000E+00  0.99999998245E-14  0.12500000000E+03  0.12500000000E+03 0.  0.
        -13    1    3    3    0    0 -0.63772991951E+00  0.67604891947E+01 -0.36101641321E+02  0.36734868772E+02  0.10566000000E+00 0. -1.
         23    2    1    0    0    0  0.23581753140E+02  0.24169421663E+01  0.17380382292E+02  0.95605810451E+02  0.90975010925E+02 0.  0.
         13    1    3    3    0    0  0.24219483060E+02 -0.43435470283E+01  0.53482023613E+02  0.58870941679E+02  0.10566000000E+00 0.  1.
         22    1    1    0    0    0 -0.23581753140E+02 -0.24169421663E+01 -0.17380382292E+02  0.29394189549E+02  0.00000000000E+00 0.  1.
</event>
<event>
 5    1  0.1764318E-003  0.9118800E+02  0.7818608E-02  0.1130116E+00
         25   -1    0    0    0    0  0.00000000000E+00  0.00000000000E+00  0.99999998245E-14  0.12500000000E+03  0.12500000000E+03 0.  0.
        -13    1    3    3    0    0 -0.33752980375E+02 -0.14333983630E+01 -0.64731020678E+01  0.34398118109E+02  0.10566000000E+00 0.  1.
         23    2    1    0    0    0  0.23914875527E+02 -0.17542527754E+02  0.36279565484E+01  0.95119845714E+02  0.90304825056E+02 0.  0.
         13    1    3    3    0    0  0.57667855902E+02 -0.16109129391E+02  0.10101058616E+02  0.60721727604E+02  0.10566000000E+00 0. -1.
         22    1    1    0    0    0 -0.23914875527E+02  0.17542527754E+02 -0.36279565484E+01  0.29880154286E+02  0.00000000000E+00 0. -1.
</event>
<event>
 5    1  0.1764318E-003  0.9118800E+02  0.7818608E-02  0.1130116E+00
         25   -1    0    0    0    0  0.00000000000E+00  0.00000000000E+00  0.99999998245E-14  0.12500000000E+03  0.12500000000E+03 0.  0.
        -13    1    3    3    0    0 -0.18843316084E+01 -0.99330066310E+01  0.31887437324E+02  0.33451982744E+02  0.10566000000E+00 0.  1.
         23    2    1    0    0    0 -0.20901551569E+02 -0.10642192935E+01 -0.24004482817E+02  0.93153138051E+02  0.87540187986E+02 0.  0.
         13    1    3    3    0    0 -0.19017219961E+02  0.88687873375E+01 -0.55891920141E+02  0.59701155307E+02  0.10566000000E+00 0. -1.
         22    1    1    0    0    0  0.20901551569E+02  0.10642192935E+01  0.24004482817E+02  0.31846861949E+02  0.00000000000E+00 0. -1.
</event>
<event>
 5    1  0.1764318E-003  0.9118800E+02  0.7818608E-02  0.1130116E+00
         25   -1    0    0    0    0  0.00000000000E+00  0.00000000000E+00  0.99999998245E-14  0.12500000000E+03  0.12500000000E+03 0.  0.
        -13    1    3    3    0    0 -0.32410909551E+02  0.10604899402E+02 -0.91556295471E+01  0.35309597360E+02  0.10566000000E+00 0. -1.
         23    2    1    0    0    0  0.22028323183E+02 -0.16632640627E+02 -0.82563229718E+01  0.96189261976E+02  0.91773174153E+02 0.  0.
         13    1    3    3    0    0  0.54439232734E+02 -0.27237540029E+02  0.89930657529E+00  0.60879664617E+02  0.10566000000E+00 0.  1.
         22    1    1    0    0    0 -0.22028323183E+02  0.16632640627E+02  0.82563229718E+01  0.28810738024E+02  0.00000000000E+00 0.  1.
</event>
<event>
 5    1  0.1764318E-003  0.9118800E+02  0.7818608E-02  0.1130116E+00
         25   -1    0    0    0    0  0.00000000000E+00  0.00000000000E+00  0.99999998245E-14  0.12500000000E+03  0.12500000000E+03 0.  0.
        -13    1    3    3    0    0 -0.50170365398E+02  0.48986622260E+01 -0.14386286730E+02  0.52421740391E+02  0.10566000000E+00 0. -1.
         23    2    1    0    0    0 -0.14210334694E+02 -0.17372595157E+02 -0.19806785048E+02  0.95065915606E+02  0.90230144084E+02 0.  0.
         13    1    3    3    0    0  0.35960030704E+02 -0.22271257383E+02 -0.54204983180E+01  0.42644175214E+02  0.10566000000E+00 0.  1.
         22    1    1    0    0    0  0.14210334694E+02  0.17372595157E+02  0.19806785048E+02  0.29934084394E+02  0.00000000000E+00 0. -1.
</event>
<event>
 5    1  0.1764318E-003  0.9118800E+02  0.7818608E-02  0.1130116E+00
         25   -1    0    0    0    0  0.00000000000E+00  0.00000000000E+00  0.99999998245E-14  0.12500000000E+03  0.12500000000E+03 0.  0.
        -13    1    3    3    0    0 -0.31510286436E+02 -0.15076718882E+02 -0.99606787220E+01  0.36323985026E+02  0.10566000000E+00 0.  1.
         23    2    1    0    0    0  0.19662671783E+02  0.18268893906E+02 -0.57749316009E+01  0.97545984243E+02  0.93602863529E+02 0.  0.
         13    1    3    3    0    0  0.51172958219E+02  0.33345612788E+02  0.41857471212E+01  0.61221999217E+02  0.10566000000E+00 0. -1.
         22    1    1    0    0    0 -0.19662671783E+02 -0.18268893906E+02  0.57749316009E+01  0.27454015757E+02  0.00000000000E+00 0. -1.
</event>
<event>
 5    1  0.1764318E-003  0.9118800E+02  0.7818608E-02  0.1130116E+00
         25   -1    0    0    0    0  0.00000000000E+00  0.00000000000E+00  0.99999998245E-14  0.12500000000E+03  0.12500000000E+03 0.  0.
        -13    1    3    3    0    0  0.14918088545E+02 -0.52257516060E+02  0.16527281849E+02  0.56802812958E+02  0.10566000000E+00 0.  1.
         23    2    1    0    0    0 -0.51079305507E+01 -0.18865168290E+02  0.21370435063E+02  0.96040009946E+02  0.91569659203E+02 0.  0.
         13    1    3    3    0    0 -0.20026019095E+02  0.33392347770E+02  0.48431532139E+01  0.39237196988E+02  0.10566000000E+00 0. -1.
         22    1    1    0    0    0  0.51079305507E+01  0.18865168290E+02 -0.21370435063E+02  0.28959990054E+02  0.00000000000E+00 0.  1.
</event>
<event>
 5    1  0.1764318E-003  0.9118800E+02  0.7818608E-02  0.1130116E+00
         25   -1    0    0    0    0  0.00000000000E+00  0.00000000000E+00  0.99999998245E-14  0.12500000000E+03  0.12500000000E+03 0.  0.
        -13    1    3    3    0    0 -0.32836351283E+02  0.10226220306E+02 -0.37547453017E+02  0.50917815540E+02  0.10566000000E+00 0. -1.
         23    2    1    0    0    0 -0.29445196020E+02 -0.73143534886E+01  0.22856566015E+01  0.94573965725E+02  0.89546029679E+02 0.  0.
         13    1    3    3    0    0  0.33911552631E+01 -0.17540573794E+02  0.39833109619E+02  0.43656150185E+02  0.10566000000E+00 0.  1.
         22    1    1    0    0    0  0.29445196020E+02  0.73143534886E+01 -0.22856566015E+01  0.30426034275E+02  0.00000000000E+00 0. -1.
</event>
<event>
 5    1  0.1764318E-003  0.9118800E+02  0.7818608E-02  0.1130116E+00
         25   -1    0    0    0    0  0.00000000000E+00  0.00000000000E+00  0.99999998245E-14  0.12500000000E+03  0.12500000000E+03 0.  0.
        -13    1    3    3    0    0 -0.29356636571E+02  0.34038814671E+02  0.12993679745E+02  0.46789955036E+02  0.10566000000E+00 0.  1.
         23    2    1    0    0    0  0.15029937512E+02  0.25750593668E+02 -0.37517995263E+01  0.94948908579E+02  0.90067902967E+02 0.  0.
         13    1    3    3    0    0  0.44386574084E+02 -0.82882210025E+01 -0.16745479271E+02  0.48158953543E+02  0.10566000000E+00 0. -1.
         22    1    1    0    0    0 -0.15029937512E+02 -0.25750593668E+02  0.37517995263E+01  0.30051091421E+02  0.00000000000E+00 0. -1.
</event>
<event>
 5    1  0.1764318E-003  0.9118800E+02  0.7818608E-02  0.1130116E+00
         25   -1    0    0    0    0  0.00000000000E+00  0.00000000000E+00  0.99999998245E-14  0.12500000000E+03  0.12500000000E+03 0.  0.
        -13    1    3    3    0    0 -0.46114257978E+02 -0.11185051269E+02  0.36410363585E+02  0.59811001506E+02  0.10566000000E+00 0.  1.
         23    2    1    0    0    0 -0.16591054098E+02  0.56815225966E+01  0.22315350515E+02  0.96618357277E+02  0.92355775776E+02 0.  0.
         13    1    3    3    0    0  0.29523203880E+02  0.16866573866E+02 -0.14095013071E+02  0.36807355770E+02  0.10566000000E+00 0. -1.
         22    1    1    0    0    0  0.16591054098E+02 -0.56815225966E+01 -0.22315350515E+02  0.28381642723E+02  0.00000000000E+00 0.  1.
</event>
<event>
 5    1  0.1764318E-003  0.9118800E+02  0.7818608E-02  0.1130116E+00
         25   -1    0    0    0    0  0.00000000000E+00  0.00000000000E+00  0.99999998245E-14  0.12500000000E+03  0.12500000000E+03 0.  0.
        -13    1    3    3    0    0 -0.37363246723E+02 -0.21267650292E+02  0.37213335033E+02  0.56860958688E+02  0.10566000000E+00 0.  1.
         23    2    1    0    0    0 -0.23047196487E+02 -0.16643578504E+02  0.46722779060E+00  0.96567619285E+02  0.92287078300E+02 0.  0.
         13    1    3    3    0    0  0.14316050235E+02  0.46240717883E+01 -0.36746107242E+02  0.39706660597E+02  0.10566000000E+00 0. -1.
         22    1    1    0    0    0  0.23047196487E+02  0.16643578504E+02 -0.46722779060E+00  0.28432380715E+02  0.00000000000E+00 0.  1.
</event>
<event>
 5    1  0.1764318E-003  0.9118800E+02  0.7818608E-02  0.1130116E+00
         25   -1    0    0    0    0  0.00000000000E+00  0.00000000000E+00  0.99999998245E-14  0.12500000000E+03  0.12500000000E+03 0.  0.
        -13    1    3    3    0    0 -0.20157224320E+02 -0.11848209568E+02 -0.49133506688E+02  0.54413292546E+02  0.10566000000E+00 0.  1.
         23    2    1    0    0    0 -0.27119992885E+02 -0.12574854819E+02 -0.11058552557E+02  0.93126616551E+02  0.87502309328E+02 0.  0.
         13    1    3    3    0    0 -0.69627685650E+01 -0.72664525185E+00  0.38074954131E+02  0.38713324005E+02  0.10566000000E+00 0. -1.
         22    1    1    0    0    0  0.27119992885E+02  0.12574854819E+02  0.11058552557E+02  0.31873383449E+02  0.00000000000E+00 0.  1.
</event>
<event>
 5    1  0.1764318E-003  0.9118800E+02  0.7818608E-02  0.1130116E+00
         25   -1    0    0    0    0  0.00000000000E+00  0.00000000000E+00  0.99999998245E-14  0.12500000000E+03  0.12500000000E+03 0.  0.
        -13    1    3    3    0    0  0.15993512116E+02 -0.36716896483E+02  0.13962748454E+02  0.42413351973E+02  0.10566000000E+00 0. -1.
         23    2    1    0    0    0 -0.23859652037E+02 -0.21977219494E+01  0.17610536459E+02  0.95263759964E+02  0.90503812025E+02 0.  0.
         13    1    3    3    0    0 -0.39853164153E+02  0.34519174534E+02  0.36477880046E+01  0.52850407991E+02  0.10566000000E+00 0.  1.
         22    1    1    0    0    0  0.23859652037E+02  0.21977219494E+01 -0.17610536459E+02  0.29736240036E+02  0.00000000000E+00 0.  1.
</event>
<event>
 5    1  0.1764318E-003  0.9118800E+02  0.7818608E-02  0.1130116E+00
         25   -1    0    0    0    0  0.00000000000E+00  0.00000000000E+00  0.99999998245E-14  0.12500000000E+03  0.12500000000E+03 0.  0.
        -13    1    3    3    0    0 -0.26786166292E+02 -0.23674974264E+02 -0.42832534227E+02  0.55791041067E+02  0.10566000000E+00 0.  1.
         23    2    1    0    0    0  0.63294777587E+01 -0.79157087637E+01 -0.27770323323E+02  0.95438004272E+02  0.90744151702E+02 0.  0.
         13    1    3    3    0    0  0.33115644051E+02  0.15759265500E+02  0.15062210904E+02  0.39646963205E+02  0.10566000000E+00 0. -1.
         22    1    1    0    0    0 -0.63294777587E+01  0.79157087637E+01  0.27770323323E+02  0.29561995728E+02  0.00000000000E+00 0.  1.
</event>
<event>
 5    1  0.1764318E-003  0.9118800E+02  0.7818608E-02  0.1130116E+00
         25   -1    0    0    0    0  0.00000000000E+00  0.00000000000E+00  0.99999998245E-14  0.12500000000E+03  0.12500000000E+03 0.  0.
        -13    1    3    3    0    0 -0.31956050463E+02 -0.21200939105E+02 -0.29943267174E+02  0.48654695490E+02  0.10566000000E+00 0.  1.
         23    2    1    0    0    0  0.14983050493E+02 -0.91476974971E+01 -0.20469121888E+02  0.98034148958E+02  0.94252518478E+02 0.  0.
         13    1    3    3    0    0  0.46939100956E+02  0.12053241608E+02  0.94741452856E+01  0.49379453468E+02  0.10566000000E+00 0. -1.
         22    1    1    0    0    0 -0.14983050493E+02  0.91476974971E+01  0.20469121888E+02  0.26965851042E+02  0.00000000000E+00 0. -1.
</event>
<event>
 5    1  0.1764318E-003  0.9118800E+02  0.7818608E-02  0.1130116E+00
         25   -1    0    0    0    0  0.00000000000E+00  0.00000000000E+00  0.99999998245E-14  0.12500000000E+03  0.12500000000E+03 0.  0.
        -13    1    3    3    0    0 -0.19127987164E+02  0.42888689766E+01 -0.29665156267E+02  0.35557094235E+02  0.10566000000E+00 0.  1.
         23    2    1    0    0    0  0.24651046395E+01 -0.18491496009E+02  0.22090083387E+02  0.96086612969E+02  0.91633254020E+02 0.  0.
         13    1    3    3    0    0  0.21593091803E+02 -0.22780364985E+02  0.51755239655E+02  0.60529518734E+02  0.10566000000E+00 0. -1.
         22    1    1    0    0    0 -0.24651046395E+01  0.18491496009E+02 -0.22090083387E+02  0.28913387031E+02  0.00000000000E+00 0. -1.
</event>
<event>
 5    1  0.1764318E-003  0.9118800E+02  0.7818608E-02  0.1130116E+00
         25   -1    0    0    0    0  0.00000000000E+00  0.00000000000E+00  0.99999998245E-14  0.12500000000E+03  0.12500000000E+03 0.  0.
        -13    1    3    3    0    0 -0.48074256372E+02  0.42000264968E+01  0.37334055975E+02  0.61013254690E+02  0.10566000000E+00 0.  1.
         23    2    1    0    0    0 -0.20076922167E+02  0.11238589820E+02  0.18424097265E+02  0.95523974744E+02  0.90862498789E+02 0.  0.
         13    1    3    3    0    0  0.27997334205E+02  0.70385633229E+01 -0.18909958710E+02  0.34510720054E+02  0.10566000000E+00 0. -1.
         22    1    1    0    0    0  0.20076922167E+02 -0.11238589820E+02 -0.18424097265E+02  0.29476025256E+02  0.00000000000E+00 0.  1.
</event>
<event>
 5    1  0.1764318E-003  0.9118800E+02  0.7818608E-02  0.1130116E+00
         25   -1    0    0    0    0  0.00000000000E+00  0.00000000000E+00  0.99999998245E-14  0.12500000000E+03  0.12500000000E+03 0.  0.
        -13    1    3    3    0    0  0.12268062289E+02  0.19483382802E+02 -0.37473192315E+02  0.43981346774E+02  0.10566000000E+00 0. -1.
         23    2    1    0    0    0 -0.25598494367E+02  0.13665665543E+02 -0.24662624034E+01  0.95877572580E+02  0.91347649915E+02 0.  0.
         13    1    3    3    0    0 -0.37866556656E+02 -0.58177172592E+01  0.35006929911E+02  0.51896225806E+02  0.10566000000E+00 0.  1.
         22    1    1    0    0    0  0.25598494367E+02 -0.13665665543E+02  0.24662624034E+01  0.29122427420E+02  0.00000000000E+00 0.  1.
</event>
<event>
 5    1  0.1764318E-003  0.9118800E+02  0.7818608E-02  0.1130116E+00
         25   -1    0    0    0    0  0.00000000000E+00  0.00000000000E+00  0.99999998245E-14  0.12500000000E+03  0.12500000000E+03 0.  0.
        -13    1    3    3    0    0  0.21399993174E+02  0.40217033462E+01 -0.28309557430E+02  0.35715207008E+02  0.10566000000E+00 0.  1.
         23    2    1    0    0    0 -0.19392950237E+02 -0.20272003046E+02  0.83827973552E+01  0.95720110692E+02  0.91131924554E+02 0.  0.
         13    1    3    3    0    0 -0.40792943412E+02 -0.24293706392E+02  0.36692354785E+02  0.60004903684E+02  0.10566000000E+00 0. -1.
         22    1    1    0    0    0  0.19392950237E+02  0.20272003046E+02 -0.83827973552E+01  0.29279889308E+02  0.00000000000E+00 0. -1.
</event>
<event>
 5    1  0.1764318E-003  0.9118800E+02  0.7818608E-02  0.1130116E+00
         25   -1    0    0    0    0  0.00000000000E+00  0.00000000000E+00  0.99999998245E-14  0.12500000000E+03  0.12500000000E+03 0.  0.
        -13    1    3    3    0    0  0.24925683733E+02  0.11570772722E+02  0.14504759933E+02  0.31073649861E+02  0.10566000000E+00 0.  1.
         23    2    1    0    0    0 -0.14413468939E+02  0.48392056175E-01 -0.30083733637E+02  0.91641620870E+02  0.85354585216E+02 0.  0.
         13    1    3    3    0    0 -0.39339152672E+02 -0.11522380665E+02 -0.44588493570E+02  0.60567971009E+02  0.10566000000E+00 0. -1.
         22    1    1    0    0    0  0.14413468939E+02 -0.48392056175E-01  0.30083733637E+02  0.33358379130E+02  0.00000000000E+00 0. -1.
</event>
<event>
 5    1  0.1764318E-003  0.9118800E+02  0.7818608E-02  0.1130116E+00
         25   -1    0    0    0    0  0.00000000000E+00  0.00000000000E+00  0.99999998245E-14  0.12500000000E+03  0.12500000000E+03 0.  0.
        -13    1    3    3    0    0  0.56119122115E+02  0.11641648175E+02  0.63063405405E+01  0.57659907512E+02  0.10566000000E+00 0.  1.
         23    2    1    0    0    0  0.26418304469E+02 -0.50517921180E+00 -0.13457910938E+02  0.95347051009E+02  0.90618777040E+02 0.  0.
         13    1    3    3    0    0 -0.29700817646E+02 -0.12146827387E+02 -0.19764251478E+02  0.37687143497E+02  0.10566000000E+00 0. -1.
         22    1    1    0    0    0 -0.26418304469E+02  0.50517921180E+00  0.13457910938E+02  0.29652948991E+02  0.00000000000E+00 0.  1.
</event>
<event>
 5    1  0.1764318E-003  0.9118800E+02  0.7818608E-02  0.1130116E+00
         25   -1    0    0    0    0  0.00000000000E+00  0.00000000000E+00  0.99999998245E-14  0.12500000000E+03  0.12500000000E+03 0.  0.
        -13    1    3    3    0    0 -0.36550044111E+02 -0.44522463649E+02  0.74055659746E+01  0.58077612428E+02  0.10566000000E+00 0. -1.
         23    2    1    0    0    0 -0.49527210691E+01 -0.29004295190E+02 -0.44892019674E+01  0.95235398210E+02  0.90464631500E+02 0.  0.
         13    1    3    3    0    0  0.31597323042E+02  0.15518168460E+02 -0.11894767942E+02  0.37157785782E+02  0.10566000000E+00 0.  1.
         22    1    1    0    0    0  0.49527210691E+01  0.29004295190E+02  0.44892019674E+01  0.29764601790E+02  0.00000000000E+00 0. -1.
</event>
<event>
 5    1  0.1764318E-003  0.9118800E+02  0.7818608E-02  0.1130116E+00
         25   -1    0    0    0    0  0.00000000000E+00  0.00000000000E+00  0.99999998245E-14  0.12500000000E+03  0.12500000000E+03 0.  0.
        -13    1    3    3    0    0  0.30253080982E+02 -0.15933823190E+02 -0.25591993352E+02  0.42709447645E+02  0.10566000000E+00 0. -1.
         23    2    1    0    0    0  0.18177121702E+02 -0.96924017411E+00  0.23407818771E+02  0.95347459476E+02  0.90619340480E+02 0.  0.
         13    1    3    3    0    0 -0.12075959280E+02  0.14964583016E+02  0.48999812124E+02  0.52638011831E+02  0.10566000000E+00 0.  1.
         22    1    1    0    0    0 -0.18177121702E+02  0.96924017411E+00 -0.23407818771E+02  0.29652540524E+02  0.00000000000E+00 0.  1.
</event>
<event>
 5    1  0.1764318E-003  0.9118800E+02  0.7818608E-02  0.1130116E+00
         25   -1    0    0    0    0  0.00000000000E+00  0.00000000000E+00  0.99999998245E-14  0.12500000000E+03  0.12500000000E+03 0.  0.
        -13    1    3    3    0    0 -0.44926842566E+02  0.15758160830E+02  0.30411888991E+02  0.56494557010E+02  0.10566000000E+00 0.  1.
         23    2    1    0    0    0 -0.12882468774E+02  0.18511165042E+02  0.28420195489E+02  0.88718754920E+02  0.80961032171E+02 0.  0.
         13    1    3    3    0    0  0.32044373792E+02  0.27530042114E+01 -0.19916935024E+01  0.32224197910E+02  0.10566000000E+00 0. -1.
         22    1    1    0    0    0  0.12882468774E+02 -0.18511165042E+02 -0.28420195489E+02  0.36281245080E+02  0.00000000000E+00 0.  1.
</event>
<event>
 5    1  0.1764318E-003  0.9118800E+02  0.7818608E-02  0.1130116E+00
         25   -1    0    0    0    0  0.00000000000E+00  0.00000000000E+00  0.99999998245E-14  0.12500000000E+03  0.12500000000E+03 0.  0.
        -13    1    3    3    0    0  0.44180863755E+02  0.84759128165E+01 -0.33387748450E+02  0.56022698353E+02  0.10566000000E+00 0.  1.
         23    2    1    0    0    0  0.67636060538E+01  0.12209880369E+02 -0.27603362801E+02  0.94068249590E+02  0.88837280449E+02 0.  0.
         13    1    3    3    0    0 -0.37417257701E+02  0.37339675527E+01  0.57843856488E+01  0.38045551237E+02  0.10566000000E+00 0. -1.
         22    1    1    0    0    0 -0.67636060538E+01 -0.12209880369E+02  0.27603362801E+02  0.30931750410E+02  0.00000000000E+00 0.  1.
</event>
<event>
 5    1  0.1764318E-003  0.9118800E+02  0.7818608E-02  0.1130116E+00
         25   -1    0    0    0    0  0.00000000000E+00  0.00000000000E+00  0.99999998245E-14  0.12500000000E+03  0.12500000000E+03 0.  0.
        -13    1    3    3    0    0  0.14218700083E+02  0.43346848078E+02  0.42222643930E+02  0.62160143941E+02  0.10566000000E+00 0.  1.
         23    2    1    0    0    0  0.95967257277E+01  0.19711369756E+02  0.15399540389E+02  0.98208563186E+02  0.94483547756E+02 0.  0.
         13    1    3    3    0    0 -0.46219743550E+01 -0.23635478323E+02 -0.26823103541E+02  0.36048419245E+02  0.10566000000E+00 0. -1.
         22    1    1    0    0    0 -0.95967257277E+01 -0.19711369756E+02 -0.15399540389E+02  0.26791436814E+02  0.00000000000E+00 0.  1.
</event>
<event>
 5    1  0.1764318E-003  0.9118800E+02  0.7818608E-02  0.1130116E+00
         25   -1    0    0    0    0  0.00000000000E+00  0.00000000000E+00  0.99999998245E-14  0.12500000000E+03  0.12500000000E+03 0.  0.
        -13    1    3    3    0    0  0.28784238818E+02  0.20062766300E+01 -0.18105204151E+02  0.34064161983E+02  0.10566000000E+00 0. -1.
         23    2    1    0    0    0 -0.28903919225E+02  0.66247898020E+01  0.18709726979E+01  0.95287630096E+02  0.90536774429E+02 0.  0.
         13    1    3    3    0    0 -0.57688158042E+02  0.46185131720E+01  0.19976176849E+02  0.61223468113E+02  0.10566000000E+00 0.  1.
         22    1    1    0    0    0  0.28903919225E+02 -0.66247898020E+01 -0.18709726979E+01  0.29712369904E+02  0.00000000000E+00 0.  1.
</event>
<event>
 5    1  0.1764318E-003  0.9118800E+02  0.7818608E-02  0.1130116E+00
         25   -1    0    0    0    0  0.00000000000E+00  0.00000000000E+00  0.99999998245E-14  0.12500000000E+03  0.12500000000E+03 0.  0.
        -13    1    3    3    0    0  0.12140424919E+02  0.44507752585E+02 -0.15824201790E+02  0.48772394689E+02  0.10566000000E+00 0.  1.
         23    2    1    0    0    0  0.28124410790E+02  0.96316546505E+01  0.83543892126E+01  0.94120442479E+02  0.88910689007E+02 0.  0.
         13    1    3    3    0    0  0.15983985871E+02 -0.34876097934E+02  0.24178591003E+02  0.45348047790E+02  0.10566000000E+00 0. -1.
         22    1    1    0    0    0 -0.28124410790E+02 -0.96316546505E+01 -0.83543892126E+01  0.30879557521E+02  0.00000000000E+00 0.  1.
</event>
<event>
 5    1  0.1764318E-003  0.9118800E+02  0.7818608E-02  0.1130116E+00
         25   -1    0    0    0    0  0.00000000000E+00  0.00000000000E+00  0.99999998245E-14  0.12500000000E+03  0.12500000000E+03 0.  0.
        -13    1    3    3    0    0 -0.20547557737E+02 -0.18177302775E+02  0.29162178565E+02  0.40038235324E+02  0.10566000000E+00 0. -1.
         23    2    1    0    0    0  0.28325929318E+02 -0.67562513045E+01  0.62243328180E+01  0.95221693761E+02  0.90445693321E+02 0.  0.
         13    1    3    3    0    0  0.48873487055E+02  0.11421051471E+02 -0.22937845747E+02  0.55183458438E+02  0.10566000000E+00 0.  1.
         22    1    1    0    0    0 -0.28325929318E+02  0.67562513045E+01 -0.62243328180E+01  0.29778306239E+02  0.00000000000E+00 0.  1.
</event>
<event>
 5    1  0.1764318E-003  0.9118800E+02  0.7818608E-02  0.1130116E+00
         25   -1    0    0    0    0  0.00000000000E+00  0.00000000000E+00  0.99999998245E-14  0.12500000000E+03  0.12500000000E+03 0.  0.
        -13    1    3    3    0    0  0.19409969979E+02  0.24963135448E+02  0.30143177197E+02  0.43686695475E+02  0.10566000000E+00 0.  1.
         23    2    1    0    0    0  0.10911544796E+02 -0.23624698571E+02  0.13035654120E+02  0.95894734656E+02  0.91371131459E+02 0.  0.
         13    1    3    3    0    0 -0.84984251833E+01 -0.48587834019E+02 -0.17107523077E+02  0.52208039181E+02  0.10566000000E+00 0. -1.
         22    1    1    0    0    0 -0.10911544796E+02  0.23624698571E+02 -0.13035654120E+02  0.29105265344E+02  0.00000000000E+00 0. -1.
</event>
<event>
 5    1  0.1764318E-003  0.9118800E+02  0.7818608E-02  0.1130116E+00
         25   -1    0    0    0    0  0.00000000000E+00  0.00000000000E+00  0.99999998245E-14  0.12500000000E+03  0.12500000000E+03 0.  0.
        -13    1    3    3    0    0 -0.44635368096E+02 -0.14552503954E+02 -0.40650879365E+02  0.62101502506E+02  0.10566000000E+00 0.  1.
         23    2    1    0    0    0 -0.14353230324E+02 -0.85268318041E+01 -0.18368453810E+02  0.10017819151E+03  0.97054355273E+02 0.  0.
         13    1    3    3    0    0  0.30282137772E+02  0.60256721494E+01  0.22282425554E+02  0.38076689004E+02  0.10566000000E+00 0. -1.
         22    1    1    0    0    0  0.14353230324E+02  0.85268318041E+01  0.18368453810E+02  0.24821808490E+02  0.00000000000E+00 0.  1.
</event>
<event>
 5    1  0.1764318E-003  0.9118800E+02  0.7818608E-02  0.1130116E+00
         25   -1    0    0    0    0  0.00000000000E+00  0.00000000000E+00  0.99999998245E-14  0.12500000000E+03  0.12500000000E+03 0.  0.
        -13    1    3    3    0    0  0.20653879213E+02 -0.83711000710E+01 -0.99089468390E+01  0.24389678850E+02  0.10566000000E+00 0. -1.
         23    2    1    0    0    0 -0.34446471153E+02 -0.15790278223E+02 -0.21854651121E+02  0.81256222878E+02  0.68476680115E+02 0.  0.
         13    1    3    3    0    0 -0.55100350365E+02 -0.74191781524E+01 -0.11945704282E+02  0.56866544028E+02  0.10566000000E+00 0.  1.
         22    1    1    0    0    0  0.34446471153E+02  0.15790278223E+02  0.21854651121E+02  0.43743777122E+02  0.00000000000E+00 0.  1.
</event>
<event>
 5    1  0.1764318E-003  0.9118800E+02  0.7818608E-02  0.1130116E+00
         25   -1    0    0    0    0  0.00000000000E+00  0.00000000000E+00  0.99999998245E-14  0.12500000000E+03  0.12500000000E+03 0.  0.
        -13    1    3    3    0    0  0.15925500296E+01 -0.31478204803E+02 -0.43823217074E+02  0.53980543828E+02  0.10566000000E+00 0. -1.
         23    2    1    0    0    0 -0.14800905487E+02 -0.23341727371E+02 -0.49846324223E+01  0.96915313776E+02  0.92756824245E+02 0.  0.
         13    1    3    3    0    0 -0.16393455517E+02  0.81364774321E+01  0.38838584651E+02  0.42934769949E+02  0.10566000000E+00 0.  1.
         22    1    1    0    0    0  0.14800905487E+02  0.23341727371E+02  0.49846324223E+01  0.28084686224E+02  0.00000000000E+00 0. -1.
</event>
<event>
 5    1  0.1764318E-003  0.9118800E+02  0.7818608E-02  0.1130116E+00
         25   -1    0    0    0    0  0.00000000000E+00  0.00000000000E+00  0.99999998245E-14  0.12500000000E+03  0.12500000000E+03 0.  0.
        -13    1    3    3    0    0 -0.43297318560E+02 -0.11552599225E+02  0.25652605314E+02  0.51635139845E+02  0.10566000000E+00 0.  1.
         23    2    1    0    0    0 -0.29692634444E+02  0.17541461488E+02  0.42011772123E+01  0.90258018172E+02  0.83303688652E+02 0.  0.
         13    1    3    3    0    0  0.13604684115E+02  0.29094060713E+02 -0.21451428102E+02  0.38622878327E+02  0.10566000000E+00 0. -1.
         22    1    1    0    0    0  0.29692634444E+02 -0.17541461488E+02 -0.42011772123E+01  0.34741981828E+02  0.00000000000E+00 0.  1.
</event>
<event>
 5    1  0.1764318E-003  0.9118800E+02  0.7818608E-02  0.1130116E+00
         25   -1    0    0    0    0  0.00000000000E+00  0.00000000000E+00  0.99999998245E-14  0.12500000000E+03  0.12500000000E+03 0.  0.
        -13    1    3    3    0    0  0.97210031098E+01  0.15746797368E+02  0.30358670622E+02  0.35554459282E+02  0.10566000000E+00 0.  1.
         23    2    1    0    0    0 -0.17731661346E+02 -0.20699922323E+02 -0.94945486895E+01  0.96137480133E+02  0.91702617374E+02 0.  0.
         13    1    3    3    0    0 -0.27452664456E+02 -0.36446719691E+02 -0.39853219312E+02  0.60583020852E+02  0.10566000000E+00 0. -1.
         22    1    1    0    0    0  0.17731661346E+02  0.20699922323E+02  0.94945486895E+01  0.28862519867E+02  0.00000000000E+00 0. -1.
</event>
<event>
 5    1  0.1764318E-003  0.9118800E+02  0.7818608E-02  0.1130116E+00
         25   -1    0    0    0    0  0.00000000000E+00  0.00000000000E+00  0.99999998245E-14  0.12500000000E+03  0.12500000000E+03 0.  0.
        -13    1    3    3    0    0  0.24762885394E+01 -0.38676471272E+02 -0.27798392924E+02  0.47694478173E+02  0.10566000000E+00 0. -1.
         23    2    1    0    0    0  0.27122277637E+02 -0.11557496665E+01 -0.12419182519E+02  0.95147197854E+02  0.90342677974E+02 0.  0.
         13    1    3    3    0    0  0.24645989098E+02  0.37520721606E+02  0.15379210405E+02  0.47452719681E+02  0.10566000000E+00 0.  1.
         22    1    1    0    0    0 -0.27122277637E+02  0.11557496665E+01  0.12419182519E+02  0.29852802146E+02  0.00000000000E+00 0. -1.
</event>
<event>
 5    1  0.1764318E-003  0.9118800E+02  0.7818608E-02  0.1130116E+00
         25   -1    0    0    0    0  0.00000000000E+00  0.00000000000E+00  0.99999998245E-14  0.12500000000E+03  0.12500000000E+03 0.  0.
        -13    1    3    3    0    0  0.27996071339E+02  0.17036130386E+02  0.32365615361E+02  0.46060329685E+02  0.10566000000E+00 0.  1.
         23    2    1    0    0    0  0.24915849461E+02  0.21839518658E+01 -0.15027248942E+02  0.95821456326E+02  0.91270828207E+02 0.  0.
         13    1    3    3    0    0 -0.30802218781E+01 -0.14852178520E+02 -0.47392864304E+02  0.49761126641E+02  0.10566000000E+00 0. -1.
         22    1    1    0    0    0 -0.24915849461E+02 -0.21839518658E+01  0.15027248942E+02  0.29178543674E+02  0.00000000000E+00 0. -1.
</event>
<event>
 5    1  0.1764318E-003  0.9118800E+02  0.7818608E-02  0.1130116E+00
         25   -1    0    0    0    0  0.00000000000E+00  0.00000000000E+00  0.99999998245E-14  0.12500000000E+03  0.12500000000E+03 0.  0.
        -13    1    3    3    0    0 -0.39515788552E+02 -0.13791082874E+02 -0.35513672322E+02  0.54890104732E+02  0.10566000000E+00 0. -1.
         23    2    1    0    0    0 -0.31300717509E+02 -0.10307221360E+02  0.54981786044E+00  0.92041298138E+02  0.85937910927E+02 0.  0.
         13    1    3    3    0    0  0.82150710426E+01  0.34838615139E+01  0.36063490183E+02  0.37151193406E+02  0.10566000000E+00 0.  1.
         22    1    1    0    0    0  0.31300717509E+02  0.10307221360E+02 -0.54981786044E+00  0.32958701862E+02  0.00000000000E+00 0. -1.
</event>
<event>
 5    1  0.1764318E-003  0.9118800E+02  0.7818608E-02  0.1130116E+00
         25   -1    0    0    0    0  0.00000000000E+00  0.00000000000E+00  0.99999998245E-14  0.12500000000E+03  0.12500000000E+03 0.  0.
        -13    1    3    3    0    0  0.33294665992E+02 -0.22964723439E+02  0.51671189817E+00  0.40449863552E+02  0.10566000000E+00 0. -1.
         23    2    1    0    0    0  0.31785697113E+01  0.25159018584E+02  0.94867049217E+01  0.97924603571E+02  0.94107124559E+02 0.  0.
         13    1    3    3    0    0 -0.30116096280E+02  0.48123742023E+02  0.89699930235E+01  0.57474740020E+02  0.10566000000E+00 0.  1.
         22    1    1    0    0    0 -0.31785697113E+01 -0.25159018584E+02 -0.94867049217E+01  0.27075396429E+02  0.00000000000E+00 0.  1.
</event>
<event>
 5    1  0.1764318E-003  0.9118800E+02  0.7818608E-02  0.1130116E+00
         25   -1    0    0    0    0  0.00000000000E+00  0.00000000000E+00  0.99999998245E-14  0.12500000000E+03  0.12500000000E+03 0.  0.
        -13    1    3    3    0    0 -0.19358602035E+02  0.84170724904E+01  0.28073589189E+02  0.35124637451E+02  0.10566000000E+00 0. -1.
         23    2    1    0    0    0  0.23659291720E+02  0.18332600584E+01 -0.15458370542E+02  0.96678909856E+02  0.92437695038E+02 0.  0.
         13    1    3    3    0    0  0.43017893755E+02 -0.65838124321E+01 -0.43531959731E+02  0.61554272405E+02  0.10566000000E+00 0.  1.
         22    1    1    0    0    0 -0.23659291720E+02 -0.18332600584E+01  0.15458370542E+02  0.28321090144E+02  0.00000000000E+00 0.  1.
</event>
<event>
 5    1  0.1764318E-003  0.9118800E+02  0.7818608E-02  0.1130116E+00
         25   -1    0    0    0    0  0.00000000000E+00  0.00000000000E+00  0.99999998245E-14  0.12500000000E+03  0.12500000000E+03 0.  0.
        -13    1    3    3    0    0 -0.58624957550E+01  0.47603318965E+02 -0.19549537884E+02  0.51794212307E+02  0.10566000000E+00 0. -1.
         23    2    1    0    0    0 -0.88211009895E+01  0.25037338542E+02  0.16000056062E+02  0.94005130458E+02  0.88748423167E+02 0.  0.
         13    1    3    3    0    0 -0.29586052345E+01 -0.22565980423E+02  0.35549593946E+02  0.42210918152E+02  0.10566000000E+00 0.  1.
         22    1    1    0    0    0  0.88211009895E+01 -0.25037338542E+02 -0.16000056062E+02  0.30994869542E+02  0.00000000000E+00 0. -1.
</event>
<event>
 5    1  0.1764318E-003  0.9118800E+02  0.7818608E-02  0.1130116E+00
         25   -1    0    0    0    0  0.00000000000E+00  0.00000000000E+00  0.99999998245E-14  0.12500000000E+03  0.12500000000E+03 0.  0.
        -13    1    3    3    0    0 -0.33214197311E+02 -0.25730092234E+01 -0.34345441283E+02  0.47847923470E+02  0.10566000000E+00 0.  1.
         23    2    1    0    0    0  0.15435594602E+02 -0.48228442907E+01 -0.21281172217E+02  0.98271631200E+02  0.94566948772E+02 0.  0.
         13    1    3    3    0    0  0.48649791913E+02 -0.22498350672E+01  0.13064269066E+02  0.50423707730E+02  0.10566000000E+00 0. -1.
         22    1    1    0    0    0 -0.15435594602E+02  0.48228442907E+01  0.21281172217E+02  0.26728368800E+02  0.00000000000E+00 0.  1.
</event>
<event>
 5    1  0.1764318E-003  0.9118800E+02  0.7818608E-02  0.1130116E+00
         25   -1    0    0    0    0  0.00000000000E+00  0.00000000000E+00  0.99999998245E-14  0.12500000000E+03  0.12500000000E+03 0.  0.
        -13    1    3    3    0    0 -0.25612061265E+02 -0.11798976249E+02  0.53120414115E+02  0.60141359168E+02  0.10566000000E+00 0.  1.
         23    2    1    0    0    0 -0.17698548589E+02 -0.17019711774E+02  0.24409280086E+02  0.90377432716E+02  0.83482681911E+02 0.  0.
         13    1    3    3    0    0  0.79135126765E+01 -0.52207355244E+01 -0.28711134029E+02  0.30236073548E+02  0.10566000000E+00 0. -1.
         22    1    1    0    0    0  0.17698548589E+02  0.17019711774E+02 -0.24409280086E+02  0.34622567284E+02  0.00000000000E+00 0.  1.
</event>
<event>
 5    1  0.1764318E-003  0.9118800E+02  0.7818608E-02  0.1130116E+00
         25   -1    0    0    0    0  0.00000000000E+00  0.00000000000E+00  0.99999998245E-14  0.12500000000E+03  0.12500000000E+03 0.  0.
        -13    1    3    3    0    0  0.26952238652E+01 -0.36178042505E+02 -0.72354878398E+01  0.36992951213E+02  0.10566000000E+00 0.  1.
         23    2    1    0    0    0  0.34367611541E+01  0.20136872720E+02 -0.21758056112E+02  0.95155101342E+02  0.90353612741E+02 0.  0.
         13    1    3    3    0    0  0.74153728893E+00  0.56314915225E+02 -0.14522568272E+02  0.58162150128E+02  0.10566000000E+00 0. -1.
         22    1    1    0    0    0 -0.34367611541E+01 -0.20136872720E+02  0.21758056112E+02  0.29844898658E+02  0.00000000000E+00 0. -1.
</event>
<event>
 5    1  0.1764318E-003  0.9118800E+02  0.7818608E-02  0.1130116E+00
         25   -1    0    0    0    0  0.00000000000E+00  0.00000000000E+00  0.99999998245E-14  0.12500000000E+03  0.12500000000E+03 0.  0.
        -13    1    3    3    0    0  0.58449216200E+00 -0.92768658876E+01 -0.45696726631E+02  0.46632648012E+02  0.10566000000E+00 0. -1.
         23    2    1    0    0    0 -0.19948827710E+02 -0.23243511427E+02 -0.55028041487E+01  0.93879309070E+02  0.88571029505E+02 0.  0.
         13    1    3    3    0    0 -0.20533319872E+02 -0.13966645539E+02  0.40193922482E+02  0.47246661058E+02  0.10566000000E+00 0.  1.
         22    1    1    0    0    0  0.19948827710E+02  0.23243511427E+02  0.55028041487E+01  0.31120690930E+02  0.00000000000E+00 0. -1.
</event>
<event>
 5    1  0.1764318E-003  0.9118800E+02  0.7818608E-02  0.1130116E+00
         25   -1    0    0    0    0  0.00000000000E+00  0.00000000000E+00  0.99999998245E-14  0.12500000000E+03  0.12500000000E+03 0.  0.
        -13    1    3    3    0    0 -0.50728501298E+02 -0.29584548552E+02 -0.13250472142E+02  0.60201432981E+02  0.10566000000E+00 0. -1.
         23    2    1    0    0    0 -0.17400690928E+02 -0.17437893123E+02 -0.15748398601E+02  0.95761733638E+02  0.91188998292E+02 0.  0.
         13    1    3    3    0    0  0.33327810370E+02  0.12146655428E+02 -0.24979264588E+01  0.35560300657E+02  0.10566000000E+00 0.  1.
         22    1    1    0    0    0  0.17400690928E+02  0.17437893123E+02  0.15748398601E+02  0.29238266362E+02  0.00000000000E+00 0. -1.
</event>
<event>
 5    1  0.1764318E-003  0.9118800E+02  0.7818608E-02  0.1130116E+00
         25   -1    0    0    0    0  0.00000000000E+00  0.00000000000E+00  0.99999998245E-14  0.12500000000E+03  0.12500000000E+03 0.  0.
        -13    1    3    3    0    0 -0.25267665506E+02  0.18247234888E+02  0.18039865157E+02  0.36012003556E+02  0.10566000000E+00 0. -1.
         23    2    1    0    0    0  0.12905614572E+02 -0.77362051242E+00 -0.25156534561E+02  0.96715647307E+02  0.92487360362E+02 0.  0.
         13    1    3    3    0    0  0.38173280078E+02 -0.19020855400E+02 -0.43196399717E+02  0.60703643751E+02  0.10566000000E+00 0.  1.
         22    1    1    0    0    0 -0.12905614572E+02  0.77362051242E+00  0.25156534561E+02  0.28284352693E+02  0.00000000000E+00 0.  1.
</event>
<event>
 5    1  0.1764318E-003  0.9118800E+02  0.7818608E-02  0.1130116E+00
         25   -1    0    0    0    0  0.00000000000E+00  0.00000000000E+00  0.99999998245E-14  0.12500000000E+03  0.12500000000E+03 0.  0.
        -13    1    3    3    0    0  0.14615789731E+02  0.23349595504E+02  0.52432912645E+02  0.59228763385E+02  0.10566000000E+00 0.  1.
         23    2    1    0    0    0 -0.46411328936E+01  0.19118768426E+02  0.22044964433E+02  0.95452616401E+02  0.90764277667E+02 0.  0.
         13    1    3    3    0    0 -0.19256922625E+02 -0.42308270779E+01 -0.30387948212E+02  0.36223853016E+02  0.10566000000E+00 0. -1.
         22    1    1    0    0    0  0.46411328936E+01 -0.19118768426E+02 -0.22044964433E+02  0.29547383599E+02  0.00000000000E+00 0.  1.
</event>
<event>
 5    1  0.1764318E-003  0.9118800E+02  0.7818608E-02  0.1130116E+00
         25   -1    0    0    0    0  0.00000000000E+00  0.00000000000E+00  0.99999998245E-14  0.12500000000E+03  0.12500000000E+03 0.  0.
        -13    1    3    3    0    0  0.61568183506E+02 -0.65711883710E+01 -0.24987777342E+01  0.61968353141E+02  0.10566000000E+00 0. -1.
         23    2    1    0    0    0  0.28673455979E+02 -0.36281624752E+01 -0.68974471329E+01  0.95286275600E+02  0.90534904319E+02 0.  0.
         13    1    3    3    0    0 -0.32894727527E+02  0.29430258958E+01 -0.43986693987E+01  0.33317922459E+02  0.10566000000E+00 0.  1.
         22    1    1    0    0    0 -0.28673455979E+02  0.36281624752E+01  0.68974471329E+01  0.29713724400E+02  0.00000000000E+00 0. -1.
</event>
<event>
 5    1  0.1764318E-003  0.9118800E+02  0.7818608E-02  0.1130116E+00
         25   -1    0    0    0    0  0.00000000000E+00  0.00000000000E+00  0.99999998245E-14  0.12500000000E+03  0.12500000000E+03 0.  0.
        -13    1    3    3    0    0  0.20873825409E+02  0.80038974104E+01  0.24730197029E+02  0.33337257987E+02  0.10566000000E+00 0. -1.
         23    2    1    0    0    0 -0.15241394452E+02 -0.12322454026E+02 -0.21825140032E+02  0.95666065462E+02  0.91057763894E+02 0.  0.
         13    1    3    3    0    0 -0.36115219861E+02 -0.20326351437E+02 -0.46555337061E+02  0.62328807475E+02  0.10566000000E+00 0.  1.
         22    1    1    0    0    0  0.15241394452E+02  0.12322454026E+02  0.21825140032E+02  0.29333934538E+02  0.00000000000E+00 0.  1.
</event>
<event>
 5    1  0.1764318E-003  0.9118800E+02  0.7818608E-02  0.1130116E+00
         25   -1    0    0    0    0  0.00000000000E+00  0.00000000000E+00  0.99999998245E-14  0.12500000000E+03  0.12500000000E+03 0.  0.
        -13    1    3    3    0    0  0.37308485871E+02 -0.42740822327E+02 -0.19913617675E+02  0.60127068315E+02  0.10566000000E+00 0.  1.
         23    2    1    0    0    0  0.17414343094E+02 -0.32217130417E+02 -0.21224789089E+02  0.82671587443E+02  0.71013356919E+02 0.  0.
         13    1    3    3    0    0 -0.19894142776E+02  0.10523691911E+02 -0.13111714138E+01  0.22544519129E+02  0.10566000000E+00 0. -1.
         22    1    1    0    0    0 -0.17414343094E+02  0.32217130417E+02  0.21224789089E+02  0.42328412557E+02  0.00000000000E+00 0.  1.
</event>
<event>
 5    1  0.1764318E-003  0.9118800E+02  0.7818608E-02  0.1130116E+00
         25   -1    0    0    0    0  0.00000000000E+00  0.00000000000E+00  0.99999998245E-14  0.12500000000E+03  0.12500000000E+03 0.  0.
        -13    1    3    3    0    0 -0.37058317896E+02  0.44853064833E+02 -0.88004239919E+00  0.58188503924E+02  0.10566000000E+00 0. -1.
         23    2    1    0    0    0 -0.12260692645E+02  0.21974271596E+02 -0.16020490724E+02  0.95169657740E+02  0.90373748595E+02 0.  0.
         13    1    3    3    0    0  0.24797625251E+02 -0.22878793238E+02 -0.15140448325E+02  0.36981153817E+02  0.10566000000E+00 0.  1.
         22    1    1    0    0    0  0.12260692645E+02 -0.21974271596E+02  0.16020490724E+02  0.29830342260E+02  0.00000000000E+00 0. -1.
</event>
<event>
 5    1  0.1764318E-003  0.9118800E+02  0.7818608E-02  0.1130116E+00
         25   -1    0    0    0    0  0.00000000000E+00  0.00000000000E+00  0.99999998245E-14  0.12500000000E+03  0.12500000000E+03 0.  0.
        -13    1    3    3    0    0  0.23135585768E+02  0.30785175941E+02  0.98338854441E+01  0.39745425566E+02  0.10566000000E+00 0.  1.
         23    2    1    0    0    0 -0.20160213109E+02  0.10199473124E+02 -0.18818585609E+02  0.95595874287E+02  0.90961357574E+02 0.  0.
         13    1    3    3    0    0 -0.43295798877E+02 -0.20585702816E+02 -0.28652471053E+02  0.55850448721E+02  0.10566000000E+00 0. -1.
         22    1    1    0    0    0  0.20160213109E+02 -0.10199473124E+02  0.18818585609E+02  0.29404125713E+02  0.00000000000E+00 0. -1.
</event>
<event>
 5    1  0.1764318E-003  0.9118800E+02  0.7818608E-02  0.1130116E+00
         25   -1    0    0    0    0  0.00000000000E+00  0.00000000000E+00  0.99999998245E-14  0.12500000000E+03  0.12500000000E+03 0.  0.
        -13    1    3    3    0    0  0.52978434327E+01  0.31818824456E+02 -0.20446167001E+02  0.38191119961E+02  0.10566000000E+00 0.  1.
         23    2    1    0    0    0 -0.11829332909E+02  0.23915772918E+01  0.26323404874E+02  0.96041850833E+02  0.91572172128E+02 0.  0.
         13    1    3    3    0    0 -0.17127176341E+02 -0.29427247164E+02  0.46769571875E+02  0.57850730872E+02  0.10566000000E+00 0. -1.
         22    1    1    0    0    0  0.11829332909E+02 -0.23915772918E+01 -0.26323404874E+02  0.28958149167E+02  0.00000000000E+00 0. -1.
</event>
<event>
 5    1  0.1764318E-003  0.9118800E+02  0.7818608E-02  0.1130116E+00
         25   -1    0    0    0    0  0.00000000000E+00  0.00000000000E+00  0.99999998245E-14  0.12500000000E+03  0.12500000000E+03 0.  0.
        -13    1    3    3    0    0  0.51418670081E+01 -0.44593054624E+02  0.13938621254E+02  0.47002932286E+02  0.10566000000E+00 0.  1.
         23    2    1    0    0    0 -0.18823071501E+02 -0.20845081729E+02 -0.16485363669E+02  0.92433258248E+02  0.86506153319E+02 0.  0.
         13    1    3    3    0    0 -0.23964938509E+02  0.23747972895E+02 -0.30423984923E+02  0.45430325962E+02  0.10566000000E+00 0. -1.
         22    1    1    0    0    0  0.18823071501E+02  0.20845081729E+02  0.16485363669E+02  0.32566741752E+02  0.00000000000E+00 0. -1.
</event>
<event>
 5    1  0.1764318E-003  0.9118800E+02  0.7818608E-02  0.1130116E+00
         25   -1    0    0    0    0  0.00000000000E+00  0.00000000000E+00  0.99999998245E-14  0.12500000000E+03  0.12500000000E+03 0.  0.
        -13    1    3    3    0    0 -0.26876375638E+02  0.10188484195E+02  0.11888686556E+02  0.31104610746E+02  0.10566000000E+00 0. -1.
         23    2    1    0    0    0  0.19786404348E+02 -0.16845678152E+02 -0.18589129404E+02  0.93049500765E+02  0.87392077394E+02 0.  0.
         13    1    3    3    0    0  0.46662779985E+02 -0.27034162347E+02 -0.30477815959E+02  0.61944890019E+02  0.10566000000E+00 0.  1.
         22    1    1    0    0    0 -0.19786404348E+02  0.16845678152E+02  0.18589129404E+02  0.31950499235E+02  0.00000000000E+00 0.  1.
</event>
<event>
 5    1  0.1764318E-003  0.9118800E+02  0.7818608E-02  0.1130116E+00
         25   -1    0    0    0    0  0.00000000000E+00  0.00000000000E+00  0.99999998245E-14  0.12500000000E+03  0.12500000000E+03 0.  0.
        -13    1    3    3    0    0 -0.40503567494E+02 -0.35403553214E+00  0.40209094804E+02  0.57074046553E+02  0.10566000000E+00 0.  1.
         23    2    1    0    0    0 -0.25841969849E+02 -0.13204439522E+02  0.77089423397E+01  0.94973471383E+02  0.90101985804E+02 0.  0.
         13    1    3    3    0    0  0.14661597645E+02 -0.12850403990E+02 -0.32500152464E+02  0.37899424830E+02  0.10566000000E+00 0. -1.
         22    1    1    0    0    0  0.25841969849E+02  0.13204439522E+02 -0.77089423397E+01  0.30026528617E+02  0.00000000000E+00 0.  1.
</event>
<event>
 5    1  0.1764318E-003  0.9118800E+02  0.7818608E-02  0.1130116E+00
         25   -1    0    0    0    0  0.00000000000E+00  0.00000000000E+00  0.99999998245E-14  0.12500000000E+03  0.12500000000E+03 0.  0.
        -13    1    3    3    0    0 -0.12393396287E+02 -0.31291164576E+02 -0.41337273005E+02  0.53305858549E+02  0.10566000000E+00 0. -1.
         23    2    1    0    0    0 -0.12223098945E+02  0.79957513234E+01 -0.25394130307E+02  0.95704982657E+02  0.91111172006E+02 0.  0.
         13    1    3    3    0    0  0.17029734213E+00  0.39286915899E+02  0.15943142698E+02  0.42399124109E+02  0.10566000000E+00 0.  1.
         22    1    1    0    0    0  0.12223098945E+02 -0.79957513234E+01  0.25394130307E+02  0.29295017343E+02  0.00000000000E+00 0. -1.
</event>
<event>
 5    1  0.1764318E-003  0.9118800E+02  0.7818608E-02  0.1130116E+00
         25   -1    0    0    0    0  0.00000000000E+00  0.00000000000E+00  0.99999998245E-14  0.12500000000E+03  0.12500000000E+03 0.  0.
        -13    1    3    3    0    0  0.28409720097E+02  0.33778680896E+02  0.24580196894E+02  0.50520379279E+02  0.10566000000E+00 0. -1.
         23    2    1    0    0    0  0.18419626940E+02  0.17343839616E+02 -0.15747308284E+02  0.95199510953E+02  0.90415030488E+02 0.  0.
         13    1    3    3    0    0 -0.99900931571E+01 -0.16434841279E+02 -0.40327505179E+02  0.44679131674E+02  0.10566000000E+00 0.  1.
         22    1    1    0    0    0 -0.18419626940E+02 -0.17343839616E+02  0.15747308284E+02  0.29800489047E+02  0.00000000000E+00 0. -1.
</event>
<event>
 5    1  0.1764318E-003  0.9118800E+02  0.7818608E-02  0.1130116E+00
         25   -1    0    0    0    0  0.00000000000E+00  0.00000000000E+00  0.99999998245E-14  0.12500000000E+03  0.12500000000E+03 0.  0.
        -13    1    3    3    0    0  0.20048019480E+02 -0.12112757769E+02 -0.50380862631E+02  0.55559737844E+02  0.10566000000E+00 0.  1.
         23    2    1    0    0    0  0.90114483673E+01  0.14992381141E+02 -0.26066339997E+02  0.93608412356E+02  0.88187885161E+02 0.  0.
         13    1    3    3    0    0 -0.11036571112E+02  0.27105138909E+02  0.24314522634E+02  0.38048674513E+02  0.10566000000E+00 0. -1.
         22    1    1    0    0    0 -0.90114483673E+01 -0.14992381141E+02  0.26066339997E+02  0.31391587644E+02  0.00000000000E+00 0.  1.
</event>
<event>
 5    1  0.1764318E-003  0.9118800E+02  0.7818608E-02  0.1130116E+00
         25   -1    0    0    0    0  0.00000000000E+00  0.00000000000E+00  0.99999998245E-14  0.12500000000E+03  0.12500000000E+03 0.  0.
        -13    1    3    3    0    0 -0.18326768382E+02 -0.14977956314E+02  0.24227528837E+02  0.33870251435E+02  0.10566000000E+00 0. -1.
         23    2    1    0    0    0  0.19486094880E+02  0.18538145398E+02 -0.11494761856E+02  0.95751063633E+02  0.91174370896E+02 0.  0.
         13    1    3    3    0    0  0.37812863262E+02  0.33516101712E+02 -0.35722290693E+02  0.61880812199E+02  0.10566000000E+00 0.  1.
         22    1    1    0    0    0 -0.19486094880E+02 -0.18538145398E+02  0.11494761856E+02  0.29248936367E+02  0.00000000000E+00 0.  1.
</event>
<event>
 5    1  0.1764318E-003  0.9118800E+02  0.7818608E-02  0.1130116E+00
         25   -1    0    0    0    0  0.00000000000E+00  0.00000000000E+00  0.99999998245E-14  0.12500000000E+03  0.12500000000E+03 0.  0.
        -13    1    3    3    0    0  0.23894949369E+02  0.18841361290E+02  0.17314058166E+02  0.35010759415E+02  0.10566000000E+00 0. -1.
         23    2    1    0    0    0 -0.25469787593E+02  0.50239219521E+01 -0.14422832337E+02  0.95302054542E+02  0.90556687414E+02 0.  0.
         13    1    3    3    0    0 -0.49364736962E+02 -0.13817439338E+02 -0.31736890503E+02  0.60291295127E+02  0.10566000000E+00 0.  1.
         22    1    1    0    0    0  0.25469787593E+02 -0.50239219521E+01  0.14422832337E+02  0.29697945458E+02  0.00000000000E+00 0.  1.
</event>
<event>
 5    1  0.1764318E-003  0.9118800E+02  0.7818608E-02  0.1130116E+00
         25   -1    0    0    0    0  0.00000000000E+00  0.00000000000E+00  0.99999998245E-14  0.12500000000E+03  0.12500000000E+03 0.  0.
        -13    1    3    3    0    0  0.10123352144E+02  0.81305617362E+01  0.52565724228E+02  0.54145681457E+02  0.10566000000E+00 0. -1.
         23    2    1    0    0    0 -0.77661220699E+01  0.21988831729E+02  0.17648652591E+02  0.95754550591E+02  0.91179151388E+02 0.  0.
         13    1    3    3    0    0 -0.17889474214E+02  0.13858269993E+02 -0.34917071637E+02  0.41608869134E+02  0.10566000000E+00 0.  1.
         22    1    1    0    0    0  0.77661220699E+01 -0.21988831729E+02 -0.17648652591E+02  0.29245449409E+02  0.00000000000E+00 0. -1.
</event>
<event>
 5    1  0.1764318E-003  0.9118800E+02  0.7818608E-02  0.1130116E+00
         25   -1    0    0    0    0  0.00000000000E+00  0.00000000000E+00  0.99999998245E-14  0.12500000000E+03  0.12500000000E+03 0.  0.
        -13    1    3    3    0    0  0.42783610395E+02 -0.53463990867E+01 -0.49511280710E+01  0.43399840263E+02  0.10566000000E+00 0. -1.
         23    2    1    0    0    0  0.14588199126E+01  0.28163577627E+02 -0.29988481774E+01  0.96639669419E+02  0.92384616440E+02 0.  0.
         13    1    3    3    0    0 -0.41324790483E+02  0.33509976713E+02  0.19522798937E+01  0.53239829156E+02  0.10566000000E+00 0.  1.
         22    1    1    0    0    0 -0.14588199126E+01 -0.28163577627E+02  0.29988481774E+01  0.28360330581E+02  0.00000000000E+00 0.  1.
</event>
<event>
 5    1  0.1764318E-003  0.9118800E+02  0.7818608E-02  0.1130116E+00
         25   -1    0    0    0    0  0.00000000000E+00  0.00000000000E+00  0.99999998245E-14  0.12500000000E+03  0.12500000000E+03 0.  0.
        -13    1    3    3    0    0 -0.26001602558E+02  0.39542441159E+02  0.32276191683E+02  0.57283956759E+02  0.10566000000E+00 0.  1.
         23    2    1    0    0    0 -0.18280296306E+02  0.23927683059E+02 -0.10303417482E+01  0.94870863708E+02  0.89959523826E+02 0.  0.
         13    1    3    3    0    0  0.77213062519E+01 -0.15614758100E+02 -0.33306533431E+02  0.37586906949E+02  0.10566000000E+00 0. -1.
         22    1    1    0    0    0  0.18280296306E+02 -0.23927683059E+02  0.10303417482E+01  0.30129136292E+02  0.00000000000E+00 0.  1.
</event>
<event>
 5    1  0.1764318E-003  0.9118800E+02  0.7818608E-02  0.1130116E+00
         25   -1    0    0    0    0  0.00000000000E+00  0.00000000000E+00  0.99999998245E-14  0.12500000000E+03  0.12500000000E+03 0.  0.
        -13    1    3    3    0    0  0.14668966499E+02 -0.30419793707E+02  0.19944185486E+02  0.39221475318E+02  0.10566000000E+00 0.  1.
         23    2    1    0    0    0 -0.29319702259E+02  0.60490684844E+00  0.37393875242E+01  0.95436612645E+02  0.90742234716E+02 0.  0.
         13    1    3    3    0    0 -0.43988668758E+02  0.31024700556E+02 -0.16204797962E+02  0.56215137327E+02  0.10566000000E+00 0. -1.
         22    1    1    0    0    0  0.29319702259E+02 -0.60490684844E+00 -0.37393875242E+01  0.29563387355E+02  0.00000000000E+00 0. -1.
</event>
<event>
 5    1  0.1764318E-003  0.9118800E+02  0.7818608E-02  0.1130116E+00
         25   -1    0    0    0    0  0.00000000000E+00  0.00000000000E+00  0.99999998245E-14  0.12500000000E+03  0.12500000000E+03 0.  0.
        -13    1    3    3    0    0 -0.14836648678E+02  0.24339292427E+02 -0.20566346551E+02  0.35149865922E+02  0.10566000000E+00 0.  1.
         23    2    1    0    0    0  0.23597675943E+02 -0.55175706416E+01  0.15944237334E+02  0.95991163418E+02  0.91502955441E+02 0.  0.
         13    1    3    3    0    0  0.38434324621E+02 -0.29856863068E+02  0.36510583885E+02  0.60841297496E+02  0.10566000000E+00 0. -1.
         22    1    1    0    0    0 -0.23597675943E+02  0.55175706416E+01 -0.15944237334E+02  0.29008836582E+02  0.00000000000E+00 0. -1.
</event>
<event>
 5    1  0.1764318E-003  0.9118800E+02  0.7818608E-02  0.1130116E+00
         25   -1    0    0    0    0  0.00000000000E+00  0.00000000000E+00  0.99999998245E-14  0.12500000000E+03  0.12500000000E+03 0.  0.
        -13    1    3    3    0    0  0.26559371686E+02 -0.76992191206E+01 -0.19627417306E+02  0.33910542218E+02  0.10566000000E+00 0.  1.
         23    2    1    0    0    0  0.26828548609E+02  0.35871460162E+02 -0.15156543706E+02  0.77710958017E+02  0.61666356339E+02 0.  0.
         13    1    3    3    0    0  0.26917692343E+00  0.43570679282E+02  0.44708735999E+01  0.43800415799E+02  0.10566000000E+00 0. -1.
         22    1    1    0    0    0 -0.26828548609E+02 -0.35871460162E+02  0.15156543706E+02  0.47289041983E+02  0.00000000000E+00 0. -1.
</event>
<event>
 5    1  0.1764318E-003  0.9118800E+02  0.7818608E-02  0.1130116E+00
         25   -1    0    0    0    0  0.00000000000E+00  0.00000000000E+00  0.99999998245E-14  0.12500000000E+03  0.12500000000E+03 0.  0.
        -13    1    3    3    0    0  0.30020133867E+02  0.18436462361E+02  0.37682549107E+02  0.51585824148E+02  0.10566000000E+00 0.  1.
         23    2    1    0    0    0 -0.12370650039E+02  0.11284230651E+02  0.22012798781E+02  0.97342629302E+02  0.93330902307E+02 0.  0.
         13    1    3    3    0    0 -0.42390783906E+02 -0.71522317095E+01 -0.15669750326E+02  0.45756805154E+02  0.10566000000E+00 0. -1.
         22    1    1    0    0    0  0.12370650039E+02 -0.11284230651E+02 -0.22012798781E+02  0.27657370698E+02  0.00000000000E+00 0.  1.
</event>
<event>
 5    1  0.1764318E-003  0.9118800E+02  0.7818608E-02  0.1130116E+00
         25   -1    0    0    0    0  0.00000000000E+00  0.00000000000E+00  0.99999998245E-14  0.12500000000E+03  0.12500000000E+03 0.  0.
        -13    1    3    3    0    0 -0.48562284893E+02  0.10549921924E+02 -0.29670807672E+02  0.57878876618E+02  0.10566000000E+00 0. -1.
         23    2    1    0    0    0 -0.14040646658E+02 -0.11459638796E+02 -0.32984521174E+01  0.10657873874E+03  0.10497468593E+03 0.  0.
         13    1    3    3    0    0  0.34521638236E+02 -0.22009560720E+02  0.26372355554E+02  0.48699862126E+02  0.10566000000E+00 0.  1.
         22    1    1    0    0    0  0.14040646658E+02  0.11459638796E+02  0.32984521174E+01  0.18421261256E+02  0.00000000000E+00 0. -1.
</event>
<event>
 5    1  0.1764318E-003  0.9118800E+02  0.7818608E-02  0.1130116E+00
         25   -1    0    0    0    0  0.00000000000E+00  0.00000000000E+00  0.99999998245E-14  0.12500000000E+03  0.12500000000E+03 0.  0.
        -13    1    3    3    0    0 -0.80064726124E+01  0.41122536260E+02 -0.34103733655E+02  0.54020759023E+02  0.10566000000E+00 0. -1.
         23    2    1    0    0    0 -0.14659987697E+02  0.20601969997E+01 -0.26900175172E+02  0.94295292295E+02  0.89156172382E+02 0.  0.
         13    1    3    3    0    0 -0.66535150849E+01 -0.39062339260E+02  0.72035584836E+01  0.40274533273E+02  0.10566000000E+00 0.  1.
         22    1    1    0    0    0  0.14659987697E+02 -0.20601969997E+01  0.26900175172E+02  0.30704707705E+02  0.00000000000E+00 0. -1.
</event>
<event>
 5    1  0.1764318E-003  0.9118800E+02  0.7818608E-02  0.1130116E+00
         25   -1    0    0    0    0  0.00000000000E+00  0.00000000000E+00  0.99999998245E-14  0.12500000000E+03  0.12500000000E+03 0.  0.
        -13    1    3    3    0    0 -0.31972102947E+02  0.44716098056E+02 -0.35697010263E+01  0.55086284333E+02  0.10566000000E+00 0. -1.
         23    2    1    0    0    0 -0.26859966214E+02  0.46118057001E+01 -0.98933926960E+01  0.96006798109E+02  0.91524311127E+02 0.  0.
         13    1    3    3    0    0  0.51121367323E+01 -0.40104292356E+02 -0.63236916697E+01  0.40920513776E+02  0.10566000000E+00 0.  1.
         22    1    1    0    0    0  0.26859966214E+02 -0.46118057001E+01  0.98933926960E+01  0.28993201891E+02  0.00000000000E+00 0. -1.
</event>
<event>
 5    1  0.1764318E-003  0.9118800E+02  0.7818608E-02  0.1130116E+00
         25   -1    0    0    0    0  0.00000000000E+00  0.00000000000E+00  0.99999998245E-14  0.12500000000E+03  0.12500000000E+03 0.  0.
        -13    1    3    3    0    0 -0.20298435651E+02 -0.75665496793E+00 -0.42037945993E+02  0.46688318496E+02  0.10566000000E+00 0. -1.
         23    2    1    0    0    0 -0.98691932195E+01 -0.25970526280E+02  0.48553512228E+00  0.97213223389E+02  0.93157425078E+02 0.  0.
         13    1    3    3    0    0  0.10429242432E+02 -0.25213871313E+02  0.42523481115E+02  0.50524904893E+02  0.10566000000E+00 0.  1.
         22    1    1    0    0    0  0.98691932195E+01  0.25970526280E+02 -0.48553512228E+00  0.27786776611E+02  0.00000000000E+00 0.  1.
</event>
<event>
 5    1  0.1764318E-003  0.9118800E+02  0.7818608E-02  0.1130116E+00
         25   -1    0    0    0    0  0.00000000000E+00  0.00000000000E+00  0.99999998245E-14  0.12500000000E+03  0.12500000000E+03 0.  0.
        -13    1    3    3    0    0 -0.20369180999E+02  0.36834387474E+02 -0.38953102076E+02  0.57350073762E+02  0.10566000000E+00 0.  1.
         23    2    1    0    0    0 -0.11013629531E+02  0.28135634678E+02 -0.40529660582E+01  0.94514913350E+02  0.89463558712E+02 0.  0.
         13    1    3    3    0    0  0.93555514684E+01 -0.86987527952E+01  0.34900136018E+02  0.37164839588E+02  0.10566000000E+00 0. -1.
         22    1    1    0    0    0  0.11013629531E+02 -0.28135634678E+02  0.40529660582E+01  0.30485086650E+02  0.00000000000E+00 0.  1.
</event>
<event>
 5    1  0.1764318E-003  0.9118800E+02  0.7818608E-02  0.1130116E+00
         25   -1    0    0    0    0  0.00000000000E+00  0.00000000000E+00  0.99999998245E-14  0.12500000000E+03  0.12500000000E+03 0.  0.
        -13    1    3    3    0    0 -0.25245539957E+02 -0.22252731818E+02  0.47266799380E+02  0.58023123397E+02  0.10566000000E+00 0.  1.
         23    2    1    0    0    0 -0.17448573238E+02  0.52772958019E+01  0.23752709094E+02  0.95058494555E+02  0.90219862772E+02 0.  0.
         13    1    3    3    0    0  0.77969667188E+01  0.27530027620E+02 -0.23514090286E+02  0.37035371157E+02  0.10566000000E+00 0. -1.
         22    1    1    0    0    0  0.17448573238E+02 -0.52772958019E+01 -0.23752709094E+02  0.29941505445E+02  0.00000000000E+00 0.  1.
</event>
<event>
 5    1  0.1764318E-003  0.9118800E+02  0.7818608E-02  0.1130116E+00
         25   -1    0    0    0    0  0.00000000000E+00  0.00000000000E+00  0.99999998245E-14  0.12500000000E+03  0.12500000000E+03 0.  0.
        -13    1    3    3    0    0  0.66456605994E+01 -0.18695800381E+02  0.50079642908E+02  0.53867240086E+02  0.10566000000E+00 0. -1.
         23    2    1    0    0    0  0.11513269559E+02 -0.25421132949E+02  0.91485946492E+01  0.95631885311E+02  0.91010830826E+02 0.  0.
         13    1    3    3    0    0  0.48676089600E+01 -0.67253325682E+01 -0.40931048259E+02  0.41764645224E+02  0.10566000000E+00 0.  1.
         22    1    1    0    0    0 -0.11513269559E+02  0.25421132949E+02 -0.91485946492E+01  0.29368114689E+02  0.00000000000E+00 0. -1.
</event>
<event>
 5    1  0.1764318E-003  0.9118800E+02  0.7818608E-02  0.1130116E+00
         25   -1    0    0    0    0  0.00000000000E+00  0.00000000000E+00  0.99999998245E-14  0.12500000000E+03  0.12500000000E+03 0.  0.
        -13    1    3    3    0    0 -0.31673382309E+02 -0.11648368970E+02 -0.32939766554E+02  0.47158530842E+02  0.10566000000E+00 0.  1.
         23    2    1    0    0    0 -0.95540046253E+01 -0.26771011466E+02  0.74380341507E+01  0.95618195915E+02  0.90992027006E+02 0.  0.
         13    1    3    3    0    0  0.22119377683E+02 -0.15122642495E+02  0.40377800705E+02  0.48459665072E+02  0.10566000000E+00 0. -1.
         22    1    1    0    0    0  0.95540046253E+01  0.26771011466E+02 -0.74380341507E+01  0.29381804085E+02  0.00000000000E+00 0. -1.
</event>
<event>
 5    1  0.1764318E-003  0.9118800E+02  0.7818608E-02  0.1130116E+00
         25   -1    0    0    0    0  0.00000000000E+00  0.00000000000E+00  0.99999998245E-14  0.12500000000E+03  0.12500000000E+03 0.  0.
        -13    1    3    3    0    0 -0.66768650840E+01  0.48396707884E+02  0.14685263663E+02  0.51014605695E+02  0.10566000000E+00 0.  1.
         23    2    1    0    0    0 -0.23713222386E+02  0.69766345606E+01  0.15527283757E+02  0.95809472656E+02  0.91254414491E+02 0.  0.
         13    1    3    3    0    0 -0.17036357302E+02 -0.41420073323E+02  0.84202009334E+00  0.44794866961E+02  0.10566000000E+00 0. -1.
         22    1    1    0    0    0  0.23713222386E+02 -0.69766345606E+01 -0.15527283757E+02  0.29190527344E+02  0.00000000000E+00 0. -1.
</event>
<event>
 5    1  0.1764318E-003  0.9118800E+02  0.7818608E-02  0.1130116E+00
         25   -1    0    0    0    0  0.00000000000E+00  0.00000000000E+00  0.99999998245E-14  0.12500000000E+03  0.12500000000E+03 0.  0.
        -13    1    3    3    0    0  0.22957415654E+02 -0.48019079922E+02 -0.15529849934E+02  0.55444227590E+02  0.10566000000E+00 0.  1.
         23    2    1    0    0    0  0.76603883028E+01 -0.12167232360E+02 -0.25542642185E+02  0.95688745131E+02  0.91088892202E+02 0.  0.
         13    1    3    3    0    0 -0.15297027351E+02  0.35851847562E+02 -0.10012792250E+02  0.40244517541E+02  0.10566000000E+00 0. -1.
         22    1    1    0    0    0 -0.76603883028E+01  0.12167232360E+02  0.25542642185E+02  0.29311254869E+02  0.00000000000E+00 0.  1.
</event>
<event>
 5    1  0.1764318E-003  0.9118800E+02  0.7818608E-02  0.1130116E+00
         25   -1    0    0    0    0  0.00000000000E+00  0.00000000000E+00  0.99999998245E-14  0.12500000000E+03  0.12500000000E+03 0.  0.
        -13    1    3    3    0    0 -0.18748791502E+02  0.57647091056E+02  0.77125686409E+01  0.61108094137E+02  0.10566000000E+00 0. -1.
         23    2    1    0    0    0 -0.34403505032E+01  0.32239788340E+02 -0.25026792594E+01  0.92480723144E+02  0.86574712162E+02 0.  0.
         13    1    3    3    0    0  0.15308440999E+02 -0.25407302716E+02 -0.10215247900E+02  0.31372629007E+02  0.10566000000E+00 0.  1.
         22    1    1    0    0    0  0.34403505032E+01 -0.32239788340E+02  0.25026792594E+01  0.32519276856E+02  0.00000000000E+00 0. -1.
</event>
<event>
 5    1  0.1764318E-003  0.9118800E+02  0.7818608E-02  0.1130116E+00
         25   -1    0    0    0    0  0.00000000000E+00  0.00000000000E+00  0.99999998245E-14  0.12500000000E+03  0.12500000000E+03 0.  0.
        -13    1    3    3    0    0  0.36560873211E+02  0.73767099722E+00  0.20177920042E+02  0.41766029614E+02  0.10566000000E+00 0.  1.
         23    2    1    0    0    0 -0.11913268146E+02 -0.22148570053E+02  0.15228649226E+02  0.95599372956E+02  0.90966165353E+02 0.  0.
         13    1    3    3    0    0 -0.48474141357E+02 -0.22886241051E+02 -0.49492708157E+01  0.53833343342E+02  0.10566000000E+00 0. -1.
         22    1    1    0    0    0  0.11913268146E+02  0.22148570053E+02 -0.15228649226E+02  0.29400627044E+02  0.00000000000E+00 0. -1.
</event>
<event>
 5    1  0.1764318E-003  0.9118800E+02  0.7818608E-02  0.1130116E+00
         25   -1    0    0    0    0  0.00000000000E+00  0.00000000000E+00  0.99999998245E-14  0.12500000000E+03  0.12500000000E+03 0.  0.
        -13    1    3    3    0    0  0.37512230495E+02 -0.21607773438E+02  0.44233088158E+02  0.61892168823E+02  0.10566000000E+00 0.  1.
         23    2    1    0    0    0  0.14314290080E+02 -0.15307771202E+02  0.19782343330E+02  0.96180425622E+02  0.91761137774E+02 0.  0.
         13    1    3    3    0    0 -0.23197940415E+02  0.63000022359E+01 -0.24450744827E+02  0.34288256799E+02  0.10566000000E+00 0. -1.
         22    1    1    0    0    0 -0.14314290080E+02  0.15307771202E+02 -0.19782343330E+02  0.28819574378E+02  0.00000000000E+00 0.  1.
</event>
<event>
 5    1  0.1764318E-003  0.9118800E+02  0.7818608E-02  0.1130116E+00
         25   -1    0    0    0    0  0.00000000000E+00  0.00000000000E+00  0.99999998245E-14  0.12500000000E+03  0.12500000000E+03 0.  0.
        -13    1    3    3    0    0  0.36040891717E+02  0.20394273939E+02  0.18459079123E+02  0.45338957326E+02  0.10566000000E+00 0. -1.
         23    2    1    0    0    0  0.10521650982E+02 -0.22657939186E+02  0.15767210885E+02  0.95458634313E+02  0.90772565119E+02 0.  0.
         13    1    3    3    0    0 -0.25519240736E+02 -0.43052213125E+02 -0.26918682374E+01  0.50119676988E+02  0.10566000000E+00 0.  1.
         22    1    1    0    0    0 -0.10521650982E+02  0.22657939186E+02 -0.15767210885E+02  0.29541365687E+02  0.00000000000E+00 0. -1.
</event>
<event>
 5    1  0.1764318E-003  0.9118800E+02  0.7818608E-02  0.1130116E+00
         25   -1    0    0    0    0  0.00000000000E+00  0.00000000000E+00  0.99999998245E-14  0.12500000000E+03  0.12500000000E+03 0.  0.
        -13    1    3    3    0    0 -0.15188167692E+02 -0.57588590665E+02 -0.17158192391E+02  0.61980165721E+02  0.10566000000E+00 0.  1.
         23    2    1    0    0    0 -0.12282124288E+02 -0.24507440337E+02 -0.85124556249E+01  0.96295869467E+02  0.91918264598E+02 0.  0.
         13    1    3    3    0    0  0.29060434043E+01  0.33081150328E+02  0.86457367662E+01  0.34315703746E+02  0.10566000000E+00 0. -1.
         22    1    1    0    0    0  0.12282124288E+02  0.24507440337E+02  0.85124556249E+01  0.28704130533E+02  0.00000000000E+00 0.  1.
</event>
<event>
 5    1  0.1764318E-003  0.9118800E+02  0.7818608E-02  0.1130116E+00
         25   -1    0    0    0    0  0.00000000000E+00  0.00000000000E+00  0.99999998245E-14  0.12500000000E+03  0.12500000000E+03 0.  0.
        -13    1    3    3    0    0  0.56510592595E+02 -0.45724694205E+01  0.11158143639E+02  0.57782954974E+02  0.10566000000E+00 0.  1.
         23    2    1    0    0    0  0.21055916233E+02 -0.15398557732E+02  0.14759216264E+02  0.95028319143E+02  0.90178044921E+02 0.  0.
         13    1    3    3    0    0 -0.35454676361E+02 -0.10826088312E+02  0.36010726251E+01  0.37245364169E+02  0.10566000000E+00 0. -1.
         22    1    1    0    0    0 -0.21055916233E+02  0.15398557732E+02 -0.14759216264E+02  0.29971680857E+02  0.00000000000E+00 0.  1.
</event>
<event>
 5    1  0.1764318E-003  0.9118800E+02  0.7818608E-02  0.1130116E+00
         25   -1    0    0    0    0  0.00000000000E+00  0.00000000000E+00  0.99999998245E-14  0.12500000000E+03  0.12500000000E+03 0.  0.
        -13    1    3    3    0    0 -0.89998361603E+01  0.30899314802E+02  0.16937128976E+02  0.36368148264E+02  0.10566000000E+00 0. -1.
         23    2    1    0    0    0  0.18300004206E+02 -0.14665560581E+02 -0.13851385762E+02  0.97763449032E+02  0.93892823251E+02 0.  0.
         13    1    3    3    0    0  0.27299840367E+02 -0.45564875382E+02 -0.30788514738E+02  0.61395300769E+02  0.10566000000E+00 0.  1.
         22    1    1    0    0    0 -0.18300004206E+02  0.14665560581E+02  0.13851385762E+02  0.27236550968E+02  0.00000000000E+00 0.  1.
</event>
<event>
 5    1  0.1764318E-003  0.9118800E+02  0.7818608E-02  0.1130116E+00
         25   -1    0    0    0    0  0.00000000000E+00  0.00000000000E+00  0.99999998245E-14  0.12500000000E+03  0.12500000000E+03 0.  0.
        -13    1    3    3    0    0  0.32573348807E+02  0.23252256187E+01 -0.22816189278E+02  0.39837411862E+02  0.10566000000E+00 0. -1.
         23    2    1    0    0    0 -0.19278022388E+02 -0.16989434740E+02 -0.13584257279E+02  0.95934297088E+02  0.91425238703E+02 0.  0.
         13    1    3    3    0    0 -0.51851371195E+02 -0.19314660358E+02  0.92319319987E+01  0.56096885226E+02  0.10566000000E+00 0.  1.
         22    1    1    0    0    0  0.19278022388E+02  0.16989434740E+02  0.13584257279E+02  0.29065702912E+02  0.00000000000E+00 0. -1.
</event>
<event>
 5    1  0.1764318E-003  0.9118800E+02  0.7818608E-02  0.1130116E+00
         25   -1    0    0    0    0  0.00000000000E+00  0.00000000000E+00  0.99999998245E-14  0.12500000000E+03  0.12500000000E+03 0.  0.
        -13    1    3    3    0    0  0.59090597306E+01 -0.37046738105E+02  0.34977442011E+02  0.51291426231E+02  0.10566000000E+00 0.  1.
         23    2    1    0    0    0  0.27207687420E+02 -0.10444299739E+02  0.79354197578E+01  0.94795488110E+02  0.89854727352E+02 0.  0.
         13    1    3    3    0    0  0.21298627689E+02  0.26602438366E+02 -0.27042022253E+02  0.43504061879E+02  0.10566000000E+00 0. -1.
         22    1    1    0    0    0 -0.27207687420E+02  0.10444299739E+02 -0.79354197578E+01  0.30204511890E+02  0.00000000000E+00 0.  1.
</event>
<event>
 5    1  0.1764318E-003  0.9118800E+02  0.7818608E-02  0.1130116E+00
         25   -1    0    0    0    0  0.00000000000E+00  0.00000000000E+00  0.99999998245E-14  0.12500000000E+03  0.12500000000E+03 0.  0.
        -13    1    3    3    0    0 -0.92404877133E+00  0.54174582118E+02 -0.30936459469E+01  0.54270811889E+02  0.10566000000E+00 0. -1.
         23    2    1    0    0    0 -0.82758721645E-01  0.20844401486E+02  0.21003841884E+02  0.95408492836E+02  0.90703490611E+02 0.  0.
         13    1    3    3    0    0  0.84129004969E+00 -0.33330180632E+02  0.24097487831E+02  0.41137680947E+02  0.10566000000E+00 0.  1.
         22    1    1    0    0    0  0.82758721645E-01 -0.20844401486E+02 -0.21003841884E+02  0.29591507164E+02  0.00000000000E+00 0. -1.
</event>
<event>
 5    1  0.1764318E-003  0.9118800E+02  0.7818608E-02  0.1130116E+00
         25   -1    0    0    0    0  0.00000000000E+00  0.00000000000E+00  0.99999998245E-14  0.12500000000E+03  0.12500000000E+03 0.  0.
        -13    1    3    3    0    0 -0.14143335988E+02 -0.27961116114E+02 -0.29524418392E+02  0.43052995397E+02  0.10566000000E+00 0.  1.
         23    2    1    0    0    0  0.17499030881E+02 -0.19812579942E+02  0.12065051937E+02  0.95942816999E+02  0.91436886702E+02 0.  0.
         13    1    3    3    0    0  0.31642366869E+02  0.81485361715E+01  0.41589470329E+02  0.52889821602E+02  0.10566000000E+00 0. -1.
         22    1    1    0    0    0 -0.17499030881E+02  0.19812579942E+02 -0.12065051937E+02  0.29057183001E+02  0.00000000000E+00 0.  1.
</event>
<event>
 5    1  0.1764318E-003  0.9118800E+02  0.7818608E-02  0.1130116E+00
         25   -1    0    0    0    0  0.00000000000E+00  0.00000000000E+00  0.99999998245E-14  0.12500000000E+03  0.12500000000E+03 0.  0.
        -13    1    3    3    0    0  0.31477796705E+02  0.18389700250E+02  0.92927926458E+01  0.37621801125E+02  0.10566000000E+00 0.  1.
         23    2    1    0    0    0  0.13135567516E+01 -0.60064338432E+01 -0.30906344612E+02  0.93488021070E+02  0.88017073727E+02 0.  0.
         13    1    3    3    0    0 -0.30164239954E+02 -0.24396134093E+02 -0.40199137257E+02  0.55866219945E+02  0.10566000000E+00 0. -1.
         22    1    1    0    0    0 -0.13135567516E+01  0.60064338432E+01  0.30906344612E+02  0.31511978930E+02  0.00000000000E+00 0. -1.
</event>
<event>
 5    1  0.1764318E-003  0.9118800E+02  0.7818608E-02  0.1130116E+00
         25   -1    0    0    0    0  0.00000000000E+00  0.00000000000E+00  0.99999998245E-14  0.12500000000E+03  0.12500000000E+03 0.  0.
        -13    1    3    3    0    0 -0.49317881632E+01  0.36693045760E+02  0.18673566542E+02  0.41465834045E+02  0.10566000000E+00 0. -1.
         23    2    1    0    0    0 -0.27823961759E+02 -0.20546225254E+01 -0.10600887084E+02  0.95154177367E+02  0.90352334456E+02 0.  0.
         13    1    3    3    0    0 -0.22892173596E+02 -0.38747668286E+02 -0.29274453626E+02  0.53688343322E+02  0.10566000000E+00 0.  1.
         22    1    1    0    0    0  0.27823961759E+02  0.20546225254E+01  0.10600887084E+02  0.29845822633E+02  0.00000000000E+00 0. -1.
</event>
<event>
 5    1  0.1764318E-003  0.9118800E+02  0.7818608E-02  0.1130116E+00
         25   -1    0    0    0    0  0.00000000000E+00  0.00000000000E+00  0.99999998245E-14  0.12500000000E+03  0.12500000000E+03 0.  0.
        -13    1    3    3    0    0  0.38274769864E+01 -0.39803047288E+02  0.49133286555E+01  0.40287518117E+02  0.10566000000E+00 0.  1.
         23    2    1    0    0    0  0.20808353444E+02  0.96800365462E+01  0.19810093463E+02  0.94682835165E+02  0.89697875066E+02 0.  0.
         13    1    3    3    0    0  0.16980876458E+02  0.49483083834E+02  0.14896764808E+02  0.54395317048E+02  0.10566000000E+00 0. -1.
         22    1    1    0    0    0 -0.20808353444E+02 -0.96800365462E+01 -0.19810093463E+02  0.30317164835E+02  0.00000000000E+00 0. -1.
</event>
<event>
 5    1  0.1764318E-003  0.9118800E+02  0.7818608E-02  0.1130116E+00
         25   -1    0    0    0    0  0.00000000000E+00  0.00000000000E+00  0.99999998245E-14  0.12500000000E+03  0.12500000000E+03 0.  0.
        -13    1    3    3    0    0  0.46301138171E+02 -0.15589065215E+02 -0.28363745271E+02  0.56491836224E+02  0.10566000000E+00 0.  1.
         23    2    1    0    0    0  0.15297593567E+02 -0.24321183847E+02 -0.61553653859E+01  0.95615907778E+02  0.90988883632E+02 0.  0.
         13    1    3    3    0    0 -0.31003544604E+02 -0.87321186323E+01  0.22208379885E+02  0.39124071554E+02  0.10566000000E+00 0. -1.
         22    1    1    0    0    0 -0.15297593567E+02  0.24321183847E+02  0.61553653859E+01  0.29384092222E+02  0.00000000000E+00 0.  1.
</event>
<event>
 5    1  0.1764318E-003  0.9118800E+02  0.7818608E-02  0.1130116E+00
         25   -1    0    0    0    0  0.00000000000E+00  0.00000000000E+00  0.99999998245E-14  0.12500000000E+03  0.12500000000E+03 0.  0.
        -13    1    3    3    0    0 -0.36855950078E+02 -0.22675414188E+02  0.18546812840E+02  0.47080047741E+02  0.10566000000E+00 0.  1.
         23    2    1    0    0    0 -0.15996009108E+02 -0.80236031134E+01 -0.23020839160E+02  0.95841646996E+02  0.91298476159E+02 0.  0.
         13    1    3    3    0    0  0.20859940970E+02  0.14651811075E+02 -0.41567652000E+02  0.48761599255E+02  0.10566000000E+00 0. -1.
         22    1    1    0    0    0  0.15996009108E+02  0.80236031134E+01  0.23020839160E+02  0.29158353004E+02  0.00000000000E+00 0. -1.
</event>
<event>
 5    1  0.1764318E-003  0.9118800E+02  0.7818608E-02  0.1130116E+00
         25   -1    0    0    0    0  0.00000000000E+00  0.00000000000E+00  0.99999998245E-14  0.12500000000E+03  0.12500000000E+03 0.  0.
        -13    1    3    3    0    0  0.22533851162E+02 -0.35821198242E+02  0.34241363523E+01  0.42457844569E+02  0.10566000000E+00 0.  1.
         23    2    1    0    0    0 -0.31119959998E+01 -0.26742111195E+01 -0.29165271513E+02  0.95547513065E+02  0.90894874808E+02 0.  0.
         13    1    3    3    0    0 -0.25645847162E+02  0.33146987122E+02 -0.32589407865E+02  0.53089668496E+02  0.10566000000E+00 0. -1.
         22    1    1    0    0    0  0.31119959998E+01  0.26742111195E+01  0.29165271513E+02  0.29452486935E+02  0.00000000000E+00 0.  1.
</event>
<event>
 5    1  0.1764318E-003  0.9118800E+02  0.7818608E-02  0.1130116E+00
         25   -1    0    0    0    0  0.00000000000E+00  0.00000000000E+00  0.99999998245E-14  0.12500000000E+03  0.12500000000E+03 0.  0.
        -13    1    3    3    0    0  0.29804650242E+02 -0.48517829398E+02  0.24717680564E+02  0.62074727885E+02  0.10566000000E+00 0.  1.
         23    2    1    0    0    0  0.14253052628E+02 -0.22938476423E+02  0.17339758695E+02  0.92906535846E+02  0.87187349779E+02 0.  0.
         13    1    3    3    0    0 -0.15551597614E+02  0.25579352975E+02 -0.73779218688E+01  0.30831807961E+02  0.10566000000E+00 0. -1.
         22    1    1    0    0    0 -0.14253052628E+02  0.22938476423E+02 -0.17339758695E+02  0.32093464154E+02  0.00000000000E+00 0.  1.
</event>
<event>
 5    1  0.1764318E-003  0.9118800E+02  0.7818608E-02  0.1130116E+00
         25   -1    0    0    0    0  0.00000000000E+00  0.00000000000E+00  0.99999998245E-14  0.12500000000E+03  0.12500000000E+03 0.  0.
        -13    1    3    3    0    0 -0.27458808518E+02  0.16403488844E+02 -0.29031860948E+02  0.43196304537E+02  0.10566000000E+00 0. -1.
         23    2    1    0    0    0 -0.18569790164E+02  0.21875778945E+00  0.21260070323E+02  0.96771015749E+02  0.92562162558E+02 0.  0.
         13    1    3    3    0    0  0.88890183543E+01 -0.16184731055E+02  0.50291931270E+02  0.53574711213E+02  0.10566000000E+00 0.  1.
         22    1    1    0    0    0  0.18569790164E+02 -0.21875778945E+00 -0.21260070323E+02  0.28228984251E+02  0.00000000000E+00 0.  1.
</event>
<event>
 5    1  0.1764318E-003  0.9118800E+02  0.7818608E-02  0.1130116E+00
         25   -1    0    0    0    0  0.00000000000E+00  0.00000000000E+00  0.99999998245E-14  0.12500000000E+03  0.12500000000E+03 0.  0.
        -13    1    3    3    0    0  0.44969558674E+02 -0.32717114394E+02 -0.76222587193E+01  0.56131816055E+02  0.10566000000E+00 0. -1.
         23    2    1    0    0    0  0.98450331487E+01 -0.17973737754E+02 -0.20176986622E+02  0.96240815107E+02  0.91843365447E+02 0.  0.
         13    1    3    3    0    0 -0.35124525526E+02  0.14743376640E+02 -0.12554727903E+02  0.40108999051E+02  0.10566000000E+00 0.  1.
         22    1    1    0    0    0 -0.98450331487E+01  0.17973737754E+02  0.20176986622E+02  0.28759184893E+02  0.00000000000E+00 0. -1.
</event>
<event>
 5    1  0.1764318E-003  0.9118800E+02  0.7818608E-02  0.1130116E+00
         25   -1    0    0    0    0  0.00000000000E+00  0.00000000000E+00  0.99999998245E-14  0.12500000000E+03  0.12500000000E+03 0.  0.
        -13    1    3    3    0    0  0.18240336739E+02  0.24092938217E+02 -0.18718139407E+02  0.35546581596E+02  0.10566000000E+00 0.  1.
         23    2    1    0    0    0 -0.40468405216E+00 -0.25995489975E+02  0.11080551707E+02  0.96738579400E+02  0.92518348720E+02 0.  0.
         13    1    3    3    0    0 -0.18645020792E+02 -0.50088428192E+02  0.29798691114E+02  0.61191997803E+02  0.10566000000E+00 0. -1.
         22    1    1    0    0    0  0.40468405216E+00  0.25995489975E+02 -0.11080551707E+02  0.28261420600E+02  0.00000000000E+00 0. -1.
</event>
<event>
 5    1  0.1764318E-003  0.9118800E+02  0.7818608E-02  0.1130116E+00
         25   -1    0    0    0    0  0.00000000000E+00  0.00000000000E+00  0.99999998245E-14  0.12500000000E+03  0.12500000000E+03 0.  0.
        -13    1    3    3    0    0 -0.39681581124E+01  0.41646985379E+02 -0.71657270958E+01  0.42444981786E+02  0.10566000000E+00 0.  1.
         23    2    1    0    0    0  0.89769414400E+01 -0.18140042248E+01  0.25219061862E+02  0.98169473167E+02  0.94431818217E+02 0.  0.
         13    1    3    3    0    0  0.12945099552E+02 -0.43460989604E+02  0.32384788958E+02  0.55724491381E+02  0.10566000000E+00 0. -1.
         22    1    1    0    0    0 -0.89769414400E+01  0.18140042248E+01 -0.25219061862E+02  0.26830526833E+02  0.00000000000E+00 0. -1.
</event>
<event>
 5    1  0.1764318E-003  0.9118800E+02  0.7818608E-02  0.1130116E+00
         25   -1    0    0    0    0  0.00000000000E+00  0.00000000000E+00  0.99999998245E-14  0.12500000000E+03  0.12500000000E+03 0.  0.
        -13    1    3    3    0    0 -0.18130302620E+02  0.20065529882E+02  0.22053901479E+02  0.34895832086E+02  0.10566000000E+00 0. -1.
         23    2    1    0    0    0  0.22137192510E+02 -0.18601200698E+02 -0.26904484497E+01  0.95960398204E+02  0.91460918162E+02 0.  0.
         13    1    3    3    0    0  0.40267495129E+02 -0.38666730580E+02 -0.24744349929E+02  0.61064566118E+02  0.10566000000E+00 0.  1.
         22    1    1    0    0    0 -0.22137192510E+02  0.18601200698E+02  0.26904484497E+01  0.29039601796E+02  0.00000000000E+00 0.  1.
</event>
<event>
 5    1  0.1764318E-003  0.9118800E+02  0.7818608E-02  0.1130116E+00
         25   -1    0    0    0    0  0.00000000000E+00  0.00000000000E+00  0.99999998245E-14  0.12500000000E+03  0.12500000000E+03 0.  0.
        -13    1    3    3    0    0 -0.41409553880E+02  0.10101560381E+01  0.44483817629E+02  0.60783161835E+02  0.10566000000E+00 0.  1.
         23    2    1    0    0    0 -0.12025989755E+02 -0.43314576924E+01  0.26325323349E+02  0.95735540245E+02  0.91153085857E+02 0.  0.
         13    1    3    3    0    0  0.29383564125E+02 -0.53416137305E+01 -0.18158494280E+02  0.34952378410E+02  0.10566000000E+00 0. -1.
         22    1    1    0    0    0  0.12025989755E+02  0.43314576924E+01 -0.26325323349E+02  0.29264459755E+02  0.00000000000E+00 0.  1.
</event>
<event>
 5    1  0.1764318E-003  0.9118800E+02  0.7818608E-02  0.1130116E+00
         25   -1    0    0    0    0  0.00000000000E+00  0.00000000000E+00  0.99999998245E-14  0.12500000000E+03  0.12500000000E+03 0.  0.
        -13    1    3    3    0    0 -0.32450956964E+02  0.16710271945E+02  0.15406289278E+02  0.39618969064E+02  0.10566000000E+00 0.  1.
         23    2    1    0    0    0  0.17845670263E+00 -0.27544480277E+02 -0.22383324719E+01  0.97364146969E+02  0.93359716913E+02 0.  0.
         13    1    3    3    0    0  0.32629413667E+02 -0.44254752222E+02 -0.17644621749E+02  0.57745177904E+02  0.10566000000E+00 0. -1.
         22    1    1    0    0    0 -0.17845670263E+00  0.27544480277E+02  0.22383324719E+01  0.27635853031E+02  0.00000000000E+00 0. -1.
</event>
<event>
 5    1  0.1764318E-003  0.9118800E+02  0.7818608E-02  0.1130116E+00
         25   -1    0    0    0    0  0.00000000000E+00  0.00000000000E+00  0.99999998245E-14  0.12500000000E+03  0.12500000000E+03 0.  0.
        -13    1    3    3    0    0  0.21518427291E+02  0.33535942546E+02  0.14101661296E+02  0.42267838493E+02  0.10566000000E+00 0.  1.
         23    2    1    0    0    0 -0.25509874329E+02  0.16197317347E+02 -0.14491207429E+01  0.94747616153E+02  0.89788106329E+02 0.  0.
         13    1    3    3    0    0 -0.47028301620E+02 -0.17338625199E+02 -0.15550782039E+02  0.52479777659E+02  0.10566000000E+00 0. -1.
         22    1    1    0    0    0  0.25509874329E+02 -0.16197317347E+02  0.14491207429E+01  0.30252383847E+02  0.00000000000E+00 0. -1.
</event>
<event>
 5    1  0.1764318E-003  0.9118800E+02  0.7818608E-02  0.1130116E+00
         25   -1    0    0    0    0  0.00000000000E+00  0.00000000000E+00  0.99999998245E-14  0.12500000000E+03  0.12500000000E+03 0.  0.
        -13    1    3    3    0    0 -0.19565150657E+02 -0.44099368233E+02  0.16766070977E+02  0.51075059460E+02  0.10566000000E+00 0. -1.
         23    2    1    0    0    0 -0.89684699515E+01 -0.18350463386E+02 -0.19475660927E+02  0.96778123233E+02  0.92571760317E+02 0.  0.
         13    1    3    3    0    0  0.10596680705E+02  0.25748904848E+02 -0.36241731903E+02  0.45703063773E+02  0.10566000000E+00 0.  1.
         22    1    1    0    0    0  0.89684699515E+01  0.18350463386E+02  0.19475660927E+02  0.28221876767E+02  0.00000000000E+00 0. -1.
</event>
<event>
 5    1  0.1764318E-003  0.9118800E+02  0.7818608E-02  0.1130116E+00
         25   -1    0    0    0    0  0.00000000000E+00  0.00000000000E+00  0.99999998245E-14  0.12500000000E+03  0.12500000000E+03 0.  0.
        -13    1    3    3    0    0  0.22939957288E+01 -0.11747173512E+02 -0.45937456647E+02  0.47471250132E+02  0.10566000000E+00 0.  1.
         23    2    1    0    0    0 -0.84322055084E+01  0.23731650058E+02 -0.15544051842E+02  0.95404208883E+02  0.90697586631E+02 0.  0.
         13    1    3    3    0    0 -0.10726201237E+02  0.35478823570E+02  0.30393404805E+02  0.47932958750E+02  0.10566000000E+00 0. -1.
         22    1    1    0    0    0  0.84322055084E+01 -0.23731650058E+02  0.15544051842E+02  0.29595791117E+02  0.00000000000E+00 0. -1.
</event>
<event>
 5    1  0.1764318E-003  0.9118800E+02  0.7818608E-02  0.1130116E+00
         25   -1    0    0    0    0  0.00000000000E+00  0.00000000000E+00  0.99999998245E-14  0.12500000000E+03  0.12500000000E+03 0.  0.
        -13    1    3    3    0    0  0.39333687496E+02 -0.39864907429E+02  0.20561996562E+02  0.59658668130E+02  0.10566000000E+00 0.  1.
         23    2    1    0    0    0  0.18637321984E+02 -0.12682607414E+02  0.21516320317E+02  0.93836714846E+02  0.88510896005E+02 0.  0.
         13    1    3    3    0    0 -0.20696365512E+02  0.27182300015E+02  0.95432375495E+00  0.34178046716E+02  0.10566000000E+00 0. -1.
         22    1    1    0    0    0 -0.18637321984E+02  0.12682607414E+02 -0.21516320317E+02  0.31163285154E+02  0.00000000000E+00 0.  1.
</event>
<event>
 5    1  0.1764318E-003  0.9118800E+02  0.7818608E-02  0.1130116E+00
         25   -1    0    0    0    0  0.00000000000E+00  0.00000000000E+00  0.99999998245E-14  0.12500000000E+03  0.12500000000E+03 0.  0.
        -13    1    3    3    0    0  0.48312273170E+02  0.65109864143E+01 -0.17638575119E+02  0.51842059943E+02  0.10566000000E+00 0.  1.
         23    2    1    0    0    0  0.21953657813E+02 -0.21524039682E+02  0.19579332964E+00  0.94254500969E+02  0.89098963195E+02 0.  0.
         13    1    3    3    0    0 -0.26358615357E+02 -0.28035026097E+02  0.17834368449E+02  0.42412441026E+02  0.10566000000E+00 0. -1.
         22    1    1    0    0    0 -0.21953657813E+02  0.21524039682E+02 -0.19579332964E+00  0.30745499031E+02  0.00000000000E+00 0.  1.
</event>
<event>
 5    1  0.1764318E-003  0.9118800E+02  0.7818608E-02  0.1130116E+00
         25   -1    0    0    0    0  0.00000000000E+00  0.00000000000E+00  0.99999998245E-14  0.12500000000E+03  0.12500000000E+03 0.  0.
        -13    1    3    3    0    0  0.28985789759E+02 -0.37204460420E+02 -0.26728354945E+02  0.54210368059E+02  0.10566000000E+00 0.  1.
         23    2    1    0    0    0  0.76007445595E-01 -0.30243671466E+02  0.81851443368E+00  0.94745158954E+02  0.89784685434E+02 0.  0.
         13    1    3    3    0    0 -0.28909782313E+02  0.69607889540E+01  0.27546869378E+02  0.40534790894E+02  0.10566000000E+00 0. -1.
         22    1    1    0    0    0 -0.76007445595E-01  0.30243671466E+02 -0.81851443368E+00  0.30254841046E+02  0.00000000000E+00 0.  1.
</event>
<event>
 4    1  0.1764318E-003  0.9118800E+02  0.7818608E-02  0.1130116E+00
         25   -1    0    0    0    0  0.00000000000E+00  0.00000000000E+00  0.99999998245E-14  0.12500000000E+03  0.12500000000E+03 0.  0.
        -13    1    1    0    0    0  0.74903459425E+01 -0.11369215547E+01  0.41745966599E+01  0.86507973198E+01  0.10566000000E+00 0.  1.
         13    1    1    0    0    0 -0.10225697948E+02  0.39818247170E+02 -0.44376814365E+02  0.60492731162E+02  0.10566000000E+00 0. -1.
         22    1    1    0    0    0  0.27353520058E+01 -0.38681325616E+02  0.40202217705E+02  0.55856471518E+02  0.00000000000E+00 0. -1.
</event>
<event>
 5    1  0.1764318E-003  0.9118800E+02  0.7818608E-02  0.1130116E+00
         25   -1    0    0    0    0  0.00000000000E+00  0.00000000000E+00  0.99999998245E-14  0.12500000000E+03  0.12500000000E+03 0.  0.
        -13    1    3    3    0    0  0.23287372571E+02  0.34284390966E+02 -0.17799371774E+02  0.45105986129E+02  0.10566000000E+00 0.  1.
         23    2    1    0    0    0 -0.20991954373E+02  0.22719486158E+02 -0.14055359094E+02  0.91023680026E+02  0.84444774892E+02 0.  0.
         13    1    3    3    0    0 -0.44279326944E+02 -0.11564904807E+02  0.37440126798E+01  0.45917693897E+02  0.10566000000E+00 0. -1.
         22    1    1    0    0    0  0.20991954373E+02 -0.22719486158E+02  0.14055359094E+02  0.33976319974E+02  0.00000000000E+00 0. -1.
</event>
<event>
 5    1  0.1764318E-003  0.9118800E+02  0.7818608E-02  0.1130116E+00
         25   -1    0    0    0    0  0.00000000000E+00  0.00000000000E+00  0.99999998245E-14  0.12500000000E+03  0.12500000000E+03 0.  0.
        -13    1    3    3    0    0 -0.33097922981E+01 -0.15326719851E+02  0.46279289122E+02  0.48863553208E+02  0.10566000000E+00 0. -1.
         23    2    1    0    0    0 -0.24401556956E+02  0.96806257643E+01  0.12374801771E+02  0.95977832335E+02  0.91484742355E+02 0.  0.
         13    1    3    3    0    0 -0.21091764658E+02  0.25007345615E+02 -0.33904487351E+02  0.47114279127E+02  0.10566000000E+00 0.  1.
         22    1    1    0    0    0  0.24401556956E+02 -0.96806257643E+01 -0.12374801771E+02  0.29022167665E+02  0.00000000000E+00 0. -1.
</event>
<event>
 5    1  0.1764318E-003  0.9118800E+02  0.7818608E-02  0.1130116E+00
         25   -1    0    0    0    0  0.00000000000E+00  0.00000000000E+00  0.99999998245E-14  0.12500000000E+03  0.12500000000E+03 0.  0.
        -13    1    3    3    0    0 -0.20618001858E+01 -0.17066913074E+02  0.51640503743E+02  0.54426862235E+02  0.10566000000E+00 0. -1.
         23    2    1    0    0    0 -0.13289153907E+02  0.11248771508E+02  0.22173020898E+02  0.96808169130E+02  0.92612322520E+02 0.  0.
         13    1    3    3    0    0 -0.11227353721E+02  0.28315684583E+02 -0.29467482844E+02  0.42381306896E+02  0.10566000000E+00 0.  1.
         22    1    1    0    0    0  0.13289153907E+02 -0.11248771508E+02 -0.22173020898E+02  0.28191830870E+02  0.00000000000E+00 0. -1.
</event>
<event>
 5    1  0.1764318E-003  0.9118800E+02  0.7818608E-02  0.1130116E+00
         25   -1    0    0    0    0  0.00000000000E+00  0.00000000000E+00  0.99999998245E-14  0.12500000000E+03  0.12500000000E+03 0.  0.
        -13    1    3    3    0    0  0.55733590184E+00 -0.38277163183E+02  0.42775338425E+02  0.57403768048E+02  0.10566000000E+00 0.  1.
         23    2    1    0    0    0  0.75404671690E+01 -0.28370941342E+02  0.75031039494E+01  0.94700403854E+02  0.89722354870E+02 0.  0.
         13    1    3    3    0    0  0.69831312672E+01  0.99062218414E+01 -0.35272234476E+02  0.37296635806E+02  0.10566000000E+00 0. -1.
         22    1    1    0    0    0 -0.75404671690E+01  0.28370941342E+02 -0.75031039494E+01  0.30299596146E+02  0.00000000000E+00 0.  1.
</event>
<event>
 5    1  0.1764318E-003  0.9118800E+02  0.7818608E-02  0.1130116E+00
         25   -1    0    0    0    0  0.00000000000E+00  0.00000000000E+00  0.99999998245E-14  0.12500000000E+03  0.12500000000E+03 0.  0.
        -13    1    3    3    0    0  0.37144077526E+02  0.13635017017E+02 -0.41808940203E+02  0.57563832649E+02  0.10566000000E+00 0.  1.
         23    2    1    0    0    0  0.19983113167E+02 -0.10972433101E+02 -0.20253939928E+02  0.94505063001E+02  0.89449794579E+02 0.  0.
         13    1    3    3    0    0 -0.17160964359E+02 -0.24607450118E+02  0.21555000275E+02  0.36941230352E+02  0.10566000000E+00 0. -1.
         22    1    1    0    0    0 -0.19983113167E+02  0.10972433101E+02  0.20253939928E+02  0.30494936999E+02  0.00000000000E+00 0.  1.
</event>
<event>
 5    1  0.1764318E-003  0.9118800E+02  0.7818608E-02  0.1130116E+00
         25   -1    0    0    0    0  0.00000000000E+00  0.00000000000E+00  0.99999998245E-14  0.12500000000E+03  0.12500000000E+03 0.  0.
        -13    1    3    3    0    0 -0.26572022049E+00  0.37401877982E+02  0.58704431571E+01  0.37860855124E+02  0.10566000000E+00 0. -1.
         23    2    1    0    0    0 -0.18927042951E+02 -0.16174305737E+02  0.15879624865E+02  0.95470292809E+02  0.90788618242E+02 0.  0.
         13    1    3    3    0    0 -0.18661322730E+02 -0.53576183719E+02  0.10009181707E+02  0.57609437685E+02  0.10566000000E+00 0.  1.
         22    1    1    0    0    0  0.18927042951E+02  0.16174305737E+02 -0.15879624865E+02  0.29529707191E+02  0.00000000000E+00 0.  1.
</event>
<event>
 5    1  0.1764318E-003  0.9118800E+02  0.7818608E-02  0.1130116E+00
         25   -1    0    0    0    0  0.00000000000E+00  0.00000000000E+00  0.99999998245E-14  0.12500000000E+03  0.12500000000E+03 0.  0.
        -13    1    3    3    0    0 -0.24867371641E+02 -0.23610083248E+02  0.44273158461E+02  0.55999517207E+02  0.10566000000E+00 0. -1.
         23    2    1    0    0    0 -0.24989495124E+02 -0.11314566031E+02  0.50469075468E+01  0.97107966249E+02  0.93016082277E+02 0.  0.
         13    1    3    3    0    0 -0.12212348304E+00  0.12295517217E+02 -0.39226250914E+02  0.41108449042E+02  0.10566000000E+00 0.  1.
         22    1    1    0    0    0  0.24989495124E+02  0.11314566031E+02 -0.50469075468E+01  0.27892033751E+02  0.00000000000E+00 0. -1.
</event>
<event>
 5    1  0.1764318E-003  0.9118800E+02  0.7818608E-02  0.1130116E+00
         25   -1    0    0    0    0  0.00000000000E+00  0.00000000000E+00  0.99999998245E-14  0.12500000000E+03  0.12500000000E+03 0.  0.
        -13    1    3    3    0    0  0.97810767815E+00  0.30245762213E+02 -0.51977180190E+02  0.60144835613E+02  0.10566000000E+00 0.  1.
         23    2    1    0    0    0  0.10784083021E+02  0.18217209536E+02 -0.19158118155E+02  0.96448350991E+02  0.92125391439E+02 0.  0.
         13    1    3    3    0    0  0.98059753428E+01 -0.12028552677E+02  0.32819062034E+02  0.36303515377E+02  0.10566000000E+00 0. -1.
         22    1    1    0    0    0 -0.10784083021E+02 -0.18217209536E+02  0.19158118155E+02  0.28551649009E+02  0.00000000000E+00 0.  1.
</event>
<event>
 5    1  0.1764318E-003  0.9118800E+02  0.7818608E-02  0.1130116E+00
         25   -1    0    0    0    0  0.00000000000E+00  0.00000000000E+00  0.99999998245E-14  0.12500000000E+03  0.12500000000E+03 0.  0.
        -13    1    3    3    0    0  0.10201803283E+02 -0.41000771124E+02  0.15701671816E+02  0.45074312916E+02  0.10566000000E+00 0.  1.
         23    2    1    0    0    0  0.28988189651E+02  0.92220420976E+00 -0.51814074548E+01  0.95537946727E+02  0.90881718083E+02 0.  0.
         13    1    3    3    0    0  0.18786386368E+02  0.41922975333E+02 -0.20883079271E+02  0.50463633811E+02  0.10566000000E+00 0. -1.
         22    1    1    0    0    0 -0.28988189651E+02 -0.92220420976E+00  0.51814074548E+01  0.29462053273E+02  0.00000000000E+00 0.  1.
</event>
<event>
 5    1  0.1764318E-003  0.9118800E+02  0.7818608E-02  0.1130116E+00
         25   -1    0    0    0    0  0.00000000000E+00  0.00000000000E+00  0.99999998245E-14  0.12500000000E+03  0.12500000000E+03 0.  0.
        -13    1    3    3    0    0  0.79763346464E+01  0.32231330296E+02  0.24749263787E+02  0.41412773260E+02  0.10566000000E+00 0. -1.
         23    2    1    0    0    0 -0.27470725905E+02  0.19586550163E+01 -0.54099579034E+01  0.96933209023E+02  0.92780936921E+02 0.  0.
         13    1    3    3    0    0 -0.35447060551E+02 -0.30272675280E+02 -0.30159221691E+02  0.55520435763E+02  0.10566000000E+00 0.  1.
         22    1    1    0    0    0  0.27470725905E+02 -0.19586550163E+01  0.54099579034E+01  0.28066790977E+02  0.00000000000E+00 0. -1.
</event>
<event>
 5    1  0.1764318E-003  0.9118800E+02  0.7818608E-02  0.1130116E+00
         25   -1    0    0    0    0  0.00000000000E+00  0.00000000000E+00  0.99999998245E-14  0.12500000000E+03  0.12500000000E+03 0.  0.
        -13    1    3    3    0    0  0.32473260712E+02  0.17921270588E+02  0.31987240150E+02  0.48978355396E+02  0.10566000000E+00 0. -1.
         23    2    1    0    0    0  0.45318568803E+01  0.29151198972E+02 -0.32382830412E+01  0.95321445363E+02  0.90583449596E+02 0.  0.
         13    1    3    3    0    0 -0.27941403832E+02  0.11229928383E+02 -0.35225523191E+02  0.46343089968E+02  0.10566000000E+00 0.  1.
         22    1    1    0    0    0 -0.45318568803E+01 -0.29151198972E+02  0.32382830412E+01  0.29678554637E+02  0.00000000000E+00 0.  1.
</event>
<event>
 5    1  0.1764318E-003  0.9118800E+02  0.7818608E-02  0.1130116E+00
         25   -1    0    0    0    0  0.00000000000E+00  0.00000000000E+00  0.99999998245E-14  0.12500000000E+03  0.12500000000E+03 0.  0.
        -13    1    3    3    0    0  0.13093304768E+02 -0.95473227462E+01  0.59962725039E+02  0.62113811342E+02  0.10566000000E+00 0. -1.
         23    2    1    0    0    0  0.11026299208E+02 -0.29266532420E+01  0.29161545966E+02  0.93686419295E+02  0.88298385171E+02 0.  0.
         13    1    3    3    0    0 -0.20670055604E+01  0.66206695042E+01 -0.30801179072E+02  0.31572607953E+02  0.10566000000E+00 0.  1.
         22    1    1    0    0    0 -0.11026299208E+02  0.29266532420E+01 -0.29161545966E+02  0.31313580705E+02  0.00000000000E+00 0. -1.
</event>
<event>
 5    1  0.1764318E-003  0.9118800E+02  0.7818608E-02  0.1130116E+00
         25   -1    0    0    0    0  0.00000000000E+00  0.00000000000E+00  0.99999998245E-14  0.12500000000E+03  0.12500000000E+03 0.  0.
        -13    1    3    3    0    0 -0.28462124808E+02 -0.28320173915E+02 -0.43233689636E+01  0.40383505078E+02  0.10566000000E+00 0.  1.
         23    2    1    0    0    0  0.24656289168E+02 -0.71453710261E+01  0.63522558010E+01  0.98554961214E+02  0.94940719944E+02 0.  0.
         13    1    3    3    0    0  0.53118413977E+02  0.21174802889E+02  0.10675624765E+02  0.58171456135E+02  0.10566000000E+00 0. -1.
         22    1    1    0    0    0 -0.24656289168E+02  0.71453710261E+01 -0.63522558010E+01  0.26445038786E+02  0.00000000000E+00 0. -1.
</event>
<event>
 5    1  0.1764318E-003  0.9118800E+02  0.7818608E-02  0.1130116E+00
         25   -1    0    0    0    0  0.00000000000E+00  0.00000000000E+00  0.99999998245E-14  0.12500000000E+03  0.12500000000E+03 0.  0.
        -13    1    3    3    0    0 -0.76640392565E+00  0.33541733880E+02  0.28961509416E+02  0.44321726933E+02  0.10566000000E+00 0.  1.
         23    2    1    0    0    0 -0.19096355675E+02 -0.13144936995E+02  0.17968948407E+02  0.95668391188E+02  0.91060956491E+02 0.  0.
         13    1    3    3    0    0 -0.18329951749E+02 -0.46686670875E+02 -0.10992561009E+02  0.51346664255E+02  0.10566000000E+00 0. -1.
         22    1    1    0    0    0  0.19096355675E+02  0.13144936995E+02 -0.17968948407E+02  0.29331608812E+02  0.00000000000E+00 0. -1.
</event>
<event>
 5    1  0.1764318E-003  0.9118800E+02  0.7818608E-02  0.1130116E+00
         25   -1    0    0    0    0  0.00000000000E+00  0.00000000000E+00  0.99999998245E-14  0.12500000000E+03  0.12500000000E+03 0.  0.
        -13    1    3    3    0    0  0.18460574972E+02 -0.25608232080E+02  0.25457828804E+02  0.40554735729E+02  0.10566000000E+00 0.  1.
         23    2    1    0    0    0 -0.71535387988E+01 -0.23982343340E+01 -0.23405734891E+02  0.10040827230E+03  0.97350234084E+02 0.  0.
         13    1    3    3    0    0 -0.25614113771E+02  0.23209997746E+02 -0.48863563695E+02  0.59853536576E+02  0.10566000000E+00 0. -1.
         22    1    1    0    0    0  0.71535387988E+01  0.23982343340E+01  0.23405734891E+02  0.24591727696E+02  0.00000000000E+00 0. -1.
</event>
<event>
 5    1  0.1764318E-003  0.9118800E+02  0.7818608E-02  0.1130116E+00
         25   -1    0    0    0    0  0.00000000000E+00  0.00000000000E+00  0.99999998245E-14  0.12500000000E+03  0.12500000000E+03 0.  0.
        -13    1    3    3    0    0  0.38037751402E+02  0.74651176380E+01 -0.79867179963E+01  0.39577737953E+02  0.10566000000E+00 0.  1.
         23    2    1    0    0    0 -0.46558263250E+01 -0.27224957607E+02 -0.12316008741E+02  0.94758321694E+02  0.89803008989E+02 0.  0.
         13    1    3    3    0    0 -0.42693577727E+02 -0.34690075245E+02 -0.43292907443E+01  0.55180583741E+02  0.10566000000E+00 0. -1.
         22    1    1    0    0    0  0.46558263250E+01  0.27224957607E+02  0.12316008741E+02  0.30241678306E+02  0.00000000000E+00 0. -1.
</event>
<event>
 5    1  0.1764318E-003  0.9118800E+02  0.7818608E-02  0.1130116E+00
         25   -1    0    0    0    0  0.00000000000E+00  0.00000000000E+00  0.99999998245E-14  0.12500000000E+03  0.12500000000E+03 0.  0.
        -13    1    3    3    0    0 -0.36122091130E+02  0.97916894365E+01  0.32776728168E+02  0.49749449475E+02  0.10566000000E+00 0. -1.
         23    2    1    0    0    0  0.93052846193E+01  0.10971901019E+02  0.25430412485E+02  0.95782251747E+02  0.91217119757E+02 0.  0.
         13    1    3    3    0    0  0.45427375750E+02  0.11802115820E+01 -0.73463156831E+01  0.46032802272E+02  0.10566000000E+00 0.  1.
         22    1    1    0    0    0 -0.93052846193E+01 -0.10971901019E+02 -0.25430412485E+02  0.29217748253E+02  0.00000000000E+00 0.  1.
</event>
<event>
 5    1  0.1764318E-003  0.9118800E+02  0.7818608E-02  0.1130116E+00
         25   -1    0    0    0    0  0.00000000000E+00  0.00000000000E+00  0.99999998245E-14  0.12500000000E+03  0.12500000000E+03 0.  0.
        -13    1    3    3    0    0  0.33959794372E+02 -0.16316585325E+02  0.25762200597E+02  0.45642093883E+02  0.10566000000E+00 0.  1.
         23    2    1    0    0    0 -0.13283414606E+01 -0.13219622363E+02 -0.18430406883E+02  0.10227990307E+03  0.99724499340E+02 0.  0.
         13    1    3    3    0    0 -0.35288135833E+02  0.30969629625E+01 -0.44192607479E+02  0.56637809191E+02  0.10566000000E+00 0. -1.
         22    1    1    0    0    0  0.13283414606E+01  0.13219622363E+02  0.18430406883E+02  0.22720096925E+02  0.00000000000E+00 0. -1.
</event>
<event>
 5    1  0.1764318E-003  0.9118800E+02  0.7818608E-02  0.1130116E+00
         25   -1    0    0    0    0  0.00000000000E+00  0.00000000000E+00  0.99999998245E-14  0.12500000000E+03  0.12500000000E+03 0.  0.
        -13    1    3    3    0    0 -0.22826888878E+01  0.60939813877E+01  0.40632486851E+02  0.41150424414E+02  0.10566000000E+00 0. -1.
         23    2    1    0    0    0 -0.16207718253E+02  0.19570952552E+02 -0.11751008992E+02  0.97003597962E+02  0.92875720673E+02 0.  0.
         13    1    3    3    0    0 -0.13925029365E+02  0.13476971164E+02 -0.52383495843E+02  0.55853173548E+02  0.10566000000E+00 0.  1.
         22    1    1    0    0    0  0.16207718253E+02 -0.19570952552E+02  0.11751008992E+02  0.27996402038E+02  0.00000000000E+00 0.  1.
</event>
<event>
 5    1  0.1764318E-003  0.9118800E+02  0.7818608E-02  0.1130116E+00
         25   -1    0    0    0    0  0.00000000000E+00  0.00000000000E+00  0.99999998245E-14  0.12500000000E+03  0.12500000000E+03 0.  0.
        -13    1    3    3    0    0 -0.46192358338E+02  0.28021710227E+02  0.17408397386E+02  0.56762784255E+02  0.10566000000E+00 0.  1.
         23    2    1    0    0    0 -0.18902456777E+02  0.20164645098E+02 -0.93900644655E+01  0.95809434832E+02  0.91254362680E+02 0.  0.
         13    1    3    3    0    0  0.27289901561E+02 -0.78570651285E+01 -0.26798461852E+02  0.39046650577E+02  0.10566000000E+00 0. -1.
         22    1    1    0    0    0  0.18902456777E+02 -0.20164645098E+02  0.93900644655E+01  0.29190565168E+02  0.00000000000E+00 0.  1.
</event>
<event>
 5    1  0.1764318E-003  0.9118800E+02  0.7818608E-02  0.1130116E+00
         25   -1    0    0    0    0  0.00000000000E+00  0.00000000000E+00  0.99999998245E-14  0.12500000000E+03  0.12500000000E+03 0.  0.
        -13    1    3    3    0    0  0.94732458719E+01 -0.38173807716E+02  0.89179795337E+01  0.40330181079E+02  0.10566000000E+00 0. -1.
         23    2    1    0    0    0 -0.17624500659E+02 -0.19528603593E+02  0.34226236692E+02  0.81832597253E+02  0.69520855240E+02 0.  0.
         13    1    3    3    0    0 -0.27097746531E+02  0.18645204123E+02  0.25308257158E+02  0.41502416174E+02  0.10566000000E+00 0.  1.
         22    1    1    0    0    0  0.17624500659E+02  0.19528603593E+02 -0.34226236692E+02  0.43167402747E+02  0.00000000000E+00 0. -1.
</event>
<event>
 5    1  0.1764318E-003  0.9118800E+02  0.7818608E-02  0.1130116E+00
         25   -1    0    0    0    0  0.00000000000E+00  0.00000000000E+00  0.99999998245E-14  0.12500000000E+03  0.12500000000E+03 0.  0.
        -13    1    3    3    0    0 -0.47898520196E+02 -0.78895020519E+01 -0.34607774970E+02  0.59617293900E+02  0.10566000000E+00 0. -1.
         23    2    1    0    0    0 -0.27597256626E+02  0.58667189015E+01 -0.82818052103E+01  0.95595659139E+02  0.90961061915E+02 0.  0.
         13    1    3    3    0    0  0.20301263570E+02  0.13756220953E+02  0.26325969759E+02  0.35978365239E+02  0.10566000000E+00 0.  1.
         22    1    1    0    0    0  0.27597256626E+02 -0.58667189015E+01  0.82818052103E+01  0.29404340861E+02  0.00000000000E+00 0. -1.
</event>
<event>
 5    1  0.1764318E-003  0.9118800E+02  0.7818608E-02  0.1130116E+00
         25   -1    0    0    0    0  0.00000000000E+00  0.00000000000E+00  0.99999998245E-14  0.12500000000E+03  0.12500000000E+03 0.  0.
        -13    1    3    3    0    0  0.32868701424E+02  0.27031193486E+02  0.32778991796E+02  0.53716947250E+02  0.10566000000E+00 0. -1.
         23    2    1    0    0    0  0.27200447448E+02 -0.70639702053E+01  0.97304432714E+01  0.95260370838E+02  0.90499130987E+02 0.  0.
         13    1    3    3    0    0 -0.56682539755E+01 -0.34095163692E+02 -0.23048548525E+02  0.41543423588E+02  0.10566000000E+00 0.  1.
         22    1    1    0    0    0 -0.27200447448E+02  0.70639702053E+01 -0.97304432714E+01  0.29739629162E+02  0.00000000000E+00 0. -1.
</event>
<event>
 5    1  0.1764318E-003  0.9118800E+02  0.7818608E-02  0.1130116E+00
         25   -1    0    0    0    0  0.00000000000E+00  0.00000000000E+00  0.99999998245E-14  0.12500000000E+03  0.12500000000E+03 0.  0.
        -13    1    3    3    0    0  0.28002349661E+02  0.39938061875E+02  0.11184628318E+02  0.50042856108E+02  0.10566000000E+00 0. -1.
         23    2    1    0    0    0 -0.77998476783E+01  0.21391559121E+02  0.23575111749E+02  0.92224669042E+02  0.86204218345E+02 0.  0.
         13    1    3    3    0    0 -0.35802197339E+02 -0.18546502753E+02  0.12390483431E+02  0.42181812934E+02  0.10566000000E+00 0.  1.
         22    1    1    0    0    0  0.77998476783E+01 -0.21391559121E+02 -0.23575111749E+02  0.32775330958E+02  0.00000000000E+00 0. -1.
</event>
<event>
 5    1  0.1764318E-003  0.9118800E+02  0.7818608E-02  0.1130116E+00
         25   -1    0    0    0    0  0.00000000000E+00  0.00000000000E+00  0.99999998245E-14  0.12500000000E+03  0.12500000000E+03 0.  0.
        -13    1    3    3    0    0 -0.14428469762E+02 -0.56837160223E+02 -0.11265089535E+02  0.59712284567E+02  0.10566000000E+00 0. -1.
         23    2    1    0    0    0 -0.69813067085E+01 -0.29410691416E+02  0.76098092300E+01  0.93828913888E+02  0.88499878372E+02 0.  0.
         13    1    3    3    0    0  0.74471630533E+01  0.27426468808E+02  0.18874898765E+02  0.34116629321E+02  0.10566000000E+00 0.  1.
         22    1    1    0    0    0  0.69813067085E+01  0.29410691416E+02 -0.76098092300E+01  0.31171086112E+02  0.00000000000E+00 0. -1.
</event>
<event>
 5    1  0.1764318E-003  0.9118800E+02  0.7818608E-02  0.1130116E+00
         25   -1    0    0    0    0  0.00000000000E+00  0.00000000000E+00  0.99999998245E-14  0.12500000000E+03  0.12500000000E+03 0.  0.
        -13    1    3    3    0    0  0.43258411881E+02 -0.28101721360E+02  0.24054989370E+02  0.56917928805E+02  0.10566000000E+00 0. -1.
         23    2    1    0    0    0  0.64237816760E+01 -0.15930519900E+02  0.23721024655E+02  0.95712913324E+02  0.91122051837E+02 0.  0.
         13    1    3    3    0    0 -0.36834630205E+02  0.12171201460E+02 -0.33396471565E+00  0.38794984518E+02  0.10566000000E+00 0.  1.
         22    1    1    0    0    0 -0.64237816760E+01  0.15930519900E+02 -0.23721024655E+02  0.29287086676E+02  0.00000000000E+00 0. -1.
</event>
<event>
 5    1  0.1764318E-003  0.9118800E+02  0.7818608E-02  0.1130116E+00
         25   -1    0    0    0    0  0.00000000000E+00  0.00000000000E+00  0.99999998245E-14  0.12500000000E+03  0.12500000000E+03 0.  0.
        -13    1    3    3    0    0  0.63402217817E+01  0.29662595065E+02  0.43523578538E+02  0.53050739967E+02  0.10566000000E+00 0.  1.
         23    2    1    0    0    0  0.86148618471E+01 -0.95942663825E+01  0.25746145969E+02  0.96205385498E+02  0.91795132629E+02 0.  0.
         13    1    3    3    0    0  0.22746400654E+01 -0.39256861447E+02 -0.17777432569E+02  0.43154645531E+02  0.10566000000E+00 0. -1.
         22    1    1    0    0    0 -0.86148618471E+01  0.95942663825E+01 -0.25746145969E+02  0.28794614502E+02  0.00000000000E+00 0. -1.
</event>
<event>
 5    1  0.1764318E-003  0.9118800E+02  0.7818608E-02  0.1130116E+00
         25   -1    0    0    0    0  0.00000000000E+00  0.00000000000E+00  0.99999998245E-14  0.12500000000E+03  0.12500000000E+03 0.  0.
        -13    1    3    3    0    0  0.80115545870E+01  0.44547559601E+02  0.11004855863E+02  0.46580984210E+02  0.10566000000E+00 0. -1.
         23    2    1    0    0    0 -0.21565363467E+02  0.11962960986E+02 -0.13433019010E+02  0.96917561773E+02  0.92759853618E+02 0.  0.
         13    1    3    3    0    0 -0.29576918054E+02 -0.32584598615E+02 -0.24437874873E+02  0.50336577564E+02  0.10566000000E+00 0.  1.
         22    1    1    0    0    0  0.21565363467E+02 -0.11962960986E+02  0.13433019010E+02  0.28082438227E+02  0.00000000000E+00 0. -1.
</event>
<event>
 5    1  0.1764318E-003  0.9118800E+02  0.7818608E-02  0.1130116E+00
         25   -1    0    0    0    0  0.00000000000E+00  0.00000000000E+00  0.99999998245E-14  0.12500000000E+03  0.12500000000E+03 0.  0.
        -13    1    3    3    0    0 -0.26652921491E+02  0.63365037445E+01  0.45094850566E+02  0.52764440823E+02  0.10566000000E+00 0.  1.
         23    2    1    0    0    0 -0.14956280159E+02  0.24278280976E+02  0.83646301159E+01  0.95283131384E+02  0.90530563050E+02 0.  0.
         13    1    3    3    0    0  0.11696641332E+02  0.17941777231E+02 -0.36730220451E+02  0.42518690561E+02  0.10566000000E+00 0. -1.
         22    1    1    0    0    0  0.14956280159E+02 -0.24278280976E+02 -0.83646301159E+01  0.29716868616E+02  0.00000000000E+00 0.  1.
</event>
<event>
 5    1  0.1764318E-003  0.9118800E+02  0.7818608E-02  0.1130116E+00
         25   -1    0    0    0    0  0.00000000000E+00  0.00000000000E+00  0.99999998245E-14  0.12500000000E+03  0.12500000000E+03 0.  0.
        -13    1    3    3    0    0  0.27742598467E+02 -0.36607201540E+01 -0.34552022234E+01  0.28195783873E+02  0.10566000000E+00 0.  1.
         23    2    1    0    0    0 -0.31813238034E+02 -0.99898306845E+01 -0.13688132806E+02  0.88954975225E+02  0.81324927337E+02 0.  0.
         13    1    3    3    0    0 -0.59555836501E+02 -0.63291105304E+01 -0.10232930583E+02  0.60759191352E+02  0.10566000000E+00 0. -1.
         22    1    1    0    0    0  0.31813238034E+02  0.99898306845E+01  0.13688132806E+02  0.36045024775E+02  0.00000000000E+00 0. -1.
</event>
<event>
 5    1  0.1764318E-003  0.9118800E+02  0.7818608E-02  0.1130116E+00
         25   -1    0    0    0    0  0.00000000000E+00  0.00000000000E+00  0.99999998245E-14  0.12500000000E+03  0.12500000000E+03 0.  0.
        -13    1    3    3    0    0 -0.34491101069E+02  0.30105251951E+02  0.34375019061E+02  0.57250461548E+02  0.10566000000E+00 0. -1.
         23    2    1    0    0    0 -0.27735780718E+02  0.25018523138E+00  0.15183219056E+02  0.93379337996E+02  0.87862588734E+02 0.  0.
         13    1    3    3    0    0  0.67553203509E+01 -0.29855066720E+02 -0.19191800005E+02  0.36128876448E+02  0.10566000000E+00 0.  1.
         22    1    1    0    0    0  0.27735780718E+02 -0.25018523138E+00 -0.15183219056E+02  0.31620662004E+02  0.00000000000E+00 0. -1.
</event>
<event>
 5    1  0.1764318E-003  0.9118800E+02  0.7818608E-02  0.1130116E+00
         25   -1    0    0    0    0  0.00000000000E+00  0.00000000000E+00  0.99999998245E-14  0.12500000000E+03  0.12500000000E+03 0.  0.
        -13    1    3    3    0    0 -0.13950880342E+01 -0.45377806255E+02 -0.38247462734E+02  0.59363045245E+02  0.10566000000E+00 0.  1.
         23    2    1    0    0    0 -0.75687809195E+01 -0.27467968322E+02 -0.74003598175E+01  0.95562930619E+02  0.90916074787E+02 0.  0.
         13    1    3    3    0    0 -0.61736928852E+01  0.17909837934E+02  0.30847102917E+02  0.36199885373E+02  0.10566000000E+00 0. -1.
         22    1    1    0    0    0  0.75687809195E+01  0.27467968322E+02  0.74003598175E+01  0.29437069381E+02  0.00000000000E+00 0.  1.
</event>
<event>
 5    1  0.1764318E-003  0.9118800E+02  0.7818608E-02  0.1130116E+00
         25   -1    0    0    0    0  0.00000000000E+00  0.00000000000E+00  0.99999998245E-14  0.12500000000E+03  0.12500000000E+03 0.  0.
        -13    1    3    3    0    0  0.32941752469E+01 -0.34795667144E+02  0.24175066021E+02  0.42497470792E+02  0.10566000000E+00 0. -1.
         23    2    1    0    0    0 -0.10001272242E+02 -0.10216393807E+02 -0.23344841104E+02  0.97625162009E+02  0.93708540177E+02 0.  0.
         13    1    3    3    0    0 -0.13295447489E+02  0.24579273337E+02 -0.47519907125E+02  0.55127691217E+02  0.10566000000E+00 0.  1.
         22    1    1    0    0    0  0.10001272242E+02  0.10216393807E+02  0.23344841104E+02  0.27374837991E+02  0.00000000000E+00 0.  1.
</event>
<event>
 5    1  0.1764318E-003  0.9118800E+02  0.7818608E-02  0.1130116E+00
         25   -1    0    0    0    0  0.00000000000E+00  0.00000000000E+00  0.99999998245E-14  0.12500000000E+03  0.12500000000E+03 0.  0.
        -13    1    3    3    0    0  0.18416538436E+02  0.15483662340E+02 -0.26558697127E+02  0.35836967569E+02  0.10566000000E+00 0. -1.
         23    2    1    0    0    0  0.12319596633E+02 -0.71567911404E+01  0.27093389108E+02  0.94388827954E+02  0.89287216266E+02 0.  0.
         13    1    3    3    0    0 -0.60969418026E+01 -0.22640453480E+02  0.53652086236E+02  0.58551860385E+02  0.10566000000E+00 0.  1.
         22    1    1    0    0    0 -0.12319596633E+02  0.71567911404E+01 -0.27093389108E+02  0.30611172046E+02  0.00000000000E+00 0.  1.
</event>
<event>
 5    1  0.1764318E-003  0.9118800E+02  0.7818608E-02  0.1130116E+00
         25   -1    0    0    0    0  0.00000000000E+00  0.00000000000E+00  0.99999998245E-14  0.12500000000E+03  0.12500000000E+03 0.  0.
        -13    1    3    3    0    0  0.42640014968E+02  0.19983948481E+01  0.27065364538E+02  0.50544134972E+02  0.10566000000E+00 0.  1.
         23    2    1    0    0    0  0.12087641399E+02 -0.25308106887E+02  0.74109584600E+01  0.95990800527E+02  0.91502459703E+02 0.  0.
         13    1    3    3    0    0 -0.30552373569E+02 -0.27306501735E+02 -0.19654406078E+02  0.45446665555E+02  0.10566000000E+00 0. -1.
         22    1    1    0    0    0 -0.12087641399E+02  0.25308106887E+02 -0.74109584600E+01  0.29009199473E+02  0.00000000000E+00 0.  1.
</event>
<event>
 5    1  0.1764318E-003  0.9118800E+02  0.7818608E-02  0.1130116E+00
         25   -1    0    0    0    0  0.00000000000E+00  0.00000000000E+00  0.99999998245E-14  0.12500000000E+03  0.12500000000E+03 0.  0.
        -13    1    3    3    0    0 -0.11695612125E+02  0.48403685839E+02 -0.21844273675E+02  0.54377271007E+02  0.10566000000E+00 0.  1.
         23    2    1    0    0    0  0.59873669470E+01  0.26883873168E+02  0.90832490311E+01  0.95998334317E+02  0.91512750910E+02 0.  0.
         13    1    3    3    0    0  0.17682979072E+02 -0.21519812671E+02  0.30927522706E+02  0.41621063310E+02  0.10566000000E+00 0. -1.
         22    1    1    0    0    0 -0.59873669470E+01 -0.26883873168E+02 -0.90832490311E+01  0.29001665683E+02  0.00000000000E+00 0.  1.
</event>
<event>
 5    1  0.1764318E-003  0.9118800E+02  0.7818608E-02  0.1130116E+00
         25   -1    0    0    0    0  0.00000000000E+00  0.00000000000E+00  0.99999998245E-14  0.12500000000E+03  0.12500000000E+03 0.  0.
        -13    1    3    3    0    0 -0.30653364887E+02 -0.33275456525E+02 -0.45371713881E+00  0.45244909206E+02  0.10566000000E+00 0. -1.
         23    2    1    0    0    0 -0.45624126194E+00 -0.22004072337E+02  0.28786474395E+02  0.88763989409E+02  0.81030841981E+02 0.  0.
         13    1    3    3    0    0  0.30197123625E+02  0.11271384188E+02  0.29240191534E+02  0.43519080203E+02  0.10566000000E+00 0.  1.
         22    1    1    0    0    0  0.45624126194E+00  0.22004072337E+02 -0.28786474395E+02  0.36236010591E+02  0.00000000000E+00 0. -1.
</event>
<event>
 5    1  0.1764318E-003  0.9118800E+02  0.7818608E-02  0.1130116E+00
         25   -1    0    0    0    0  0.00000000000E+00  0.00000000000E+00  0.99999998245E-14  0.12500000000E+03  0.12500000000E+03 0.  0.
        -13    1    3    3    0    0 -0.24015833982E+02  0.53143607683E+02  0.16236195485E+02  0.60536175361E+02  0.10566000000E+00 0.  1.
         23    2    1    0    0    0 -0.15588580327E+02  0.24004389068E+02  0.18444230214E+02  0.90949975634E+02  0.84335602852E+02 0.  0.
         13    1    3    3    0    0  0.84272536552E+01 -0.29139218615E+02  0.22080347293E+01  0.30413800273E+02  0.10566000000E+00 0. -1.
         22    1    1    0    0    0  0.15588580327E+02 -0.24004389068E+02 -0.18444230214E+02  0.34050024366E+02  0.00000000000E+00 0.  1.
</event>
<event>
 5    1  0.1764318E-003  0.9118800E+02  0.7818608E-02  0.1130116E+00
         25   -1    0    0    0    0  0.00000000000E+00  0.00000000000E+00  0.99999998245E-14  0.12500000000E+03  0.12500000000E+03 0.  0.
        -13    1    3    3    0    0  0.38602393689E+02  0.19643513107E+02  0.57198813023E+01  0.43689136085E+02  0.10566000000E+00 0.  1.
         23    2    1    0    0    0 -0.10865308628E+02  0.26821999199E+02 -0.69127594059E+01  0.95246667158E+02  0.90480201091E+02 0.  0.
         13    1    3    3    0    0 -0.49467702317E+02  0.71784860925E+01 -0.12632640708E+02  0.51557531073E+02  0.10566000000E+00 0. -1.
         22    1    1    0    0    0  0.10865308628E+02 -0.26821999199E+02  0.69127594059E+01  0.29753332842E+02  0.00000000000E+00 0. -1.
</event>
<event>
 5    1  0.1764318E-003  0.9118800E+02  0.7818608E-02  0.1130116E+00
         25   -1    0    0    0    0  0.00000000000E+00  0.00000000000E+00  0.99999998245E-14  0.12500000000E+03  0.12500000000E+03 0.  0.
        -13    1    3    3    0    0  0.42766101900E+02  0.69035469282E+01 -0.26864210725E+02  0.50973477552E+02  0.10566000000E+00 0. -1.
         23    2    1    0    0    0  0.94863717843E+01  0.28006990631E+02 -0.11169690048E+02  0.93390748987E+02  0.87878821378E+02 0.  0.
         13    1    3    3    0    0 -0.33279730115E+02  0.21103443703E+02  0.15694520677E+02  0.42417271435E+02  0.10566000000E+00 0.  1.
         22    1    1    0    0    0 -0.94863717843E+01 -0.28006990631E+02  0.11169690048E+02  0.31609251013E+02  0.00000000000E+00 0.  1.
</event>
<event>
 5    1  0.1764318E-003  0.9118800E+02  0.7818608E-02  0.1130116E+00
         25   -1    0    0    0    0  0.00000000000E+00  0.00000000000E+00  0.99999998245E-14  0.12500000000E+03  0.12500000000E+03 0.  0.
        -13    1    3    3    0    0  0.10102861190E+02  0.53928199571E+02  0.13368931126E+02  0.56471745119E+02  0.10566000000E+00 0.  1.
         23    2    1    0    0    0  0.36310162039E+01  0.25303074502E+02 -0.13351007797E+02  0.96161150038E+02  0.91734876190E+02 0.  0.
         13    1    3    3    0    0 -0.64718449864E+01 -0.28625125070E+02 -0.26719938923E+02  0.39689404920E+02  0.10566000000E+00 0. -1.
         22    1    1    0    0    0 -0.36310162039E+01 -0.25303074502E+02  0.13351007797E+02  0.28838849962E+02  0.00000000000E+00 0.  1.
</event>
<event>
 5    1  0.1764318E-003  0.9118800E+02  0.7818608E-02  0.1130116E+00
         25   -1    0    0    0    0  0.00000000000E+00  0.00000000000E+00  0.99999998245E-14  0.12500000000E+03  0.12500000000E+03 0.  0.
        -13    1    3    3    0    0 -0.11766537208E+01  0.50301207529E+02  0.35876717355E+02  0.61796003147E+02  0.10566000000E+00 0. -1.
         23    2    1    0    0    0 -0.70657248632E+01  0.21456004857E+02  0.16000953170E+02  0.97317602802E+02  0.93297377779E+02 0.  0.
         13    1    3    3    0    0 -0.58890711425E+01 -0.28845202671E+02 -0.19875764184E+02  0.35521599655E+02  0.10566000000E+00 0.  1.
         22    1    1    0    0    0  0.70657248632E+01 -0.21456004857E+02 -0.16000953170E+02  0.27682397198E+02  0.00000000000E+00 0. -1.
</event>
<event>
 5    1  0.1764318E-003  0.9118800E+02  0.7818608E-02  0.1130116E+00
         25   -1    0    0    0    0  0.00000000000E+00  0.00000000000E+00  0.99999998245E-14  0.12500000000E+03  0.12500000000E+03 0.  0.
        -13    1    3    3    0    0 -0.11858738014E+02 -0.23737645918E+02 -0.21564315860E+02  0.34192636394E+02  0.10566000000E+00 0.  1.
         23    2    1    0    0    0  0.50395316184E+00  0.95249493837E+01  0.28153035251E+02  0.95275060583E+02  0.90519418611E+02 0.  0.
         13    1    3    3    0    0  0.12362691176E+02  0.33262595302E+02  0.49717351110E+02  0.61082424189E+02  0.10566000000E+00 0. -1.
         22    1    1    0    0    0 -0.50395316184E+00 -0.95249493837E+01 -0.28153035251E+02  0.29724939417E+02  0.00000000000E+00 0. -1.
</event>
<event>
 5    1  0.1764318E-003  0.9118800E+02  0.7818608E-02  0.1130116E+00
         25   -1    0    0    0    0  0.00000000000E+00  0.00000000000E+00  0.99999998245E-14  0.12500000000E+03  0.12500000000E+03 0.  0.
        -13    1    3    3    0    0 -0.33495786213E+02 -0.17988496818E+02 -0.22134254615E+02  0.43994205337E+02  0.10566000000E+00 0. -1.
         23    2    1    0    0    0  0.27196288976E+01 -0.25946907119E+02  0.13676638345E+02  0.95543442041E+02  0.90889276102E+02 0.  0.
         13    1    3    3    0    0  0.36215415111E+02 -0.79584103013E+01  0.35810892960E+02  0.51549236704E+02  0.10566000000E+00 0.  1.
         22    1    1    0    0    0 -0.27196288976E+01  0.25946907119E+02 -0.13676638345E+02  0.29456557959E+02  0.00000000000E+00 0.  1.
</event>
<event>
 5    1  0.1764318E-003  0.9118800E+02  0.7818608E-02  0.1130116E+00
         25   -1    0    0    0    0  0.00000000000E+00  0.00000000000E+00  0.99999998245E-14  0.12500000000E+03  0.12500000000E+03 0.  0.
        -13    1    3    3    0    0 -0.29521908593E+02  0.33692640339E+02  0.12997293062E+02  0.46644162453E+02  0.10566000000E+00 0. -1.
         23    2    1    0    0    0 -0.13430012152E+02 -0.79241154234E+01  0.27351343539E+02  0.93515832153E+02  0.88056561585E+02 0.  0.
         13    1    3    3    0    0  0.16091896441E+02 -0.41616755763E+02  0.14354050477E+02  0.46871669700E+02  0.10566000000E+00 0.  1.
         22    1    1    0    0    0  0.13430012152E+02  0.79241154234E+01 -0.27351343539E+02  0.31484167847E+02  0.00000000000E+00 0.  1.
</event>
<event>
 5    1  0.1764318E-003  0.9118800E+02  0.7818608E-02  0.1130116E+00
         25   -1    0    0    0    0  0.00000000000E+00  0.00000000000E+00  0.99999998245E-14  0.12500000000E+03  0.12500000000E+03 0.  0.
        -13    1    3    3    0    0 -0.34621770319E+02  0.14379450919E+02 -0.23667404546E+02  0.44335006380E+02  0.10566000000E+00 0.  1.
         23    2    1    0    0    0 -0.81425386421E+01  0.31986557293E+02  0.98681083649E+01  0.90549740992E+02  0.83740284500E+02 0.  0.
         13    1    3    3    0    0  0.26479231677E+02  0.17607106374E+02  0.33535512911E+02  0.46214734612E+02  0.10566000000E+00 0. -1.
         22    1    1    0    0    0  0.81425386421E+01 -0.31986557293E+02 -0.98681083649E+01  0.34450259008E+02  0.00000000000E+00 0. -1.
</event>
<event>
 5    1  0.1764318E-003  0.9118800E+02  0.7818608E-02  0.1130116E+00
         25   -1    0    0    0    0  0.00000000000E+00  0.00000000000E+00  0.99999998245E-14  0.12500000000E+03  0.12500000000E+03 0.  0.
        -13    1    3    3    0    0 -0.32627189913E+02  0.37495596981E+02 -0.15295600144E+02  0.52004036982E+02  0.10566000000E+00 0. -1.
         23    2    1    0    0    0 -0.28707344532E+02 -0.41675804056E+01 -0.10607490310E+02  0.94113122411E+02  0.88900397090E+02 0.  0.
         13    1    3    3    0    0  0.39198453812E+01 -0.41663177387E+02  0.46881098344E+01  0.42109085429E+02  0.10566000000E+00 0.  1.
         22    1    1    0    0    0  0.28707344532E+02  0.41675804056E+01  0.10607490310E+02  0.30886877589E+02  0.00000000000E+00 0. -1.
</event>
<event>
 5    1  0.1764318E-003  0.9118800E+02  0.7818608E-02  0.1130116E+00
         25   -1    0    0    0    0  0.00000000000E+00  0.00000000000E+00  0.99999998245E-14  0.12500000000E+03  0.12500000000E+03 0.  0.
        -13    1    3    3    0    0 -0.60908794549E-01  0.43298454941E+02 -0.54691822653E+01  0.43642674400E+02  0.10566000000E+00 0.  1.
         23    2    1    0    0    0  0.25845713369E+02  0.29949144738E+01 -0.18236925587E+02  0.93226491111E+02  0.87644867379E+02 0.  0.
         13    1    3    3    0    0  0.25906622163E+02 -0.40303540467E+02 -0.12767743321E+02  0.49583816711E+02  0.10566000000E+00 0. -1.
         22    1    1    0    0    0 -0.25845713369E+02 -0.29949144738E+01  0.18236925587E+02  0.31773508889E+02  0.00000000000E+00 0. -1.
</event>
<event>
 5    1  0.1764318E-003  0.9118800E+02  0.7818608E-02  0.1130116E+00
         25   -1    0    0    0    0  0.00000000000E+00  0.00000000000E+00  0.99999998245E-14  0.12500000000E+03  0.12500000000E+03 0.  0.
        -13    1    3    3    0    0  0.44933444520E+02 -0.37193406219E+01  0.25031842363E+02  0.51569877130E+02  0.10566000000E+00 0.  1.
         23    2    1    0    0    0  0.12242697746E+02 -0.25850566614E+02  0.45738124578E+01  0.96033550394E+02  0.91560840966E+02 0.  0.
         13    1    3    3    0    0 -0.32690746773E+02 -0.22131225992E+02 -0.20458029905E+02  0.44463673264E+02  0.10566000000E+00 0. -1.
         22    1    1    0    0    0 -0.12242697746E+02  0.25850566614E+02 -0.45738124578E+01  0.28966449606E+02  0.00000000000E+00 0.  1.
</event>
<event>
 5    1  0.1764318E-003  0.9118800E+02  0.7818608E-02  0.1130116E+00
         25   -1    0    0    0    0  0.00000000000E+00  0.00000000000E+00  0.99999998245E-14  0.12500000000E+03  0.12500000000E+03 0.  0.
        -13    1    3    3    0    0  0.32091962020E+02 -0.23862464482E+02  0.45178908987E+02  0.60336193273E+02  0.10566000000E+00 0. -1.
         23    2    1    0    0    0  0.24002498501E+02 -0.56278987266E+01  0.16263086213E+02  0.95465593767E+02  0.90782148255E+02 0.  0.
         13    1    3    3    0    0 -0.80894635190E+01  0.18234565756E+02 -0.28915822774E+02  0.35129400494E+02  0.10566000000E+00 0.  1.
         22    1    1    0    0    0 -0.24002498501E+02  0.56278987266E+01 -0.16263086213E+02  0.29534406233E+02  0.00000000000E+00 0. -1.
</event>
<event>
 5    1  0.1764318E-003  0.9118800E+02  0.7818608E-02  0.1130116E+00
         25   -1    0    0    0    0  0.00000000000E+00  0.00000000000E+00  0.99999998245E-14  0.12500000000E+03  0.12500000000E+03 0.  0.
        -13    1    3    3    0    0 -0.50915387950E+02  0.74701141619E+01 -0.22756772656E+02  0.56267763430E+02  0.10566000000E+00 0. -1.
         23    2    1    0    0    0 -0.25734943572E+02 -0.14787543561E+02 -0.18201287004E+02  0.90182682271E+02  0.83190567781E+02 0.  0.
         13    1    3    3    0    0  0.25180444378E+02 -0.22257657723E+02  0.45554856514E+01  0.33914918840E+02  0.10566000000E+00 0.  1.
         22    1    1    0    0    0  0.25734943572E+02  0.14787543561E+02  0.18201287004E+02  0.34817317729E+02  0.00000000000E+00 0. -1.
</event>
<event>
 5    1  0.1764318E-003  0.9118800E+02  0.7818608E-02  0.1130116E+00
         25   -1    0    0    0    0  0.00000000000E+00  0.00000000000E+00  0.99999998245E-14  0.12500000000E+03  0.12500000000E+03 0.  0.
        -13    1    3    3    0    0  0.52229581481E+02 -0.29659303824E+02 -0.57519469250E+00  0.60066175989E+02  0.10566000000E+00 0.  1.
         23    2    1    0    0    0  0.26378553543E+02 -0.16468616842E+01 -0.37013227787E+01  0.98312174484E+02  0.94620524312E+02 0.  0.
         13    1    3    3    0    0 -0.25851027937E+02  0.28012442140E+02 -0.31261280862E+01  0.38245998495E+02  0.10566000000E+00 0. -1.
         22    1    1    0    0    0 -0.26378553543E+02  0.16468616842E+01  0.37013227787E+01  0.26687825516E+02  0.00000000000E+00 0.  1.
</event>
<event>
 5    1  0.1764318E-003  0.9118800E+02  0.7818608E-02  0.1130116E+00
         25   -1    0    0    0    0  0.00000000000E+00  0.00000000000E+00  0.99999998245E-14  0.12500000000E+03  0.12500000000E+03 0.  0.
        -13    1    3    3    0    0  0.10783224081E+02  0.26675135703E+02  0.16986413970E+02  0.33412425981E+02  0.10566000000E+00 0.  1.
         23    2    1    0    0    0 -0.18196187098E+02 -0.24793644439E+02  0.30956986427E+01  0.94090302823E+02  0.88868305406E+02 0.  0.
         13    1    3    3    0    0 -0.28979411179E+02 -0.51468780142E+02 -0.13890715327E+02  0.60677876842E+02  0.10566000000E+00 0. -1.
         22    1    1    0    0    0  0.18196187098E+02  0.24793644439E+02 -0.30956986427E+01  0.30909697177E+02  0.00000000000E+00 0. -1.
</event>
<event>
 4    1  0.1764318E-003  0.9118800E+02  0.7818608E-02  0.1130116E+00
         25   -1    0    0    0    0  0.00000000000E+00  0.00000000000E+00  0.99999998245E-14  0.12500000000E+03  0.12500000000E+03 0.  0.
        -13    1    1    0    0    0  0.28004245755E+00 -0.41488328685E+02 -0.38770639636E+02  0.56784976030E+02  0.10566000000E+00 0.  1.
         13    1    1    0    0    0  0.10836927785E+02  0.16909347083E+01 -0.80647877006E+00  0.10998174214E+02  0.10566000000E+00 0. -1.
         22    1    1    0    0    0 -0.11116970242E+02  0.39797393977E+02  0.39577118406E+02  0.57216849756E+02  0.00000000000E+00 0.  1.
</event>
<event>
 5    1  0.1764318E-003  0.9118800E+02  0.7818608E-02  0.1130116E+00
         25   -1    0    0    0    0  0.00000000000E+00  0.00000000000E+00  0.99999998245E-14  0.12500000000E+03  0.12500000000E+03 0.  0.
        -13    1    3    3    0    0 -0.21071517677E+02 -0.17394557287E+02  0.52841191806E+02  0.59487664233E+02  0.10566000000E+00 0. -1.
         23    2    1    0    0    0 -0.32812041453E+01  0.28934927784E+01  0.29534825647E+02  0.95142931706E+02  0.90336775051E+02 0.  0.
         13    1    3    3    0    0  0.17790313532E+02  0.20288050066E+02 -0.23306366159E+02  0.35655267473E+02  0.10566000000E+00 0.  1.
         22    1    1    0    0    0  0.32812041453E+01 -0.28934927784E+01 -0.29534825647E+02  0.29857068294E+02  0.00000000000E+00 0. -1.
</event>
<event>
 5    1  0.1764318E-003  0.9118800E+02  0.7818608E-02  0.1130116E+00
         25   -1    0    0    0    0  0.00000000000E+00  0.00000000000E+00  0.99999998245E-14  0.12500000000E+03  0.12500000000E+03 0.  0.
        -13    1    3    3    0    0 -0.48330461177E+00 -0.11320414735E+02 -0.23021716735E+02  0.25659227942E+02  0.10566000000E+00 0.  1.
         23    2    1    0    0    0  0.24064683953E+02  0.29998167424E+02  0.11530076740E+02  0.84851005838E+02  0.74751263933E+02 0.  0.
         13    1    3    3    0    0  0.24547988565E+02  0.41318582159E+02  0.34551793475E+02  0.59191777897E+02  0.10566000000E+00 0. -1.
         22    1    1    0    0    0 -0.24064683953E+02 -0.29998167424E+02 -0.11530076740E+02  0.40148994162E+02  0.00000000000E+00 0. -1.
</event>
<event>
 5    1  0.1764318E-003  0.9118800E+02  0.7818608E-02  0.1130116E+00
         25   -1    0    0    0    0  0.00000000000E+00  0.00000000000E+00  0.99999998245E-14  0.12500000000E+03  0.12500000000E+03 0.  0.
        -13    1    3    3    0    0 -0.47084515272E+01  0.25315077490E+02  0.29358895676E+02  0.39050974168E+02  0.10566000000E+00 0. -1.
         23    2    1    0    0    0  0.27848606841E+02 -0.73032633574E+01 -0.39858510887E+01  0.95935080121E+02  0.91426309289E+02 0.  0.
         13    1    3    3    0    0  0.32557058368E+02 -0.32618340848E+02 -0.33344746765E+02  0.56884105953E+02  0.10566000000E+00 0.  1.
         22    1    1    0    0    0 -0.27848606841E+02  0.73032633574E+01  0.39858510887E+01  0.29064919879E+02  0.00000000000E+00 0.  1.
</event>
<event>
 5    1  0.1764318E-003  0.9118800E+02  0.7818608E-02  0.1130116E+00
         25   -1    0    0    0    0  0.00000000000E+00  0.00000000000E+00  0.99999998245E-14  0.12500000000E+03  0.12500000000E+03 0.  0.
        -13    1    3    3    0    0 -0.52653623589E+02 -0.16184341844E+02  0.17484892161E+02  0.57793335394E+02  0.10566000000E+00 0.  1.
         23    2    1    0    0    0 -0.13200339695E+02 -0.12355606887E+02  0.20643783049E+02  0.97557773994E+02  0.93618606582E+02 0.  0.
         13    1    3    3    0    0  0.39453283895E+02  0.38287349573E+01  0.31588908878E+01  0.39764438600E+02  0.10566000000E+00 0. -1.
         22    1    1    0    0    0  0.13200339695E+02  0.12355606887E+02 -0.20643783049E+02  0.27442226006E+02  0.00000000000E+00 0.  1.
</event>
<event>
 5    1  0.1764318E-003  0.9118800E+02  0.7818608E-02  0.1130116E+00
         25   -1    0    0    0    0  0.00000000000E+00  0.00000000000E+00  0.99999998245E-14  0.12500000000E+03  0.12500000000E+03 0.  0.
        -13    1    3    3    0    0 -0.45208739282E+02 -0.53590609254E+01 -0.19293974450E+02  0.49445103453E+02  0.10566000000E+00 0.  1.
         23    2    1    0    0    0 -0.19945796448E+02 -0.13957493093E+02  0.17586409650E+02  0.94967880299E+02  0.90094228864E+02 0.  0.
         13    1    3    3    0    0  0.25262942834E+02 -0.85984321673E+01  0.36880384099E+02  0.45522776845E+02  0.10566000000E+00 0. -1.
         22    1    1    0    0    0  0.19945796448E+02  0.13957493093E+02 -0.17586409650E+02  0.30032119701E+02  0.00000000000E+00 0.  1.
</event>
<event>
 5    1  0.1764318E-003  0.9118800E+02  0.7818608E-02  0.1130116E+00
         25   -1    0    0    0    0  0.00000000000E+00  0.00000000000E+00  0.99999998245E-14  0.12500000000E+03  0.12500000000E+03 0.  0.
        -13    1    3    3    0    0  0.18429712367E+02  0.21368399830E+02 -0.31864568106E+02  0.42563184489E+02  0.10566000000E+00 0.  1.
         23    2    1    0    0    0  0.22001806373E+02 -0.19368865310E+02  0.19443048131E+01  0.95622921379E+02  0.90998518366E+02 0.  0.
         13    1    3    3    0    0  0.35720940067E+01 -0.40737265141E+02  0.33808872919E+02  0.53059736890E+02  0.10566000000E+00 0. -1.
         22    1    1    0    0    0 -0.22001806373E+02  0.19368865310E+02 -0.19443048131E+01  0.29377078621E+02  0.00000000000E+00 0. -1.
</event>
<event>
 5    1  0.1764318E-003  0.9118800E+02  0.7818608E-02  0.1130116E+00
         25   -1    0    0    0    0  0.00000000000E+00  0.00000000000E+00  0.99999998245E-14  0.12500000000E+03  0.12500000000E+03 0.  0.
        -13    1    3    3    0    0  0.15709205588E+02 -0.54853934056E+02  0.51728805202E+01  0.57293132910E+02  0.10566000000E+00 0. -1.
         23    2    1    0    0    0  0.59037741865E+01 -0.18365916215E+02 -0.15401613275E+02  0.10031455653E+03  0.97229826346E+02 0.  0.
         13    1    3    3    0    0 -0.98054314017E+01  0.36488017841E+02 -0.20574493795E+02  0.43021423616E+02  0.10566000000E+00 0.  1.
         22    1    1    0    0    0 -0.59037741865E+01  0.18365916215E+02  0.15401613275E+02  0.24685443475E+02  0.00000000000E+00 0. -1.
</event>
<event>
 5    1  0.1764318E-003  0.9118800E+02  0.7818608E-02  0.1130116E+00
         25   -1    0    0    0    0  0.00000000000E+00  0.00000000000E+00  0.99999998245E-14  0.12500000000E+03  0.12500000000E+03 0.  0.
        -13    1    3    3    0    0  0.12293782400E+02 -0.87200916875E+01  0.32932152487E+02  0.36217605059E+02  0.10566000000E+00 0. -1.
         23    2    1    0    0    0 -0.14302412089E+02 -0.15876389792E+02 -0.19901429211E+02  0.95799218691E+02  0.91240367562E+02 0.  0.
         13    1    3    3    0    0 -0.26596194490E+02 -0.71562981042E+01 -0.52833581699E+02  0.59581613632E+02  0.10566000000E+00 0.  1.
         22    1    1    0    0    0  0.14302412089E+02  0.15876389792E+02  0.19901429211E+02  0.29200781309E+02  0.00000000000E+00 0.  1.
</event>
<event>
 5    1  0.1764318E-003  0.9118800E+02  0.7818608E-02  0.1130116E+00
         25   -1    0    0    0    0  0.00000000000E+00  0.00000000000E+00  0.99999998245E-14  0.12500000000E+03  0.12500000000E+03 0.  0.
        -13    1    3    3    0    0 -0.42658642100E+02  0.10302362852E+02 -0.19343074328E+01  0.43927794566E+02  0.10566000000E+00 0. -1.
         23    2    1    0    0    0  0.40399119110E+01  0.12234244419E+02 -0.25618055691E+02  0.96324533097E+02  0.91957236116E+02 0.  0.
         13    1    3    3    0    0  0.46698554011E+02  0.19318815666E+01 -0.23683748258E+02  0.52396738531E+02  0.10566000000E+00 0.  1.
         22    1    1    0    0    0 -0.40399119110E+01 -0.12234244419E+02  0.25618055691E+02  0.28675466903E+02  0.00000000000E+00 0.  1.
</event>
<event>
 5    1  0.1764318E-003  0.9118800E+02  0.7818608E-02  0.1130116E+00
         25   -1    0    0    0    0  0.00000000000E+00  0.00000000000E+00  0.99999998245E-14  0.12500000000E+03  0.12500000000E+03 0.  0.
        -13    1    3    3    0    0 -0.29358442877E+02 -0.14166510092E+02 -0.12548488692E+02  0.34929699524E+02  0.10566000000E+00 0. -1.
         23    2    1    0    0    0  0.15674358185E+02 -0.33889813564E+01  0.25510253479E+02  0.94867895333E+02  0.89955399133E+02 0.  0.
         13    1    3    3    0    0  0.45032801062E+02  0.10777528736E+02  0.38058742170E+02  0.59938195808E+02  0.10566000000E+00 0.  1.
         22    1    1    0    0    0 -0.15674358185E+02  0.33889813564E+01 -0.25510253479E+02  0.30132104667E+02  0.00000000000E+00 0.  1.
</event>
<event>
 5    1  0.1764318E-003  0.9118800E+02  0.7818608E-02  0.1130116E+00
         25   -1    0    0    0    0  0.00000000000E+00  0.00000000000E+00  0.99999998245E-14  0.12500000000E+03  0.12500000000E+03 0.  0.
        -13    1    3    3    0    0 -0.37037286691E+02 -0.66205103178E+01  0.90445948052E+01  0.38696351528E+02  0.10566000000E+00 0.  1.
         23    2    1    0    0    0  0.30999900140E+01  0.15588788541E+02 -0.24689326858E+02  0.95637044989E+02  0.91017917178E+02 0.  0.
         13    1    3    3    0    0  0.40137276705E+02  0.22209298859E+02 -0.33733921663E+02  0.56940693462E+02  0.10566000000E+00 0. -1.
         22    1    1    0    0    0 -0.30999900140E+01 -0.15588788541E+02  0.24689326858E+02  0.29362955011E+02  0.00000000000E+00 0. -1.
</event>
<event>
 5    1  0.1764318E-003  0.9118800E+02  0.7818608E-02  0.1130116E+00
         25   -1    0    0    0    0  0.00000000000E+00  0.00000000000E+00  0.99999998245E-14  0.12500000000E+03  0.12500000000E+03 0.  0.
        -13    1    3    3    0    0  0.60001366826E+02  0.15145634696E+02  0.40115720910E+00  0.61884782963E+02  0.10566000000E+00 0. -1.
         23    2    1    0    0    0  0.27673536978E+02  0.11757823195E+02 -0.39276313784E+01  0.94676785405E+02  0.89689443923E+02 0.  0.
         13    1    3    3    0    0 -0.32327829848E+02 -0.33878115011E+01 -0.43287885875E+01  0.32792002441E+02  0.10566000000E+00 0.  1.
         22    1    1    0    0    0 -0.27673536978E+02 -0.11757823195E+02  0.39276313784E+01  0.30323214595E+02  0.00000000000E+00 0. -1.
</event>
<event>
 5    1  0.1764318E-003  0.9118800E+02  0.7818608E-02  0.1130116E+00
         25   -1    0    0    0    0  0.00000000000E+00  0.00000000000E+00  0.99999998245E-14  0.12500000000E+03  0.12500000000E+03 0.  0.
        -13    1    3    3    0    0 -0.17785739033E+02 -0.34031052765E+02 -0.10123534744E+02  0.39710731359E+02  0.10566000000E+00 0.  1.
         23    2    1    0    0    0  0.38906799785E+01  0.15900687742E+02 -0.24058916009E+02  0.95900159779E+02  0.91378552980E+02 0.  0.
         13    1    3    3    0    0  0.21676419011E+02  0.49931740507E+02 -0.13935381265E+02  0.56189428421E+02  0.10566000000E+00 0. -1.
         22    1    1    0    0    0 -0.38906799785E+01 -0.15900687742E+02  0.24058916009E+02  0.29099840221E+02  0.00000000000E+00 0. -1.
</event>
<event>
 5    1  0.1764318E-003  0.9118800E+02  0.7818608E-02  0.1130116E+00
         25   -1    0    0    0    0  0.00000000000E+00  0.00000000000E+00  0.99999998245E-14  0.12500000000E+03  0.12500000000E+03 0.  0.
        -13    1    3    3    0    0 -0.56267824575E+01  0.28565819478E+02 -0.20572856692E+02  0.35649969422E+02  0.10566000000E+00 0.  1.
         23    2    1    0    0    0  0.23314069249E+02 -0.18922309504E+02  0.80097733170E-01  0.94973244638E+02  0.90101671236E+02 0.  0.
         13    1    3    3    0    0  0.28940851707E+02 -0.47488128983E+02  0.20652954425E+02  0.59323275216E+02  0.10566000000E+00 0. -1.
         22    1    1    0    0    0 -0.23314069249E+02  0.18922309504E+02 -0.80097733170E-01  0.30026755362E+02  0.00000000000E+00 0. -1.
</event>
<event>
 5    1  0.1764318E-003  0.9118800E+02  0.7818608E-02  0.1130116E+00
         25   -1    0    0    0    0  0.00000000000E+00  0.00000000000E+00  0.99999998245E-14  0.12500000000E+03  0.12500000000E+03 0.  0.
        -13    1    3    3    0    0  0.47741991566E+01  0.20973838008E+02  0.32674852706E+02  0.39119713979E+02  0.10566000000E+00 0. -1.
         23    2    1    0    0    0 -0.25039366158E+02 -0.29035452829E+01 -0.11307426480E+02  0.97372869740E+02  0.93371395165E+02 0.  0.
         13    1    3    3    0    0 -0.29813565314E+02 -0.23877383291E+02 -0.43982279187E+02  0.58253155761E+02  0.10566000000E+00 0.  1.
         22    1    1    0    0    0  0.25039366158E+02  0.29035452829E+01  0.11307426480E+02  0.27627130260E+02  0.00000000000E+00 0.  1.
</event>
<event>
 5    1  0.1764318E-003  0.9118800E+02  0.7818608E-02  0.1130116E+00
         25   -1    0    0    0    0  0.00000000000E+00  0.00000000000E+00  0.99999998245E-14  0.12500000000E+03  0.12500000000E+03 0.  0.
        -13    1    3    3    0    0 -0.14245539300E+02  0.14310000518E+02  0.27734186125E+02  0.34306089093E+02  0.10566000000E+00 0. -1.
         23    2    1    0    0    0  0.32948851297E+01 -0.25304748110E+02 -0.15197481005E+02  0.95298990357E+02  0.90552457665E+02 0.  0.
         13    1    3    3    0    0  0.17540424429E+02 -0.39614748628E+02 -0.42931667130E+02  0.60992901264E+02  0.10566000000E+00 0.  1.
         22    1    1    0    0    0 -0.32948851297E+01  0.25304748110E+02  0.15197481005E+02  0.29701009643E+02  0.00000000000E+00 0.  1.
</event>
<event>
 5    1  0.1764318E-003  0.9118800E+02  0.7818608E-02  0.1130116E+00
         25   -1    0    0    0    0  0.00000000000E+00  0.00000000000E+00  0.99999998245E-14  0.12500000000E+03  0.12500000000E+03 0.  0.
        -13    1    3    3    0    0 -0.24284258812E+02  0.41395104053E+02 -0.17515053067E+02  0.51088825721E+02  0.10566000000E+00 0. -1.
         23    2    1    0    0    0 -0.12779979493E+02 -0.26923833796E+00 -0.26808233278E+02  0.95300139115E+02  0.90554043414E+02 0.  0.
         13    1    3    3    0    0  0.11504279320E+02 -0.41664342391E+02 -0.92931802112E+01  0.44211313393E+02  0.10566000000E+00 0.  1.
         22    1    1    0    0    0  0.12779979493E+02  0.26923833796E+00  0.26808233278E+02  0.29699860885E+02  0.00000000000E+00 0. -1.
</event>
<event>
 5    1  0.1764318E-003  0.9118800E+02  0.7818608E-02  0.1130116E+00
         25   -1    0    0    0    0  0.00000000000E+00  0.00000000000E+00  0.99999998245E-14  0.12500000000E+03  0.12500000000E+03 0.  0.
        -13    1    3    3    0    0  0.20978167841E+02 -0.81027309259E+01  0.50859538017E+02  0.55609725280E+02  0.10566000000E+00 0.  1.
         23    2    1    0    0    0 -0.10004497172E+02  0.26090213356E+01  0.26803920029E+02  0.96271145430E+02  0.91884636134E+02 0.  0.
         13    1    3    3    0    0 -0.30982665013E+02  0.10711752262E+02 -0.24055617987E+02  0.40661420150E+02  0.10566000000E+00 0. -1.
         22    1    1    0    0    0  0.10004497172E+02 -0.26090213356E+01 -0.26803920029E+02  0.28728854570E+02  0.00000000000E+00 0.  1.
</event>
<event>
 5    1  0.1764318E-003  0.9118800E+02  0.7818608E-02  0.1130116E+00
         25   -1    0    0    0    0  0.00000000000E+00  0.00000000000E+00  0.99999998245E-14  0.12500000000E+03  0.12500000000E+03 0.  0.
        -13    1    3    3    0    0 -0.21721222271E+02 -0.13665934826E+02 -0.24898057777E+02  0.35756030494E+02  0.10566000000E+00 0.  1.
         23    2    1    0    0    0 -0.67622936538E+01  0.24889540879E+02  0.16588176687E+02  0.94334294946E+02  0.89210838672E+02 0.  0.
         13    1    3    3    0    0  0.14958928617E+02  0.38555475705E+02  0.41486234464E+02  0.58578264452E+02  0.10566000000E+00 0. -1.
         22    1    1    0    0    0  0.67622936538E+01 -0.24889540879E+02 -0.16588176687E+02  0.30665705054E+02  0.00000000000E+00 0. -1.
</event>
<event>
 5    1  0.1764318E-003  0.9118800E+02  0.7818608E-02  0.1130116E+00
         25   -1    0    0    0    0  0.00000000000E+00  0.00000000000E+00  0.99999998245E-14  0.12500000000E+03  0.12500000000E+03 0.  0.
        -13    1    3    3    0    0 -0.32056978844E+02  0.29143285380E+02 -0.24527594691E+02  0.49785490263E+02  0.10566000000E+00 0. -1.
         23    2    1    0    0    0 -0.85576285172E+01  0.23454798936E+02  0.14818293028E+02  0.95966529535E+02  0.91469297493E+02 0.  0.
         13    1    3    3    0    0  0.23499350327E+02 -0.56884864441E+01  0.39345887719E+02  0.46181039272E+02  0.10566000000E+00 0.  1.
         22    1    1    0    0    0  0.85576285172E+01 -0.23454798936E+02 -0.14818293028E+02  0.29033470465E+02  0.00000000000E+00 0. -1.
</event>
<event>
 5    1  0.1764318E-003  0.9118800E+02  0.7818608E-02  0.1130116E+00
         25   -1    0    0    0    0  0.00000000000E+00  0.00000000000E+00  0.99999998245E-14  0.12500000000E+03  0.12500000000E+03 0.  0.
        -13    1    3    3    0    0 -0.56113763396E+02 -0.12578910440E+02 -0.10901822118E+02  0.58530712621E+02  0.10566000000E+00 0.  1.
         23    2    1    0    0    0 -0.26128852744E+02  0.90810125640E+01 -0.10169606862E+02  0.95527934605E+02  0.90867946226E+02 0.  0.
         13    1    3    3    0    0  0.29984910652E+02  0.21659923004E+02  0.73221525647E+00  0.36997221985E+02  0.10566000000E+00 0. -1.
         22    1    1    0    0    0  0.26128852744E+02 -0.90810125640E+01  0.10169606862E+02  0.29472065395E+02  0.00000000000E+00 0.  1.
</event>
<event>
 5    1  0.1764318E-003  0.9118800E+02  0.7818608E-02  0.1130116E+00
         25   -1    0    0    0    0  0.00000000000E+00  0.00000000000E+00  0.99999998245E-14  0.12500000000E+03  0.12500000000E+03 0.  0.
        -13    1    3    3    0    0  0.14181304315E+02  0.36236059036E+02 -0.46578952624E+02  0.60694080092E+02  0.10566000000E+00 0.  1.
         23    2    1    0    0    0 -0.28145503417E+01  0.14414388761E+02 -0.25887239537E+02  0.95236843786E+02  0.90466628911E+02 0.  0.
         13    1    3    3    0    0 -0.16995854657E+02 -0.21821670276E+02  0.20691713088E+02  0.34542763695E+02  0.10566000000E+00 0. -1.
         22    1    1    0    0    0  0.28145503417E+01 -0.14414388761E+02  0.25887239537E+02  0.29763156214E+02  0.00000000000E+00 0.  1.
</event>
<event>
 5    1  0.1764318E-003  0.9118800E+02  0.7818608E-02  0.1130116E+00
         25   -1    0    0    0    0  0.00000000000E+00  0.00000000000E+00  0.99999998245E-14  0.12500000000E+03  0.12500000000E+03 0.  0.
        -13    1    3    3    0    0  0.87775446744E+01 -0.38388469733E+02 -0.23642346539E+02  0.45931379393E+02  0.10566000000E+00 0.  1.
         23    2    1    0    0    0 -0.25999436942E+02 -0.56755453856E+01 -0.21172956768E+01  0.98304204869E+02  0.94609995335E+02 0.  0.
         13    1    3    3    0    0 -0.34776981616E+02  0.32712924348E+02  0.21525050863E+02  0.52372825476E+02  0.10566000000E+00 0. -1.
         22    1    1    0    0    0  0.25999436942E+02  0.56755453856E+01  0.21172956768E+01  0.26695795131E+02  0.00000000000E+00 0. -1.
</event>
<event>
 5    1  0.1764318E-003  0.9118800E+02  0.7818608E-02  0.1130116E+00
         25   -1    0    0    0    0  0.00000000000E+00  0.00000000000E+00  0.99999998245E-14  0.12500000000E+03  0.12500000000E+03 0.  0.
        -13    1    3    3    0    0 -0.96932619530E+01  0.38204459711E+02 -0.44551958346E+02  0.59484689001E+02  0.10566000000E+00 0.  1.
         23    2    1    0    0    0 -0.16176806888E+02  0.98317047805E+01 -0.17731015446E+02  0.99062760194E+02  0.95606956068E+02 0.  0.
         13    1    3    3    0    0 -0.64835449353E+01 -0.28372754930E+02  0.26820942900E+02  0.39578071193E+02  0.10566000000E+00 0. -1.
         22    1    1    0    0    0  0.16176806888E+02 -0.98317047805E+01  0.17731015446E+02  0.25937239806E+02  0.00000000000E+00 0.  1.
</event>
<event>
 5    1  0.1764318E-003  0.9118800E+02  0.7818608E-02  0.1130116E+00
         25   -1    0    0    0    0  0.00000000000E+00  0.00000000000E+00  0.99999998245E-14  0.12500000000E+03  0.12500000000E+03 0.  0.
        -13    1    3    3    0    0 -0.49263227394E+02  0.28484610782E+02 -0.25424397300E+02  0.62326958588E+02  0.10566000000E+00 0.  1.
         23    2    1    0    0    0 -0.20787742643E+02  0.11732120296E+02 -0.14231851438E+02  0.97209381328E+02  0.93152269602E+02 0.  0.
         13    1    3    3    0    0  0.28475484751E+02 -0.16752490486E+02  0.11192545862E+02  0.34882422740E+02  0.10566000000E+00 0. -1.
         22    1    1    0    0    0  0.20787742643E+02 -0.11732120296E+02  0.14231851438E+02  0.27790618672E+02  0.00000000000E+00 0.  1.
</event>
<event>
 5    1  0.1764318E-003  0.9118800E+02  0.7818608E-02  0.1130116E+00
         25   -1    0    0    0    0  0.00000000000E+00  0.00000000000E+00  0.99999998245E-14  0.12500000000E+03  0.12500000000E+03 0.  0.
        -13    1    3    3    0    0  0.24056041565E+02 -0.26112046643E+02 -0.45649120071E+02  0.57830661789E+02  0.10566000000E+00 0.  1.
         23    2    1    0    0    0  0.27309625226E+02 -0.18972646839E+02 -0.16768727434E+02  0.87757991759E+02  0.79463815285E+02 0.  0.
         13    1    3    3    0    0  0.32535836610E+01  0.71393998040E+01  0.28880392637E+02  0.29927329970E+02  0.10566000000E+00 0. -1.
         22    1    1    0    0    0 -0.27309625226E+02  0.18972646839E+02  0.16768727434E+02  0.37242008241E+02  0.00000000000E+00 0.  1.
</event>
<event>
 5    1  0.1764318E-003  0.9118800E+02  0.7818608E-02  0.1130116E+00
         25   -1    0    0    0    0  0.00000000000E+00  0.00000000000E+00  0.99999998245E-14  0.12500000000E+03  0.12500000000E+03 0.  0.
        -13    1    3    3    0    0 -0.12062597437E+02  0.42864191040E+02  0.41265028883E+02  0.60709627763E+02  0.10566000000E+00 0.  1.
         23    2    1    0    0    0 -0.82839477791E+01  0.11923696403E+02  0.25538846274E+02  0.95622610808E+02  0.90998091750E+02 0.  0.
         13    1    3    3    0    0  0.37786496581E+01 -0.30940494637E+02 -0.15726182609E+02  0.34912983045E+02  0.10566000000E+00 0. -1.
         22    1    1    0    0    0  0.82839477791E+01 -0.11923696403E+02 -0.25538846274E+02  0.29377389192E+02  0.00000000000E+00 0.  1.
</event>
<event>
 5    1  0.1764318E-003  0.9118800E+02  0.7818608E-02  0.1130116E+00
         25   -1    0    0    0    0  0.00000000000E+00  0.00000000000E+00  0.99999998245E-14  0.12500000000E+03  0.12500000000E+03 0.  0.
        -13    1    3    3    0    0 -0.31574771369E+02  0.13967640056E+02  0.38795806126E+02  0.51934448035E+02  0.10566000000E+00 0. -1.
         23    2    1    0    0    0 -0.12718066823E+02  0.25911797435E+02  0.65380595726E+00  0.96127903916E+02  0.91689563087E+02 0.  0.
         13    1    3    3    0    0  0.18856704546E+02  0.11944157380E+02 -0.38142000168E+02  0.44193455881E+02  0.10566000000E+00 0.  1.
         22    1    1    0    0    0  0.12718066823E+02 -0.25911797435E+02 -0.65380595726E+00  0.28872096084E+02  0.00000000000E+00 0. -1.
</event>
<event>
 5    1  0.1764318E-003  0.9118800E+02  0.7818608E-02  0.1130116E+00
         25   -1    0    0    0    0  0.00000000000E+00  0.00000000000E+00  0.99999998245E-14  0.12500000000E+03  0.12500000000E+03 0.  0.
        -13    1    3    3    0    0 -0.19945128496E+02  0.24727990303E+02  0.29689907197E+02  0.43483139359E+02  0.10566000000E+00 0. -1.
         23    2    1    0    0    0 -0.20380617621E+02 -0.20148701703E+02  0.18813648411E+01  0.96279288160E+02  0.91895712849E+02 0.  0.
         13    1    3    3    0    0 -0.43548912557E+00 -0.44876692006E+02 -0.27808542356E+02  0.52796148801E+02  0.10566000000E+00 0.  1.
         22    1    1    0    0    0  0.20380617621E+02  0.20148701703E+02 -0.18813648411E+01  0.28720711840E+02  0.00000000000E+00 0.  1.
</event>
<event>
 5    1  0.1764318E-003  0.9118800E+02  0.7818608E-02  0.1130116E+00
         25   -1    0    0    0    0  0.00000000000E+00  0.00000000000E+00  0.99999998245E-14  0.12500000000E+03  0.12500000000E+03 0.  0.
        -13    1    3    3    0    0  0.11157392693E+02 -0.35736217818E+02  0.47115315152E+02  0.60178308065E+02  0.10566000000E+00 0.  1.
         23    2    1    0    0    0  0.15207887336E+02 -0.10043657645E+02  0.23065985314E+02  0.95602813492E+02  0.90970892999E+02 0.  0.
         13    1    3    3    0    0  0.40504946420E+01  0.25692560173E+02 -0.24049329838E+02  0.35424505427E+02  0.10566000000E+00 0. -1.
         22    1    1    0    0    0 -0.15207887336E+02  0.10043657645E+02 -0.23065985314E+02  0.29397186508E+02  0.00000000000E+00 0.  1.
</event>
<event>
 5    1  0.1764318E-003  0.9118800E+02  0.7818608E-02  0.1130116E+00
         25   -1    0    0    0    0  0.00000000000E+00  0.00000000000E+00  0.99999998245E-14  0.12500000000E+03  0.12500000000E+03 0.  0.
        -13    1    3    3    0    0 -0.21618689030E+02  0.37683810195E+02 -0.24003419949E+02  0.49634792227E+02  0.10566000000E+00 0. -1.
         23    2    1    0    0    0 -0.29049772190E+02 -0.33038315959E+01 -0.53458027943E+01  0.95278254173E+02  0.90523828593E+02 0.  0.
         13    1    3    3    0    0 -0.74310831602E+01 -0.40987641791E+02  0.18657617154E+02  0.45643461946E+02  0.10566000000E+00 0.  1.
         22    1    1    0    0    0  0.29049772190E+02  0.33038315959E+01  0.53458027943E+01  0.29721745827E+02  0.00000000000E+00 0.  1.
</event>
<event>
 5    1  0.1764318E-003  0.9118800E+02  0.7818608E-02  0.1130116E+00
         25   -1    0    0    0    0  0.00000000000E+00  0.00000000000E+00  0.99999998245E-14  0.12500000000E+03  0.12500000000E+03 0.  0.
        -13    1    3    3    0    0 -0.40126852145E+02 -0.50012986747E+00 -0.83078715395E+01  0.40981047894E+02  0.10566000000E+00 0.  1.
         23    2    1    0    0    0 -0.12078084422E+02 -0.20763029168E+02 -0.33496887570E+02  0.83780769288E+02  0.72939648492E+02 0.  0.
         13    1    3    3    0    0  0.28048767722E+02 -0.20262899301E+02 -0.25189016031E+02  0.42799721395E+02  0.10566000000E+00 0. -1.
         22    1    1    0    0    0  0.12078084422E+02  0.20763029168E+02  0.33496887570E+02  0.41219230712E+02  0.00000000000E+00 0. -1.
</event>
<event>
 5    1  0.1764318E-003  0.9118800E+02  0.7818608E-02  0.1130116E+00
         25   -1    0    0    0    0  0.00000000000E+00  0.00000000000E+00  0.99999998245E-14  0.12500000000E+03  0.12500000000E+03 0.  0.
        -13    1    3    3    0    0  0.13040037272E+02  0.24654265486E+02 -0.17057138529E+02  0.32693004107E+02  0.10566000000E+00 0. -1.
         23    2    1    0    0    0 -0.15277466116E+02 -0.26841184403E+02  0.77175851651E+00  0.94105894376E+02  0.88890233401E+02 0.  0.
         13    1    3    3    0    0 -0.28317503388E+02 -0.51495449889E+02  0.17828897045E+02  0.61412890270E+02  0.10566000000E+00 0.  1.
         22    1    1    0    0    0  0.15277466116E+02  0.26841184403E+02 -0.77175851651E+00  0.30894105624E+02  0.00000000000E+00 0. -1.
</event>
<event>
 5    1  0.1764318E-003  0.9118800E+02  0.7818608E-02  0.1130116E+00
         25   -1    0    0    0    0  0.00000000000E+00  0.00000000000E+00  0.99999998245E-14  0.12500000000E+03  0.12500000000E+03 0.  0.
        -13    1    3    3    0    0  0.37451069324E+02  0.94599589745E+01 -0.33010006504E+02  0.50810875910E+02  0.10566000000E+00 0. -1.
         23    2    1    0    0    0  0.17788201636E+02  0.22175798661E+02  0.56554577353E+01  0.96014307566E+02  0.91534566648E+02 0.  0.
         13    1    3    3    0    0 -0.19662867688E+02  0.12715839687E+02  0.38665464239E+02  0.45203431656E+02  0.10566000000E+00 0.  1.
         22    1    1    0    0    0 -0.17788201636E+02 -0.22175798661E+02 -0.56554577353E+01  0.28985692434E+02  0.00000000000E+00 0. -1.
</event>
<event>
 5    1  0.1764318E-003  0.9118800E+02  0.7818608E-02  0.1130116E+00
         25   -1    0    0    0    0  0.00000000000E+00  0.00000000000E+00  0.99999998245E-14  0.12500000000E+03  0.12500000000E+03 0.  0.
        -13    1    3    3    0    0 -0.29746481233E+02 -0.17969286369E+02  0.96727229844E+01  0.36073828911E+02  0.10566000000E+00 0.  1.
         23    2    1    0    0    0  0.20633781279E+02  0.16071022985E+02 -0.43871953771E+01  0.98480607229E+02  0.94842774144E+02 0.  0.
         13    1    3    3    0    0  0.50380262512E+02  0.34040309354E+02 -0.14059918361E+02  0.62406778318E+02  0.10566000000E+00 0. -1.
         22    1    1    0    0    0 -0.20633781279E+02 -0.16071022985E+02  0.43871953771E+01  0.26519392771E+02  0.00000000000E+00 0. -1.
</event>
<event>
 5    1  0.1764318E-003  0.9118800E+02  0.7818608E-02  0.1130116E+00
         25   -1    0    0    0    0  0.00000000000E+00  0.00000000000E+00  0.99999998245E-14  0.12500000000E+03  0.12500000000E+03 0.  0.
        -13    1    3    3    0    0  0.34879046005E+02 -0.88223240204E+01 -0.50781940967E+02  0.62235021843E+02  0.10566000000E+00 0. -1.
         23    2    1    0    0    0  0.15049024937E+02 -0.79908510807E+01 -0.23532552077E+02  0.95946465623E+02  0.91441874465E+02 0.  0.
         13    1    3    3    0    0 -0.19830021069E+02  0.83147293976E+00  0.27249388890E+02  0.33711443780E+02  0.10566000000E+00 0.  1.
         22    1    1    0    0    0 -0.15049024937E+02  0.79908510807E+01  0.23532552077E+02  0.29053534377E+02  0.00000000000E+00 0. -1.
</event>
<event>
 5    1  0.1764318E-003  0.9118800E+02  0.7818608E-02  0.1130116E+00
         25   -1    0    0    0    0  0.00000000000E+00  0.00000000000E+00  0.99999998245E-14  0.12500000000E+03  0.12500000000E+03 0.  0.
        -13    1    3    3    0    0  0.16329357354E+02 -0.48276207053E+01 -0.37876097943E+02  0.41527867664E+02  0.10566000000E+00 0.  1.
         23    2    1    0    0    0  0.24718495798E+02  0.48623306691E+01  0.14827843032E+02  0.95767976070E+02  0.91197554888E+02 0.  0.
         13    1    3    3    0    0  0.83891384435E+01  0.96899513744E+01  0.52703940976E+02  0.54240108406E+02  0.10566000000E+00 0. -1.
         22    1    1    0    0    0 -0.24718495798E+02 -0.48623306691E+01 -0.14827843032E+02  0.29232023930E+02  0.00000000000E+00 0. -1.
</event>
<event>
 5    1  0.1764318E-003  0.9118800E+02  0.7818608E-02  0.1130116E+00
         25   -1    0    0    0    0  0.00000000000E+00  0.00000000000E+00  0.99999998245E-14  0.12500000000E+03  0.12500000000E+03 0.  0.
        -13    1    3    3    0    0  0.32863404516E+02  0.18270629483E+02  0.17599266736E+01  0.37642100951E+02  0.10566000000E+00 0.  1.
         23    2    1    0    0    0 -0.10225674827E+02 -0.10938888520E+02 -0.24759723535E+02  0.96064422984E+02  0.91602978915E+02 0.  0.
         13    1    3    3    0    0 -0.43089079343E+02 -0.29209518002E+02 -0.26519650208E+02  0.58422322033E+02  0.10566000000E+00 0. -1.
         22    1    1    0    0    0  0.10225674827E+02  0.10938888520E+02  0.24759723535E+02  0.28935577016E+02  0.00000000000E+00 0. -1.
</event>
<event>
 5    1  0.1764318E-003  0.9118800E+02  0.7818608E-02  0.1130116E+00
         25   -1    0    0    0    0  0.00000000000E+00  0.00000000000E+00  0.99999998245E-14  0.12500000000E+03  0.12500000000E+03 0.  0.
        -13    1    3    3    0    0 -0.19445073328E+02  0.32139291214E+02  0.20162034193E+02  0.42632894616E+02  0.10566000000E+00 0.  1.
         23    2    1    0    0    0  0.30817868564E+01 -0.15965885466E+02  0.24133414318E+02  0.95899680490E+02  0.91377897341E+02 0.  0.
         13    1    3    3    0    0  0.22526860184E+02 -0.48105176680E+02  0.39713801246E+01  0.53266785874E+02  0.10566000000E+00 0. -1.
         22    1    1    0    0    0 -0.30817868564E+01  0.15965885466E+02 -0.24133414318E+02  0.29100319510E+02  0.00000000000E+00 0. -1.
</event>
<event>
 5    1  0.1764318E-003  0.9118800E+02  0.7818608E-02  0.1130116E+00
         25   -1    0    0    0    0  0.00000000000E+00  0.00000000000E+00  0.99999998245E-14  0.12500000000E+03  0.12500000000E+03 0.  0.
        -13    1    3    3    0    0  0.23484136079E+02  0.24434190725E+02  0.16129414042E+01  0.33928558292E+02  0.10566000000E+00 0. -1.
         23    2    1    0    0    0 -0.16699459646E+02 -0.96657279808E+01  0.26506625198E+02  0.92214341104E+02  0.86189241069E+02 0.  0.
         13    1    3    3    0    0 -0.40183595725E+02 -0.34099918706E+02  0.24893683793E+02  0.58285782812E+02  0.10566000000E+00 0.  1.
         22    1    1    0    0    0  0.16699459646E+02  0.96657279808E+01 -0.26506625198E+02  0.32785658896E+02  0.00000000000E+00 0.  1.
</event>
<event>
 5    1  0.1764318E-003  0.9118800E+02  0.7818608E-02  0.1130116E+00
         25   -1    0    0    0    0  0.00000000000E+00  0.00000000000E+00  0.99999998245E-14  0.12500000000E+03  0.12500000000E+03 0.  0.
        -13    1    3    3    0    0 -0.33626450826E+02 -0.18723912900E+02  0.38488784861E+02  0.54430881249E+02  0.10566000000E+00 0. -1.
         23    2    1    0    0    0 -0.96972252913E+01 -0.28838004298E+01  0.40554805401E+02  0.83202335898E+02  0.71941531639E+02 0.  0.
         13    1    3    3    0    0  0.23929225534E+02  0.15840112471E+02  0.20660205397E+01  0.28771454650E+02  0.10566000000E+00 0.  1.
         22    1    1    0    0    0  0.96972252913E+01  0.28838004298E+01 -0.40554805401E+02  0.41797664102E+02  0.00000000000E+00 0. -1.
</event>
<event>
 5    1  0.1764318E-003  0.9118800E+02  0.7818608E-02  0.1130116E+00
         25   -1    0    0    0    0  0.00000000000E+00  0.00000000000E+00  0.99999998245E-14  0.12500000000E+03  0.12500000000E+03 0.  0.
        -13    1    3    3    0    0  0.94535744391E+01  0.19815943899E+02  0.29102031792E+02  0.36455193330E+02  0.10566000000E+00 0.  1.
         23    2    1    0    0    0 -0.71612769189E+01 -0.28708248772E+02  0.28912513777E-01  0.95412024899E+02  0.90708358075E+02 0.  0.
         13    1    3    3    0    0 -0.16614851358E+02 -0.48524192671E+02 -0.29073119278E+02  0.58956831569E+02  0.10566000000E+00 0. -1.
         22    1    1    0    0    0  0.71612769189E+01  0.28708248772E+02 -0.28912513777E-01  0.29587975101E+02  0.00000000000E+00 0. -1.
</event>
<event>
 5    1  0.1764318E-003  0.9118800E+02  0.7818608E-02  0.1130116E+00
         25   -1    0    0    0    0  0.00000000000E+00  0.00000000000E+00  0.99999998245E-14  0.12500000000E+03  0.12500000000E+03 0.  0.
        -13    1    3    3    0    0  0.21409618393E+02 -0.34749408108E+02 -0.20808408448E+02  0.45813689545E+02  0.10566000000E+00 0.  1.
         23    2    1    0    0    0  0.25562866509E+02  0.12854522989E+02 -0.73288445942E+01  0.95463397817E+02  0.90779124551E+02 0.  0.
         13    1    3    3    0    0  0.41532481162E+01  0.47603931096E+02  0.13479563854E+02  0.49649708272E+02  0.10566000000E+00 0. -1.
         22    1    1    0    0    0 -0.25562866509E+02 -0.12854522989E+02  0.73288445942E+01  0.29536602183E+02  0.00000000000E+00 0. -1.
</event>
<event>
 5    1  0.1764318E-003  0.9118800E+02  0.7818608E-02  0.1130116E+00
         25   -1    0    0    0    0  0.00000000000E+00  0.00000000000E+00  0.99999998245E-14  0.12500000000E+03  0.12500000000E+03 0.  0.
        -13    1    3    3    0    0  0.16973888011E+02  0.30623210123E+02  0.24489217990E+01  0.35098465130E+02  0.10566000000E+00 0. -1.
         23    2    1    0    0    0  0.53030246248E+01 -0.28471872213E+02  0.59378991425E+01  0.95436031665E+02  0.90741434396E+02 0.  0.
         13    1    3    3    0    0 -0.11670863386E+02 -0.59095082336E+02  0.34889773436E+01  0.60337566535E+02  0.10566000000E+00 0.  1.
         22    1    1    0    0    0 -0.53030246248E+01  0.28471872213E+02 -0.59378991425E+01  0.29563968335E+02  0.00000000000E+00 0.  1.
</event>
<event>
 5    1  0.1764318E-003  0.9118800E+02  0.7818608E-02  0.1130116E+00
         25   -1    0    0    0    0  0.00000000000E+00  0.00000000000E+00  0.99999998245E-14  0.12500000000E+03  0.12500000000E+03 0.  0.
        -13    1    3    3    0    0 -0.23497200112E+02  0.14853706401E+02  0.54049205995E+00  0.27803854097E+02  0.10566000000E+00 0.  1.
         23    2    1    0    0    0  0.36064840224E+02  0.93974263831E+01 -0.20816408442E+01  0.87672830919E+02  0.79329740512E+02 0.  0.
         13    1    3    3    0    0  0.59562040336E+02 -0.54562800179E+01 -0.26221329042E+01  0.59868976822E+02  0.10566000000E+00 0. -1.
         22    1    1    0    0    0 -0.36064840224E+02 -0.93974263831E+01  0.20816408442E+01  0.37327169081E+02  0.00000000000E+00 0. -1.
</event>
<event>
 5    1  0.1764318E-003  0.9118800E+02  0.7818608E-02  0.1130116E+00
         25   -1    0    0    0    0  0.00000000000E+00  0.00000000000E+00  0.99999998245E-14  0.12500000000E+03  0.12500000000E+03 0.  0.
        -13    1    3    3    0    0 -0.18101189381E+02 -0.41487585511E+02  0.23335382797E+02  0.50925671943E+02  0.10566000000E+00 0. -1.
         23    2    1    0    0    0  0.19093726528E+02 -0.18410362167E+02  0.83214538844E+01  0.97201467259E+02  0.93141649194E+02 0.  0.
         13    1    3    3    0    0  0.37194915908E+02  0.23077223344E+02 -0.15013928913E+02  0.46275795316E+02  0.10566000000E+00 0.  1.
         22    1    1    0    0    0 -0.19093726528E+02  0.18410362167E+02 -0.83214538844E+01  0.27798532741E+02  0.00000000000E+00 0.  1.
</event>
<event>
 5    1  0.1764318E-003  0.9118800E+02  0.7818608E-02  0.1130116E+00
         25   -1    0    0    0    0  0.00000000000E+00  0.00000000000E+00  0.99999998245E-14  0.12500000000E+03  0.12500000000E+03 0.  0.
        -13    1    3    3    0    0  0.10231839199E+02  0.10854399560E+02 -0.35149521325E+02  0.38183877967E+02  0.10566000000E+00 0. -1.
         23    2    1    0    0    0  0.19158657822E+02 -0.10765901289E+01  0.21161930855E+02  0.96433576819E+02  0.92105342976E+02 0.  0.
         13    1    3    3    0    0  0.89268186233E+01 -0.11930989689E+02  0.56311452180E+02  0.58249698852E+02  0.10566000000E+00 0.  1.
         22    1    1    0    0    0 -0.19158657822E+02  0.10765901289E+01 -0.21161930855E+02  0.28566423181E+02  0.00000000000E+00 0.  1.
</event>
<event>
 5    1  0.1764318E-003  0.9118800E+02  0.7818608E-02  0.1130116E+00
         25   -1    0    0    0    0  0.00000000000E+00  0.00000000000E+00  0.99999998245E-14  0.12500000000E+03  0.12500000000E+03 0.  0.
        -13    1    3    3    0    0 -0.55199870869E+01 -0.27961557926E+02 -0.18537466590E+02  0.33999526624E+02  0.10566000000E+00 0. -1.
         23    2    1    0    0    0  0.51928629836E+01  0.18638037174E+02  0.21291959658E+02  0.96230401432E+02  0.91829191209E+02 0.  0.
         13    1    3    3    0    0  0.10712850070E+02  0.46599595099E+02  0.39829426248E+02  0.62230874808E+02  0.10566000000E+00 0.  1.
         22    1    1    0    0    0 -0.51928629836E+01 -0.18638037174E+02 -0.21291959658E+02  0.28769598568E+02  0.00000000000E+00 0.  1.
</event>
<event>
 5    1  0.1764318E-003  0.9118800E+02  0.7818608E-02  0.1130116E+00
         25   -1    0    0    0    0  0.00000000000E+00  0.00000000000E+00  0.99999998245E-14  0.12500000000E+03  0.12500000000E+03 0.  0.
        -13    1    3    3    0    0 -0.11335890655E+02 -0.18703779562E+02 -0.52778334000E+02  0.57130530286E+02  0.10566000000E+00 0. -1.
         23    2    1    0    0    0  0.10724343624E+02  0.62690034146E+00 -0.26083008715E+02  0.96791350727E+02  0.92589619730E+02 0.  0.
         13    1    3    3    0    0  0.22060234278E+02  0.19330679904E+02  0.26695325285E+02  0.39660820441E+02  0.10566000000E+00 0.  1.
         22    1    1    0    0    0 -0.10724343624E+02 -0.62690034146E+00  0.26083008715E+02  0.28208649273E+02  0.00000000000E+00 0. -1.
</event>
<event>
 5    1  0.1764318E-003  0.9118800E+02  0.7818608E-02  0.1130116E+00
         25   -1    0    0    0    0  0.00000000000E+00  0.00000000000E+00  0.99999998245E-14  0.12500000000E+03  0.12500000000E+03 0.  0.
        -13    1    3    3    0    0 -0.49230588047E+02  0.20054844700E+01  0.23632261573E+02  0.54645838987E+02  0.10566000000E+00 0. -1.
         23    2    1    0    0    0 -0.26248821589E+02 -0.11276250460E+02 -0.74068321330E+01  0.95487026217E+02  0.90811654287E+02 0.  0.
         13    1    3    3    0    0  0.22981766458E+02 -0.13281734930E+02 -0.31039093706E+02  0.40841187231E+02  0.10566000000E+00 0.  1.
         22    1    1    0    0    0  0.26248821589E+02  0.11276250460E+02  0.74068321330E+01  0.29512973783E+02  0.00000000000E+00 0.  1.
</event>
<event>
 5    1  0.1764318E-003  0.9118800E+02  0.7818608E-02  0.1130116E+00
         25   -1    0    0    0    0  0.00000000000E+00  0.00000000000E+00  0.99999998245E-14  0.12500000000E+03  0.12500000000E+03 0.  0.
        -13    1    3    3    0    0 -0.31538144305E+02  0.85256711422E+00 -0.52799693620E+02  0.61507724940E+02  0.10566000000E+00 0.  1.
         23    2    1    0    0    0 -0.15191198224E+02  0.81721585950E+01 -0.23496781884E+02  0.95851150306E+02  0.91311486553E+02 0.  0.
         13    1    3    3    0    0  0.16346946081E+02  0.73195914808E+01  0.29302911736E+02  0.34343425366E+02  0.10566000000E+00 0. -1.
         22    1    1    0    0    0  0.15191198224E+02 -0.81721585950E+01  0.23496781884E+02  0.29148849694E+02  0.00000000000E+00 0.  1.
</event>
<event>
 5    1  0.1764318E-003  0.9118800E+02  0.7818608E-02  0.1130116E+00
         25   -1    0    0    0    0  0.00000000000E+00  0.00000000000E+00  0.99999998245E-14  0.12500000000E+03  0.12500000000E+03 0.  0.
        -13    1    3    3    0    0 -0.31186837415E+02 -0.96392863354E+00 -0.34158314775E+02  0.46263912704E+02  0.10566000000E+00 0. -1.
         23    2    1    0    0    0  0.54986001333E+01  0.24977925210E+02 -0.16628462445E+02  0.94493654520E+02  0.89433850583E+02 0.  0.
         13    1    3    3    0    0  0.36685437548E+02  0.25941853844E+02  0.17529852330E+02  0.48229741817E+02  0.10566000000E+00 0.  1.
         22    1    1    0    0    0 -0.54986001333E+01 -0.24977925210E+02  0.16628462445E+02  0.30506345480E+02  0.00000000000E+00 0.  1.
</event>
<event>
 5    1  0.1764318E-003  0.9118800E+02  0.7818608E-02  0.1130116E+00
         25   -1    0    0    0    0  0.00000000000E+00  0.00000000000E+00  0.99999998245E-14  0.12500000000E+03  0.12500000000E+03 0.  0.
        -13    1    3    3    0    0 -0.38720353836E+02  0.28738494424E+02 -0.29282367751E+02  0.56414848117E+02  0.10566000000E+00 0. -1.
         23    2    1    0    0    0 -0.33200301971E+01  0.11347514642E+02 -0.26532756223E+02  0.95952180085E+02  0.91449685736E+02 0.  0.
         13    1    3    3    0    0  0.35400323639E+02 -0.17390979783E+02  0.27496115287E+01  0.39537331967E+02  0.10566000000E+00 0.  1.
         22    1    1    0    0    0  0.33200301971E+01 -0.11347514642E+02  0.26532756223E+02  0.29047819915E+02  0.00000000000E+00 0. -1.
</event>
<event>
 5    1  0.1764318E-003  0.9118800E+02  0.7818608E-02  0.1130116E+00
         25   -1    0    0    0    0  0.00000000000E+00  0.00000000000E+00  0.99999998245E-14  0.12500000000E+03  0.12500000000E+03 0.  0.
        -13    1    3    3    0    0 -0.44354617536E+02 -0.13057681578E+02  0.41721759097E+02  0.62278017720E+02  0.10566000000E+00 0.  1.
         23    2    1    0    0    0 -0.22370260643E+02 -0.68134708800E+01  0.16115244874E+02  0.96600122113E+02  0.92331091883E+02 0.  0.
         13    1    3    3    0    0  0.21984356893E+02  0.62442106980E+01 -0.25606514224E+02  0.34322104393E+02  0.10566000000E+00 0. -1.
         22    1    1    0    0    0  0.22370260643E+02  0.68134708800E+01 -0.16115244874E+02  0.28399877887E+02  0.00000000000E+00 0.  1.
</event>
<event>
 5    1  0.1764318E-003  0.9118800E+02  0.7818608E-02  0.1130116E+00
         25   -1    0    0    0    0  0.00000000000E+00  0.00000000000E+00  0.99999998245E-14  0.12500000000E+03  0.12500000000E+03 0.  0.
        -13    1    3    3    0    0  0.14314114735E+02 -0.33410106217E+02 -0.31102613237E+02  0.47838402903E+02  0.10566000000E+00 0. -1.
         23    2    1    0    0    0 -0.18317158259E+02 -0.32960234774E+01 -0.26691587723E+02  0.92460440805E+02  0.86545422763E+02 0.  0.
         13    1    3    3    0    0 -0.32631272994E+02  0.30114082739E+02  0.44110255142E+01  0.44622037902E+02  0.10566000000E+00 0.  1.
         22    1    1    0    0    0  0.18317158259E+02  0.32960234774E+01  0.26691587723E+02  0.32539559195E+02  0.00000000000E+00 0.  1.
</event>
<event>
 5    1  0.1764318E-003  0.9118800E+02  0.7818608E-02  0.1130116E+00
         25   -1    0    0    0    0  0.00000000000E+00  0.00000000000E+00  0.99999998245E-14  0.12500000000E+03  0.12500000000E+03 0.  0.
        -13    1    3    3    0    0  0.49864781999E+02 -0.22542165525E+02 -0.22365355130E+02  0.59117391557E+02  0.10566000000E+00 0. -1.
         23    2    1    0    0    0  0.26613867189E+02  0.37362283918E+01 -0.10203488983E+02  0.96253373819E+02  0.91860456426E+02 0.  0.
         13    1    3    3    0    0 -0.23250914810E+02  0.26278393917E+02  0.12161866147E+02  0.37135982262E+02  0.10566000000E+00 0.  1.
         22    1    1    0    0    0 -0.26613867189E+02 -0.37362283918E+01  0.10203488983E+02  0.28746626181E+02  0.00000000000E+00 0. -1.
</event>
<event>
 5    1  0.1764318E-003  0.9118800E+02  0.7818608E-02  0.1130116E+00
         25   -1    0    0    0    0  0.00000000000E+00  0.00000000000E+00  0.99999998245E-14  0.12500000000E+03  0.12500000000E+03 0.  0.
        -13    1    3    3    0    0  0.46514687216E+02  0.36088139779E+02  0.15029293732E+02  0.60760684605E+02  0.10566000000E+00 0.  1.
         23    2    1    0    0    0  0.27573386855E+02  0.16146551756E+02 -0.17853118795E+01  0.92997029282E+02  0.87316993309E+02 0.  0.
         13    1    3    3    0    0 -0.18941300361E+02 -0.19941588024E+02 -0.16814605612E+02  0.32236344678E+02  0.10566000000E+00 0. -1.
         22    1    1    0    0    0 -0.27573386855E+02 -0.16146551756E+02  0.17853118795E+01  0.32002970718E+02  0.00000000000E+00 0.  1.
</event>
<event>
 5    1  0.1764318E-003  0.9118800E+02  0.7818608E-02  0.1130116E+00
         25   -1    0    0    0    0  0.00000000000E+00  0.00000000000E+00  0.99999998245E-14  0.12500000000E+03  0.12500000000E+03 0.  0.
        -13    1    3    3    0    0  0.19799524338E+02  0.14726490328E+02  0.37016178293E+02  0.44487068917E+02  0.10566000000E+00 0.  1.
         23    2    1    0    0    0  0.80782571112E+01  0.20622969579E+02 -0.15076584366E+02  0.98206931711E+02  0.94481389319E+02 0.  0.
         13    1    3    3    0    0 -0.11721267227E+02  0.58964792509E+01 -0.52092762660E+02  0.53719862793E+02  0.10566000000E+00 0. -1.
         22    1    1    0    0    0 -0.80782571112E+01 -0.20622969579E+02  0.15076584366E+02  0.26793068289E+02  0.00000000000E+00 0. -1.
</event>
<event>
 5    1  0.1764318E-003  0.9118800E+02  0.7818608E-02  0.1130116E+00
         25   -1    0    0    0    0  0.00000000000E+00  0.00000000000E+00  0.99999998245E-14  0.12500000000E+03  0.12500000000E+03 0.  0.
        -13    1    3    3    0    0 -0.55731374332E+02 -0.76347963389E+01  0.16669564690E+02  0.58669939075E+02  0.10566000000E+00 0.  1.
         23    2    1    0    0    0 -0.35108351680E+02  0.92923826086E+01  0.15881415767E+02  0.85362087605E+02  0.75601070769E+02 0.  0.
         13    1    3    3    0    0  0.20623022652E+02  0.16927178947E+02 -0.78814892292E+00  0.26692148531E+02  0.10566000000E+00 0. -1.
         22    1    1    0    0    0  0.35108351680E+02 -0.92923826086E+01 -0.15881415767E+02  0.39637912395E+02  0.00000000000E+00 0.  1.
</event>
<event>
 5    1  0.1764318E-003  0.9118800E+02  0.7818608E-02  0.1130116E+00
         25   -1    0    0    0    0  0.00000000000E+00  0.00000000000E+00  0.99999998245E-14  0.12500000000E+03  0.12500000000E+03 0.  0.
        -13    1    3    3    0    0  0.11822224069E+02 -0.43396216320E+02  0.14970303287E+02  0.47403773240E+02  0.10566000000E+00 0.  1.
         23    2    1    0    0    0  0.28466412147E+02 -0.47695778050E+00  0.13575527678E+02  0.93458613521E+02  0.87975299831E+02 0.  0.
         13    1    3    3    0    0  0.16644188078E+02  0.42919258539E+02 -0.13947756096E+01  0.46054840282E+02  0.10566000000E+00 0. -1.
         22    1    1    0    0    0 -0.28466412147E+02  0.47695778050E+00 -0.13575527678E+02  0.31541386479E+02  0.00000000000E+00 0. -1.
</event>
<event>
 5    1  0.1764318E-003  0.9118800E+02  0.7818608E-02  0.1130116E+00
         25   -1    0    0    0    0  0.00000000000E+00  0.00000000000E+00  0.99999998245E-14  0.12500000000E+03  0.12500000000E+03 0.  0.
        -13    1    3    3    0    0 -0.44482096595E+01 -0.16755399310E+02  0.35373661878E+02  0.39393363577E+02  0.10566000000E+00 0. -1.
         23    2    1    0    0    0 -0.37169405595E+02 -0.59090023578E+01  0.20986253775E+01  0.87305368424E+02  0.78748600661E+02 0.  0.
         13    1    3    3    0    0 -0.32721195936E+02  0.10846396952E+02 -0.33275036501E+02  0.47912004847E+02  0.10566000000E+00 0.  1.
         22    1    1    0    0    0  0.37169405595E+02  0.59090023578E+01 -0.20986253775E+01  0.37694631576E+02  0.00000000000E+00 0. -1.
</event>
<event>
 5    1  0.1764318E-003  0.9118800E+02  0.7818608E-02  0.1130116E+00
         25   -1    0    0    0    0  0.00000000000E+00  0.00000000000E+00  0.99999998245E-14  0.12500000000E+03  0.12500000000E+03 0.  0.
        -13    1    3    3    0    0  0.12329261592E+02  0.15739229545E+02  0.55451623785E+02  0.58945973421E+02  0.10566000000E+00 0.  1.
         23    2    1    0    0    0  0.18852008483E+02  0.12310879646E+02  0.20885125458E+02  0.94289343105E+02  0.89147831024E+02 0.  0.
         13    1    3    3    0    0  0.65227468906E+01 -0.34283498995E+01 -0.34566498327E+02  0.35343369684E+02  0.10566000000E+00 0. -1.
         22    1    1    0    0    0 -0.18852008483E+02 -0.12310879646E+02 -0.20885125458E+02  0.30710656895E+02  0.00000000000E+00 0.  1.
</event>
<event>
 5    1  0.1764318E-003  0.9118800E+02  0.7818608E-02  0.1130116E+00
         25   -1    0    0    0    0  0.00000000000E+00  0.00000000000E+00  0.99999998245E-14  0.12500000000E+03  0.12500000000E+03 0.  0.
        -13    1    3    3    0    0 -0.57603802759E+01 -0.42740562133E+02 -0.42011832107E+02  0.60207498150E+02  0.10566000000E+00 0. -1.
         23    2    1    0    0    0 -0.11987116540E+02 -0.10523231667E+02 -0.18487662431E+02  0.10058232137E+03  0.97573461258E+02 0.  0.
         13    1    3    3    0    0 -0.62267362637E+01  0.32217330466E+02  0.23524169676E+02  0.40374823218E+02  0.10566000000E+00 0.  1.
         22    1    1    0    0    0  0.11987116540E+02  0.10523231667E+02  0.18487662431E+02  0.24417678633E+02  0.00000000000E+00 0. -1.
</event>
<event>
 5    1  0.1764318E-003  0.9118800E+02  0.7818608E-02  0.1130116E+00
         25   -1    0    0    0    0  0.00000000000E+00  0.00000000000E+00  0.99999998245E-14  0.12500000000E+03  0.12500000000E+03 0.  0.
        -13    1    3    3    0    0  0.30031526552E+02 -0.13843473969E+02  0.29760937048E+02  0.44488862613E+02  0.10566000000E+00 0.  1.
         23    2    1    0    0    0 -0.18636676400E+02 -0.18026825409E+02  0.11448476407E+02  0.96656398366E+02  0.92407248588E+02 0.  0.
         13    1    3    3    0    0 -0.48668202951E+02 -0.41833514399E+01 -0.18312460642E+02  0.52167535753E+02  0.10566000000E+00 0. -1.
         22    1    1    0    0    0  0.18636676400E+02  0.18026825409E+02 -0.11448476407E+02  0.28343601634E+02  0.00000000000E+00 0. -1.
</event>
<event>
 5    1  0.1764318E-003  0.9118800E+02  0.7818608E-02  0.1130116E+00
         25   -1    0    0    0    0  0.00000000000E+00  0.00000000000E+00  0.99999998245E-14  0.12500000000E+03  0.12500000000E+03 0.  0.
        -13    1    3    3    0    0  0.30493295873E+02 -0.29285164000E+02  0.17456668876E+02  0.45740664359E+02  0.10566000000E+00 0. -1.
         23    2    1    0    0    0  0.80086855243E+01 -0.16634274275E+02 -0.24091947803E+02  0.94647733636E+02  0.89648945388E+02 0.  0.
         13    1    3    3    0    0 -0.22484610349E+02  0.12650889726E+02 -0.41548616678E+02  0.48907069277E+02  0.10566000000E+00 0.  1.
         22    1    1    0    0    0 -0.80086855243E+01  0.16634274275E+02  0.24091947803E+02  0.30352266364E+02  0.00000000000E+00 0. -1.
</event>
<event>
 5    1  0.1764318E-003  0.9118800E+02  0.7818608E-02  0.1130116E+00
         25   -1    0    0    0    0  0.00000000000E+00  0.00000000000E+00  0.99999998245E-14  0.12500000000E+03  0.12500000000E+03 0.  0.
        -13    1    3    3    0    0  0.45789557402E+02 -0.24045882851E+02 -0.34401073302E+02  0.62115481625E+02  0.10566000000E+00 0. -1.
         23    2    1    0    0    0  0.22528946138E+02 -0.76505501881E+01 -0.19491282820E+02  0.94242977416E+02  0.89082794939E+02 0.  0.
         13    1    3    3    0    0 -0.23260611264E+02  0.16395332663E+02  0.14909790483E+02  0.32127495791E+02  0.10566000000E+00 0.  1.
         22    1    1    0    0    0 -0.22528946138E+02  0.76505501881E+01  0.19491282820E+02  0.30757022584E+02  0.00000000000E+00 0. -1.
</event>
<event>
 5    1  0.1764318E-003  0.9118800E+02  0.7818608E-02  0.1130116E+00
         25   -1    0    0    0    0  0.00000000000E+00  0.00000000000E+00  0.99999998245E-14  0.12500000000E+03  0.12500000000E+03 0.  0.
        -13    1    3    3    0    0 -0.25501863211E+01  0.13184103565E+02  0.53917843636E+02  0.55564998547E+02  0.10566000000E+00 0.  1.
         23    2    1    0    0    0 -0.13011275905E+02  0.20693346438E+02  0.15567388820E+02  0.96019808798E+02  0.91542078846E+02 0.  0.
         13    1    3    3    0    0 -0.10461089583E+02  0.75092428723E+01 -0.38350454816E+02  0.40454810251E+02  0.10566000000E+00 0. -1.
         22    1    1    0    0    0  0.13011275905E+02 -0.20693346438E+02 -0.15567388820E+02  0.28980191202E+02  0.00000000000E+00 0.  1.
</event>
<event>
 5    1  0.1764318E-003  0.9118800E+02  0.7818608E-02  0.1130116E+00
         25   -1    0    0    0    0  0.00000000000E+00  0.00000000000E+00  0.99999998245E-14  0.12500000000E+03  0.12500000000E+03 0.  0.
        -13    1    3    3    0    0 -0.20504665731E+02  0.83197064407E+01  0.29598566518E+02  0.36955989176E+02  0.10566000000E+00 0.  1.
         23    2    1    0    0    0  0.14810798257E+01 -0.15430483311E+02 -0.22133651163E+02  0.97977936303E+02  0.94177938370E+02 0.  0.
         13    1    3    3    0    0  0.21985745557E+02 -0.23750189751E+02 -0.51732217681E+02  0.61021947127E+02  0.10566000000E+00 0. -1.
         22    1    1    0    0    0 -0.14810798257E+01  0.15430483311E+02  0.22133651163E+02  0.27022063697E+02  0.00000000000E+00 0. -1.
</event>
<event>
 5    1  0.1764318E-003  0.9118800E+02  0.7818608E-02  0.1130116E+00
         25   -1    0    0    0    0  0.00000000000E+00  0.00000000000E+00  0.99999998245E-14  0.12500000000E+03  0.12500000000E+03 0.  0.
        -13    1    3    3    0    0  0.37808967896E+02  0.42347057159E+01 -0.37846173625E+02  0.53663719662E+02  0.10566000000E+00 0. -1.
         23    2    1    0    0    0 -0.19885734975E+01  0.12232181102E+02 -0.26393802006E+02  0.95841579888E+02  0.91298384280E+02 0.  0.
         13    1    3    3    0    0 -0.39797541394E+02  0.79974753859E+01  0.11452371619E+02  0.42177860226E+02  0.10566000000E+00 0.  1.
         22    1    1    0    0    0  0.19885734975E+01 -0.12232181102E+02  0.26393802006E+02  0.29158420112E+02  0.00000000000E+00 0. -1.
</event>
<event>
 5    1  0.1764318E-003  0.9118800E+02  0.7818608E-02  0.1130116E+00
         25   -1    0    0    0    0  0.00000000000E+00  0.00000000000E+00  0.99999998245E-14  0.12500000000E+03  0.12500000000E+03 0.  0.
        -13    1    3    3    0    0 -0.13294460615E+02 -0.33066323760E+02  0.15285829254E+02  0.38778759521E+02  0.10566000000E+00 0.  1.
         23    2    1    0    0    0  0.57461809368E+00  0.53151388508E+00 -0.28953929260E+02  0.96035492192E+02  0.91563491894E+02 0.  0.
         13    1    3    3    0    0  0.13869078708E+02  0.33597837645E+02 -0.44239758514E+02  0.57256732670E+02  0.10566000000E+00 0. -1.
         22    1    1    0    0    0 -0.57461809368E+00 -0.53151388508E+00  0.28953929260E+02  0.28964507808E+02  0.00000000000E+00 0. -1.
</event>
<event>
 5    1  0.1764318E-003  0.9118800E+02  0.7818608E-02  0.1130116E+00
         25   -1    0    0    0    0  0.00000000000E+00  0.00000000000E+00  0.99999998245E-14  0.12500000000E+03  0.12500000000E+03 0.  0.
        -13    1    3    3    0    0 -0.31168876482E+02  0.19489851583E+02  0.13748472280E+02  0.39247736622E+02  0.10566000000E+00 0. -1.
         23    2    1    0    0    0  0.23732960994E+02  0.16956176087E+02  0.29558077869E+00  0.95830620284E+02  0.91283377846E+02 0.  0.
         13    1    3    3    0    0  0.54901837476E+02 -0.25336754963E+01 -0.13452891501E+02  0.56582883662E+02  0.10566000000E+00 0.  1.
         22    1    1    0    0    0 -0.23732960994E+02 -0.16956176087E+02 -0.29558077869E+00  0.29169379716E+02  0.00000000000E+00 0.  1.
</event>
<event>
 5    1  0.1764318E-003  0.9118800E+02  0.7818608E-02  0.1130116E+00
         25   -1    0    0    0    0  0.00000000000E+00  0.00000000000E+00  0.99999998245E-14  0.12500000000E+03  0.12500000000E+03 0.  0.
        -13    1    3    3    0    0 -0.92393710391E+01 -0.38053045879E+02  0.30906711295E+02  0.49886233020E+02  0.10566000000E+00 0.  1.
         23    2    1    0    0    0 -0.16230625191E+02  0.72139949680E+01  0.22298779738E+02  0.96491922280E+02  0.92184492025E+02 0.  0.
         13    1    3    3    0    0 -0.69912541521E+01  0.45267040847E+02 -0.86079315567E+01  0.46605689260E+02  0.10566000000E+00 0. -1.
         22    1    1    0    0    0  0.16230625191E+02 -0.72139949680E+01 -0.22298779738E+02  0.28508077720E+02  0.00000000000E+00 0.  1.
</event>
<event>
 5    1  0.1764318E-003  0.9118800E+02  0.7818608E-02  0.1130116E+00
         25   -1    0    0    0    0  0.00000000000E+00  0.00000000000E+00  0.99999998245E-14  0.12500000000E+03  0.12500000000E+03 0.  0.
        -13    1    3    3    0    0  0.35685557017E+00  0.40423891756E+02  0.81840629025E+01  0.41245707901E+02  0.10566000000E+00 0.  1.
         23    2    1    0    0    0  0.27813928014E+02 -0.62381083929E+01  0.80253781527E+01  0.95386906909E+02  0.90673737804E+02 0.  0.
         13    1    3    3    0    0  0.27457072444E+02 -0.46662000149E+02 -0.15868474977E+00  0.54141199008E+02  0.10566000000E+00 0. -1.
         22    1    1    0    0    0 -0.27813928014E+02  0.62381083929E+01 -0.80253781527E+01  0.29613093091E+02  0.00000000000E+00 0. -1.
</event>
<event>
 5    1  0.1764318E-003  0.9118800E+02  0.7818608E-02  0.1130116E+00
         25   -1    0    0    0    0  0.00000000000E+00  0.00000000000E+00  0.99999998245E-14  0.12500000000E+03  0.12500000000E+03 0.  0.
        -13    1    3    3    0    0  0.28508372188E+02 -0.24980377686E+02 -0.10817603194E+02  0.39417994077E+02  0.10566000000E+00 0.  1.
         23    2    1    0    0    0  0.37042254935E+01 -0.26848085658E+01  0.31427219940E+02  0.93241542281E+02  0.87666330882E+02 0.  0.
         13    1    3    3    0    0 -0.24804146695E+02  0.22295569120E+02  0.42244823134E+02  0.53823548204E+02  0.10566000000E+00 0. -1.
         22    1    1    0    0    0 -0.37042254935E+01  0.26848085658E+01 -0.31427219940E+02  0.31758457719E+02  0.00000000000E+00 0. -1.
</event>
<event>
 5    1  0.1764318E-003  0.9118800E+02  0.7818608E-02  0.1130116E+00
         25   -1    0    0    0    0  0.00000000000E+00  0.00000000000E+00  0.99999998245E-14  0.12500000000E+03  0.12500000000E+03 0.  0.
        -13    1    3    3    0    0 -0.15420057577E+01  0.93511844113E+01 -0.43059214759E+02  0.44090016686E+02  0.10566000000E+00 0.  1.
         23    2    1    0    0    0  0.30293706876E+02 -0.46232659337E+01 -0.83038786536E+01  0.93250391107E+02  0.87678947169E+02 0.  0.
         13    1    3    3    0    0  0.31835712634E+02 -0.13974450345E+02  0.34755336106E+02  0.49160374421E+02  0.10566000000E+00 0. -1.
         22    1    1    0    0    0 -0.30293706876E+02  0.46232659337E+01  0.83038786536E+01  0.31749608893E+02  0.00000000000E+00 0.  1.
</event>
<event>
 5    1  0.1764318E-003  0.9118800E+02  0.7818608E-02  0.1130116E+00
         25   -1    0    0    0    0  0.00000000000E+00  0.00000000000E+00  0.99999998245E-14  0.12500000000E+03  0.12500000000E+03 0.  0.
        -13    1    3    3    0    0 -0.15350855466E+02 -0.36832847685E+02  0.31984947421E+02  0.51140546122E+02  0.10566000000E+00 0.  1.
         23    2    1    0    0    0 -0.24663606267E+02  0.32509987416E+01  0.16692269889E+02  0.95041790091E+02  0.90196715698E+02 0.  0.
         13    1    3    3    0    0 -0.93127508014E+01  0.40083846427E+02 -0.15292677532E+02  0.43901243969E+02  0.10566000000E+00 0. -1.
         22    1    1    0    0    0  0.24663606267E+02 -0.32509987416E+01 -0.16692269889E+02  0.29958209909E+02  0.00000000000E+00 0. -1.
</event>
<event>
 5    1  0.1764318E-003  0.9118800E+02  0.7818608E-02  0.1130116E+00
         25   -1    0    0    0    0  0.00000000000E+00  0.00000000000E+00  0.99999998245E-14  0.12500000000E+03  0.12500000000E+03 0.  0.
        -13    1    3    3    0    0  0.50750666528E+02 -0.82251096544E+01  0.17603560499E+02  0.54343160454E+02  0.10566000000E+00 0.  1.
         23    2    1    0    0    0  0.25942202776E+02  0.12279841297E+02  0.24504681964E+02  0.87260473966E+02  0.78677306076E+02 0.  0.
         13    1    3    3    0    0 -0.24808463752E+02  0.20504950952E+02  0.69011214651E+01  0.32917313511E+02  0.10566000000E+00 0. -1.
         22    1    1    0    0    0 -0.25942202776E+02 -0.12279841297E+02 -0.24504681964E+02  0.37739526034E+02  0.00000000000E+00 0.  1.
</event>
<event>
 5    1  0.1764318E-003  0.9118800E+02  0.7818608E-02  0.1130116E+00
         25   -1    0    0    0    0  0.00000000000E+00  0.00000000000E+00  0.99999998245E-14  0.12500000000E+03  0.12500000000E+03 0.  0.
        -13    1    3    3    0    0 -0.25278449613E+02 -0.54398399476E+01 -0.51763889138E+02  0.57862796823E+02  0.10566000000E+00 0. -1.
         23    2    1    0    0    0 -0.57499395933E+01 -0.18421700656E+02 -0.22819485185E+02  0.95114388671E+02  0.90297271098E+02 0.  0.
         13    1    3    3    0    0  0.19528510020E+02 -0.12981860708E+02  0.28944403952E+02  0.37251591848E+02  0.10566000000E+00 0.  1.
         22    1    1    0    0    0  0.57499395933E+01  0.18421700656E+02  0.22819485185E+02  0.29885611329E+02  0.00000000000E+00 0. -1.
</event>
<event>
 5    1  0.1764318E-003  0.9118800E+02  0.7818608E-02  0.1130116E+00
         25   -1    0    0    0    0  0.00000000000E+00  0.00000000000E+00  0.99999998245E-14  0.12500000000E+03  0.12500000000E+03 0.  0.
        -13    1    3    3    0    0  0.20528467260E+01 -0.24919652248E+02 -0.21114826429E+02  0.32726904941E+02  0.10566000000E+00 0. -1.
         23    2    1    0    0    0  0.69934374665E+01  0.29106710316E+02  0.76081819469E+01  0.94113219890E+02  0.88900534152E+02 0.  0.
         13    1    3    3    0    0  0.49405907405E+01  0.54026362564E+02  0.28723008376E+02  0.61386314949E+02  0.10566000000E+00 0.  1.
         22    1    1    0    0    0 -0.69934374665E+01 -0.29106710316E+02 -0.76081819469E+01  0.30886780110E+02  0.00000000000E+00 0.  1.
</event>
<event>
 5    1  0.1764318E-003  0.9118800E+02  0.7818608E-02  0.1130116E+00
         25   -1    0    0    0    0  0.00000000000E+00  0.00000000000E+00  0.99999998245E-14  0.12500000000E+03  0.12500000000E+03 0.  0.
        -13    1    3    3    0    0 -0.92836582861E+01 -0.27281615106E+02 -0.38479116345E+02  0.48074175944E+02  0.10566000000E+00 0.  1.
         23    2    1    0    0    0  0.33287781975E+01 -0.25602779721E+02  0.93300694052E+01  0.97547617793E+02  0.93605044993E+02 0.  0.
         13    1    3    3    0    0  0.12612436484E+02  0.16788353846E+01  0.47809185750E+02  0.49473441849E+02  0.10566000000E+00 0. -1.
         22    1    1    0    0    0 -0.33287781975E+01  0.25602779721E+02 -0.93300694052E+01  0.27452382207E+02  0.00000000000E+00 0.  1.
</event>
<event>
 5    1  0.1764318E-003  0.9118800E+02  0.7818608E-02  0.1130116E+00
         25   -1    0    0    0    0  0.00000000000E+00  0.00000000000E+00  0.99999998245E-14  0.12500000000E+03  0.12500000000E+03 0.  0.
        -13    1    3    3    0    0  0.56800248797E+02  0.53890125370E+01 -0.25129648005E+02  0.62344366966E+02  0.10566000000E+00 0.  1.
         23    2    1    0    0    0  0.25642504622E+02  0.54345762380E+01 -0.12410060629E+02  0.95998581638E+02  0.91513088733E+02 0.  0.
         13    1    3    3    0    0 -0.31157744175E+02  0.45563700999E-01  0.12719587376E+02  0.33654214672E+02  0.10566000000E+00 0. -1.
         22    1    1    0    0    0 -0.25642504622E+02 -0.54345762380E+01  0.12410060629E+02  0.29001418362E+02  0.00000000000E+00 0.  1.
</event>
<event>
 5    1  0.1764318E-003  0.9118800E+02  0.7818608E-02  0.1130116E+00
         25   -1    0    0    0    0  0.00000000000E+00  0.00000000000E+00  0.99999998245E-14  0.12500000000E+03  0.12500000000E+03 0.  0.
        -13    1    3    3    0    0  0.49994611344E+02  0.79440496888E-01 -0.88602326208E+00  0.50002636685E+02  0.10566000000E+00 0.  1.
         23    2    1    0    0    0  0.12056970526E+02 -0.25105946999E+02  0.71570829790E+01  0.96244079744E+02  0.91847808553E+02 0.  0.
         13    1    3    3    0    0 -0.37937640817E+02 -0.25185387496E+02  0.80431062411E+01  0.46241443059E+02  0.10566000000E+00 0. -1.
         22    1    1    0    0    0 -0.12056970526E+02  0.25105946999E+02 -0.71570829790E+01  0.28755920256E+02  0.00000000000E+00 0. -1.
</event>
<event>
 5    1  0.1764318E-003  0.9118800E+02  0.7818608E-02  0.1130116E+00
         25   -1    0    0    0    0  0.00000000000E+00  0.00000000000E+00  0.99999998245E-14  0.12500000000E+03  0.12500000000E+03 0.  0.
        -13    1    3    3    0    0 -0.54175820561E+02 -0.15602852660E+02 -0.45789463300E+01  0.56563649618E+02  0.10566000000E+00 0. -1.
         23    2    1    0    0    0 -0.23236852113E+02  0.20928995391E+01 -0.18898913707E+02  0.94975002683E+02  0.90104110177E+02 0.  0.
         13    1    3    3    0    0  0.30938968449E+02  0.17695752199E+02 -0.14319967377E+02  0.38411353065E+02  0.10566000000E+00 0.  1.
         22    1    1    0    0    0  0.23236852113E+02 -0.20928995391E+01  0.18898913707E+02  0.30024997317E+02  0.00000000000E+00 0. -1.
</event>
<event>
 5    1  0.1764318E-003  0.9118800E+02  0.7818608E-02  0.1130116E+00
         25   -1    0    0    0    0  0.00000000000E+00  0.00000000000E+00  0.99999998245E-14  0.12500000000E+03  0.12500000000E+03 0.  0.
        -13    1    3    3    0    0  0.34855967495E+02  0.30396675276E+02 -0.39443276867E+02  0.60783876085E+02  0.10566000000E+00 0.  1.
         23    2    1    0    0    0  0.27898477860E+02  0.24457262663E+02 -0.18704720072E+02  0.83450639995E+02  0.72371679536E+02 0.  0.
         13    1    3    3    0    0 -0.69574896351E+01 -0.59394126135E+01  0.20738556795E+02  0.22666763911E+02  0.10566000000E+00 0. -1.
         22    1    1    0    0    0 -0.27898477860E+02 -0.24457262663E+02  0.18704720072E+02  0.41549360005E+02  0.00000000000E+00 0.  1.
</event>
<event>
 5    1  0.1764318E-003  0.9118800E+02  0.7818608E-02  0.1130116E+00
         25   -1    0    0    0    0  0.00000000000E+00  0.00000000000E+00  0.99999998245E-14  0.12500000000E+03  0.12500000000E+03 0.  0.
        -13    1    3    3    0    0  0.19002330023E+02  0.55657146927E+00 -0.28098837457E+02  0.33925715152E+02  0.10566000000E+00 0. -1.
         23    2    1    0    0    0 -0.31998938342E+02 -0.56064302884E+00  0.16028509947E+01  0.92956037902E+02  0.87258291729E+02 0.  0.
         13    1    3    3    0    0 -0.51001268365E+02 -0.11172144981E+01  0.29701688452E+02  0.59030322750E+02  0.10566000000E+00 0.  1.
         22    1    1    0    0    0  0.31998938342E+02  0.56064302884E+00 -0.16028509947E+01  0.32043962098E+02  0.00000000000E+00 0.  1.
</event>
<event>
 5    1  0.1764318E-003  0.9118800E+02  0.7818608E-02  0.1130116E+00
         25   -1    0    0    0    0  0.00000000000E+00  0.00000000000E+00  0.99999998245E-14  0.12500000000E+03  0.12500000000E+03 0.  0.
        -13    1    3    3    0    0  0.14543706666E+02  0.13039753857E+02  0.29709884683E+02  0.35556194905E+02  0.10566000000E+00 0.  1.
         23    2    1    0    0    0 -0.71485629363E+01 -0.13412557285E+02 -0.22423239076E+02  0.97911251494E+02  0.94089387677E+02 0.  0.
         13    1    3    3    0    0 -0.21692269603E+02 -0.26452311141E+02 -0.52133123759E+02  0.62355056588E+02  0.10566000000E+00 0. -1.
         22    1    1    0    0    0  0.71485629363E+01  0.13412557285E+02  0.22423239076E+02  0.27088748506E+02  0.00000000000E+00 0. -1.
</event>
<event>
 5    1  0.1764318E-003  0.9118800E+02  0.7818608E-02  0.1130116E+00
         25   -1    0    0    0    0  0.00000000000E+00  0.00000000000E+00  0.99999998245E-14  0.12500000000E+03  0.12500000000E+03 0.  0.
        -13    1    3    3    0    0 -0.38790712142E+02  0.48243359831E+02  0.25674325766E+01  0.61957598326E+02  0.10566000000E+00 0.  1.
         23    2    1    0    0    0 -0.18460722402E+02  0.23771311939E+02 -0.45532006882E+01  0.94559809800E+02  0.89526266816E+02 0.  0.
         13    1    3    3    0    0  0.20329989740E+02 -0.24472047892E+02 -0.71206332648E+01  0.32602211474E+02  0.10566000000E+00 0. -1.
         22    1    1    0    0    0  0.18460722402E+02 -0.23771311939E+02  0.45532006882E+01  0.30440190200E+02  0.00000000000E+00 0.  1.
</event>
<event>
 5    1  0.1764318E-003  0.9118800E+02  0.7818608E-02  0.1130116E+00
         25   -1    0    0    0    0  0.00000000000E+00  0.00000000000E+00  0.99999998245E-14  0.12500000000E+03  0.12500000000E+03 0.  0.
        -13    1    3    3    0    0  0.26599498819E+02 -0.34489496659E+02  0.82765589716E+00  0.43563228709E+02  0.10566000000E+00 0.  1.
         23    2    1    0    0    0  0.22381922081E+02  0.14283484901E+02 -0.14352442494E+02  0.94817869815E+02  0.89885857919E+02 0.  0.
         13    1    3    3    0    0 -0.42175767377E+01  0.48772981560E+02 -0.15180098391E+02  0.51254641107E+02  0.10566000000E+00 0. -1.
         22    1    1    0    0    0 -0.22381922081E+02 -0.14283484901E+02  0.14352442494E+02  0.30182130185E+02  0.00000000000E+00 0. -1.
</event>
<event>
 5    1  0.1764318E-003  0.9118800E+02  0.7818608E-02  0.1130116E+00
         25   -1    0    0    0    0  0.00000000000E+00  0.00000000000E+00  0.99999998245E-14  0.12500000000E+03  0.12500000000E+03 0.  0.
        -13    1    3    3    0    0  0.18795271765E+02 -0.24550597240E+02  0.42196576022E+02  0.52312104313E+02  0.10566000000E+00 0. -1.
         23    2    1    0    0    0 -0.16372866257E+02 -0.15879926302E+02  0.18895923658E+02  0.95380770778E+02  0.90665278329E+02 0.  0.
         13    1    3    3    0    0 -0.35168138022E+02  0.86706709384E+01 -0.23300652364E+02  0.43068666465E+02  0.10566000000E+00 0.  1.
         22    1    1    0    0    0  0.16372866257E+02  0.15879926302E+02 -0.18895923658E+02  0.29619229222E+02  0.00000000000E+00 0. -1.
</event>
<event>
 5    1  0.1764318E-003  0.9118800E+02  0.7818608E-02  0.1130116E+00
         25   -1    0    0    0    0  0.00000000000E+00  0.00000000000E+00  0.99999998245E-14  0.12500000000E+03  0.12500000000E+03 0.  0.
        -13    1    3    3    0    0 -0.10096422547E+02  0.31890276904E+01  0.33221061806E+02  0.34867717984E+02  0.10566000000E+00 0. -1.
         23    2    1    0    0    0  0.17404609779E+02  0.65323875062E+01 -0.21727454267E+02  0.96404986501E+02  0.92066533687E+02 0.  0.
         13    1    3    3    0    0  0.27501032326E+02  0.33433598158E+01 -0.54948516073E+02  0.61537268517E+02  0.10566000000E+00 0.  1.
         22    1    1    0    0    0 -0.17404609779E+02 -0.65323875062E+01  0.21727454267E+02  0.28595013499E+02  0.00000000000E+00 0.  1.
</event>
<event>
 5    1  0.1764318E-003  0.9118800E+02  0.7818608E-02  0.1130116E+00
         25   -1    0    0    0    0  0.00000000000E+00  0.00000000000E+00  0.99999998245E-14  0.12500000000E+03  0.12500000000E+03 0.  0.
        -13    1    3    3    0    0 -0.34007248968E+02 -0.70329941391E+01  0.28726465834E+02  0.45068580988E+02  0.10566000000E+00 0.  1.
         23    2    1    0    0    0 -0.14476637382E+02 -0.13055873776E+02 -0.19487476102E+02  0.97435700720E+02  0.93455471643E+02 0.  0.
         13    1    3    3    0    0  0.19530611586E+02 -0.60228796373E+01 -0.48213941936E+02  0.52367119733E+02  0.10566000000E+00 0. -1.
         22    1    1    0    0    0  0.14476637382E+02  0.13055873776E+02  0.19487476102E+02  0.27564299280E+02  0.00000000000E+00 0. -1.
</event>
<event>
 5    1  0.1764318E-003  0.9118800E+02  0.7818608E-02  0.1130116E+00
         25   -1    0    0    0    0  0.00000000000E+00  0.00000000000E+00  0.99999998245E-14  0.12500000000E+03  0.12500000000E+03 0.  0.
        -13    1    3    3    0    0  0.12291621684E+02 -0.10570859560E+02  0.60175803100E+02  0.62321468839E+02  0.10566000000E+00 0. -1.
         23    2    1    0    0    0  0.84332007289E+01 -0.29713914458E+01  0.28006155887E+02  0.95601142722E+02  0.90968597222E+02 0.  0.
         13    1    3    3    0    0 -0.38584209554E+01  0.75994681145E+01 -0.32169647213E+02  0.33279673883E+02  0.10566000000E+00 0.  1.
         22    1    1    0    0    0 -0.84332007289E+01  0.29713914458E+01 -0.28006155887E+02  0.29398857278E+02  0.00000000000E+00 0. -1.
</event>
<event>
 5    1  0.1764318E-003  0.9118800E+02  0.7818608E-02  0.1130116E+00
         25   -1    0    0    0    0  0.00000000000E+00  0.00000000000E+00  0.99999998245E-14  0.12500000000E+03  0.12500000000E+03 0.  0.
        -13    1    3    3    0    0  0.23900367300E+02  0.26171321549E+00  0.46290909021E+02  0.52097557264E+02  0.10566000000E+00 0.  1.
         23    2    1    0    0    0  0.19015509075E+02 -0.19502074231E+02  0.61947597466E+01  0.97066229524E+02  0.92959977308E+02 0.  0.
         13    1    3    3    0    0 -0.48848582254E+01 -0.19763787447E+02 -0.40096149275E+02  0.44968672260E+02  0.10566000000E+00 0. -1.
         22    1    1    0    0    0 -0.19015509075E+02  0.19502074231E+02 -0.61947597466E+01  0.27933770476E+02  0.00000000000E+00 0. -1.
</event>
<event>
 5    1  0.1764318E-003  0.9118800E+02  0.7818608E-02  0.1130116E+00
         25   -1    0    0    0    0  0.00000000000E+00  0.00000000000E+00  0.99999998245E-14  0.12500000000E+03  0.12500000000E+03 0.  0.
        -13    1    3    3    0    0  0.32264190596E+02  0.32471463034E+02  0.38341657422E+00  0.45776981975E+02  0.10566000000E+00 0.  1.
         23    2    1    0    0    0  0.24696166268E+02 -0.16428523596E+02  0.18501275946E+01  0.95280982722E+02  0.90527596237E+02 0.  0.
         13    1    3    3    0    0 -0.75680243280E+01 -0.48899986631E+02  0.14667110204E+01  0.49504000747E+02  0.10566000000E+00 0. -1.
         22    1    1    0    0    0 -0.24696166268E+02  0.16428523596E+02 -0.18501275946E+01  0.29719017278E+02  0.00000000000E+00 0.  1.
</event>
<event>
 5    1  0.1764318E-003  0.9118800E+02  0.7818608E-02  0.1130116E+00
         25   -1    0    0    0    0  0.00000000000E+00  0.00000000000E+00  0.99999998245E-14  0.12500000000E+03  0.12500000000E+03 0.  0.
        -13    1    3    3    0    0  0.28365425123E+02 -0.32418480181E+02  0.37876943707E+00  0.43077950624E+02  0.10566000000E+00 0.  1.
         23    2    1    0    0    0 -0.32265259872E+01 -0.51069038661E+00 -0.28401301895E+02  0.96411449426E+02  0.92075308072E+02 0.  0.
         13    1    3    3    0    0 -0.31591951110E+02  0.31907789795E+02 -0.28780071332E+02  0.53333498802E+02  0.10566000000E+00 0. -1.
         22    1    1    0    0    0  0.32265259872E+01  0.51069038661E+00  0.28401301895E+02  0.28588550574E+02  0.00000000000E+00 0.  1.
</event>
<event>
 5    1  0.1764318E-003  0.9118800E+02  0.7818608E-02  0.1130116E+00
         25   -1    0    0    0    0  0.00000000000E+00  0.00000000000E+00  0.99999998245E-14  0.12500000000E+03  0.12500000000E+03 0.  0.
        -13    1    3    3    0    0  0.43066266590E+02 -0.16622339869E+01 -0.15317316388E+02  0.45739454361E+02  0.10566000000E+00 0.  1.
         23    2    1    0    0    0  0.11771212806E+02 -0.20277024640E+02  0.18268956600E+02  0.95276710235E+02  0.90521696619E+02 0.  0.
         13    1    3    3    0    0 -0.31295053784E+02 -0.18614790653E+02  0.33586272987E+02  0.49537255875E+02  0.10566000000E+00 0. -1.
         22    1    1    0    0    0 -0.11771212806E+02  0.20277024640E+02 -0.18268956600E+02  0.29723289765E+02  0.00000000000E+00 0. -1.
</event>
<event>
 5    1  0.1764318E-003  0.9118800E+02  0.7818608E-02  0.1130116E+00
         25   -1    0    0    0    0  0.00000000000E+00  0.00000000000E+00  0.99999998245E-14  0.12500000000E+03  0.12500000000E+03 0.  0.
        -13    1    3    3    0    0 -0.32815607790E+02  0.20878091937E+02  0.15414348516E+02  0.41837449035E+02  0.10566000000E+00 0.  1.
         23    2    1    0    0    0  0.32897960594E+01  0.22551518469E+02 -0.21619950856E+02  0.93586372091E+02  0.88156639131E+02 0.  0.
         13    1    3    3    0    0  0.36105403850E+02  0.16734265323E+01 -0.37034299372E+02  0.51748923056E+02  0.10566000000E+00 0. -1.
         22    1    1    0    0    0 -0.32897960594E+01 -0.22551518469E+02  0.21619950856E+02  0.31413627909E+02  0.00000000000E+00 0.  1.
</event>
<event>
 5    1  0.1764318E-003  0.9118800E+02  0.7818608E-02  0.1130116E+00
         25   -1    0    0    0    0  0.00000000000E+00  0.00000000000E+00  0.99999998245E-14  0.12500000000E+03  0.12500000000E+03 0.  0.
        -13    1    3    3    0    0  0.39592682890E+02 -0.70929399287E+01  0.16765599165E+02  0.43577365853E+02  0.10566000000E+00 0. -1.
         23    2    1    0    0    0  0.50386761111E+01  0.27122687701E+02 -0.51849731114E+01  0.96930222814E+02  0.92776913634E+02 0.  0.
         13    1    3    3    0    0 -0.34554006779E+02  0.34215627630E+02 -0.21950572276E+02  0.53352856961E+02  0.10566000000E+00 0.  1.
         22    1    1    0    0    0 -0.50386761111E+01 -0.27122687701E+02  0.51849731114E+01  0.28069777186E+02  0.00000000000E+00 0.  1.
</event>
<event>
 5    1  0.1764318E-003  0.9118800E+02  0.7818608E-02  0.1130116E+00
         25   -1    0    0    0    0  0.00000000000E+00  0.00000000000E+00  0.99999998245E-14  0.12500000000E+03  0.12500000000E+03 0.  0.
        -13    1    3    3    0    0 -0.35486145332E+02 -0.35163087203E+02 -0.35752583545E+02  0.61432626563E+02  0.10566000000E+00 0.  1.
         23    2    1    0    0    0 -0.21802777403E+02 -0.10163201858E+02 -0.15924017602E+02  0.96151670567E+02  0.91721958339E+02 0.  0.
         13    1    3    3    0    0  0.13683367929E+02  0.24999885345E+02  0.19828565943E+02  0.34719044004E+02  0.10566000000E+00 0. -1.
         22    1    1    0    0    0  0.21802777403E+02  0.10163201858E+02  0.15924017602E+02  0.28848329433E+02  0.00000000000E+00 0.  1.
</event>
<event>
 5    1  0.1764318E-003  0.9118800E+02  0.7818608E-02  0.1130116E+00
         25   -1    0    0    0    0  0.00000000000E+00  0.00000000000E+00  0.99999998245E-14  0.12500000000E+03  0.12500000000E+03 0.  0.
        -13    1    3    3    0    0  0.30224146194E+01 -0.82180419056E+01  0.46736864892E+02  0.47550151491E+02  0.10566000000E+00 0.  1.
         23    2    1    0    0    0  0.27682592512E+02  0.58290596888E+01  0.79440648130E+01  0.95616126348E+02  0.90989183901E+02 0.  0.
         13    1    3    3    0    0  0.24660177893E+02  0.14047101594E+02 -0.38792800079E+02  0.48065974856E+02  0.10566000000E+00 0. -1.
         22    1    1    0    0    0 -0.27682592512E+02 -0.58290596888E+01 -0.79440648130E+01  0.29383873652E+02  0.00000000000E+00 0. -1.
</event>
<event>
 5    1  0.1764318E-003  0.9118800E+02  0.7818608E-02  0.1130116E+00
         25   -1    0    0    0    0  0.00000000000E+00  0.00000000000E+00  0.99999998245E-14  0.12500000000E+03  0.12500000000E+03 0.  0.
        -13    1    3    3    0    0 -0.14706097450E+02 -0.88807767070E+01  0.40744385142E+02  0.44218249420E+02  0.10566000000E+00 0.  1.
         23    2    1    0    0    0  0.26816470513E+02  0.22962453273E+00  0.11474557134E+02  0.95830816268E+02  0.91283646219E+02 0.  0.
         13    1    3    3    0    0  0.41522567963E+02  0.91104012397E+01 -0.29269828008E+02  0.51612566848E+02  0.10566000000E+00 0. -1.
         22    1    1    0    0    0 -0.26816470513E+02 -0.22962453273E+00 -0.11474557134E+02  0.29169183732E+02  0.00000000000E+00 0. -1.
</event>
<event>
 5    1  0.1764318E-003  0.9118800E+02  0.7818608E-02  0.1130116E+00
         25   -1    0    0    0    0  0.00000000000E+00  0.00000000000E+00  0.99999998245E-14  0.12500000000E+03  0.12500000000E+03 0.  0.
        -13    1    3    3    0    0  0.13648141410E+02  0.30067273346E+02 -0.11534790685E+02  0.34976781593E+02  0.10566000000E+00 0.  1.
         23    2    1    0    0    0 -0.21960914687E+02 -0.11991885281E+02  0.14665886155E+02  0.95996977688E+02  0.91510897832E+02 0.  0.
         13    1    3    3    0    0 -0.35609056098E+02 -0.42059158627E+02  0.26200676840E+02  0.61020196095E+02  0.10566000000E+00 0. -1.
         22    1    1    0    0    0  0.21960914687E+02  0.11991885281E+02 -0.14665886155E+02  0.29003022312E+02  0.00000000000E+00 0. -1.
</event>
<event>
 5    1  0.1764318E-003  0.9118800E+02  0.7818608E-02  0.1130116E+00
         25   -1    0    0    0    0  0.00000000000E+00  0.00000000000E+00  0.99999998245E-14  0.12500000000E+03  0.12500000000E+03 0.  0.
        -13    1    3    3    0    0  0.62359484239E+01  0.47786478526E+02 -0.79736300061E+01  0.48846949979E+02  0.10566000000E+00 0.  1.
         23    2    1    0    0    0  0.27515170149E+02  0.53984772696E+01  0.10780765517E+00  0.96960032674E+02  0.92817068304E+02 0.  0.
         13    1    3    3    0    0  0.21279221725E+02 -0.42388001257E+02  0.80814376613E+01  0.48113082696E+02  0.10566000000E+00 0. -1.
         22    1    1    0    0    0 -0.27515170149E+02 -0.53984772696E+01 -0.10780765517E+00  0.28039967326E+02  0.00000000000E+00 0.  1.
</event>
<event>
 5    1  0.1764318E-003  0.9118800E+02  0.7818608E-02  0.1130116E+00
         25   -1    0    0    0    0  0.00000000000E+00  0.00000000000E+00  0.99999998245E-14  0.12500000000E+03  0.12500000000E+03 0.  0.
        -13    1    3    3    0    0 -0.14011187946E+02 -0.41313417948E+02 -0.11801386894E+01  0.43640758261E+02  0.10566000000E+00 0.  1.
         23    2    1    0    0    0  0.11925912703E+02 -0.77286136504E+01 -0.27831329162E+02  0.93750332071E+02  0.88388817267E+02 0.  0.
         13    1    3    3    0    0  0.25937100649E+02  0.33584804298E+02 -0.26651190472E+02  0.50109573810E+02  0.10566000000E+00 0. -1.
         22    1    1    0    0    0 -0.11925912703E+02  0.77286136504E+01  0.27831329162E+02  0.31249667929E+02  0.00000000000E+00 0. -1.
</event>
<event>
 5    1  0.1764318E-003  0.9118800E+02  0.7818608E-02  0.1130116E+00
         25   -1    0    0    0    0  0.00000000000E+00  0.00000000000E+00  0.99999998245E-14  0.12500000000E+03  0.12500000000E+03 0.  0.
        -13    1    3    3    0    0 -0.58494480114E+01  0.27597611397E+02 -0.14322024627E+02  0.31638200807E+02  0.10566000000E+00 0.  1.
         23    2    1    0    0    0  0.36502916023E+02 -0.40185760254E+01  0.50551995923E+01  0.87930243131E+02  0.79734313709E+02 0.  0.
         13    1    3    3    0    0  0.42352364034E+02 -0.31616187422E+02  0.19377224220E+02  0.56292042323E+02  0.10566000000E+00 0. -1.
         22    1    1    0    0    0 -0.36502916023E+02  0.40185760254E+01 -0.50551995923E+01  0.37069756869E+02  0.00000000000E+00 0. -1.
</event>
<event>
 5    1  0.1764318E-003  0.9118800E+02  0.7818608E-02  0.1130116E+00
         25   -1    0    0    0    0  0.00000000000E+00  0.00000000000E+00  0.99999998245E-14  0.12500000000E+03  0.12500000000E+03 0.  0.
        -13    1    3    3    0    0 -0.28140774457E+02 -0.18868585645E+02  0.16601859184E+02  0.37730088837E+02  0.10566000000E+00 0. -1.
         23    2    1    0    0    0  0.22523030111E+02 -0.24407293294E+02 -0.13393194676E+01  0.91761518868E+02  0.85529993084E+02 0.  0.
         13    1    3    3    0    0  0.50663804568E+02 -0.55387076489E+01 -0.17941178651E+02  0.54031430031E+02  0.10566000000E+00 0.  1.
         22    1    1    0    0    0 -0.22523030111E+02  0.24407293294E+02  0.13393194676E+01  0.33238481132E+02  0.00000000000E+00 0.  1.
</event>
<event>
 5    1  0.1764318E-003  0.9118800E+02  0.7818608E-02  0.1130116E+00
         25   -1    0    0    0    0  0.00000000000E+00  0.00000000000E+00  0.99999998245E-14  0.12500000000E+03  0.12500000000E+03 0.  0.
        -13    1    3    3    0    0 -0.32264791047E+02 -0.18769969723E+02  0.43003305493E+02  0.56944042288E+02  0.10566000000E+00 0. -1.
         23    2    1    0    0    0 -0.21656374377E+02 -0.21241298244E+02  0.79642361421E+01  0.93637277548E+02  0.88228790013E+02 0.  0.
         13    1    3    3    0    0  0.10608416669E+02 -0.24713285209E+01 -0.35039069351E+02  0.36693235261E+02  0.10566000000E+00 0.  1.
         22    1    1    0    0    0  0.21656374377E+02  0.21241298244E+02 -0.79642361421E+01  0.31362722452E+02  0.00000000000E+00 0. -1.
</event>
<event>
 5    1  0.1764318E-003  0.9118800E+02  0.7818608E-02  0.1130116E+00
         25   -1    0    0    0    0  0.00000000000E+00  0.00000000000E+00  0.99999998245E-14  0.12500000000E+03  0.12500000000E+03 0.  0.
        -13    1    3    3    0    0 -0.40819280372E+02  0.37445368588E+02  0.26951017363E+02  0.61601443000E+02  0.10566000000E+00 0.  1.
         23    2    1    0    0    0 -0.17873497282E+02  0.13224368594E+02  0.18642454562E+02  0.95984711928E+02  0.91494141790E+02 0.  0.
         13    1    3    3    0    0  0.22945783090E+02 -0.24220999993E+02 -0.83085628004E+01  0.34383268928E+02  0.10566000000E+00 0. -1.
         22    1    1    0    0    0  0.17873497282E+02 -0.13224368594E+02 -0.18642454562E+02  0.29015288072E+02  0.00000000000E+00 0.  1.
</event>
<event>
 5    1  0.1764318E-003  0.9118800E+02  0.7818608E-02  0.1130116E+00
         25   -1    0    0    0    0  0.00000000000E+00  0.00000000000E+00  0.99999998245E-14  0.12500000000E+03  0.12500000000E+03 0.  0.
        -13    1    3    3    0    0 -0.26070517388E+02  0.36485630689E+02  0.19995932926E+01  0.44887444358E+02  0.10566000000E+00 0.  1.
         23    2    1    0    0    0  0.12257277638E+02  0.38237511695E+02 -0.68578724291E+01  0.84264529339E+02  0.73764031443E+02 0.  0.
         13    1    3    3    0    0  0.38327795025E+02  0.17518810062E+01 -0.88574657217E+01  0.39377084981E+02  0.10566000000E+00 0. -1.
         22    1    1    0    0    0 -0.12257277638E+02 -0.38237511695E+02  0.68578724291E+01  0.40735470661E+02  0.00000000000E+00 0. -1.
</event>
<event>
 5    1  0.1764318E-003  0.9118800E+02  0.7818608E-02  0.1130116E+00
         25   -1    0    0    0    0  0.00000000000E+00  0.00000000000E+00  0.99999998245E-14  0.12500000000E+03  0.12500000000E+03 0.  0.
        -13    1    3    3    0    0  0.65956443320E+01  0.49257547454E+02  0.68905809857E+00  0.49702057004E+02  0.10566000000E+00 0.  1.
         23    2    1    0    0    0  0.27655724425E+02  0.79728703820E+01  0.26986477816E+01  0.96091723409E+02  0.91640225078E+02 0.  0.
         13    1    3    3    0    0  0.21060080093E+02 -0.41284677072E+02  0.20095896831E+01  0.46389666405E+02  0.10566000000E+00 0. -1.
         22    1    1    0    0    0 -0.27655724425E+02 -0.79728703820E+01 -0.26986477816E+01  0.28908276591E+02  0.00000000000E+00 0. -1.
</event>
<event>
 5    1  0.1764318E-003  0.9118800E+02  0.7818608E-02  0.1130116E+00
         25   -1    0    0    0    0  0.00000000000E+00  0.00000000000E+00  0.99999998245E-14  0.12500000000E+03  0.12500000000E+03 0.  0.
        -13    1    3    3    0    0 -0.14269523508E+02  0.33029386850E+02 -0.46742165370E+02  0.58986446616E+02  0.10566000000E+00 0. -1.
         23    2    1    0    0    0  0.75134186316E+01  0.19625134075E+02 -0.20034751867E+02  0.95965733531E+02  0.91468209684E+02 0.  0.
         13    1    3    3    0    0  0.21782942140E+02 -0.13404252775E+02  0.26707413503E+02  0.36979286916E+02  0.10566000000E+00 0.  1.
         22    1    1    0    0    0 -0.75134186316E+01 -0.19625134075E+02  0.20034751867E+02  0.29034266469E+02  0.00000000000E+00 0. -1.
</event>
<event>
 5    1  0.1764318E-003  0.9118800E+02  0.7818608E-02  0.1130116E+00
         25   -1    0    0    0    0  0.00000000000E+00  0.00000000000E+00  0.99999998245E-14  0.12500000000E+03  0.12500000000E+03 0.  0.
        -13    1    3    3    0    0 -0.39570799742E+02  0.20246105932E+01 -0.56395377312E+01  0.40022028811E+02  0.10566000000E+00 0. -1.
         23    2    1    0    0    0  0.10255901362E+02 -0.93836453464E+01 -0.26376728426E+02  0.95184431664E+02  0.90394180764E+02 0.  0.
         13    1    3    3    0    0  0.49826701105E+02 -0.11408255940E+02 -0.20737190695E+02  0.55162402853E+02  0.10566000000E+00 0.  1.
         22    1    1    0    0    0 -0.10255901362E+02  0.93836453464E+01  0.26376728426E+02  0.29815568336E+02  0.00000000000E+00 0.  1.
</event>
<event>
 5    1  0.1764318E-003  0.9118800E+02  0.7818608E-02  0.1130116E+00
         25   -1    0    0    0    0  0.00000000000E+00  0.00000000000E+00  0.99999998245E-14  0.12500000000E+03  0.12500000000E+03 0.  0.
        -13    1    3    3    0    0 -0.29178259568E+02 -0.68335919169E+01  0.25058053997E+02  0.39063871339E+02  0.10566000000E+00 0.  1.
         23    2    1    0    0    0 -0.67626502063E+01  0.18667856663E+02 -0.20879639822E+02  0.96187126674E+02  0.91770265711E+02 0.  0.
         13    1    3    3    0    0  0.22415609361E+02  0.25501448579E+02 -0.45937693819E+02  0.57123255335E+02  0.10566000000E+00 0. -1.
         22    1    1    0    0    0  0.67626502063E+01 -0.18667856663E+02  0.20879639822E+02  0.28812873326E+02  0.00000000000E+00 0. -1.
</event>
<event>
 5    1  0.1764318E-003  0.9118800E+02  0.7818608E-02  0.1130116E+00
         25   -1    0    0    0    0  0.00000000000E+00  0.00000000000E+00  0.99999998245E-14  0.12500000000E+03  0.12500000000E+03 0.  0.
        -13    1    3    3    0    0 -0.14427926643E+02 -0.31813509311E+02  0.75614143068E+01  0.35741440825E+02  0.10566000000E+00 0.  1.
         23    2    1    0    0    0 -0.16289717454E+02  0.26149080278E+02  0.49861504739E+01  0.93791171270E+02  0.88446553452E+02 0.  0.
         13    1    3    3    0    0 -0.18617908108E+01  0.57962589589E+02 -0.25752638329E+01  0.58049730445E+02  0.10566000000E+00 0. -1.
         22    1    1    0    0    0  0.16289717454E+02 -0.26149080278E+02 -0.49861504739E+01  0.31208828730E+02  0.00000000000E+00 0. -1.
</event>
<event>
 5    1  0.1764318E-003  0.9118800E+02  0.7818608E-02  0.1130116E+00
         25   -1    0    0    0    0  0.00000000000E+00  0.00000000000E+00  0.99999998245E-14  0.12500000000E+03  0.12500000000E+03 0.  0.
        -13    1    3    3    0    0 -0.12464516864E+02 -0.26803633501E+02 -0.16645195031E+02  0.33924513721E+02  0.10566000000E+00 0.  1.
         23    2    1    0    0    0 -0.58667785830E+00  0.24752150245E+02  0.15460333718E+02  0.95810360548E+02  0.91255630713E+02 0.  0.
         13    1    3    3    0    0  0.11877839006E+02  0.51555783747E+02  0.32105528749E+02  0.61885846827E+02  0.10566000000E+00 0. -1.
         22    1    1    0    0    0  0.58667785830E+00 -0.24752150245E+02 -0.15460333718E+02  0.29189639452E+02  0.00000000000E+00 0. -1.
</event>
<event>
 5    1  0.1764318E-003  0.9118800E+02  0.7818608E-02  0.1130116E+00
         25   -1    0    0    0    0  0.00000000000E+00  0.00000000000E+00  0.99999998245E-14  0.12500000000E+03  0.12500000000E+03 0.  0.
        -13    1    3    3    0    0 -0.23459633544E+02  0.41682695961E+02  0.25142847586E+01  0.47897122465E+02  0.10566000000E+00 0. -1.
         23    2    1    0    0    0 -0.29144260393E+02 -0.37762957427E+00 -0.12998615675E+02  0.93086138945E+02  0.87444466585E+02 0.  0.
         13    1    3    3    0    0 -0.56846268495E+01 -0.42060325535E+02 -0.15512900434E+02  0.45189016480E+02  0.10566000000E+00 0.  1.
         22    1    1    0    0    0  0.29144260393E+02  0.37762957427E+00  0.12998615675E+02  0.31913861055E+02  0.00000000000E+00 0. -1.
</event>
<event>
 5    1  0.1764318E-003  0.9118800E+02  0.7818608E-02  0.1130116E+00
         25   -1    0    0    0    0  0.00000000000E+00  0.00000000000E+00  0.99999998245E-14  0.12500000000E+03  0.12500000000E+03 0.  0.
        -13    1    3    3    0    0 -0.28926879445E+02  0.12789957858E+02  0.35672528733E+02  0.47674813546E+02  0.10566000000E+00 0. -1.
         23    2    1    0    0    0  0.12930950889E+02  0.22201466311E+02  0.13981735050E+02  0.95749298944E+02  0.91171951477E+02 0.  0.
         13    1    3    3    0    0  0.41857830334E+02  0.94115084521E+01 -0.21690793684E+02  0.48074485398E+02  0.10566000000E+00 0.  1.
         22    1    1    0    0    0 -0.12930950889E+02 -0.22201466311E+02 -0.13981735050E+02  0.29250701056E+02  0.00000000000E+00 0. -1.
</event>
<event>
 5    1  0.1764318E-003  0.9118800E+02  0.7818608E-02  0.1130116E+00
         25   -1    0    0    0    0  0.00000000000E+00  0.00000000000E+00  0.99999998245E-14  0.12500000000E+03  0.12500000000E+03 0.  0.
        -13    1    3    3    0    0 -0.33512444076E+02 -0.21405310565E+02 -0.20587053169E+02  0.44778445156E+02  0.10566000000E+00 0. -1.
         23    2    1    0    0    0 -0.31676950058E+01 -0.87967354839E+01  0.23467601614E+02  0.99738464569E+02  0.96486352103E+02 0.  0.
         13    1    3    3    0    0  0.30344749070E+02  0.12608575082E+02  0.44054654783E+02  0.54960019413E+02  0.10566000000E+00 0.  1.
         22    1    1    0    0    0  0.31676950058E+01  0.87967354839E+01 -0.23467601614E+02  0.25261535431E+02  0.00000000000E+00 0.  1.
</event>
<event>
 5    1  0.1764318E-003  0.9118800E+02  0.7818608E-02  0.1130116E+00
         25   -1    0    0    0    0  0.00000000000E+00  0.00000000000E+00  0.99999998245E-14  0.12500000000E+03  0.12500000000E+03 0.  0.
        -13    1    3    3    0    0  0.57196913394E+01 -0.23025659517E+02 -0.23438196982E+02  0.33350503849E+02  0.10566000000E+00 0. -1.
         23    2    1    0    0    0 -0.43275919093E+01  0.20403666356E+02  0.20366702481E+02  0.95847980817E+02  0.91307147608E+02 0.  0.
         13    1    3    3    0    0 -0.10047283249E+02  0.43429325873E+02  0.43804899462E+02  0.62497476968E+02  0.10566000000E+00 0.  1.
         22    1    1    0    0    0  0.43275919093E+01 -0.20403666356E+02 -0.20366702481E+02  0.29152019183E+02  0.00000000000E+00 0.  1.
</event>
<event>
 5    1  0.1764318E-003  0.9118800E+02  0.7818608E-02  0.1130116E+00
         25   -1    0    0    0    0  0.00000000000E+00  0.00000000000E+00  0.99999998245E-14  0.12500000000E+03  0.12500000000E+03 0.  0.
        -13    1    3    3    0    0 -0.52204628959E+01 -0.36828062556E+02 -0.36556422560E+01  0.37375584394E+02  0.10566000000E+00 0. -1.
         23    2    1    0    0    0  0.15878480846E+02  0.11664363446E+02  0.21414463692E+02  0.95900811286E+02  0.91379444196E+02 0.  0.
         13    1    3    3    0    0  0.21098943742E+02  0.48492426002E+02  0.25070105948E+02  0.58525226893E+02  0.10566000000E+00 0.  1.
         22    1    1    0    0    0 -0.15878480846E+02 -0.11664363446E+02 -0.21414463692E+02  0.29099188714E+02  0.00000000000E+00 0.  1.
</event>
<event>
 5    1  0.1764318E-003  0.9118800E+02  0.7818608E-02  0.1130116E+00
         25   -1    0    0    0    0  0.00000000000E+00  0.00000000000E+00  0.99999998245E-14  0.12500000000E+03  0.12500000000E+03 0.  0.
        -13    1    3    3    0    0  0.21968950663E+02 -0.46140231521E+02  0.29604940748E+02  0.59059456810E+02  0.10566000000E+00 0.  1.
         23    2    1    0    0    0  0.15376172270E+02 -0.23903414554E+02  0.11451357142E+00  0.96577948449E+02  0.92301067774E+02 0.  0.
         13    1    3    3    0    0 -0.65927783934E+01  0.22236816967E+02 -0.29490427176E+02  0.37518491639E+02  0.10566000000E+00 0. -1.
         22    1    1    0    0    0 -0.15376172270E+02  0.23903414554E+02 -0.11451357142E+00  0.28422051551E+02  0.00000000000E+00 0.  1.
</event>
<event>
 5    1  0.1764318E-003  0.9118800E+02  0.7818608E-02  0.1130116E+00
         25   -1    0    0    0    0  0.00000000000E+00  0.00000000000E+00  0.99999998245E-14  0.12500000000E+03  0.12500000000E+03 0.  0.
        -13    1    3    3    0    0  0.38651344886E+02  0.22273150161E+02  0.24790079330E+02  0.51035074966E+02  0.10566000000E+00 0.  1.
         23    2    1    0    0    0  0.25202628789E+02 -0.13855041344E+02  0.12320584521E+01  0.96213672750E+02  0.91806416920E+02 0.  0.
         13    1    3    3    0    0 -0.13448716097E+02 -0.36128191505E+02 -0.23558020878E+02  0.45178597784E+02  0.10566000000E+00 0. -1.
         22    1    1    0    0    0 -0.25202628789E+02  0.13855041344E+02 -0.12320584521E+01  0.28786327250E+02  0.00000000000E+00 0.  1.
</event>
<event>
 5    1  0.1764318E-003  0.9118800E+02  0.7818608E-02  0.1130116E+00
         25   -1    0    0    0    0  0.00000000000E+00  0.00000000000E+00  0.99999998245E-14  0.12500000000E+03  0.12500000000E+03 0.  0.
        -13    1    3    3    0    0 -0.11659505611E+02 -0.21483236872E+02  0.44917946935E+02  0.51138113560E+02  0.10566000000E+00 0. -1.
         23    2    1    0    0    0 -0.77798730602E+01 -0.26390189167E+02 -0.98876950883E+00  0.97469177742E+02  0.93500237622E+02 0.  0.
         13    1    3    3    0    0  0.38796325505E+01 -0.49069522945E+01 -0.45906716444E+02  0.46331064182E+02  0.10566000000E+00 0.  1.
         22    1    1    0    0    0  0.77798730602E+01  0.26390189167E+02  0.98876950883E+00  0.27530822258E+02  0.00000000000E+00 0.  1.
</event>
<event>
 5    1  0.1764318E-003  0.9118800E+02  0.7818608E-02  0.1130116E+00
         25   -1    0    0    0    0  0.00000000000E+00  0.00000000000E+00  0.99999998245E-14  0.12500000000E+03  0.12500000000E+03 0.  0.
        -13    1    3    3    0    0 -0.39919945367E+02  0.15758295383E+02  0.48816633382E+01  0.43194533364E+02  0.10566000000E+00 0. -1.
         23    2    1    0    0    0 -0.14627159414E+02 -0.22656896724E+02 -0.15930155993E+02  0.93678144505E+02  0.88286670150E+02 0.  0.
         13    1    3    3    0    0  0.25292785953E+02 -0.38415192107E+02 -0.20811819331E+02  0.50483611141E+02  0.10566000000E+00 0.  1.
         22    1    1    0    0    0  0.14627159414E+02  0.22656896724E+02  0.15930155993E+02  0.31321855495E+02  0.00000000000E+00 0.  1.
</event>
<event>
 5    1  0.1764318E-003  0.9118800E+02  0.7818608E-02  0.1130116E+00
         25   -1    0    0    0    0  0.00000000000E+00  0.00000000000E+00  0.99999998245E-14  0.12500000000E+03  0.12500000000E+03 0.  0.
        -13    1    3    3    0    0  0.51427907455E+02  0.16145600213E+02  0.10616013110E+02  0.54938337887E+02  0.10566000000E+00 0.  1.
         23    2    1    0    0    0  0.20820723270E+02  0.11239429072E+02 -0.16525554294E+02  0.96139625296E+02  0.91705541402E+02 0.  0.
         13    1    3    3    0    0 -0.30607184184E+02 -0.49061711406E+01 -0.27141567404E+02  0.41201287409E+02  0.10566000000E+00 0. -1.
         22    1    1    0    0    0 -0.20820723270E+02 -0.11239429072E+02  0.16525554294E+02  0.28860374704E+02  0.00000000000E+00 0.  1.
</event>
<event>
 5    1  0.1764318E-003  0.9118800E+02  0.7818608E-02  0.1130116E+00
         25   -1    0    0    0    0  0.00000000000E+00  0.00000000000E+00  0.99999998245E-14  0.12500000000E+03  0.12500000000E+03 0.  0.
        -13    1    3    3    0    0  0.30631309923E+02  0.87048023698E+01 -0.36164256162E+02  0.48186256543E+02  0.10566000000E+00 0.  1.
         23    2    1    0    0    0  0.22083346701E+02  0.64675955378E+01  0.13292130495E+02  0.98425863576E+02  0.94770596147E+02 0.  0.
         13    1    3    3    0    0 -0.85479632212E+01 -0.22372068320E+01  0.49456386657E+02  0.50239607033E+02  0.10566000000E+00 0. -1.
         22    1    1    0    0    0 -0.22083346701E+02 -0.64675955378E+01 -0.13292130495E+02  0.26574136424E+02  0.00000000000E+00 0.  1.
</event>
<event>
 5    1  0.1764318E-003  0.9118800E+02  0.7818608E-02  0.1130116E+00
         25   -1    0    0    0    0  0.00000000000E+00  0.00000000000E+00  0.99999998245E-14  0.12500000000E+03  0.12500000000E+03 0.  0.
        -13    1    3    3    0    0  0.65524228666E+01 -0.26398302265E+02  0.50449883733E+02  0.57314976582E+02  0.10566000000E+00 0. -1.
         23    2    1    0    0    0 -0.97657494261E+01 -0.45353283989E+00  0.28098769263E+02  0.95249094333E+02  0.90483554215E+02 0.  0.
         13    1    3    3    0    0 -0.16318172293E+02  0.25944769425E+02 -0.22351114470E+02  0.37934117751E+02  0.10566000000E+00 0.  1.
         22    1    1    0    0    0  0.97657494261E+01  0.45353283989E+00 -0.28098769263E+02  0.29750905667E+02  0.00000000000E+00 0. -1.
</event>
<event>
 5    1  0.1764318E-003  0.9118800E+02  0.7818608E-02  0.1130116E+00
         25   -1    0    0    0    0  0.00000000000E+00  0.00000000000E+00  0.99999998245E-14  0.12500000000E+03  0.12500000000E+03 0.  0.
        -13    1    3    3    0    0 -0.11800934120E+02 -0.34980945186E+02  0.39425005318E+02  0.54011765205E+02  0.10566000000E+00 0. -1.
         23    2    1    0    0    0  0.17014185110E+02 -0.20922955574E+02  0.18453355521E+02  0.92323113752E+02  0.86346849612E+02 0.  0.
         13    1    3    3    0    0  0.28815119230E+02  0.14057989612E+02 -0.20971649798E+02  0.38311348546E+02  0.10566000000E+00 0.  1.
         22    1    1    0    0    0 -0.17014185110E+02  0.20922955574E+02 -0.18453355521E+02  0.32676886248E+02  0.00000000000E+00 0. -1.
</event>
<event>
 5    1  0.1764318E-003  0.9118800E+02  0.7818608E-02  0.1130116E+00
         25   -1    0    0    0    0  0.00000000000E+00  0.00000000000E+00  0.99999998245E-14  0.12500000000E+03  0.12500000000E+03 0.  0.
        -13    1    3    3    0    0  0.47875567907E+02  0.32358415511E+02  0.13785147236E+02  0.59406889374E+02  0.10566000000E+00 0.  1.
         23    2    1    0    0    0  0.22399480684E+02  0.18549203843E+02 -0.70220363260E+01  0.95081465739E+02  0.90251683834E+02 0.  0.
         13    1    3    3    0    0 -0.25476087222E+02 -0.13809211668E+02 -0.20807183562E+02  0.35674576365E+02  0.10566000000E+00 0. -1.
         22    1    1    0    0    0 -0.22399480684E+02 -0.18549203843E+02  0.70220363260E+01  0.29918534261E+02  0.00000000000E+00 0.  1.
</event>
<event>
 5    1  0.1764318E-003  0.9118800E+02  0.7818608E-02  0.1130116E+00
         25   -1    0    0    0    0  0.00000000000E+00  0.00000000000E+00  0.99999998245E-14  0.12500000000E+03  0.12500000000E+03 0.  0.
        -13    1    3    3    0    0  0.57039588962E+02 -0.81379038749E+01  0.84937549255E+01  0.58239979612E+02  0.10566000000E+00 0.  1.
         23    2    1    0    0    0  0.21665955063E+02  0.44626046619E+00  0.19056871046E+02  0.96142122544E+02  0.91708945234E+02 0.  0.
         13    1    3    3    0    0 -0.35373633899E+02  0.85841643411E+01  0.10563116121E+02  0.37902142932E+02  0.10566000000E+00 0. -1.
         22    1    1    0    0    0 -0.21665955063E+02 -0.44626046619E+00 -0.19056871046E+02  0.28857877456E+02  0.00000000000E+00 0.  1.
</event>
<event>
 5    1  0.1764318E-003  0.9118800E+02  0.7818608E-02  0.1130116E+00
         25   -1    0    0    0    0  0.00000000000E+00  0.00000000000E+00  0.99999998245E-14  0.12500000000E+03  0.12500000000E+03 0.  0.
        -13    1    3    3    0    0 -0.26636196268E+00 -0.50963126073E+02 -0.28219860171E+02  0.58255324563E+02  0.10566000000E+00 0.  1.
         23    2    1    0    0    0 -0.14992569900E+02 -0.24767557941E+02 -0.65179888521E+01  0.95323523504E+02  0.90586317267E+02 0.  0.
         13    1    3    3    0    0 -0.14726207937E+02  0.26195568132E+02  0.21701871319E+02  0.37068198941E+02  0.10566000000E+00 0. -1.
         22    1    1    0    0    0  0.14992569900E+02  0.24767557941E+02  0.65179888521E+01  0.29676476496E+02  0.00000000000E+00 0.  1.
</event>
<event>
 5    1  0.1764318E-003  0.9118800E+02  0.7818608E-02  0.1130116E+00
         25   -1    0    0    0    0  0.00000000000E+00  0.00000000000E+00  0.99999998245E-14  0.12500000000E+03  0.12500000000E+03 0.  0.
        -13    1    3    3    0    0  0.12724504446E+02  0.24972842938E+02  0.31446703646E+02  0.42124366251E+02  0.10566000000E+00 0.  1.
         23    2    1    0    0    0  0.10639318642E+02 -0.24676852634E+02  0.13182811158E+02  0.95067932462E+02  0.90232938085E+02 0.  0.
         13    1    3    3    0    0 -0.20851858038E+01 -0.49649695572E+02 -0.18263892488E+02  0.52943566211E+02  0.10566000000E+00 0. -1.
         22    1    1    0    0    0 -0.10639318642E+02  0.24676852634E+02 -0.13182811158E+02  0.29932067538E+02  0.00000000000E+00 0. -1.
</event>
<event>
 5    1  0.1764318E-003  0.9118800E+02  0.7818608E-02  0.1130116E+00
         25   -1    0    0    0    0  0.00000000000E+00  0.00000000000E+00  0.99999998245E-14  0.12500000000E+03  0.12500000000E+03 0.  0.
        -13    1    3    3    0    0  0.10996010222E+02 -0.34354767424E+02  0.33872568787E+02  0.49482566281E+02  0.10566000000E+00 0. -1.
         23    2    1    0    0    0 -0.12379936227E+01  0.97851262049E+01  0.27570786703E+02  0.95718101112E+02  0.91129168097E+02 0.  0.
         13    1    3    3    0    0 -0.12234003844E+02  0.44139893629E+02 -0.63017820839E+01  0.46235534831E+02  0.10566000000E+00 0.  1.
         22    1    1    0    0    0  0.12379936227E+01 -0.97851262049E+01 -0.27570786703E+02  0.29281898888E+02  0.00000000000E+00 0.  1.
</event>
<event>
 5    1  0.1764318E-003  0.9118800E+02  0.7818608E-02  0.1130116E+00
         25   -1    0    0    0    0  0.00000000000E+00  0.00000000000E+00  0.99999998245E-14  0.12500000000E+03  0.12500000000E+03 0.  0.
        -13    1    3    3    0    0  0.16944735506E+02 -0.21931509831E+02 -0.51524668881E+02  0.58505707860E+02  0.10566000000E+00 0. -1.
         23    2    1    0    0    0  0.37706924448E+01 -0.24818336387E+02 -0.19635679789E+02  0.93129514229E+02  0.87506448660E+02 0.  0.
         13    1    3    3    0    0 -0.13174043061E+02 -0.28868265561E+01  0.31888989092E+02  0.34623806369E+02  0.10566000000E+00 0.  1.
         22    1    1    0    0    0 -0.37706924448E+01  0.24818336387E+02  0.19635679789E+02  0.31870485771E+02  0.00000000000E+00 0. -1.
</event>
<event>
 5    1  0.1764318E-003  0.9118800E+02  0.7818608E-02  0.1130116E+00
         25   -1    0    0    0    0  0.00000000000E+00  0.00000000000E+00  0.99999998245E-14  0.12500000000E+03  0.12500000000E+03 0.  0.
        -13    1    3    3    0    0  0.65212860067E+01 -0.36814435300E+02  0.99377193256E+00  0.37400916624E+02  0.10566000000E+00 0.  1.
         23    2    1    0    0    0  0.45633298814E+01 -0.17558819553E+02  0.40073507842E+02  0.81011113285E+02  0.68027776101E+02 0.  0.
         13    1    3    3    0    0 -0.19579561253E+01  0.19255615747E+02  0.39079735909E+02  0.43610196660E+02  0.10566000000E+00 0. -1.
         22    1    1    0    0    0 -0.45633298814E+01  0.17558819553E+02 -0.40073507842E+02  0.43988886715E+02  0.00000000000E+00 0.  1.
</event>
<event>
 5    1  0.1764318E-003  0.9118800E+02  0.7818608E-02  0.1130116E+00
         25   -1    0    0    0    0  0.00000000000E+00  0.00000000000E+00  0.99999998245E-14  0.12500000000E+03  0.12500000000E+03 0.  0.
        -13    1    3    3    0    0  0.24591090275E+02 -0.45369684581E+02  0.22994261185E+02  0.56496700889E+02  0.10566000000E+00 0. -1.
         23    2    1    0    0    0  0.13748954127E+02 -0.23988408899E+02 -0.84969028531E+01  0.96074667518E+02  0.91616957379E+02 0.  0.
         13    1    3    3    0    0 -0.10842136148E+02  0.21381275681E+02 -0.31491164038E+02  0.39577966629E+02  0.10566000000E+00 0.  1.
         22    1    1    0    0    0 -0.13748954127E+02  0.23988408899E+02  0.84969028531E+01  0.28925332482E+02  0.00000000000E+00 0. -1.
</event>
<event>
 5    1  0.1764318E-003  0.9118800E+02  0.7818608E-02  0.1130116E+00
         25   -1    0    0    0    0  0.00000000000E+00  0.00000000000E+00  0.99999998245E-14  0.12500000000E+03  0.12500000000E+03 0.  0.
        -13    1    3    3    0    0  0.30209690632E+01  0.33544246907E+02 -0.61759995041E+01  0.34241741903E+02  0.10566000000E+00 0.  1.
         23    2    1    0    0    0 -0.24951001444E+02 -0.18480239895E+02  0.20668526770E+01  0.93881779941E+02  0.88574516568E+02 0.  0.
         13    1    3    3    0    0 -0.27971970508E+02 -0.52024486802E+02  0.82428521810E+01  0.59640038038E+02  0.10566000000E+00 0. -1.
         22    1    1    0    0    0  0.24951001444E+02  0.18480239895E+02 -0.20668526770E+01  0.31118220059E+02  0.00000000000E+00 0. -1.
</event>
<event>
 5    1  0.1764318E-003  0.9118800E+02  0.7818608E-02  0.1130116E+00
         25   -1    0    0    0    0  0.00000000000E+00  0.00000000000E+00  0.99999998245E-14  0.12500000000E+03  0.12500000000E+03 0.  0.
        -13    1    3    3    0    0 -0.16169536472E+02  0.47600770081E+02  0.23956320260E+02  0.55688451823E+02  0.10566000000E+00 0.  1.
         23    2    1    0    0    0 -0.69264700391E+01  0.28083050352E+02 -0.86603880394E+01  0.94806689064E+02  0.89870308034E+02 0.  0.
         13    1    3    3    0    0  0.92430664332E+01 -0.19517719729E+02 -0.32616708300E+02  0.39118237241E+02  0.10566000000E+00 0. -1.
         22    1    1    0    0    0  0.69264700391E+01 -0.28083050352E+02  0.86603880394E+01  0.30193310936E+02  0.00000000000E+00 0.  1.
</event>
<event>
 5    1  0.1764318E-003  0.9118800E+02  0.7818608E-02  0.1130116E+00
         25   -1    0    0    0    0  0.00000000000E+00  0.00000000000E+00  0.99999998245E-14  0.12500000000E+03  0.12500000000E+03 0.  0.
        -13    1    3    3    0    0  0.40300202181E+02 -0.17363455479E+02  0.24402604797E+02  0.50210498573E+02  0.10566000000E+00 0. -1.
         23    2    1    0    0    0 -0.30131262782E+01 -0.25319758850E+02  0.15563867771E+02  0.95126883354E+02  0.90314566037E+02 0.  0.
         13    1    3    3    0    0 -0.43313328459E+02 -0.79563033703E+01 -0.88387370267E+01  0.44916384781E+02  0.10566000000E+00 0.  1.
         22    1    1    0    0    0  0.30131262782E+01  0.25319758850E+02 -0.15563867771E+02  0.29873116646E+02  0.00000000000E+00 0.  1.
</event>
<event>
 5    1  0.1764318E-003  0.9118800E+02  0.7818608E-02  0.1130116E+00
         25   -1    0    0    0    0  0.00000000000E+00  0.00000000000E+00  0.99999998245E-14  0.12500000000E+03  0.12500000000E+03 0.  0.
        -13    1    3    3    0    0  0.28563622862E+02 -0.47892528558E+02 -0.10335440235E+02  0.56713378770E+02  0.10566000000E+00 0. -1.
         23    2    1    0    0    0  0.21683749956E+02 -0.13432958196E+02  0.10330961086E+02  0.97479859466E+02  0.93514516875E+02 0.  0.
         13    1    3    3    0    0 -0.68798729054E+01  0.34459570362E+02  0.20666401321E+02  0.40766480696E+02  0.10566000000E+00 0.  1.
         22    1    1    0    0    0 -0.21683749956E+02  0.13432958196E+02 -0.10330961086E+02  0.27520140534E+02  0.00000000000E+00 0. -1.
</event>
<event>
 5    1  0.1764318E-003  0.9118800E+02  0.7818608E-02  0.1130116E+00
         25   -1    0    0    0    0  0.00000000000E+00  0.00000000000E+00  0.99999998245E-14  0.12500000000E+03  0.12500000000E+03 0.  0.
        -13    1    3    3    0    0  0.18059629374E+01  0.11381129078E+02 -0.57221354020E+02  0.58370250309E+02  0.10566000000E+00 0.  1.
         23    2    1    0    0    0  0.14421476976E+02  0.13068213284E+02 -0.23063656236E+02  0.94822368622E+02  0.89892113978E+02 0.  0.
         13    1    3    3    0    0  0.12615514039E+02  0.16870842060E+01  0.34157697784E+02  0.36452118313E+02  0.10566000000E+00 0. -1.
         22    1    1    0    0    0 -0.14421476976E+02 -0.13068213284E+02  0.23063656236E+02  0.30177631378E+02  0.00000000000E+00 0.  1.
</event>
<event>
 5    1  0.1764318E-003  0.9118800E+02  0.7818608E-02  0.1130116E+00
         25   -1    0    0    0    0  0.00000000000E+00  0.00000000000E+00  0.99999998245E-14  0.12500000000E+03  0.12500000000E+03 0.  0.
        -13    1    3    3    0    0  0.49791376920E+02  0.32126794735E+02  0.65754762001E+01  0.59620132563E+02  0.10566000000E+00 0. -1.
         23    2    1    0    0    0  0.35073452775E+02  0.34709024979E+02  0.77488863965E+00  0.75649579972E+02  0.57335808995E+02 0.  0.
         13    1    3    3    0    0 -0.14717924145E+02  0.25822302432E+01 -0.58005875605E+01  0.16029447409E+02  0.10566000000E+00 0.  1.
         22    1    1    0    0    0 -0.35073452775E+02 -0.34709024979E+02 -0.77488863965E+00  0.49350420028E+02  0.00000000000E+00 0. -1.
</event>
<event>
 5    1  0.1764318E-003  0.9118800E+02  0.7818608E-02  0.1130116E+00
         25   -1    0    0    0    0  0.00000000000E+00  0.00000000000E+00  0.99999998245E-14  0.12500000000E+03  0.12500000000E+03 0.  0.
        -13    1    3    3    0    0  0.46750368110E+02 -0.25054831752E+02  0.24756773522E+02  0.58534182422E+02  0.10566000000E+00 0. -1.
         23    2    1    0    0    0  0.25313087551E+02  0.37371911892E+01  0.12947969486E+02  0.96323024685E+02  0.91955185669E+02 0.  0.
         13    1    3    3    0    0 -0.21437280559E+02  0.28792022941E+02 -0.11808804036E+02  0.37788842263E+02  0.10566000000E+00 0.  1.
         22    1    1    0    0    0 -0.25313087551E+02 -0.37371911892E+01 -0.12947969486E+02  0.28676975315E+02  0.00000000000E+00 0. -1.
</event>
<event>
 5    1  0.1764318E-003  0.9118800E+02  0.7818608E-02  0.1130116E+00
         25   -1    0    0    0    0  0.00000000000E+00  0.00000000000E+00  0.99999998245E-14  0.12500000000E+03  0.12500000000E+03 0.  0.
        -13    1    3    3    0    0 -0.41617849271E+02 -0.84789760957E+01  0.43926170303E+02  0.61102029550E+02  0.10566000000E+00 0. -1.
         23    2    1    0    0    0 -0.13443819368E+02  0.10755008063E+01  0.25657961012E+02  0.96013383356E+02  0.91533304535E+02 0.  0.
         13    1    3    3    0    0  0.28174029903E+02  0.95544769020E+01 -0.18268209291E+02  0.34911353806E+02  0.10566000000E+00 0.  1.
         22    1    1    0    0    0  0.13443819368E+02 -0.10755008063E+01 -0.25657961012E+02  0.28986616644E+02  0.00000000000E+00 0. -1.
</event>
<event>
 5    1  0.1764318E-003  0.9118800E+02  0.7818608E-02  0.1130116E+00
         25   -1    0    0    0    0  0.00000000000E+00  0.00000000000E+00  0.99999998245E-14  0.12500000000E+03  0.12500000000E+03 0.  0.
        -13    1    3    3    0    0  0.25464719368E+02  0.47320118910E+02 -0.30240744576E+02  0.61661652448E+02  0.10566000000E+00 0.  1.
         23    2    1    0    0    0  0.11081275654E+02  0.27309421513E+02 -0.90324723182E+01  0.94174933420E+02  0.88987265128E+02 0.  0.
         13    1    3    3    0    0 -0.14383443714E+02 -0.20010697397E+02  0.21208272258E+02  0.32513280972E+02  0.10566000000E+00 0. -1.
         22    1    1    0    0    0 -0.11081275654E+02 -0.27309421513E+02  0.90324723182E+01  0.30825066580E+02  0.00000000000E+00 0.  1.
</event>
<event>
 5    1  0.1764318E-003  0.9118800E+02  0.7818608E-02  0.1130116E+00
         25   -1    0    0    0    0  0.00000000000E+00  0.00000000000E+00  0.99999998245E-14  0.12500000000E+03  0.12500000000E+03 0.  0.
        -13    1    3    3    0    0  0.88056294764E+01 -0.10522340049E+02 -0.38941513672E+02  0.41288150863E+02  0.10566000000E+00 0.  1.
         23    2    1    0    0    0 -0.59928172205E+01  0.28578024891E+02 -0.44988800817E+01  0.95455841747E+02  0.90768719484E+02 0.  0.
         13    1    3    3    0    0 -0.14798446697E+02  0.39100364940E+02  0.34442633590E+02  0.54167690884E+02  0.10566000000E+00 0. -1.
         22    1    1    0    0    0  0.59928172205E+01 -0.28578024891E+02  0.44988800817E+01  0.29544158253E+02  0.00000000000E+00 0. -1.
</event>
<event>
 5    1  0.1764318E-003  0.9118800E+02  0.7818608E-02  0.1130116E+00
         25   -1    0    0    0    0  0.00000000000E+00  0.00000000000E+00  0.99999998245E-14  0.12500000000E+03  0.12500000000E+03 0.  0.
        -13    1    3    3    0    0  0.79929865813E+01 -0.30026709969E+02 -0.28945200296E+02  0.42465597020E+02  0.10566000000E+00 0.  1.
         23    2    1    0    0    0 -0.25979528083E+02  0.71342294884E+01 -0.98469935622E+01  0.96315572308E+02  0.91945054663E+02 0.  0.
         13    1    3    3    0    0 -0.33972514664E+02  0.37160939457E+02  0.19098206734E+02  0.53849975288E+02  0.10566000000E+00 0. -1.
         22    1    1    0    0    0  0.25979528083E+02 -0.71342294884E+01  0.98469935622E+01  0.28684427692E+02  0.00000000000E+00 0. -1.
</event>
<event>
 5    1  0.1764318E-003  0.9118800E+02  0.7818608E-02  0.1130116E+00
         25   -1    0    0    0    0  0.00000000000E+00  0.00000000000E+00  0.99999998245E-14  0.12500000000E+03  0.12500000000E+03 0.  0.
        -13    1    3    3    0    0 -0.54816386410E+02  0.16982685856E+02 -0.98536974089E+00  0.57395382702E+02  0.10566000000E+00 0.  1.
         23    2    1    0    0    0 -0.28100330060E+02 -0.83123301393E+01 -0.74822447360E+01  0.94755870518E+02  0.89799597046E+02 0.  0.
         13    1    3    3    0    0  0.26716056350E+02 -0.25295015995E+02 -0.64968749951E+01  0.37360487816E+02  0.10566000000E+00 0. -1.
         22    1    1    0    0    0  0.28100330060E+02  0.83123301393E+01  0.74822447360E+01  0.30244129482E+02  0.00000000000E+00 0.  1.
</event>
<event>
 5    1  0.1764318E-003  0.9118800E+02  0.7818608E-02  0.1130116E+00
         25   -1    0    0    0    0  0.00000000000E+00  0.00000000000E+00  0.99999998245E-14  0.12500000000E+03  0.12500000000E+03 0.  0.
        -13    1    3    3    0    0  0.30782233889E+02  0.91813998549E+01 -0.21489688897E+01  0.32194304742E+02  0.10566000000E+00 0.  1.
         23    2    1    0    0    0 -0.21993827642E+02  0.27944301168E+02  0.64368318780E+01  0.88860752267E+02  0.81179973311E+02 0.  0.
         13    1    3    3    0    0 -0.52776061530E+02  0.18762901313E+02  0.85858007677E+01  0.56666447526E+02  0.10566000000E+00 0. -1.
         22    1    1    0    0    0  0.21993827642E+02 -0.27944301168E+02 -0.64368318780E+01  0.36139247733E+02  0.00000000000E+00 0. -1.
</event>
<event>
 5    1  0.1764318E-003  0.9118800E+02  0.7818608E-02  0.1130116E+00
         25   -1    0    0    0    0  0.00000000000E+00  0.00000000000E+00  0.99999998245E-14  0.12500000000E+03  0.12500000000E+03 0.  0.
        -13    1    3    3    0    0 -0.49411059611E+02 -0.23935259627E+02  0.14554320244E+01  0.54922480931E+02  0.10566000000E+00 0. -1.
         23    2    1    0    0    0 -0.31674209635E+02  0.87589858215E+01  0.32250766360E+00  0.92135438542E+02  0.86074732852E+02 0.  0.
         13    1    3    3    0    0  0.17736849976E+02  0.32694245449E+02 -0.11329243608E+01  0.37212957611E+02  0.10566000000E+00 0.  1.
         22    1    1    0    0    0  0.31674209635E+02 -0.87589858215E+01 -0.32250766360E+00  0.32864561458E+02  0.00000000000E+00 0.  1.
</event>
<event>
 5    1  0.1764318E-003  0.9118800E+02  0.7818608E-02  0.1130116E+00
         25   -1    0    0    0    0  0.00000000000E+00  0.00000000000E+00  0.99999998245E-14  0.12500000000E+03  0.12500000000E+03 0.  0.
        -13    1    3    3    0    0 -0.88807450950E+01 -0.49340662213E+02  0.12978990281E+02  0.51786426154E+02  0.10566000000E+00 0. -1.
         23    2    1    0    0    0  0.11206591272E+02 -0.12822757961E+02  0.24624007175E+02  0.95060852734E+02  0.90223129980E+02 0.  0.
         13    1    3    3    0    0  0.20087336367E+02  0.36517904252E+02  0.11645016894E+02  0.43274426580E+02  0.10566000000E+00 0.  1.
         22    1    1    0    0    0 -0.11206591272E+02  0.12822757961E+02 -0.24624007175E+02  0.29939147266E+02  0.00000000000E+00 0. -1.
</event>
<event>
 5    1  0.1764318E-003  0.9118800E+02  0.7818608E-02  0.1130116E+00
         25   -1    0    0    0    0  0.00000000000E+00  0.00000000000E+00  0.99999998245E-14  0.12500000000E+03  0.12500000000E+03 0.  0.
        -13    1    3    3    0    0 -0.12953136943E+02 -0.11340390789E+01 -0.34764699596E+02  0.37116913979E+02  0.10566000000E+00 0. -1.
         23    2    1    0    0    0  0.30700537802E+02 -0.15159293764E+02 -0.95049242781E+01  0.89465920663E+02  0.82106517195E+02 0.  0.
         13    1    3    3    0    0  0.43653674745E+02 -0.14025254685E+02  0.25259775318E+02  0.52349006685E+02  0.10566000000E+00 0.  1.
         22    1    1    0    0    0 -0.30700537802E+02  0.15159293764E+02  0.95049242781E+01  0.35534079337E+02  0.00000000000E+00 0.  1.
</event>
<event>
 5    1  0.1764318E-003  0.9118800E+02  0.7818608E-02  0.1130116E+00
         25   -1    0    0    0    0  0.00000000000E+00  0.00000000000E+00  0.99999998245E-14  0.12500000000E+03  0.12500000000E+03 0.  0.
        -13    1    3    3    0    0  0.34804194671E+02 -0.61309239148E+01  0.42084683237E+02  0.54954999063E+02  0.10566000000E+00 0. -1.
         23    2    1    0    0    0 -0.43606512161E+00  0.98973949704E+01  0.26535990052E+02  0.96674969585E+02  0.92432366605E+02 0.  0.
         13    1    3    3    0    0 -0.35240259793E+02  0.16028318885E+02 -0.15548693186E+02  0.41719970522E+02  0.10566000000E+00 0.  1.
         22    1    1    0    0    0  0.43606512161E+00 -0.98973949704E+01 -0.26535990052E+02  0.28325030415E+02  0.00000000000E+00 0. -1.
</event>
<event>
 5    1  0.1764318E-003  0.9118800E+02  0.7818608E-02  0.1130116E+00
         25   -1    0    0    0    0  0.00000000000E+00  0.00000000000E+00  0.99999998245E-14  0.12500000000E+03  0.12500000000E+03 0.  0.
        -13    1    3    3    0    0  0.22857489748E+02 -0.33653756567E+02  0.35918287669E+02  0.54269463990E+02  0.10566000000E+00 0. -1.
         23    2    1    0    0    0  0.20042220413E+02 -0.21366385326E+02 -0.33520599366E+01  0.95513573855E+02  0.90848189106E+02 0.  0.
         13    1    3    3    0    0 -0.28152693348E+01  0.12287371241E+02 -0.39270347606E+02  0.41244109865E+02  0.10566000000E+00 0.  1.
         22    1    1    0    0    0 -0.20042220413E+02  0.21366385326E+02  0.33520599366E+01  0.29486426145E+02  0.00000000000E+00 0. -1.
</event>
<event>
 5    1  0.1764318E-003  0.9118800E+02  0.7818608E-02  0.1130116E+00
         25   -1    0    0    0    0  0.00000000000E+00  0.00000000000E+00  0.99999998245E-14  0.12500000000E+03  0.12500000000E+03 0.  0.
        -13    1    3    3    0    0 -0.28667027560E+02  0.19587288853E+02  0.27111793109E+01  0.34825594195E+02  0.10566000000E+00 0. -1.
         23    2    1    0    0    0  0.26159235622E+02 -0.29378099584E+01 -0.12261624282E+02  0.95960651424E+02  0.91461264238E+02 0.  0.
         13    1    3    3    0    0  0.54826263182E+02 -0.22525098812E+02 -0.14972803593E+02  0.61135057229E+02  0.10566000000E+00 0.  1.
         22    1    1    0    0    0 -0.26159235622E+02  0.29378099584E+01  0.12261624282E+02  0.29039348576E+02  0.00000000000E+00 0.  1.
</event>
<event>
 5    1  0.1764318E-003  0.9118800E+02  0.7818608E-02  0.1130116E+00
         25   -1    0    0    0    0  0.00000000000E+00  0.00000000000E+00  0.99999998245E-14  0.12500000000E+03  0.12500000000E+03 0.  0.
        -13    1    3    3    0    0  0.69080184622E+01  0.50288254542E+02 -0.73124510992E+01  0.51284621175E+02  0.10566000000E+00 0.  1.
         23    2    1    0    0    0 -0.22961432658E+02  0.17672527072E+02 -0.59003977589E+00  0.96019079557E+02  0.91541083068E+02 0.  0.
         13    1    3    3    0    0 -0.29869451120E+02 -0.32615727471E+02  0.67224113233E+01  0.44734458381E+02  0.10566000000E+00 0. -1.
         22    1    1    0    0    0  0.22961432658E+02 -0.17672527072E+02  0.59003977589E+00  0.28980920443E+02  0.00000000000E+00 0.  1.
</event>
<event>
 5    1  0.1764318E-003  0.9118800E+02  0.7818608E-02  0.1130116E+00
         25   -1    0    0    0    0  0.00000000000E+00  0.00000000000E+00  0.99999998245E-14  0.12500000000E+03  0.12500000000E+03 0.  0.
        -13    1    3    3    0    0 -0.35193771952E+02 -0.15937681643E+02 -0.80228708817E+01  0.39458698681E+02  0.10566000000E+00 0.  1.
         23    2    1    0    0    0 -0.56936847467E+01  0.23368791981E+02  0.17896280457E+02  0.95020084409E+02  0.90166629649E+02 0.  0.
         13    1    3    3    0    0  0.29500087206E+02  0.39306473624E+02  0.25919151339E+02  0.55561385728E+02  0.10566000000E+00 0. -1.
         22    1    1    0    0    0  0.56936847467E+01 -0.23368791981E+02 -0.17896280457E+02  0.29979915591E+02  0.00000000000E+00 0. -1.
</event>
<event>
 5    1  0.1764318E-003  0.9118800E+02  0.7818608E-02  0.1130116E+00
         25   -1    0    0    0    0  0.00000000000E+00  0.00000000000E+00  0.99999998245E-14  0.12500000000E+03  0.12500000000E+03 0.  0.
        -13    1    3    3    0    0 -0.18749419635E+02 -0.15595746205E+02  0.49569194041E+02  0.55243861181E+02  0.10566000000E+00 0. -1.
         23    2    1    0    0    0 -0.21881353568E+02 -0.15591134782E+02  0.79501927270E+01  0.96980673060E+02  0.92844861274E+02 0.  0.
         13    1    3    3    0    0 -0.31319339335E+01  0.46114229887E-02 -0.41619001314E+02  0.41736811879E+02  0.10566000000E+00 0.  1.
         22    1    1    0    0    0  0.21881353568E+02  0.15591134782E+02 -0.79501927270E+01  0.28019326940E+02  0.00000000000E+00 0.  1.
</event>
<event>
 5    1  0.1764318E-003  0.9118800E+02  0.7818608E-02  0.1130116E+00
         25   -1    0    0    0    0  0.00000000000E+00  0.00000000000E+00  0.99999998245E-14  0.12500000000E+03  0.12500000000E+03 0.  0.
        -13    1    3    3    0    0  0.24545745050E+02 -0.38901792608E+02  0.22155014705E+02  0.51055841084E+02  0.10566000000E+00 0. -1.
         23    2    1    0    0    0  0.80902620410E+01 -0.23688855974E+02 -0.15989770442E+02  0.95296683753E+02  0.90549273538E+02 0.  0.
         13    1    3    3    0    0 -0.16455483009E+02  0.15212936633E+02 -0.38144785148E+02  0.44240842669E+02  0.10566000000E+00 0.  1.
         22    1    1    0    0    0 -0.80902620410E+01  0.23688855974E+02  0.15989770442E+02  0.29703316247E+02  0.00000000000E+00 0. -1.
</event>
<event>
 5    1  0.1764318E-003  0.9118800E+02  0.7818608E-02  0.1130116E+00
         25   -1    0    0    0    0  0.00000000000E+00  0.00000000000E+00  0.99999998245E-14  0.12500000000E+03  0.12500000000E+03 0.  0.
        -13    1    3    3    0    0  0.50931633676E+02  0.33187250640E+01  0.13361631858E+02  0.52759734788E+02  0.10566000000E+00 0. -1.
         23    2    1    0    0    0  0.14594080048E+02 -0.17468409113E+02  0.19445023612E+02  0.95062708327E+02  0.90225700783E+02 0.  0.
         13    1    3    3    0    0 -0.36337553628E+02 -0.20787134178E+02  0.60833917544E+01  0.42302973539E+02  0.10566000000E+00 0.  1.
         22    1    1    0    0    0 -0.14594080048E+02  0.17468409113E+02 -0.19445023612E+02  0.29937291673E+02  0.00000000000E+00 0. -1.
</event>
<event>
 5    1  0.1764318E-003  0.9118800E+02  0.7818608E-02  0.1130116E+00
         25   -1    0    0    0    0  0.00000000000E+00  0.00000000000E+00  0.99999998245E-14  0.12500000000E+03  0.12500000000E+03 0.  0.
        -13    1    3    3    0    0  0.26705827051E+02 -0.38522304332E+02 -0.58324959401E+01  0.47235561841E+02  0.10566000000E+00 0.  1.
         23    2    1    0    0    0 -0.48112687141E+00 -0.13000977273E+02  0.25781187633E+02  0.96122213920E+02  0.91681805610E+02 0.  0.
         13    1    3    3    0    0 -0.27186953922E+02  0.25521327059E+02  0.31613683573E+02  0.48886652079E+02  0.10566000000E+00 0. -1.
         22    1    1    0    0    0  0.48112687141E+00  0.13000977273E+02 -0.25781187633E+02  0.28877786080E+02  0.00000000000E+00 0.  1.
</event>
<event>
 5    1  0.1764318E-003  0.9118800E+02  0.7818608E-02  0.1130116E+00
         25   -1    0    0    0    0  0.00000000000E+00  0.00000000000E+00  0.99999998245E-14  0.12500000000E+03  0.12500000000E+03 0.  0.
        -13    1    3    3    0    0  0.15438676657E+02  0.34990300728E+02 -0.67165647820E+01  0.38830365546E+02  0.10566000000E+00 0.  1.
         23    2    1    0    0    0 -0.20125364815E+02  0.15408884443E+01  0.21734876377E+02  0.95338417149E+02  0.90606866667E+02 0.  0.
         13    1    3    3    0    0 -0.35564041472E+02 -0.33449412284E+02  0.28451441159E+02  0.56508051603E+02  0.10566000000E+00 0. -1.
         22    1    1    0    0    0  0.20125364815E+02 -0.15408884443E+01 -0.21734876377E+02  0.29661582851E+02  0.00000000000E+00 0. -1.
</event>
<event>
 5    1  0.1764318E-003  0.9118800E+02  0.7818608E-02  0.1130116E+00
         25   -1    0    0    0    0  0.00000000000E+00  0.00000000000E+00  0.99999998245E-14  0.12500000000E+03  0.12500000000E+03 0.  0.
        -13    1    3    3    0    0  0.37558554949E+02  0.19103249742E+02 -0.90413755734E+01  0.43096830937E+02  0.10566000000E+00 0.  1.
         23    2    1    0    0    0 -0.73760129830E+01  0.25403931723E+02  0.15148595536E+02  0.94516475577E+02  0.89465741456E+02 0.  0.
         13    1    3    3    0    0 -0.44934567932E+02  0.63006819808E+01  0.24189971109E+02  0.51419644640E+02  0.10566000000E+00 0. -1.
         22    1    1    0    0    0  0.73760129830E+01 -0.25403931723E+02 -0.15148595536E+02  0.30483524423E+02  0.00000000000E+00 0. -1.
</event>
<event>
 5    1  0.1764318E-003  0.9118800E+02  0.7818608E-02  0.1130116E+00
         25   -1    0    0    0    0  0.00000000000E+00  0.00000000000E+00  0.99999998245E-14  0.12500000000E+03  0.12500000000E+03 0.  0.
        -13    1    3    3    0    0 -0.14228563181E+02 -0.26996767328E+02 -0.14436964846E+02  0.33759658979E+02  0.10566000000E+00 0.  1.
         23    2    1    0    0    0 -0.13316201993E+02  0.18013635788E+02  0.23427836187E+02  0.92585870083E+02  0.86726394603E+02 0.  0.
         13    1    3    3    0    0  0.91236118869E+00  0.45010403116E+02  0.37864801033E+02  0.58826211105E+02  0.10566000000E+00 0. -1.
         22    1    1    0    0    0  0.13316201993E+02 -0.18013635788E+02 -0.23427836187E+02  0.32414129917E+02  0.00000000000E+00 0. -1.
</event>
<event>
 5    1  0.1764318E-003  0.9118800E+02  0.7818608E-02  0.1130116E+00
         25   -1    0    0    0    0  0.00000000000E+00  0.00000000000E+00  0.99999998245E-14  0.12500000000E+03  0.12500000000E+03 0.  0.
        -13    1    3    3    0    0 -0.41238799696E+01  0.33586559753E+02  0.25401769772E+02  0.42312225817E+02  0.10566000000E+00 0.  1.
         23    2    1    0    0    0 -0.28879065947E+02 -0.62993215648E+01  0.53130759596E+00  0.95437114656E+02  0.90742926247E+02 0.  0.
         13    1    3    3    0    0 -0.24755185977E+02 -0.39885881318E+02 -0.24870462176E+02  0.53124888839E+02  0.10566000000E+00 0. -1.
         22    1    1    0    0    0  0.28879065947E+02  0.62993215648E+01 -0.53130759596E+00  0.29562885344E+02  0.00000000000E+00 0. -1.
</event>
<event>
 5    1  0.1764318E-003  0.9118800E+02  0.7818608E-02  0.1130116E+00
         25   -1    0    0    0    0  0.00000000000E+00  0.00000000000E+00  0.99999998245E-14  0.12500000000E+03  0.12500000000E+03 0.  0.
        -13    1    3    3    0    0  0.45658926902E+02 -0.40916347721E+01  0.30108198312E+02  0.54845180742E+02  0.10566000000E+00 0.  1.
         23    2    1    0    0    0  0.18366232336E+02  0.19854175394E+02  0.12215568733E+02  0.95322956847E+02  0.90585535335E+02 0.  0.
         13    1    3    3    0    0 -0.27292694566E+02  0.23945810166E+02 -0.17892629578E+02  0.40477776106E+02  0.10566000000E+00 0. -1.
         22    1    1    0    0    0 -0.18366232336E+02 -0.19854175394E+02 -0.12215568733E+02  0.29677043153E+02  0.00000000000E+00 0.  1.
</event>
<event>
 5    1  0.1764318E-003  0.9118800E+02  0.7818608E-02  0.1130116E+00
         25   -1    0    0    0    0  0.00000000000E+00  0.00000000000E+00  0.99999998245E-14  0.12500000000E+03  0.12500000000E+03 0.  0.
        -13    1    3    3    0    0 -0.30213808863E+02 -0.77130565116E+01 -0.12637266794E+02  0.33646354377E+02  0.10566000000E+00 0. -1.
         23    2    1    0    0    0  0.22557131464E+02  0.20284800303E+02 -0.21354041676E+00  0.94662846167E+02  0.89670014730E+02 0.  0.
         13    1    3    3    0    0  0.52770940327E+02  0.27997856814E+02  0.12423726377E+02  0.61016491790E+02  0.10566000000E+00 0.  1.
         22    1    1    0    0    0 -0.22557131464E+02 -0.20284800303E+02  0.21354041676E+00  0.30337153833E+02  0.00000000000E+00 0.  1.
</event>
<event>
 5    1  0.1764318E-003  0.9118800E+02  0.7818608E-02  0.1130116E+00
         25   -1    0    0    0    0  0.00000000000E+00  0.00000000000E+00  0.99999998245E-14  0.12500000000E+03  0.12500000000E+03 0.  0.
        -13    1    3    3    0    0 -0.38805028716E+02  0.26905361288E+02 -0.33876364859E+02  0.58114954872E+02  0.10566000000E+00 0.  1.
         23    2    1    0    0    0 -0.29616478579E+02  0.18466627122E+01 -0.10724489991E+02  0.93447493726E+02  0.87959498814E+02 0.  0.
         13    1    3    3    0    0  0.91885501373E+01 -0.25058698576E+02  0.23151874868E+02  0.35332538854E+02  0.10566000000E+00 0. -1.
         22    1    1    0    0    0  0.29616478579E+02 -0.18466627122E+01  0.10724489991E+02  0.31552506274E+02  0.00000000000E+00 0.  1.
</event>
<event>
 5    1  0.1764318E-003  0.9118800E+02  0.7818608E-02  0.1130116E+00
         25   -1    0    0    0    0  0.00000000000E+00  0.00000000000E+00  0.99999998245E-14  0.12500000000E+03  0.12500000000E+03 0.  0.
        -13    1    3    3    0    0  0.90904281862E+01 -0.16941400107E+02  0.32710183930E+02  0.37942248471E+02  0.10566000000E+00 0.  1.
         23    2    1    0    0    0  0.22763990980E+02  0.71266432365E+01 -0.17594144697E+02  0.95359786493E+02  0.90636342728E+02 0.  0.
         13    1    3    3    0    0  0.13673562794E+02  0.24068043344E+02 -0.50304328627E+02  0.57417538022E+02  0.10566000000E+00 0. -1.
         22    1    1    0    0    0 -0.22763990980E+02 -0.71266432365E+01  0.17594144697E+02  0.29640213507E+02  0.00000000000E+00 0. -1.
</event>
<event>
 5    1  0.1764318E-003  0.9118800E+02  0.7818608E-02  0.1130116E+00
         25   -1    0    0    0    0  0.00000000000E+00  0.00000000000E+00  0.99999998245E-14  0.12500000000E+03  0.12500000000E+03 0.  0.
        -13    1    3    3    0    0 -0.22990868943E+01 -0.56398862722E+02  0.35625534765E+00  0.56446927275E+02  0.10566000000E+00 0. -1.
         23    2    1    0    0    0  0.11200042766E+02 -0.25342468569E+02  0.15173407526E+02  0.93410223694E+02  0.87906518094E+02 0.  0.
         13    1    3    3    0    0  0.13499129660E+02  0.31056394153E+02  0.14817152179E+02  0.36963296418E+02  0.10566000000E+00 0.  1.
         22    1    1    0    0    0 -0.11200042766E+02  0.25342468569E+02 -0.15173407526E+02  0.31589776306E+02  0.00000000000E+00 0. -1.
</event>
<event>
 5    1  0.1764318E-003  0.9118800E+02  0.7818608E-02  0.1130116E+00
         25   -1    0    0    0    0  0.00000000000E+00  0.00000000000E+00  0.99999998245E-14  0.12500000000E+03  0.12500000000E+03 0.  0.
        -13    1    3    3    0    0 -0.35610695829E+02  0.27669228259E+02 -0.51658428997E+01  0.45391683674E+02  0.10566000000E+00 0.  1.
         23    2    1    0    0    0  0.17523754917E+01  0.45571759385E+01 -0.29148708343E+02  0.95445205627E+02  0.90754071020E+02 0.  0.
         13    1    3    3    0    0  0.37363071321E+02 -0.23112052320E+02 -0.23982865443E+02  0.50053521953E+02  0.10566000000E+00 0. -1.
         22    1    1    0    0    0 -0.17523754917E+01 -0.45571759385E+01  0.29148708343E+02  0.29554794373E+02  0.00000000000E+00 0.  1.
</event>
<event>
 5    1  0.1764318E-003  0.9118800E+02  0.7818608E-02  0.1130116E+00
         25   -1    0    0    0    0  0.00000000000E+00  0.00000000000E+00  0.99999998245E-14  0.12500000000E+03  0.12500000000E+03 0.  0.
        -13    1    3    3    0    0 -0.31627540439E+02 -0.38840892768E+02  0.30777160859E+02  0.58789123652E+02  0.10566000000E+00 0. -1.
         23    2    1    0    0    0 -0.16202545360E+02 -0.26720242297E+02  0.19081197189E+01  0.93692896247E+02  0.88307553820E+02 0.  0.
         13    1    3    3    0    0  0.15424995079E+02  0.12120650471E+02 -0.28869041140E+02  0.34903772595E+02  0.10566000000E+00 0.  1.
         22    1    1    0    0    0  0.16202545360E+02  0.26720242297E+02 -0.19081197189E+01  0.31307103753E+02  0.00000000000E+00 0. -1.
</event>
<event>
 5    1  0.1764318E-003  0.9118800E+02  0.7818608E-02  0.1130116E+00
         25   -1    0    0    0    0  0.00000000000E+00  0.00000000000E+00  0.99999998245E-14  0.12500000000E+03  0.12500000000E+03 0.  0.
        -13    1    3    3    0    0 -0.85790881996E+01 -0.46076284986E+02  0.20904152027E+02  0.51318802875E+02  0.10566000000E+00 0.  1.
         23    2    1    0    0    0  0.60270305067E+01 -0.48286731471E+01  0.28271978094E+02  0.95692220718E+02  0.91093661577E+02 0.  0.
         13    1    3    3    0    0  0.14606118706E+02  0.41247611839E+02  0.73678260665E+01  0.44373417843E+02  0.10566000000E+00 0. -1.
         22    1    1    0    0    0 -0.60270305067E+01  0.48286731471E+01 -0.28271978094E+02  0.29307779282E+02  0.00000000000E+00 0.  1.
</event>
<event>
 5    1  0.1764318E-003  0.9118800E+02  0.7818608E-02  0.1130116E+00
         25   -1    0    0    0    0  0.00000000000E+00  0.00000000000E+00  0.99999998245E-14  0.12500000000E+03  0.12500000000E+03 0.  0.
        -13    1    3    3    0    0  0.45113520246E+02  0.32902059106E+02 -0.99239160152E+01  0.56712172199E+02  0.10566000000E+00 0.  1.
         23    2    1    0    0    0  0.11970000554E+02  0.24521943625E+02  0.95902914876E+01  0.96076301702E+02  0.91619186994E+02 0.  0.
         13    1    3    3    0    0 -0.33143519692E+02 -0.83801154808E+01  0.19514207503E+02  0.39364129503E+02  0.10566000000E+00 0. -1.
         22    1    1    0    0    0 -0.11970000554E+02 -0.24521943625E+02 -0.95902914876E+01  0.28923698298E+02  0.00000000000E+00 0.  1.
</event>
<event>
 5    1  0.1764318E-003  0.9118800E+02  0.7818608E-02  0.1130116E+00
         25   -1    0    0    0    0  0.00000000000E+00  0.00000000000E+00  0.99999998245E-14  0.12500000000E+03  0.12500000000E+03 0.  0.
        -13    1    3    3    0    0 -0.33700755612E+02 -0.36450442699E+02  0.99313133122E+01  0.50626256527E+02  0.10566000000E+00 0. -1.
         23    2    1    0    0    0 -0.14640218184E+02 -0.11943020093E+02 -0.22564708123E+02  0.95569781344E+02  0.90925493323E+02 0.  0.
         13    1    3    3    0    0  0.19060537428E+02  0.24507422606E+02 -0.32496021435E+02  0.44943524817E+02  0.10566000000E+00 0.  1.
         22    1    1    0    0    0  0.14640218184E+02  0.11943020093E+02  0.22564708123E+02  0.29430218656E+02  0.00000000000E+00 0. -1.
</event>
<event>
 5    1  0.1764318E-003  0.9118800E+02  0.7818608E-02  0.1130116E+00
         25   -1    0    0    0    0  0.00000000000E+00  0.00000000000E+00  0.99999998245E-14  0.12500000000E+03  0.12500000000E+03 0.  0.
        -13    1    3    3    0    0  0.11621914890E+02 -0.38637819139E+02 -0.27207309963E+02  0.48664143401E+02  0.10566000000E+00 0. -1.
         23    2    1    0    0    0  0.22257400443E+02 -0.12455988285E+02  0.11852402440E+02  0.96874869561E+02  0.92702305204E+02 0.  0.
         13    1    3    3    0    0  0.10635485553E+02  0.26181830854E+02  0.39059712402E+02  0.48210726159E+02  0.10566000000E+00 0.  1.
         22    1    1    0    0    0 -0.22257400443E+02  0.12455988285E+02 -0.11852402440E+02  0.28125130439E+02  0.00000000000E+00 0. -1.
</event>
<event>
 5    1  0.1764318E-003  0.9118800E+02  0.7818608E-02  0.1130116E+00
         25   -1    0    0    0    0  0.00000000000E+00  0.00000000000E+00  0.99999998245E-14  0.12500000000E+03  0.12500000000E+03 0.  0.
        -13    1    3    3    0    0  0.24832931986E+02 -0.22387172472E+02  0.41556931210E+01  0.33691852897E+02  0.10566000000E+00 0.  1.
         23    2    1    0    0    0 -0.14883419564E+02  0.20818271555E+02  0.17653222868E+02  0.93910566327E+02  0.88615131788E+02 0.  0.
         13    1    3    3    0    0 -0.39716351549E+02  0.43205444027E+02  0.13497529747E+02  0.60218713431E+02  0.10566000000E+00 0. -1.
         22    1    1    0    0    0  0.14883419564E+02 -0.20818271555E+02 -0.17653222868E+02  0.31089433673E+02  0.00000000000E+00 0. -1.
</event>
<event>
 5    1  0.1764318E-003  0.9118800E+02  0.7818608E-02  0.1130116E+00
         25   -1    0    0    0    0  0.00000000000E+00  0.00000000000E+00  0.99999998245E-14  0.12500000000E+03  0.12500000000E+03 0.  0.
        -13    1    3    3    0    0  0.26172966497E+01 -0.31745572620E+02 -0.53596855450E+02  0.62347940631E+02  0.10566000000E+00 0.  1.
         23    2    1    0    0    0  0.38728404444E+01 -0.18278623584E+02 -0.34740374671E+02  0.85553826478E+02  0.75917432909E+02 0.  0.
         13    1    3    3    0    0  0.12555437947E+01  0.13466949037E+02  0.18856480779E+02  0.23205885848E+02  0.10566000000E+00 0. -1.
         22    1    1    0    0    0 -0.38728404444E+01  0.18278623584E+02  0.34740374671E+02  0.39446173522E+02  0.00000000000E+00 0.  1.
</event>
<event>
 5    1  0.1764318E-003  0.9118800E+02  0.7818608E-02  0.1130116E+00
         25   -1    0    0    0    0  0.00000000000E+00  0.00000000000E+00  0.99999998245E-14  0.12500000000E+03  0.12500000000E+03 0.  0.
        -13    1    3    3    0    0 -0.31557843652E+01 -0.82072356837E+01 -0.59093337565E+02  0.59744049085E+02  0.10566000000E+00 0.  1.
         23    2    1    0    0    0  0.10978137267E+02 -0.74941716380E+01 -0.32903311179E+02  0.89513242006E+02  0.82178528227E+02 0.  0.
         13    1    3    3    0    0  0.14133921632E+02  0.71306404563E+00  0.26190026386E+02  0.29769192921E+02  0.10566000000E+00 0. -1.
         22    1    1    0    0    0 -0.10978137267E+02  0.74941716380E+01  0.32903311179E+02  0.35486757994E+02  0.00000000000E+00 0.  1.
</event>
<event>
 5    1  0.1764318E-003  0.9118800E+02  0.7818608E-02  0.1130116E+00
         25   -1    0    0    0    0  0.00000000000E+00  0.00000000000E+00  0.99999998245E-14  0.12500000000E+03  0.12500000000E+03 0.  0.
        -13    1    3    3    0    0 -0.38242831033E+01 -0.10366721830E+02 -0.34691626349E+02  0.36408984681E+02  0.10566000000E+00 0.  1.
         23    2    1    0    0    0  0.26291794550E+02  0.46389080000E+01  0.13419857387E+02  0.95119061253E+02  0.90303739199E+02 0.  0.
         13    1    3    3    0    0  0.30116077654E+02  0.15005629830E+02  0.48111483735E+02  0.58710076572E+02  0.10566000000E+00 0. -1.
         22    1    1    0    0    0 -0.26291794550E+02 -0.46389080000E+01 -0.13419857387E+02  0.29880938747E+02  0.00000000000E+00 0. -1.
</event>
<event>
 5    1  0.1764318E-003  0.9118800E+02  0.7818608E-02  0.1130116E+00
         25   -1    0    0    0    0  0.00000000000E+00  0.00000000000E+00  0.99999998245E-14  0.12500000000E+03  0.12500000000E+03 0.  0.
        -13    1    3    3    0    0 -0.49743099208E+02  0.25072752085E+02 -0.53132048563E+01  0.55957663692E+02  0.10566000000E+00 0. -1.
         23    2    1    0    0    0 -0.18834397290E+02  0.42179745825E+01 -0.21060489356E+02  0.96433060319E+02  0.92104642009E+02 0.  0.
         13    1    3    3    0    0  0.30908701918E+02 -0.20854777503E+02 -0.15747284499E+02  0.40475396627E+02  0.10566000000E+00 0.  1.
         22    1    1    0    0    0  0.18834397290E+02 -0.42179745825E+01  0.21060489356E+02  0.28566939681E+02  0.00000000000E+00 0. -1.
</event>
<event>
 5    1  0.1764318E-003  0.9118800E+02  0.7818608E-02  0.1130116E+00
         25   -1    0    0    0    0  0.00000000000E+00  0.00000000000E+00  0.99999998245E-14  0.12500000000E+03  0.12500000000E+03 0.  0.
        -13    1    3    3    0    0 -0.27705753955E+02  0.11716217997E+02  0.39105525712E+02  0.49336921992E+02  0.10566000000E+00 0. -1.
         23    2    1    0    0    0 -0.42895728446E+01  0.30716564771E+02  0.73555949856E+01  0.93125048014E+02  0.87500068592E+02 0.  0.
         13    1    3    3    0    0  0.23416181111E+02  0.19000346774E+02 -0.31749930727E+02  0.43788126022E+02  0.10566000000E+00 0.  1.
         22    1    1    0    0    0  0.42895728446E+01 -0.30716564771E+02 -0.73555949856E+01  0.31874951986E+02  0.00000000000E+00 0. -1.
</event>
<event>
 5    1  0.1764318E-003  0.9118800E+02  0.7818608E-02  0.1130116E+00
         25   -1    0    0    0    0  0.00000000000E+00  0.00000000000E+00  0.99999998245E-14  0.12500000000E+03  0.12500000000E+03 0.  0.
        -13    1    3    3    0    0  0.23696819853E+02 -0.13420597915E+01  0.23433217601E+02  0.33353669166E+02  0.10566000000E+00 0.  1.
         23    2    1    0    0    0 -0.18748999938E+02 -0.17339055040E+02 -0.17165842963E+02  0.94229332263E+02  0.89063646151E+02 0.  0.
         13    1    3    3    0    0 -0.42445819791E+02 -0.15996995249E+02 -0.40599060565E+02  0.60875663097E+02  0.10566000000E+00 0. -1.
         22    1    1    0    0    0  0.18748999938E+02  0.17339055040E+02  0.17165842963E+02  0.30770667737E+02  0.00000000000E+00 0. -1.
</event>
<event>
 5    1  0.1764318E-003  0.9118800E+02  0.7818608E-02  0.1130116E+00
         25   -1    0    0    0    0  0.00000000000E+00  0.00000000000E+00  0.99999998245E-14  0.12500000000E+03  0.12500000000E+03 0.  0.
        -13    1    3    3    0    0  0.24346989930E+02 -0.85752204752E+01  0.24439177122E+02  0.35547079589E+02  0.10566000000E+00 0.  1.
         23    2    1    0    0    0 -0.12297544389E+02  0.13216679444E+02 -0.20629579638E+02  0.97586686272E+02  0.93657202435E+02 0.  0.
         13    1    3    3    0    0 -0.36644534318E+02  0.21791899919E+02 -0.45068756760E+02  0.62039606683E+02  0.10566000000E+00 0. -1.
         22    1    1    0    0    0  0.12297544389E+02 -0.13216679444E+02  0.20629579638E+02  0.27413313728E+02  0.00000000000E+00 0. -1.
</event>
<event>
 5    1  0.1764318E-003  0.9118800E+02  0.7818608E-02  0.1130116E+00
         25   -1    0    0    0    0  0.00000000000E+00  0.00000000000E+00  0.99999998245E-14  0.12500000000E+03  0.12500000000E+03 0.  0.
        -13    1    3    3    0    0  0.19695508014E+02  0.23613351555E+01 -0.21453600762E+02  0.29219121981E+02  0.10566000000E+00 0. -1.
         23    2    1    0    0    0  0.32811395783E+01  0.19931887052E+02  0.31615935785E+02  0.87481825818E+02  0.79028200375E+02 0.  0.
         13    1    3    3    0    0 -0.16414368436E+02  0.17570551897E+02  0.53069536547E+02  0.58262703837E+02  0.10566000000E+00 0.  1.
         22    1    1    0    0    0 -0.32811395783E+01 -0.19931887052E+02 -0.31615935785E+02  0.37518174182E+02  0.00000000000E+00 0.  1.
</event>
<event>
 5    1  0.1764318E-003  0.9118800E+02  0.7818608E-02  0.1130116E+00
         25   -1    0    0    0    0  0.00000000000E+00  0.00000000000E+00  0.99999998245E-14  0.12500000000E+03  0.12500000000E+03 0.  0.
        -13    1    3    3    0    0  0.37340714411E+02 -0.31103940341E+02  0.33408006924E+02  0.58973639434E+02  0.10566000000E+00 0. -1.
         23    2    1    0    0    0  0.16512808905E+02 -0.24129374420E+01  0.24199919285E+02  0.95603891101E+02  0.90972373692E+02 0.  0.
         13    1    3    3    0    0 -0.20827905507E+02  0.28691002899E+02 -0.92080876392E+01  0.36630251666E+02  0.10566000000E+00 0.  1.
         22    1    1    0    0    0 -0.16512808905E+02  0.24129374420E+01 -0.24199919285E+02  0.29396108899E+02  0.00000000000E+00 0. -1.
</event>
<event>
 5    1  0.1764318E-003  0.9118800E+02  0.7818608E-02  0.1130116E+00
         25   -1    0    0    0    0  0.00000000000E+00  0.00000000000E+00  0.99999998245E-14  0.12500000000E+03  0.12500000000E+03 0.  0.
        -13    1    3    3    0    0 -0.77983380545E+01  0.26881987528E+02 -0.21769238974E+02  0.35459360674E+02  0.10566000000E+00 0. -1.
         23    2    1    0    0    0  0.24213864505E+02 -0.11500556601E+02  0.11846793220E+02  0.95692653719E+02  0.91094255746E+02 0.  0.
         13    1    3    3    0    0  0.32012202559E+02 -0.38382544130E+02  0.33616032194E+02  0.60233293045E+02  0.10566000000E+00 0.  1.
         22    1    1    0    0    0 -0.24213864505E+02  0.11500556601E+02 -0.11846793220E+02  0.29307346281E+02  0.00000000000E+00 0.  1.
</event>
<event>
 5    1  0.1764318E-003  0.9118800E+02  0.7818608E-02  0.1130116E+00
         25   -1    0    0    0    0  0.00000000000E+00  0.00000000000E+00  0.99999998245E-14  0.12500000000E+03  0.12500000000E+03 0.  0.
        -13    1    3    3    0    0 -0.95086942209E+01  0.30112222651E+02  0.70751381054E+01  0.32360932650E+02  0.10566000000E+00 0. -1.
         23    2    1    0    0    0 -0.36022804550E+01 -0.25747596193E+02  0.22506256158E+02  0.90613277266E+02  0.83835072114E+02 0.  0.
         13    1    3    3    0    0  0.59064137659E+01 -0.55859818843E+02  0.15431118052E+02  0.58252344615E+02  0.10566000000E+00 0.  1.
         22    1    1    0    0    0  0.36022804550E+01  0.25747596193E+02 -0.22506256158E+02  0.34386722734E+02  0.00000000000E+00 0.  1.
</event>
<event>
 5    1  0.1764318E-003  0.9118800E+02  0.7818608E-02  0.1130116E+00
         25   -1    0    0    0    0  0.00000000000E+00  0.00000000000E+00  0.99999998245E-14  0.12500000000E+03  0.12500000000E+03 0.  0.
        -13    1    3    3    0    0  0.15102018269E+02 -0.93259763296E+01  0.25038527896E+02  0.30691755139E+02  0.10566000000E+00 0.  1.
         23    2    1    0    0    0 -0.21734168033E+02  0.25851498285E+02 -0.65082561574E+01  0.90604776176E+02  0.83822395838E+02 0.  0.
         13    1    3    3    0    0 -0.36836186302E+02  0.35177474615E+02 -0.31546784053E+02  0.59913021037E+02  0.10566000000E+00 0. -1.
         22    1    1    0    0    0  0.21734168033E+02 -0.25851498285E+02  0.65082561574E+01  0.34395223824E+02  0.00000000000E+00 0. -1.
</event>
<event>
 5    1  0.1764318E-003  0.9118800E+02  0.7818608E-02  0.1130116E+00
         25   -1    0    0    0    0  0.00000000000E+00  0.00000000000E+00  0.99999998245E-14  0.12500000000E+03  0.12500000000E+03 0.  0.
        -13    1    3    3    0    0 -0.28825950728E+02  0.29381756672E+02 -0.23199602783E+02  0.47248870821E+02  0.10566000000E+00 0.  1.
         23    2    1    0    0    0  0.14483196765E+02  0.25259357116E+02 -0.15531503331E+01  0.95841632652E+02  0.91298456520E+02 0.  0.
         13    1    3    3    0    0  0.43309147493E+02 -0.41223995565E+01  0.21646452450E+02  0.48592761831E+02  0.10566000000E+00 0. -1.
         22    1    1    0    0    0 -0.14483196765E+02 -0.25259357116E+02  0.15531503331E+01  0.29158367348E+02  0.00000000000E+00 0. -1.
</event>
<event>
 5    1  0.1764318E-003  0.9118800E+02  0.7818608E-02  0.1130116E+00
         25   -1    0    0    0    0  0.00000000000E+00  0.00000000000E+00  0.99999998245E-14  0.12500000000E+03  0.12500000000E+03 0.  0.
        -13    1    3    3    0    0 -0.24614177672E+02 -0.15622280126E+02  0.21600319849E+02  0.36283582518E+02  0.10566000000E+00 0. -1.
         23    2    1    0    0    0  0.29166453470E+02  0.19747130353E+00  0.16524252290E+01  0.95786107550E+02  0.91222403430E+02 0.  0.
         13    1    3    3    0    0  0.53780631142E+02  0.15819751429E+02 -0.19947894620E+02  0.59502525031E+02  0.10566000000E+00 0.  1.
         22    1    1    0    0    0 -0.29166453470E+02 -0.19747130353E+00 -0.16524252290E+01  0.29213892450E+02  0.00000000000E+00 0.  1.
</event>
<event>
 5    1  0.1764318E-003  0.9118800E+02  0.7818608E-02  0.1130116E+00
         25   -1    0    0    0    0  0.00000000000E+00  0.00000000000E+00  0.99999998245E-14  0.12500000000E+03  0.12500000000E+03 0.  0.
        -13    1    3    3    0    0  0.14089537518E+02  0.13176796849E+02  0.29856489545E+02  0.35546647868E+02  0.10566000000E+00 0. -1.
         23    2    1    0    0    0  0.28846067130E+01  0.10604492823E+02 -0.28201928836E+02  0.94732442880E+02  0.89766980121E+02 0.  0.
         13    1    3    3    0    0 -0.11204930805E+02 -0.25723040254E+01 -0.58058418381E+02  0.59185795012E+02  0.10566000000E+00 0.  1.
         22    1    1    0    0    0 -0.28846067130E+01 -0.10604492823E+02  0.28201928836E+02  0.30267557120E+02  0.00000000000E+00 0.  1.
</event>
<event>
 5    1  0.1764318E-003  0.9118800E+02  0.7818608E-02  0.1130116E+00
         25   -1    0    0    0    0  0.00000000000E+00  0.00000000000E+00  0.99999998245E-14  0.12500000000E+03  0.12500000000E+03 0.  0.
        -13    1    3    3    0    0  0.95731293696E+01 -0.46882030406E+02  0.64717310632E-01  0.47849607452E+02  0.10566000000E+00 0.  1.
         23    2    1    0    0    0  0.13890884917E+02 -0.74149978333E+01  0.25520994564E+02  0.95012335200E+02  0.90155886109E+02 0.  0.
         13    1    3    3    0    0  0.43177555470E+01  0.39467032573E+02  0.25456277253E+02  0.47162727748E+02  0.10566000000E+00 0. -1.
         22    1    1    0    0    0 -0.13890884917E+02  0.74149978333E+01 -0.25520994564E+02  0.29987664800E+02  0.00000000000E+00 0. -1.
</event>
<event>
 5    1  0.1764318E-003  0.9118800E+02  0.7818608E-02  0.1130116E+00
         25   -1    0    0    0    0  0.00000000000E+00  0.00000000000E+00  0.99999998245E-14  0.12500000000E+03  0.12500000000E+03 0.  0.
        -13    1    3    3    0    0 -0.38785905225E+02  0.32083858237E+02  0.30423836682E+02  0.58816166196E+02  0.10566000000E+00 0. -1.
         23    2    1    0    0    0 -0.25286268668E+02  0.18432966293E+02  0.13220048397E+01  0.93680400285E+02  0.88289863922E+02 0.  0.
         13    1    3    3    0    0  0.13499636557E+02 -0.13650891944E+02 -0.29101831842E+02  0.34864234089E+02  0.10566000000E+00 0.  1.
         22    1    1    0    0    0  0.25286268668E+02 -0.18432966293E+02 -0.13220048397E+01  0.31319599715E+02  0.00000000000E+00 0. -1.
</event>
<event>
 5    1  0.1764318E-003  0.9118800E+02  0.7818608E-02  0.1130116E+00
         25   -1    0    0    0    0  0.00000000000E+00  0.00000000000E+00  0.99999998245E-14  0.12500000000E+03  0.12500000000E+03 0.  0.
        -13    1    3    3    0    0 -0.19870520405E+02  0.43414143452E+02 -0.33007005385E+02  0.58043940264E+02  0.10566000000E+00 0. -1.
         23    2    1    0    0    0 -0.14225977618E+02  0.25578467584E+02 -0.29202208819E+00  0.95730190981E+02  0.91145750011E+02 0.  0.
         13    1    3    3    0    0  0.56445427862E+01 -0.17835675868E+02  0.32714983297E+02  0.37686250717E+02  0.10566000000E+00 0.  1.
         22    1    1    0    0    0  0.14225977618E+02 -0.25578467584E+02  0.29202208819E+00  0.29269809019E+02  0.00000000000E+00 0. -1.
</event>
<event>
 5    1  0.1764318E-003  0.9118800E+02  0.7818608E-02  0.1130116E+00
         25   -1    0    0    0    0  0.00000000000E+00  0.00000000000E+00  0.99999998245E-14  0.12500000000E+03  0.12500000000E+03 0.  0.
        -13    1    3    3    0    0 -0.28506168927E+02  0.75333620766E+01  0.42233235811E+02  0.51507383763E+02  0.10566000000E+00 0. -1.
         23    2    1    0    0    0 -0.26519035965E+02 -0.97014447775E+01  0.43989248296E+00  0.96758703913E+02  0.92545534621E+02 0.  0.
         13    1    3    3    0    0  0.19871329619E+01 -0.17234806854E+02 -0.41793343328E+02  0.45251320149E+02  0.10566000000E+00 0.  1.
         22    1    1    0    0    0  0.26519035965E+02  0.97014447775E+01 -0.43989248296E+00  0.28241296087E+02  0.00000000000E+00 0. -1.
</event>
<event>
 5    1  0.1764318E-003  0.9118800E+02  0.7818608E-02  0.1130116E+00
         25   -1    0    0    0    0  0.00000000000E+00  0.00000000000E+00  0.99999998245E-14  0.12500000000E+03  0.12500000000E+03 0.  0.
        -13    1    3    3    0    0 -0.94121436809E+01 -0.60337927875E+02  0.48189700301E+01  0.61257551576E+02  0.10566000000E+00 0. -1.
         23    2    1    0    0    0 -0.12955883308E+02 -0.29264465072E+02  0.54295957956E+01  0.92538571524E+02  0.86658195694E+02 0.  0.
         13    1    3    3    0    0 -0.35437396271E+01  0.31073462803E+02  0.61062576554E+00  0.31281019948E+02  0.10566000000E+00 0.  1.
         22    1    1    0    0    0  0.12955883308E+02  0.29264465072E+02 -0.54295957956E+01  0.32461428476E+02  0.00000000000E+00 0. -1.
</event>
<event>
 5    1  0.1764318E-003  0.9118800E+02  0.7818608E-02  0.1130116E+00
         25   -1    0    0    0    0  0.00000000000E+00  0.00000000000E+00  0.99999998245E-14  0.12500000000E+03  0.12500000000E+03 0.  0.
        -13    1    3    3    0    0  0.29749587086E+02  0.26258588335E+02 -0.87877051802E+01  0.40642174148E+02  0.10566000000E+00 0. -1.
         23    2    1    0    0    0  0.42087639200E+01 -0.24374945875E+02  0.65915212049E+01  0.99401175184E+02  0.96048392991E+02 0.  0.
         13    1    3    3    0    0 -0.25540823166E+02 -0.50633534210E+02  0.15379226385E+02  0.58759001036E+02  0.10566000000E+00 0.  1.
         22    1    1    0    0    0 -0.42087639200E+01  0.24374945875E+02 -0.65915212049E+01  0.25598824816E+02  0.00000000000E+00 0.  1.
</event>
<event>
 5    1  0.1764318E-003  0.9118800E+02  0.7818608E-02  0.1130116E+00
         25   -1    0    0    0    0  0.00000000000E+00  0.00000000000E+00  0.99999998245E-14  0.12500000000E+03  0.12500000000E+03 0.  0.
        -13    1    3    3    0    0 -0.11474337595E+02  0.30140195793E+02 -0.16485378023E+02  0.36219755360E+02  0.10566000000E+00 0.  1.
         23    2    1    0    0    0  0.54965708362E+01 -0.15199887656E+02  0.21744226509E+02  0.97906453496E+02  0.94083013206E+02 0.  0.
         13    1    3    3    0    0  0.16970908432E+02 -0.45340083449E+02  0.38229604532E+02  0.61686698136E+02  0.10566000000E+00 0. -1.
         22    1    1    0    0    0 -0.54965708362E+01  0.15199887656E+02 -0.21744226509E+02  0.27093546504E+02  0.00000000000E+00 0. -1.
</event>
<event>
 5    1  0.1764318E-003  0.9118800E+02  0.7818608E-02  0.1130116E+00
         25   -1    0    0    0    0  0.00000000000E+00  0.00000000000E+00  0.99999998245E-14  0.12500000000E+03  0.12500000000E+03 0.  0.
        -13    1    3    3    0    0 -0.58048836967E+01  0.53487401282E+02 -0.23320954276E+02  0.58638526952E+02  0.10566000000E+00 0.  1.
         23    2    1    0    0    0  0.29787701900E+01  0.28306864613E+02  0.33317482760E+01  0.96342501808E+02  0.91981658236E+02 0.  0.
         13    1    3    3    0    0  0.87836538867E+01 -0.25180536669E+02  0.26652702552E+02  0.37703974856E+02  0.10566000000E+00 0. -1.
         22    1    1    0    0    0 -0.29787701900E+01 -0.28306864613E+02 -0.33317482760E+01  0.28657498192E+02  0.00000000000E+00 0.  1.
</event>
<event>
 5    1  0.1764318E-003  0.9118800E+02  0.7818608E-02  0.1130116E+00
         25   -1    0    0    0    0  0.00000000000E+00  0.00000000000E+00  0.99999998245E-14  0.12500000000E+03  0.12500000000E+03 0.  0.
        -13    1    3    3    0    0  0.24314640942E+01  0.36484787452E+02  0.43423413834E+02  0.56768439877E+02  0.10566000000E+00 0.  1.
         23    2    1    0    0    0  0.13137104136E+02  0.25932799326E+02  0.86216042605E+01  0.94677967647E+02  0.89691091597E+02 0.  0.
         13    1    3    3    0    0  0.10705640042E+02 -0.10551988126E+02 -0.34801809573E+02  0.37909527770E+02  0.10566000000E+00 0. -1.
         22    1    1    0    0    0 -0.13137104136E+02 -0.25932799326E+02 -0.86216042605E+01  0.30322032353E+02  0.00000000000E+00 0.  1.
</event>
<event>
 5    1  0.1764318E-003  0.9118800E+02  0.7818608E-02  0.1130116E+00
         25   -1    0    0    0    0  0.00000000000E+00  0.00000000000E+00  0.99999998245E-14  0.12500000000E+03  0.12500000000E+03 0.  0.
        -13    1    3    3    0    0  0.27161457083E+02  0.20777885701E+02  0.35300976361E+02  0.49149113737E+02  0.10566000000E+00 0. -1.
         23    2    1    0    0    0  0.23822216911E+02 -0.14040266449E+02  0.22756003891E+01  0.97254631780E+02  0.93212970905E+02 0.  0.
         13    1    3    3    0    0 -0.33392401715E+01 -0.34818152150E+02 -0.33025375972E+02  0.48105518043E+02  0.10566000000E+00 0.  1.
         22    1    1    0    0    0 -0.23822216911E+02  0.14040266449E+02 -0.22756003891E+01  0.27745368220E+02  0.00000000000E+00 0. -1.
</event>
<event>
 5    1  0.1764318E-003  0.9118800E+02  0.7818608E-02  0.1130116E+00
         25   -1    0    0    0    0  0.00000000000E+00  0.00000000000E+00  0.99999998245E-14  0.12500000000E+03  0.12500000000E+03 0.  0.
        -13    1    3    3    0    0  0.25050807387E+02 -0.40508547105E+02 -0.15667450442E+02  0.50139460575E+02  0.10566000000E+00 0. -1.
         23    2    1    0    0    0  0.26475573450E+02 -0.63528212985E+01  0.13069180888E+02  0.94798711666E+02  0.89859211639E+02 0.  0.
         13    1    3    3    0    0  0.14247660636E+01  0.34155725807E+02  0.28736631331E+02  0.44659251091E+02  0.10566000000E+00 0.  1.
         22    1    1    0    0    0 -0.26475573450E+02  0.63528212985E+01 -0.13069180888E+02  0.30201288334E+02  0.00000000000E+00 0.  1.
</event>
<event>
 5    1  0.1764318E-003  0.9118800E+02  0.7818608E-02  0.1130116E+00
         25   -1    0    0    0    0  0.00000000000E+00  0.00000000000E+00  0.99999998245E-14  0.12500000000E+03  0.12500000000E+03 0.  0.
        -13    1    3    3    0    0  0.63981333796E+01 -0.39714692674E+02  0.42375552838E+01  0.40449486570E+02  0.10566000000E+00 0.  1.
         23    2    1    0    0    0 -0.65024662868E+01 -0.23187142634E+01 -0.30886595131E+02  0.93351299199E+02  0.87822689549E+02 0.  0.
         13    1    3    3    0    0 -0.12900599666E+02  0.37395978411E+02 -0.35124150414E+02  0.52901812629E+02  0.10566000000E+00 0. -1.
         22    1    1    0    0    0  0.65024662868E+01  0.23187142634E+01  0.30886595131E+02  0.31648700801E+02  0.00000000000E+00 0. -1.
</event>
<event>
 5    1  0.1764318E-003  0.9118800E+02  0.7818608E-02  0.1130116E+00
         25   -1    0    0    0    0  0.00000000000E+00  0.00000000000E+00  0.99999998245E-14  0.12500000000E+03  0.12500000000E+03 0.  0.
        -13    1    3    3    0    0  0.30107264417E+01  0.87428233358E+01  0.39825017020E+02  0.40884527370E+02  0.10566000000E+00 0. -1.
         23    2    1    0    0    0  0.22326511393E+02  0.16929749945E+02 -0.10240399985E+02  0.95167880799E+02  0.90371290794E+02 0.  0.
         13    1    3    3    0    0  0.19315784951E+02  0.81869266093E+01 -0.50065417005E+02  0.54283353429E+02  0.10566000000E+00 0.  1.
         22    1    1    0    0    0 -0.22326511393E+02 -0.16929749945E+02  0.10240399985E+02  0.29832119201E+02  0.00000000000E+00 0.  1.
</event>
<event>
 5    1  0.1764318E-003  0.9118800E+02  0.7818608E-02  0.1130116E+00
         25   -1    0    0    0    0  0.00000000000E+00  0.00000000000E+00  0.99999998245E-14  0.12500000000E+03  0.12500000000E+03 0.  0.
        -13    1    3    3    0    0  0.80793126430E+01  0.34111574357E+02  0.11278902258E+02  0.36825257611E+02  0.10566000000E+00 0. -1.
         23    2    1    0    0    0 -0.85405824376E+01 -0.20889110930E+02  0.19883015719E+02  0.94922918726E+02  0.90031825937E+02 0.  0.
         13    1    3    3    0    0 -0.16619895081E+02 -0.55000685288E+02  0.86041134612E+01  0.58097661116E+02  0.10566000000E+00 0.  1.
         22    1    1    0    0    0  0.85405824376E+01  0.20889110930E+02 -0.19883015719E+02  0.30077081274E+02  0.00000000000E+00 0.  1.
</event>
<event>
 5    1  0.1764318E-003  0.9118800E+02  0.7818608E-02  0.1130116E+00
         25   -1    0    0    0    0  0.00000000000E+00  0.00000000000E+00  0.99999998245E-14  0.12500000000E+03  0.12500000000E+03 0.  0.
        -13    1    3    3    0    0 -0.61294435800E+01  0.18339049088E+02 -0.84343924114E+01  0.21095993445E+02  0.10566000000E+00 0.  1.
         23    2    1    0    0    0 -0.11838507373E+02  0.94310903190E+01  0.46012736047E+02  0.76561713491E+02  0.59291047998E+02 0.  0.
         13    1    3    3    0    0 -0.57090637931E+01 -0.89079587692E+01  0.54447128458E+02  0.55465720046E+02  0.10566000000E+00 0. -1.
         22    1    1    0    0    0  0.11838507373E+02 -0.94310903190E+01 -0.46012736047E+02  0.48438286509E+02  0.00000000000E+00 0. -1.
</event>
<event>
 5    1  0.1764318E-003  0.9118800E+02  0.7818608E-02  0.1130116E+00
         25   -1    0    0    0    0  0.00000000000E+00  0.00000000000E+00  0.99999998245E-14  0.12500000000E+03  0.12500000000E+03 0.  0.
        -13    1    3    3    0    0 -0.19289761871E+02  0.27294635641E+02 -0.40390975071E+01  0.33666266804E+02  0.10566000000E+00 0.  1.
         23    2    1    0    0    0  0.29457984030E+01 -0.29551738912E+02  0.31794022553E+01  0.95132097502E+02  0.90321782397E+02 0.  0.
         13    1    3    3    0    0  0.22235560274E+02 -0.56846374553E+02  0.72184997624E+01  0.61465830698E+02  0.10566000000E+00 0. -1.
         22    1    1    0    0    0 -0.29457984030E+01  0.29551738912E+02 -0.31794022553E+01  0.29867902498E+02  0.00000000000E+00 0. -1.
</event>
<event>
 5    1  0.1764318E-003  0.9118800E+02  0.7818608E-02  0.1130116E+00
         25   -1    0    0    0    0  0.00000000000E+00  0.00000000000E+00  0.99999998245E-14  0.12500000000E+03  0.12500000000E+03 0.  0.
        -13    1    3    3    0    0  0.27054303838E+01  0.13755404394E+02  0.25792861206E+02  0.29356657794E+02  0.10566000000E+00 0. -1.
         23    2    1    0    0    0 -0.34319106803E+02  0.24010563931E+02 -0.10080129354E+02  0.81919641601E+02  0.69677187086E+02 0.  0.
         13    1    3    3    0    0 -0.37024537187E+02  0.10255159536E+02 -0.35872990559E+02  0.52562983807E+02  0.10566000000E+00 0.  1.
         22    1    1    0    0    0  0.34319106803E+02 -0.24010563931E+02  0.10080129354E+02  0.43080358399E+02  0.00000000000E+00 0.  1.
</event>
<event>
 5    1  0.1764318E-003  0.9118800E+02  0.7818608E-02  0.1130116E+00
         25   -1    0    0    0    0  0.00000000000E+00  0.00000000000E+00  0.99999998245E-14  0.12500000000E+03  0.12500000000E+03 0.  0.
        -13    1    3    3    0    0  0.18797119031E+02  0.29235285715E+02 -0.41570566437E+02  0.54186315363E+02  0.10566000000E+00 0. -1.
         23    2    1    0    0    0 -0.93909059303E+01  0.47777404586E+01 -0.29915128664E+02  0.93283587198E+02  0.87726260603E+02 0.  0.
         13    1    3    3    0    0 -0.28188024962E+02 -0.24457545256E+02  0.11655437773E+02  0.39097271835E+02  0.10566000000E+00 0.  1.
         22    1    1    0    0    0  0.93909059303E+01 -0.47777404586E+01  0.29915128664E+02  0.31716412802E+02  0.00000000000E+00 0. -1.
</event>
<event>
 5    1  0.1764318E-003  0.9118800E+02  0.7818608E-02  0.1130116E+00
         25   -1    0    0    0    0  0.00000000000E+00  0.00000000000E+00  0.99999998245E-14  0.12500000000E+03  0.12500000000E+03 0.  0.
        -13    1    3    3    0    0 -0.15536452848E+02  0.21468868859E+00 -0.34177954608E+02  0.37544256598E+02  0.10566000000E+00 0.  1.
         23    2    1    0    0    0  0.12281440183E+02  0.20491100644E+02  0.14417621456E+02  0.97096831954E+02  0.93001118211E+02 0.  0.
         13    1    3    3    0    0  0.27817893031E+02  0.20276411956E+02  0.48595576063E+02  0.59552575355E+02  0.10566000000E+00 0. -1.
         22    1    1    0    0    0 -0.12281440183E+02 -0.20491100644E+02 -0.14417621456E+02  0.27903168046E+02  0.00000000000E+00 0. -1.
</event>
<event>
 5    1  0.1764318E-003  0.9118800E+02  0.7818608E-02  0.1130116E+00
         25   -1    0    0    0    0  0.00000000000E+00  0.00000000000E+00  0.99999998245E-14  0.12500000000E+03  0.12500000000E+03 0.  0.
        -13    1    3    3    0    0  0.50496712493E+02  0.87612117314E+01 -0.14468246128E+02  0.53254277891E+02  0.10566000000E+00 0.  1.
         23    2    1    0    0    0  0.14603530980E+02 -0.12423375566E+02 -0.22224017696E+02  0.95648503614E+02  0.91033652588E+02 0.  0.
         13    1    3    3    0    0 -0.35893181513E+02 -0.21184587297E+02 -0.77557715675E+01  0.42394225724E+02  0.10566000000E+00 0. -1.
         22    1    1    0    0    0 -0.14603530980E+02  0.12423375566E+02  0.22224017696E+02  0.29351496386E+02  0.00000000000E+00 0.  1.
</event>
<event>
 5    1  0.1764318E-003  0.9118800E+02  0.7818608E-02  0.1130116E+00
         25   -1    0    0    0    0  0.00000000000E+00  0.00000000000E+00  0.99999998245E-14  0.12500000000E+03  0.12500000000E+03 0.  0.
        -13    1    3    3    0    0 -0.16892750252E+02  0.20440702580E+02  0.18113999586E+01  0.26579685229E+02  0.10566000000E+00 0.  1.
         23    2    1    0    0    0  0.32003388590E+02 -0.17211705159E+02 -0.33454527601E+01  0.88508196402E+02  0.80635284463E+02 0.  0.
         13    1    3    3    0    0  0.48896138841E+02 -0.37652407739E+02 -0.51568527187E+01  0.61928511173E+02  0.10566000000E+00 0. -1.
         22    1    1    0    0    0 -0.32003388590E+02  0.17211705159E+02  0.33454527601E+01  0.36491803598E+02  0.00000000000E+00 0. -1.
</event>
<event>
 5    1  0.1764318E-003  0.9118800E+02  0.7818608E-02  0.1130116E+00
         25   -1    0    0    0    0  0.00000000000E+00  0.00000000000E+00  0.99999998245E-14  0.12500000000E+03  0.12500000000E+03 0.  0.
        -13    1    3    3    0    0  0.49653683326E+02 -0.15721487956E+02 -0.28449179474E+01  0.52160887393E+02  0.10566000000E+00 0.  1.
         23    2    1    0    0    0  0.28253948441E+02 -0.14507728151E+02 -0.26175423737E+02  0.83842830680E+02  0.73045928497E+02 0.  0.
         13    1    3    3    0    0 -0.21399734885E+02  0.12137598052E+01 -0.23330505790E+02  0.31681943287E+02  0.10566000000E+00 0. -1.
         22    1    1    0    0    0 -0.28253948441E+02  0.14507728151E+02  0.26175423737E+02  0.41157169320E+02  0.00000000000E+00 0.  1.
</event>
<event>
 5    1  0.1764318E-003  0.9118800E+02  0.7818608E-02  0.1130116E+00
         25   -1    0    0    0    0  0.00000000000E+00  0.00000000000E+00  0.99999998245E-14  0.12500000000E+03  0.12500000000E+03 0.  0.
        -13    1    3    3    0    0  0.30670216451E+02  0.30399394763E+02 -0.14749311315E+02  0.45632649796E+02  0.10566000000E+00 0. -1.
         23    2    1    0    0    0  0.28085048686E+02  0.57513763009E+01  0.21233778752E+02  0.89324775416E+02  0.81891353964E+02 0.  0.
         13    1    3    3    0    0 -0.25851677650E+01 -0.24648018462E+02  0.35983090067E+02  0.43692125621E+02  0.10566000000E+00 0.  1.
         22    1    1    0    0    0 -0.28085048686E+02 -0.57513763009E+01 -0.21233778752E+02  0.35675224584E+02  0.00000000000E+00 0.  1.
</event>
<event>
 5    1  0.1764318E-003  0.9118800E+02  0.7818608E-02  0.1130116E+00
         25   -1    0    0    0    0  0.00000000000E+00  0.00000000000E+00  0.99999998245E-14  0.12500000000E+03  0.12500000000E+03 0.  0.
        -13    1    3    3    0    0 -0.26699785248E+01  0.37186033931E+02  0.14439451517E+02  0.39980480600E+02  0.10566000000E+00 0. -1.
         23    2    1    0    0    0 -0.25200860744E+02  0.89002581066E+01 -0.21300255848E+02  0.90824001466E+02  0.84148680124E+02 0.  0.
         13    1    3    3    0    0 -0.22530882219E+02 -0.28285775824E+02 -0.35739707365E+02  0.50843520867E+02  0.10566000000E+00 0.  1.
         22    1    1    0    0    0  0.25200860744E+02 -0.89002581066E+01  0.21300255848E+02  0.34175998534E+02  0.00000000000E+00 0.  1.
</event>
<event>
 5    1  0.1764318E-003  0.9118800E+02  0.7818608E-02  0.1130116E+00
         25   -1    0    0    0    0  0.00000000000E+00  0.00000000000E+00  0.99999998245E-14  0.12500000000E+03  0.12500000000E+03 0.  0.
        -13    1    3    3    0    0 -0.79266019556E+01 -0.18409102332E+02  0.33312055594E+02  0.38877117681E+02  0.10566000000E+00 0.  1.
         23    2    1    0    0    0  0.26761146342E+02  0.11901735227E+02  0.23023399485E-01  0.95711592993E+02  0.91120240606E+02 0.  0.
         13    1    3    3    0    0  0.34687748298E+02  0.30310837559E+02 -0.33289032194E+02  0.56834475312E+02  0.10566000000E+00 0. -1.
         22    1    1    0    0    0 -0.26761146342E+02 -0.11901735227E+02 -0.23023399485E-01  0.29288407007E+02  0.00000000000E+00 0. -1.
</event>
<event>
 5    1  0.1764318E-003  0.9118800E+02  0.7818608E-02  0.1130116E+00
         25   -1    0    0    0    0  0.00000000000E+00  0.00000000000E+00  0.99999998245E-14  0.12500000000E+03  0.12500000000E+03 0.  0.
        -13    1    3    3    0    0 -0.35371134256E+01 -0.57705538817E+02 -0.12598895283E+02  0.59170801143E+02  0.10566000000E+00 0.  1.
         23    2    1    0    0    0  0.12135277042E+02 -0.26121285311E+02 -0.99421913144E+01  0.94529790560E+02  0.89484342988E+02 0.  0.
         13    1    3    3    0    0  0.15672390468E+02  0.31584253506E+02  0.26567039682E+01  0.35358989416E+02  0.10566000000E+00 0. -1.
         22    1    1    0    0    0 -0.12135277042E+02  0.26121285311E+02  0.99421913144E+01  0.30470209440E+02  0.00000000000E+00 0.  1.
</event>
<event>
 5    1  0.1764318E-003  0.9118800E+02  0.7818608E-02  0.1130116E+00
         25   -1    0    0    0    0  0.00000000000E+00  0.00000000000E+00  0.99999998245E-14  0.12500000000E+03  0.12500000000E+03 0.  0.
        -13    1    3    3    0    0 -0.11942936879E+02  0.39283400071E+02  0.11606765145E+02  0.42667873436E+02  0.10566000000E+00 0.  1.
         23    2    1    0    0    0 -0.10410976028E+02 -0.14634911866E+02  0.20943508978E+02  0.97410153399E+02  0.93421294948E+02 0.  0.
         13    1    3    3    0    0  0.15319608511E+01 -0.53918311936E+02  0.93367438322E+01  0.54742279963E+02  0.10566000000E+00 0. -1.
         22    1    1    0    0    0  0.10410976028E+02  0.14634911866E+02 -0.20943508978E+02  0.27589846601E+02  0.00000000000E+00 0. -1.
</event>
<event>
 5    1  0.1764318E-003  0.9118800E+02  0.7818608E-02  0.1130116E+00
         25   -1    0    0    0    0  0.00000000000E+00  0.00000000000E+00  0.99999998245E-14  0.12500000000E+03  0.12500000000E+03 0.  0.
        -13    1    3    3    0    0  0.14119770108E+02 -0.21420969439E+02  0.33768314082E+02  0.42409150423E+02  0.10566000000E+00 0.  1.
         23    2    1    0    0    0 -0.42351230641E+01 -0.34087248002E+02 -0.79757208252E+01  0.89736862500E+02  0.82517971527E+02 0.  0.
         13    1    3    3    0    0 -0.18354893172E+02 -0.12666278563E+02 -0.41744034908E+02  0.47327712076E+02  0.10566000000E+00 0. -1.
         22    1    1    0    0    0  0.42351230641E+01  0.34087248002E+02  0.79757208252E+01  0.35263137500E+02  0.00000000000E+00 0.  1.
</event>
<event>
 5    1  0.1764318E-003  0.9118800E+02  0.7818608E-02  0.1130116E+00
         25   -1    0    0    0    0  0.00000000000E+00  0.00000000000E+00  0.99999998245E-14  0.12500000000E+03  0.12500000000E+03 0.  0.
        -13    1    3    3    0    0 -0.25432798255E+00 -0.59873621686E+02  0.57381200819E+01  0.60148586373E+02  0.10566000000E+00 0. -1.
         23    2    1    0    0    0 -0.18581760131E+01 -0.26598358903E+02 -0.93833360788E+01  0.96733898210E+02  0.92512023827E+02 0.  0.
         13    1    3    3    0    0 -0.16038480306E+01  0.33275262783E+02 -0.15121456161E+02  0.36585311837E+02  0.10566000000E+00 0.  1.
         22    1    1    0    0    0  0.18581760131E+01  0.26598358903E+02  0.93833360788E+01  0.28266101790E+02  0.00000000000E+00 0. -1.
</event>
<event>
 5    1  0.1764318E-003  0.9118800E+02  0.7818608E-02  0.1130116E+00
         25   -1    0    0    0    0  0.00000000000E+00  0.00000000000E+00  0.99999998245E-14  0.12500000000E+03  0.12500000000E+03 0.  0.
        -13    1    3    3    0    0 -0.87506637414E+01  0.10252454384E+02 -0.47904101888E+02  0.49764455975E+02  0.10566000000E+00 0.  1.
         23    2    1    0    0    0  0.22514214018E+02 -0.51838848843E+01 -0.17692592176E+02  0.95900338263E+02  0.91378797134E+02 0.  0.
         13    1    3    3    0    0  0.31264877759E+02 -0.15436339268E+02  0.30211509712E+02  0.46135882287E+02  0.10566000000E+00 0. -1.
         22    1    1    0    0    0 -0.22514214018E+02  0.51838848843E+01  0.17692592176E+02  0.29099661737E+02  0.00000000000E+00 0.  1.
</event>
<event>
 5    1  0.1764318E-003  0.9118800E+02  0.7818608E-02  0.1130116E+00
         25   -1    0    0    0    0  0.00000000000E+00  0.00000000000E+00  0.99999998245E-14  0.12500000000E+03  0.12500000000E+03 0.  0.
        -13    1    3    3    0    0 -0.11409358822E+01  0.19412428782E+01 -0.23662968114E+02  0.23770094291E+02  0.10566000000E+00 0. -1.
         23    2    1    0    0    0 -0.46838675921E+01 -0.25852081002E+02  0.30496005899E+02  0.84747359297E+02  0.74577743492E+02 0.  0.
         13    1    3    3    0    0 -0.35429317099E+01 -0.27793323880E+02  0.54158974013E+02  0.60977265006E+02  0.10566000000E+00 0.  1.
         22    1    1    0    0    0  0.46838675921E+01  0.25852081002E+02 -0.30496005899E+02  0.40252640703E+02  0.00000000000E+00 0.  1.
</event>
<event>
 5    1  0.1764318E-003  0.9118800E+02  0.7818608E-02  0.1130116E+00
         25   -1    0    0    0    0  0.00000000000E+00  0.00000000000E+00  0.99999998245E-14  0.12500000000E+03  0.12500000000E+03 0.  0.
        -13    1    3    3    0    0  0.18368287378E+01  0.22100079310E+02 -0.26347633294E+02  0.34438298296E+02  0.10566000000E+00 0.  1.
         23    2    1    0    0    0 -0.67549675614E+01 -0.24172133565E+02  0.13851929136E+02  0.96332988146E+02  0.91968728580E+02 0.  0.
         13    1    3    3    0    0 -0.85917962993E+01 -0.46272212876E+02  0.40199562429E+02  0.61894689850E+02  0.10566000000E+00 0. -1.
         22    1    1    0    0    0  0.67549675614E+01  0.24172133565E+02 -0.13851929136E+02  0.28667011854E+02  0.00000000000E+00 0. -1.
</event>
<event>
 5    1  0.1764318E-003  0.9118800E+02  0.7818608E-02  0.1130116E+00
         25   -1    0    0    0    0  0.00000000000E+00  0.00000000000E+00  0.99999998245E-14  0.12500000000E+03  0.12500000000E+03 0.  0.
        -13    1    3    3    0    0 -0.21187018404E+02 -0.10723777370E+02  0.25530089953E+02  0.34866686206E+02  0.10566000000E+00 0.  1.
         23    2    1    0    0    0  0.28811808101E+02  0.18690242108E+01 -0.62832704275E+01  0.95451852430E+02  0.90763225523E+02 0.  0.
         13    1    3    3    0    0  0.49998826506E+02  0.12592801581E+02 -0.31813360381E+02  0.60585166224E+02  0.10566000000E+00 0. -1.
         22    1    1    0    0    0 -0.28811808101E+02 -0.18690242108E+01  0.62832704275E+01  0.29548147570E+02  0.00000000000E+00 0. -1.
</event>
<event>
 5    1  0.1764318E-003  0.9118800E+02  0.7818608E-02  0.1130116E+00
         25   -1    0    0    0    0  0.00000000000E+00  0.00000000000E+00  0.99999998245E-14  0.12500000000E+03  0.12500000000E+03 0.  0.
        -13    1    3    3    0    0 -0.28650630223E+02 -0.30051543826E+02 -0.19986623315E+02  0.46080691988E+02  0.10566000000E+00 0. -1.
         23    2    1    0    0    0  0.10461251719E+02  0.15649713293E+01 -0.26190073761E+02  0.96754524497E+02  0.92539889368E+02 0.  0.
         13    1    3    3    0    0  0.39111881942E+02  0.31616515155E+02 -0.62034504462E+01  0.50673832509E+02  0.10566000000E+00 0.  1.
         22    1    1    0    0    0 -0.10461251719E+02 -0.15649713293E+01  0.26190073761E+02  0.28245475503E+02  0.00000000000E+00 0.  1.
</event>
<event>
 5    1  0.1764318E-003  0.9118800E+02  0.7818608E-02  0.1130116E+00
         25   -1    0    0    0    0  0.00000000000E+00  0.00000000000E+00  0.99999998245E-14  0.12500000000E+03  0.12500000000E+03 0.  0.
        -13    1    3    3    0    0 -0.12645338407E+02 -0.34041355548E+02  0.22886770438E+02  0.42924746896E+02  0.10566000000E+00 0. -1.
         23    2    1    0    0    0 -0.95601964790E+01  0.19979097881E+02  0.16441529499E+02  0.97415845107E+02  0.93428910284E+02 0.  0.
         13    1    3    3    0    0  0.30851419281E+01  0.54020453430E+02 -0.64452409387E+01  0.54491098211E+02  0.10566000000E+00 0.  1.
         22    1    1    0    0    0  0.95601964790E+01 -0.19979097881E+02 -0.16441529499E+02  0.27584154893E+02  0.00000000000E+00 0.  1.
</event>
<event>
 5    1  0.1764318E-003  0.9118800E+02  0.7818608E-02  0.1130116E+00
         25   -1    0    0    0    0  0.00000000000E+00  0.00000000000E+00  0.99999998245E-14  0.12500000000E+03  0.12500000000E+03 0.  0.
        -13    1    3    3    0    0 -0.41001335623E+02  0.20939684011E+02 -0.26764598383E+02  0.53253495472E+02  0.10566000000E+00 0.  1.
         23    2    1    0    0    0 -0.91983459674E+01  0.26884649731E+02  0.19586403884E+01  0.96517896288E+02  0.92219705443E+02 0.  0.
         13    1    3    3    0    0  0.31802989655E+02  0.59449657197E+01  0.28723238771E+02  0.43264400816E+02  0.10566000000E+00 0. -1.
         22    1    1    0    0    0  0.91983459674E+01 -0.26884649731E+02 -0.19586403884E+01  0.28482103712E+02  0.00000000000E+00 0.  1.
</event>
<event>
 5    1  0.1764318E-003  0.9118800E+02  0.7818608E-02  0.1130116E+00
         25   -1    0    0    0    0  0.00000000000E+00  0.00000000000E+00  0.99999998245E-14  0.12500000000E+03  0.12500000000E+03 0.  0.
        -13    1    3    3    0    0 -0.30790797972E+02  0.51743383912E+02  0.11625538936E+01  0.60223033085E+02  0.10566000000E+00 0. -1.
         23    2    1    0    0    0 -0.84422557338E+01  0.28741021441E+02  0.98788363216E+01  0.93457815510E+02  0.87974165966E+02 0.  0.
         13    1    3    3    0    0  0.22348542238E+02 -0.23002362471E+02  0.87162824280E+01  0.33234782424E+02  0.10566000000E+00 0.  1.
         22    1    1    0    0    0  0.84422557338E+01 -0.28741021441E+02 -0.98788363216E+01  0.31542184490E+02  0.00000000000E+00 0. -1.
</event>
<event>
 5    1  0.1764318E-003  0.9118800E+02  0.7818608E-02  0.1130116E+00
         25   -1    0    0    0    0  0.00000000000E+00  0.00000000000E+00  0.99999998245E-14  0.12500000000E+03  0.12500000000E+03 0.  0.
        -13    1    3    3    0    0 -0.14288900009E+02  0.38575884165E+02 -0.19737312438E+01  0.41184685037E+02  0.10566000000E+00 0.  1.
         23    2    1    0    0    0 -0.23870138576E+01 -0.29054529887E+01  0.29918901785E+02  0.94845727065E+02  0.89924589330E+02 0.  0.
         13    1    3    3    0    0  0.11901886151E+02 -0.41481337153E+02  0.31892633029E+02  0.53661042028E+02  0.10566000000E+00 0. -1.
         22    1    1    0    0    0  0.23870138576E+01  0.29054529887E+01 -0.29918901785E+02  0.30154272935E+02  0.00000000000E+00 0. -1.
</event>
<event>
 5    1  0.1764318E-003  0.9118800E+02  0.7818608E-02  0.1130116E+00
         25   -1    0    0    0    0  0.00000000000E+00  0.00000000000E+00  0.99999998245E-14  0.12500000000E+03  0.12500000000E+03 0.  0.
        -13    1    3    3    0    0  0.24602064022E+02 -0.17256913442E+02  0.20891845141E+02  0.36599767392E+02  0.10566000000E+00 0.  1.
         23    2    1    0    0    0 -0.16058714155E+02  0.23071757011E+02  0.23666088393E+01  0.96790265700E+02  0.92588154885E+02 0.  0.
         13    1    3    3    0    0 -0.40660778177E+02  0.40328670453E+02 -0.18525236302E+02  0.60190498308E+02  0.10566000000E+00 0. -1.
         22    1    1    0    0    0  0.16058714155E+02 -0.23071757011E+02 -0.23666088393E+01  0.28209734300E+02  0.00000000000E+00 0. -1.
</event>
<event>
 5    1  0.1764318E-003  0.9118800E+02  0.7818608E-02  0.1130116E+00
         25   -1    0    0    0    0  0.00000000000E+00  0.00000000000E+00  0.99999998245E-14  0.12500000000E+03  0.12500000000E+03 0.  0.
        -13    1    3    3    0    0  0.20646147805E+02 -0.12787929010E+02 -0.21282021220E+02  0.32291332255E+02  0.10566000000E+00 0.  1.
         23    2    1    0    0    0 -0.19200943137E+02  0.14550613974E+02  0.18291521749E+02  0.94751423963E+02  0.89793407279E+02 0.  0.
         13    1    3    3    0    0 -0.39847090942E+02  0.27338542984E+02  0.39573542969E+02  0.62460091708E+02  0.10566000000E+00 0. -1.
         22    1    1    0    0    0  0.19200943137E+02 -0.14550613974E+02 -0.18291521749E+02  0.30248576037E+02  0.00000000000E+00 0. -1.
</event>
<event>
 5    1  0.1764318E-003  0.9118800E+02  0.7818608E-02  0.1130116E+00
         25   -1    0    0    0    0  0.00000000000E+00  0.00000000000E+00  0.99999998245E-14  0.12500000000E+03  0.12500000000E+03 0.  0.
        -13    1    3    3    0    0  0.17755670174E+02  0.73033410676E+01 -0.35918037130E+02  0.40727376166E+02  0.10566000000E+00 0.  1.
         23    2    1    0    0    0 -0.25322327141E+02  0.26541553986E+01  0.34955068595E+01  0.99300129165E+02  0.95916798796E+02 0.  0.
         13    1    3    3    0    0 -0.43077997315E+02 -0.46491856690E+01  0.39413543990E+02  0.58572752999E+02  0.10566000000E+00 0. -1.
         22    1    1    0    0    0  0.25322327141E+02 -0.26541553986E+01 -0.34955068595E+01  0.25699870835E+02  0.00000000000E+00 0. -1.
</event>
<event>
 5    1  0.1764318E-003  0.9118800E+02  0.7818608E-02  0.1130116E+00
         25   -1    0    0    0    0  0.00000000000E+00  0.00000000000E+00  0.99999998245E-14  0.12500000000E+03  0.12500000000E+03 0.  0.
        -13    1    3    3    0    0  0.75585517340E+01 -0.25087780273E+02  0.49068392348E+02  0.55625953610E+02  0.10566000000E+00 0. -1.
         23    2    1    0    0    0 -0.84926021813E+00 -0.31394829978E+01  0.45482038020E+02  0.79401827022E+02  0.65003513409E+02 0.  0.
         13    1    3    3    0    0 -0.84078119521E+01  0.21948297275E+02 -0.35863543277E+01  0.23775873412E+02  0.10566000000E+00 0.  1.
         22    1    1    0    0    0  0.84926021813E+00  0.31394829978E+01 -0.45482038020E+02  0.45598172978E+02  0.00000000000E+00 0. -1.
</event>
<event>
 5    1  0.1764318E-003  0.9118800E+02  0.7818608E-02  0.1130116E+00
         25   -1    0    0    0    0  0.00000000000E+00  0.00000000000E+00  0.99999998245E-14  0.12500000000E+03  0.12500000000E+03 0.  0.
        -13    1    3    3    0    0 -0.28795041240E+02 -0.23062426724E+02 -0.71115731943E+01  0.37571472739E+02  0.10566000000E+00 0. -1.
         23    2    1    0    0    0  0.19009856924E+02 -0.77803658720E+01  0.21436559190E+02  0.95311031960E+02  0.90569078553E+02 0.  0.
         13    1    3    3    0    0  0.47804898164E+02  0.15282060852E+02  0.28548132385E+02  0.57739559221E+02  0.10566000000E+00 0.  1.
         22    1    1    0    0    0 -0.19009856924E+02  0.77803658720E+01 -0.21436559190E+02  0.29688968040E+02  0.00000000000E+00 0.  1.
</event>
<event>
 5    1  0.1764318E-003  0.9118800E+02  0.7818608E-02  0.1130116E+00
         25   -1    0    0    0    0  0.00000000000E+00  0.00000000000E+00  0.99999998245E-14  0.12500000000E+03  0.12500000000E+03 0.  0.
        -13    1    3    3    0    0  0.23319182835E+02  0.20523472751E+02  0.76149116976E+01  0.31984297179E+02  0.10566000000E+00 0.  1.
         23    2    1    0    0    0 -0.82045195738E+01 -0.29714235428E+02 -0.76752380064E+01  0.93232733719E+02  0.87653770198E+02 0.  0.
         13    1    3    3    0    0 -0.31523702408E+02 -0.50237708179E+02 -0.15290149704E+02  0.61248436540E+02  0.10566000000E+00 0. -1.
         22    1    1    0    0    0  0.82045195738E+01  0.29714235428E+02  0.76752380064E+01  0.31767266281E+02  0.00000000000E+00 0. -1.
</event>
<event>
 5    1  0.1764318E-003  0.9118800E+02  0.7818608E-02  0.1130116E+00
         25   -1    0    0    0    0  0.00000000000E+00  0.00000000000E+00  0.99999998245E-14  0.12500000000E+03  0.12500000000E+03 0.  0.
        -13    1    3    3    0    0 -0.12731175867E+02 -0.11476350496E+02  0.37917049597E+02  0.41611335881E+02  0.10566000000E+00 0. -1.
         23    2    1    0    0    0  0.16628226018E+02 -0.13709213700E+02 -0.12565607465E+02  0.10005335831E+03  0.96893444447E+02 0.  0.
         13    1    3    3    0    0  0.29359401885E+02 -0.22328632043E+01 -0.50482657062E+02  0.58442022426E+02  0.10566000000E+00 0.  1.
         22    1    1    0    0    0 -0.16628226018E+02  0.13709213700E+02  0.12565607465E+02  0.24946641693E+02  0.00000000000E+00 0.  1.
</event>
<event>
 5    1  0.1764318E-003  0.9118800E+02  0.7818608E-02  0.1130116E+00
         25   -1    0    0    0    0  0.00000000000E+00  0.00000000000E+00  0.99999998245E-14  0.12500000000E+03  0.12500000000E+03 0.  0.
        -13    1    3    3    0    0 -0.45259636659E+02 -0.29690299816E+02 -0.15988217715E+02  0.56440968130E+02  0.10566000000E+00 0.  1.
         23    2    1    0    0    0 -0.11412062551E+02 -0.26274555674E+02  0.42730937103E+01  0.96037148321E+02  0.91565752769E+02 0.  0.
         13    1    3    3    0    0  0.33847574108E+02  0.34157441421E+01  0.20261311425E+02  0.39596180191E+02  0.10566000000E+00 0. -1.
         22    1    1    0    0    0  0.11412062551E+02  0.26274555674E+02 -0.42730937103E+01  0.28962851679E+02  0.00000000000E+00 0.  1.
</event>
<event>
 5    1  0.1764318E-003  0.9118800E+02  0.7818608E-02  0.1130116E+00
         25   -1    0    0    0    0  0.00000000000E+00  0.00000000000E+00  0.99999998245E-14  0.12500000000E+03  0.12500000000E+03 0.  0.
        -13    1    3    3    0    0  0.14257620074E+02 -0.27358125374E+02  0.14966256486E+02  0.34289163761E+02  0.10566000000E+00 0. -1.
         23    2    1    0    0    0  0.46269977392E+01  0.29975260642E+02 -0.12462518206E+01  0.94644135621E+02  0.89643928435E+02 0.  0.
         13    1    3    3    0    0 -0.96306223353E+01  0.57333386016E+02 -0.16212508306E+02  0.60354971860E+02  0.10566000000E+00 0.  1.
         22    1    1    0    0    0 -0.46269977392E+01 -0.29975260642E+02  0.12462518206E+01  0.30355864379E+02  0.00000000000E+00 0.  1.
</event>
<event>
 5    1  0.1764318E-003  0.9118800E+02  0.7818608E-02  0.1130116E+00
         25   -1    0    0    0    0  0.00000000000E+00  0.00000000000E+00  0.99999998245E-14  0.12500000000E+03  0.12500000000E+03 0.  0.
        -13    1    3    3    0    0 -0.20822335739E+02  0.24927217715E+01  0.33473252331E+02  0.39500039407E+02  0.10566000000E+00 0.  1.
         23    2    1    0    0    0  0.23510408144E+01 -0.29660646274E+02 -0.51073606931E+01  0.94811153325E+02  0.89876517130E+02 0.  0.
         13    1    3    3    0    0  0.23173376553E+02 -0.32153368045E+02 -0.38580613024E+02  0.55311113919E+02  0.10566000000E+00 0. -1.
         22    1    1    0    0    0 -0.23510408144E+01  0.29660646274E+02  0.51073606931E+01  0.30188846675E+02  0.00000000000E+00 0. -1.
</event>
<event>
 5    1  0.1764318E-003  0.9118800E+02  0.7818608E-02  0.1130116E+00
         25   -1    0    0    0    0  0.00000000000E+00  0.00000000000E+00  0.99999998245E-14  0.12500000000E+03  0.12500000000E+03 0.  0.
        -13    1    3    3    0    0 -0.16059968696E+02  0.32598040783E+02 -0.37658447065E+00  0.36341544234E+02  0.10566000000E+00 0. -1.
         23    2    1    0    0    0 -0.15143133633E+02 -0.24036509083E+02 -0.11994372593E+02  0.94162794565E+02  0.88970212101E+02 0.  0.
         13    1    3    3    0    0  0.91683506225E+00 -0.56634549866E+02 -0.11617788122E+02  0.57821250332E+02  0.10566000000E+00 0.  1.
         22    1    1    0    0    0  0.15143133633E+02  0.24036509083E+02  0.11994372593E+02  0.30837205435E+02  0.00000000000E+00 0.  1.
</event>
<event>
 5    1  0.1764318E-003  0.9118800E+02  0.7818608E-02  0.1130116E+00
         25   -1    0    0    0    0  0.00000000000E+00  0.00000000000E+00  0.99999998245E-14  0.12500000000E+03  0.12500000000E+03 0.  0.
        -13    1    3    3    0    0  0.63208066174E+01  0.35002013168E+02 -0.11540752708E+02  0.37393764978E+02  0.10566000000E+00 0.  1.
         23    2    1    0    0    0 -0.27532524630E+00 -0.23642789781E+02 -0.15800709520E+02  0.96562001935E+02  0.92279469459E+02 0.  0.
         13    1    3    3    0    0 -0.65961318637E+01 -0.58644802949E+02 -0.42599568124E+01  0.59168236957E+02  0.10566000000E+00 0. -1.
         22    1    1    0    0    0  0.27532524630E+00  0.23642789781E+02  0.15800709520E+02  0.28437998065E+02  0.00000000000E+00 0. -1.
</event>
<event>
 5    1  0.1764318E-003  0.9118800E+02  0.7818608E-02  0.1130116E+00
         25   -1    0    0    0    0  0.00000000000E+00  0.00000000000E+00  0.99999998245E-14  0.12500000000E+03  0.12500000000E+03 0.  0.
        -13    1    3    3    0    0  0.71555493293E+01  0.18051704486E+01 -0.57643716329E+02  0.58114281574E+02  0.10566000000E+00 0. -1.
         23    2    1    0    0    0 -0.10034165051E+02  0.10376108492E+02 -0.29062812291E+02  0.92550113190E+02  0.86674842356E+02 0.  0.
         13    1    3    3    0    0 -0.17189714381E+02  0.85709380438E+01  0.28580904038E+02  0.34435831616E+02  0.10566000000E+00 0.  1.
         22    1    1    0    0    0  0.10034165051E+02 -0.10376108492E+02  0.29062812291E+02  0.32449886810E+02  0.00000000000E+00 0. -1.
</event>
<event>
 5    1  0.1764318E-003  0.9118800E+02  0.7818608E-02  0.1130116E+00
         25   -1    0    0    0    0  0.00000000000E+00  0.00000000000E+00  0.99999998245E-14  0.12500000000E+03  0.12500000000E+03 0.  0.
        -13    1    3    3    0    0  0.37227314632E+02 -0.15578352588E+02 -0.21977561050E+02  0.45951957279E+02  0.10566000000E+00 0.  1.
         23    2    1    0    0    0 -0.10679493037E+02 -0.22609323656E+02 -0.17292684341E+02  0.94598190524E+02  0.89579839422E+02 0.  0.
         13    1    3    3    0    0 -0.47906807668E+02 -0.70309710685E+01  0.46848767090E+01  0.48646233245E+02  0.10566000000E+00 0. -1.
         22    1    1    0    0    0  0.10679493037E+02  0.22609323656E+02  0.17292684341E+02  0.30401809476E+02  0.00000000000E+00 0. -1.
</event>
<event>
 5    1  0.1764318E-003  0.9118800E+02  0.7818608E-02  0.1130116E+00
         25   -1    0    0    0    0  0.00000000000E+00  0.00000000000E+00  0.99999998245E-14  0.12500000000E+03  0.12500000000E+03 0.  0.
        -13    1    3    3    0    0  0.16461867098E+02 -0.39892155645E+01 -0.28797479819E+02  0.33409772779E+02  0.10566000000E+00 0.  1.
         23    2    1    0    0    0 -0.19389001357E+01  0.14480573011E+02  0.26609106195E+02  0.94643932057E+02  0.89643644584E+02 0.  0.
         13    1    3    3    0    0 -0.18400767233E+02  0.18469788575E+02  0.55406586014E+02  0.61234159278E+02  0.10566000000E+00 0. -1.
         22    1    1    0    0    0  0.19389001357E+01 -0.14480573011E+02 -0.26609106195E+02  0.30356067943E+02  0.00000000000E+00 0. -1.
</event>
<event>
 5    1  0.1764318E-003  0.9118800E+02  0.7818608E-02  0.1130116E+00
         25   -1    0    0    0    0  0.00000000000E+00  0.00000000000E+00  0.99999998245E-14  0.12500000000E+03  0.12500000000E+03 0.  0.
        -13    1    3    3    0    0  0.26333360763E+02  0.13577861256E+02 -0.39446690768E+02  0.49334134044E+02  0.10566000000E+00 0.  1.
         23    2    1    0    0    0 -0.10337872105E+02  0.24191981682E+02 -0.14193413384E+02  0.95107249025E+02  0.90287387028E+02 0.  0.
         13    1    3    3    0    0 -0.36671232867E+02  0.10614120426E+02  0.25253277383E+02  0.45773114981E+02  0.10566000000E+00 0. -1.
         22    1    1    0    0    0  0.10337872105E+02 -0.24191981682E+02  0.14193413384E+02  0.29892750975E+02  0.00000000000E+00 0.  1.
</event>
<event>
 5    1  0.1764318E-003  0.9118800E+02  0.7818608E-02  0.1130116E+00
         25   -1    0    0    0    0  0.00000000000E+00  0.00000000000E+00  0.99999998245E-14  0.12500000000E+03  0.12500000000E+03 0.  0.
        -13    1    3    3    0    0  0.44588327930E+02  0.15256486538E+02 -0.33634404886E+02  0.57897873235E+02  0.10566000000E+00 0. -1.
         23    2    1    0    0    0  0.22149374048E+02 -0.99478796692E+01 -0.15265676617E+02  0.96319066208E+02  0.91949804523E+02 0.  0.
         13    1    3    3    0    0 -0.22438953882E+02 -0.25204366207E+02  0.18368728269E+02  0.38421192973E+02  0.10566000000E+00 0.  1.
         22    1    1    0    0    0 -0.22149374048E+02  0.99478796692E+01  0.15265676617E+02  0.28680933792E+02  0.00000000000E+00 0. -1.
</event>
<event>
 5    1  0.1764318E-003  0.9118800E+02  0.7818608E-02  0.1130116E+00
         25   -1    0    0    0    0  0.00000000000E+00  0.00000000000E+00  0.99999998245E-14  0.12500000000E+03  0.12500000000E+03 0.  0.
        -13    1    3    3    0    0 -0.30988380029E+02 -0.18348864934E+02  0.10306996054E+02  0.37459389649E+02  0.10566000000E+00 0.  1.
         23    2    1    0    0    0  0.86900969770E+01 -0.13123039059E+00 -0.28086195211E+02  0.95599840675E+02  0.90966808061E+02 0.  0.
         13    1    3    3    0    0  0.39678477006E+02  0.18217634543E+02 -0.38393191265E+02  0.58140451026E+02  0.10566000000E+00 0. -1.
         22    1    1    0    0    0 -0.86900969770E+01  0.13123039059E+00  0.28086195211E+02  0.29400159325E+02  0.00000000000E+00 0. -1.
</event>
<event>
 5    1  0.1764318E-003  0.9118800E+02  0.7818608E-02  0.1130116E+00
         25   -1    0    0    0    0  0.00000000000E+00  0.00000000000E+00  0.99999998245E-14  0.12500000000E+03  0.12500000000E+03 0.  0.
        -13    1    3    3    0    0  0.27124536117E+02  0.61752680239E+01  0.47296513149E+02  0.54871173806E+02  0.10566000000E+00 0.  1.
         23    2    1    0    0    0  0.11842544145E+02 -0.18938373663E+02  0.18978479318E+02  0.95689753907E+02  0.91090276521E+02 0.  0.
         13    1    3    3    0    0 -0.15281991972E+02 -0.25113641687E+02 -0.28318033830E+02  0.40818580101E+02  0.10566000000E+00 0. -1.
         22    1    1    0    0    0 -0.11842544145E+02  0.18938373663E+02 -0.18978479318E+02  0.29310246093E+02  0.00000000000E+00 0.  1.
</event>
<event>
 5    1  0.1764318E-003  0.9118800E+02  0.7818608E-02  0.1130116E+00
         25   -1    0    0    0    0  0.00000000000E+00  0.00000000000E+00  0.99999998245E-14  0.12500000000E+03  0.12500000000E+03 0.  0.
        -13    1    3    3    0    0 -0.21688621524E+02  0.94567011632E+01  0.24938372714E+02  0.34376723203E+02  0.10566000000E+00 0.  1.
         23    2    1    0    0    0  0.21523595743E+02  0.21799100798E+02 -0.11545605363E+02  0.92262147710E+02  0.86258546983E+02 0.  0.
         13    1    3    3    0    0  0.43212217268E+02  0.12342399635E+02 -0.36483978078E+02  0.57885424507E+02  0.10566000000E+00 0. -1.
         22    1    1    0    0    0 -0.21523595743E+02 -0.21799100798E+02  0.11545605363E+02  0.32737852290E+02  0.00000000000E+00 0. -1.
</event>
<event>
 5    1  0.1764318E-003  0.9118800E+02  0.7818608E-02  0.1130116E+00
         25   -1    0    0    0    0  0.00000000000E+00  0.00000000000E+00  0.99999998245E-14  0.12500000000E+03  0.12500000000E+03 0.  0.
        -13    1    3    3    0    0 -0.19339716359E+02 -0.30265765744E+02  0.18136394807E+02  0.40236565280E+02  0.10566000000E+00 0.  1.
         23    2    1    0    0    0  0.26439362675E+02 -0.17374523994E+01  0.15633542755E+02  0.94235307598E+02  0.89072032084E+02 0.  0.
         13    1    3    3    0    0  0.45779079034E+02  0.28528313344E+02 -0.25028520523E+01  0.53998742318E+02  0.10566000000E+00 0. -1.
         22    1    1    0    0    0 -0.26439362675E+02  0.17374523994E+01 -0.15633542755E+02  0.30764692402E+02  0.00000000000E+00 0. -1.
</event>
<event>
 5    1  0.1764318E-003  0.9118800E+02  0.7818608E-02  0.1130116E+00
         25   -1    0    0    0    0  0.00000000000E+00  0.00000000000E+00  0.99999998245E-14  0.12500000000E+03  0.12500000000E+03 0.  0.
        -13    1    3    3    0    0 -0.22850681553E+01  0.48666461019E+02 -0.66901002300E+00  0.48724785305E+02  0.10566000000E+00 0. -1.
         23    2    1    0    0    0 -0.27458249229E+02  0.92399189384E+01 -0.45937845655E+01  0.95666837720E+02  0.91058824010E+02 0.  0.
         13    1    3    3    0    0 -0.25173181073E+02 -0.39426542080E+02 -0.39247745425E+01  0.46942052416E+02  0.10566000000E+00 0.  1.
         22    1    1    0    0    0  0.27458249229E+02 -0.92399189384E+01  0.45937845655E+01  0.29333162280E+02  0.00000000000E+00 0. -1.
</event>
<event>
 5    1  0.1764318E-003  0.9118800E+02  0.7818608E-02  0.1130116E+00
         25   -1    0    0    0    0  0.00000000000E+00  0.00000000000E+00  0.99999998245E-14  0.12500000000E+03  0.12500000000E+03 0.  0.
        -13    1    3    3    0    0 -0.82833112928E+01 -0.12226132091E+02 -0.54596449446E+02  0.56558598002E+02  0.10566000000E+00 0. -1.
         23    2    1    0    0    0  0.90908788120E+01 -0.19009995377E+02 -0.19567218065E+02  0.96244130606E+02  0.91847877773E+02 0.  0.
         13    1    3    3    0    0  0.17374190105E+02 -0.67838632866E+01  0.35029231380E+02  0.39685532604E+02  0.10566000000E+00 0.  1.
         22    1    1    0    0    0 -0.90908788120E+01  0.19009995377E+02  0.19567218065E+02  0.28755869394E+02  0.00000000000E+00 0. -1.
</event>
<event>
 5    1  0.1764318E-003  0.9118800E+02  0.7818608E-02  0.1130116E+00
         25   -1    0    0    0    0  0.00000000000E+00  0.00000000000E+00  0.99999998245E-14  0.12500000000E+03  0.12500000000E+03 0.  0.
        -13    1    3    3    0    0  0.94130505750E+01  0.39494992211E+02 -0.28067649123E+02  0.49358525324E+02  0.10566000000E+00 0.  1.
         23    2    1    0    0    0 -0.12959576606E+02  0.69888195561E+00 -0.27994425278E+02  0.94143446265E+02  0.88943024269E+02 0.  0.
         13    1    3    3    0    0 -0.22372627181E+02 -0.38796110255E+02  0.73223844919E-01  0.44784920941E+02  0.10566000000E+00 0. -1.
         22    1    1    0    0    0  0.12959576606E+02 -0.69888195561E+00  0.27994425278E+02  0.30856553735E+02  0.00000000000E+00 0. -1.
</event>
<event>
 5    1  0.1764318E-003  0.9118800E+02  0.7818608E-02  0.1130116E+00
         25   -1    0    0    0    0  0.00000000000E+00  0.00000000000E+00  0.99999998245E-14  0.12500000000E+03  0.12500000000E+03 0.  0.
        -13    1    3    3    0    0  0.12437799442E+02  0.10579773632E+02 -0.54216423022E+02  0.56622099523E+02  0.10566000000E+00 0. -1.
         23    2    1    0    0    0  0.13912944230E+01  0.22676852562E+02 -0.19304386442E+02  0.95186669454E+02  0.90397275200E+02 0.  0.
         13    1    3    3    0    0 -0.11046505019E+02  0.12097078931E+02  0.34912036580E+02  0.38564569931E+02  0.10566000000E+00 0.  1.
         22    1    1    0    0    0 -0.13912944230E+01 -0.22676852562E+02  0.19304386442E+02  0.29813330546E+02  0.00000000000E+00 0. -1.
</event>
<event>
 5    1  0.1764318E-003  0.9118800E+02  0.7818608E-02  0.1130116E+00
         25   -1    0    0    0    0  0.00000000000E+00  0.00000000000E+00  0.99999998245E-14  0.12500000000E+03  0.12500000000E+03 0.  0.
        -13    1    3    3    0    0  0.33398755133E+02 -0.12033406294E+01  0.33903563105E+02  0.47606592279E+02  0.10566000000E+00 0.  1.
         23    2    1    0    0    0  0.26046196771E+02 -0.25320396658E+01 -0.13471318663E+02  0.95567160897E+02  0.90921890787E+02 0.  0.
         13    1    3    3    0    0 -0.73525583618E+01 -0.13286990364E+01 -0.47374881769E+02  0.47960568619E+02  0.10566000000E+00 0. -1.
         22    1    1    0    0    0 -0.26046196771E+02  0.25320396658E+01  0.13471318663E+02  0.29432839103E+02  0.00000000000E+00 0.  1.
</event>
<event>
 5    1  0.1764318E-003  0.9118800E+02  0.7818608E-02  0.1130116E+00
         25   -1    0    0    0    0  0.00000000000E+00  0.00000000000E+00  0.99999998245E-14  0.12500000000E+03  0.12500000000E+03 0.  0.
        -13    1    3    3    0    0  0.13447854390E+02 -0.31937621503E+02  0.49833961818E+02  0.60698363813E+02  0.10566000000E+00 0.  1.
         23    2    1    0    0    0  0.34353194416E+01 -0.22868311226E+02  0.16715412892E+02  0.96466403905E+02  0.92149883213E+02 0.  0.
         13    1    3    3    0    0 -0.10012534948E+02  0.90693102773E+01 -0.33118548927E+02  0.35768040092E+02  0.10566000000E+00 0. -1.
         22    1    1    0    0    0 -0.34353194416E+01  0.22868311226E+02 -0.16715412892E+02  0.28533596095E+02  0.00000000000E+00 0.  1.
</event>
<event>
 5    1  0.1764318E-003  0.9118800E+02  0.7818608E-02  0.1130116E+00
         25   -1    0    0    0    0  0.00000000000E+00  0.00000000000E+00  0.99999998245E-14  0.12500000000E+03  0.12500000000E+03 0.  0.
        -13    1    3    3    0    0  0.30228338906E+02  0.13960230745E+02 -0.42719125457E+02  0.54162490335E+02  0.10566000000E+00 0. -1.
         23    2    1    0    0    0  0.16642137591E+02  0.24035778759E+02 -0.52163288038E+01  0.95303375776E+02  0.90558511162E+02 0.  0.
         13    1    3    3    0    0 -0.13586201315E+02  0.10075548014E+02  0.37502796653E+02  0.41140885440E+02  0.10566000000E+00 0.  1.
         22    1    1    0    0    0 -0.16642137591E+02 -0.24035778759E+02  0.52163288038E+01  0.29696624224E+02  0.00000000000E+00 0. -1.
</event>
<event>
 5    1  0.1764318E-003  0.9118800E+02  0.7818608E-02  0.1130116E+00
         25   -1    0    0    0    0  0.00000000000E+00  0.00000000000E+00  0.99999998245E-14  0.12500000000E+03  0.12500000000E+03 0.  0.
        -13    1    3    3    0    0  0.19709102898E+02 -0.23492256194E+02 -0.36864896823E+02  0.47951711335E+02  0.10566000000E+00 0. -1.
         23    2    1    0    0    0  0.29330769681E+02 -0.21782151916E+01  0.42806579945E+01  0.95278581723E+02  0.90524280891E+02 0.  0.
         13    1    3    3    0    0  0.96216667833E+01  0.21314041002E+02  0.41145554817E+02  0.47326870389E+02  0.10566000000E+00 0.  1.
         22    1    1    0    0    0 -0.29330769681E+02  0.21782151916E+01 -0.42806579945E+01  0.29721418277E+02  0.00000000000E+00 0.  1.
</event>
<event>
 5    1  0.1764318E-003  0.9118800E+02  0.7818608E-02  0.1130116E+00
         25   -1    0    0    0    0  0.00000000000E+00  0.00000000000E+00  0.99999998245E-14  0.12500000000E+03  0.12500000000E+03 0.  0.
        -13    1    3    3    0    0  0.37951713182E+02  0.31351737427E+02  0.13825279051E+02  0.51131335578E+02  0.10566000000E+00 0.  1.
         23    2    1    0    0    0  0.22576390569E+01  0.10690329740E+02  0.28160229883E+02  0.94794394045E+02  0.89853205348E+02 0.  0.
         13    1    3    3    0    0 -0.35694074126E+02 -0.20661407687E+02  0.14334950832E+02  0.43663058467E+02  0.10566000000E+00 0. -1.
         22    1    1    0    0    0 -0.22576390569E+01 -0.10690329740E+02 -0.28160229883E+02  0.30205605955E+02  0.00000000000E+00 0.  1.
</event>
<event>
 5    1  0.1764318E-003  0.9118800E+02  0.7818608E-02  0.1130116E+00
         25   -1    0    0    0    0  0.00000000000E+00  0.00000000000E+00  0.99999998245E-14  0.12500000000E+03  0.12500000000E+03 0.  0.
        -13    1    3    3    0    0 -0.16186726866E+02  0.18257199723E+02 -0.36542649708E+02  0.43939866637E+02  0.10566000000E+00 0.  1.
         23    2    1    0    0    0 -0.16612844098E+02  0.16512819915E+02  0.16076820227E+02  0.96590072876E+02  0.92317485987E+02 0.  0.
         13    1    3    3    0    0 -0.42611723273E+00 -0.17443798083E+01  0.52619469935E+02  0.52650206240E+02  0.10566000000E+00 0. -1.
         22    1    1    0    0    0  0.16612844098E+02 -0.16512819915E+02 -0.16076820227E+02  0.28409927124E+02  0.00000000000E+00 0. -1.
</event>
<event>
 5    1  0.1764318E-003  0.9118800E+02  0.7818608E-02  0.1130116E+00
         25   -1    0    0    0    0  0.00000000000E+00  0.00000000000E+00  0.99999998245E-14  0.12500000000E+03  0.12500000000E+03 0.  0.
        -13    1    3    3    0    0  0.11190191178E+02 -0.28554972039E+02  0.18564050169E+02  0.35850270981E+02  0.10566000000E+00 0. -1.
         23    2    1    0    0    0  0.52365384046E+01  0.28847068584E+02  0.36590729061E+01  0.95454044018E+02  0.90766243750E+02 0.  0.
         13    1    3    3    0    0 -0.59536527731E+01  0.57402040623E+02 -0.14904977263E+02  0.59603773037E+02  0.10566000000E+00 0.  1.
         22    1    1    0    0    0 -0.52365384046E+01 -0.28847068584E+02 -0.36590729061E+01  0.29545955982E+02  0.00000000000E+00 0.  1.
</event>
<event>
 5    1  0.1764318E-003  0.9118800E+02  0.7818608E-02  0.1130116E+00
         25   -1    0    0    0    0  0.00000000000E+00  0.00000000000E+00  0.99999998245E-14  0.12500000000E+03  0.12500000000E+03 0.  0.
        -13    1    3    3    0    0 -0.33454994911E+02 -0.10920587311E+02 -0.38249314258E+01  0.35399677627E+02  0.10566000000E+00 0.  1.
         23    2    1    0    0    0  0.18011307872E+02  0.21885485763E+02  0.11299421340E+01  0.96633497439E+02  0.92376265132E+02 0.  0.
         13    1    3    3    0    0  0.51466302783E+02  0.32806073073E+02  0.49548735598E+01  0.61233819811E+02  0.10566000000E+00 0. -1.
         22    1    1    0    0    0 -0.18011307872E+02 -0.21885485763E+02 -0.11299421340E+01  0.28366502561E+02  0.00000000000E+00 0. -1.
</event>
<event>
 5    1  0.1764318E-003  0.9118800E+02  0.7818608E-02  0.1130116E+00
         25   -1    0    0    0    0  0.00000000000E+00  0.00000000000E+00  0.99999998245E-14  0.12500000000E+03  0.12500000000E+03 0.  0.
        -13    1    3    3    0    0 -0.13906161350E+02  0.47063056392E+02 -0.23511390940E+02  0.54416075459E+02  0.10566000000E+00 0.  1.
         23    2    1    0    0    0 -0.25565783377E+02  0.13832769342E+02 -0.16103812006E+01  0.95887320375E+02  0.91360987811E+02 0.  0.
         13    1    3    3    0    0 -0.11659622026E+02 -0.33230287050E+02  0.21901009739E+02  0.41471244916E+02  0.10566000000E+00 0. -1.
         22    1    1    0    0    0  0.25565783377E+02 -0.13832769342E+02  0.16103812006E+01  0.29112679625E+02  0.00000000000E+00 0.  1.
</event>
<event>
 5    1  0.1764318E-003  0.9118800E+02  0.7818608E-02  0.1130116E+00
         25   -1    0    0    0    0  0.00000000000E+00  0.00000000000E+00  0.99999998245E-14  0.12500000000E+03  0.12500000000E+03 0.  0.
        -13    1    3    3    0    0  0.18578510719E+02 -0.22228775747E+02  0.15821842498E+02  0.33009413745E+02  0.10566000000E+00 0.  1.
         23    2    1    0    0    0 -0.20351280675E+02  0.22946392694E+02  0.17679392407E+01  0.94278066924E+02  0.89132018552E+02 0.  0.
         13    1    3    3    0    0 -0.38929791394E+02  0.45175168440E+02 -0.14053903257E+02  0.61268653179E+02  0.10566000000E+00 0. -1.
         22    1    1    0    0    0  0.20351280675E+02 -0.22946392694E+02 -0.17679392407E+01  0.30721933076E+02  0.00000000000E+00 0. -1.
</event>
<event>
 5    1  0.1764318E-003  0.9118800E+02  0.7818608E-02  0.1130116E+00
         25   -1    0    0    0    0  0.00000000000E+00  0.00000000000E+00  0.99999998245E-14  0.12500000000E+03  0.12500000000E+03 0.  0.
        -13    1    3    3    0    0 -0.23346191206E+02  0.36939864142E+02 -0.41605124816E+02  0.60337349806E+02  0.10566000000E+00 0.  1.
         23    2    1    0    0    0 -0.20682724636E+02  0.14171972277E+02 -0.13775035813E+02  0.96392806704E+02  0.92049995525E+02 0.  0.
         13    1    3    3    0    0  0.26634665691E+01 -0.22767891865E+02  0.27830089004E+02  0.36055456898E+02  0.10566000000E+00 0. -1.
         22    1    1    0    0    0  0.20682724636E+02 -0.14171972277E+02  0.13775035813E+02  0.28607193296E+02  0.00000000000E+00 0.  1.
</event>
<event>
 5    1  0.1764318E-003  0.9118800E+02  0.7818608E-02  0.1130116E+00
         25   -1    0    0    0    0  0.00000000000E+00  0.00000000000E+00  0.99999998245E-14  0.12500000000E+03  0.12500000000E+03 0.  0.
        -13    1    3    3    0    0  0.17525310559E+00  0.19431476001E+02 -0.33576984739E+02  0.38794819776E+02  0.10566000000E+00 0. -1.
         23    2    1    0    0    0 -0.11997230504E+02  0.14905643413E+02  0.21985128447E+02  0.95854543782E+02  0.91316131902E+02 0.  0.
         13    1    3    3    0    0 -0.12172483610E+02 -0.45258325884E+01  0.55562113186E+02  0.57059724006E+02  0.10566000000E+00 0.  1.
         22    1    1    0    0    0  0.11997230504E+02 -0.14905643413E+02 -0.21985128447E+02  0.29145456218E+02  0.00000000000E+00 0. -1.
</event>
<event>
 5    1  0.1764318E-003  0.9118800E+02  0.7818608E-02  0.1130116E+00
         25   -1    0    0    0    0  0.00000000000E+00  0.00000000000E+00  0.99999998245E-14  0.12500000000E+03  0.12500000000E+03 0.  0.
        -13    1    3    3    0    0 -0.49009183765E+02 -0.34433031692E+02 -0.14243744106E+02  0.61566461446E+02  0.10566000000E+00 0.  1.
         23    2    1    0    0    0 -0.28876725091E+02 -0.14669605114E+02 -0.13571251979E+01  0.92582345011E+02  0.86721313717E+02 0.  0.
         13    1    3    3    0    0  0.20132458674E+02  0.19763426578E+02  0.12886618908E+02  0.31015883565E+02  0.10566000000E+00 0. -1.
         22    1    1    0    0    0  0.28876725091E+02  0.14669605114E+02  0.13571251979E+01  0.32417654989E+02  0.00000000000E+00 0.  1.
</event>
<event>
 5    1  0.1764318E-003  0.9118800E+02  0.7818608E-02  0.1130116E+00
         25   -1    0    0    0    0  0.00000000000E+00  0.00000000000E+00  0.99999998245E-14  0.12500000000E+03  0.12500000000E+03 0.  0.
        -13    1    3    3    0    0  0.42643906633E+02  0.28251494050E+02  0.34685575347E+02  0.61804125996E+02  0.10566000000E+00 0.  1.
         23    2    1    0    0    0  0.21882306160E+02  0.73500314748E+01  0.18497715225E+02  0.95419199570E+02  0.90718244540E+02 0.  0.
         13    1    3    3    0    0 -0.20761600473E+02 -0.20901462575E+02 -0.16187860122E+02  0.33615073574E+02  0.10566000000E+00 0. -1.
         22    1    1    0    0    0 -0.21882306160E+02 -0.73500314748E+01 -0.18497715225E+02  0.29580800430E+02  0.00000000000E+00 0.  1.
</event>
<event>
 5    1  0.1764318E-003  0.9118800E+02  0.7818608E-02  0.1130116E+00
         25   -1    0    0    0    0  0.00000000000E+00  0.00000000000E+00  0.99999998245E-14  0.12500000000E+03  0.12500000000E+03 0.  0.
        -13    1    3    3    0    0 -0.26407942051E+02  0.54973208894E+02 -0.12326523265E+02  0.62220474438E+02  0.10566000000E+00 0.  1.
         23    2    1    0    0    0 -0.14045113151E+02  0.26748349980E+02 -0.10221478850E+02  0.93106143853E+02  0.87473058499E+02 0.  0.
         13    1    3    3    0    0  0.12362828901E+02 -0.28224858914E+02  0.21050444149E+01  0.30885669414E+02  0.10566000000E+00 0. -1.
         22    1    1    0    0    0  0.14045113151E+02 -0.26748349980E+02  0.10221478850E+02  0.31893856147E+02  0.00000000000E+00 0.  1.
</event>
<event>
 5    1  0.1764318E-003  0.9118800E+02  0.7818608E-02  0.1130116E+00
         25   -1    0    0    0    0  0.00000000000E+00  0.00000000000E+00  0.99999998245E-14  0.12500000000E+03  0.12500000000E+03 0.  0.
        -13    1    3    3    0    0  0.46836519437E+01 -0.36432995755E+02  0.65753719974E+01  0.37316838775E+02  0.10566000000E+00 0. -1.
         23    2    1    0    0    0 -0.22884655679E+02  0.14411692594E+02  0.12008711294E+02  0.95409232928E+02  0.90704510538E+02 0.  0.
         13    1    3    3    0    0 -0.27568307622E+02  0.50844688349E+02  0.54333392965E+01  0.58092394153E+02  0.10566000000E+00 0.  1.
         22    1    1    0    0    0  0.22884655679E+02 -0.14411692594E+02 -0.12008711294E+02  0.29590767072E+02  0.00000000000E+00 0.  1.
</event>
<event>
 5    1  0.1764318E-003  0.9118800E+02  0.7818608E-02  0.1130116E+00
         25   -1    0    0    0    0  0.00000000000E+00  0.00000000000E+00  0.99999998245E-14  0.12500000000E+03  0.12500000000E+03 0.  0.
        -13    1    3    3    0    0  0.43417374132E+02 -0.20440088058E+00 -0.25974334361E+02  0.50594341243E+02  0.10566000000E+00 0.  1.
         23    2    1    0    0    0  0.22949521431E+01 -0.17042311992E+02 -0.24515804938E+02  0.95054517951E+02  0.90214353003E+02 0.  0.
         13    1    3    3    0    0 -0.41122421989E+02 -0.16837911111E+02  0.14585294227E+01  0.44460176709E+02  0.10566000000E+00 0. -1.
         22    1    1    0    0    0 -0.22949521431E+01  0.17042311992E+02  0.24515804938E+02  0.29945482049E+02  0.00000000000E+00 0. -1.
</event>
<event>
 5    1  0.1764318E-003  0.9118800E+02  0.7818608E-02  0.1130116E+00
         25   -1    0    0    0    0  0.00000000000E+00  0.00000000000E+00  0.99999998245E-14  0.12500000000E+03  0.12500000000E+03 0.  0.
        -13    1    3    3    0    0 -0.47034065779E+02 -0.35103645217E+02 -0.75850463127E+01  0.59177811237E+02  0.10566000000E+00 0.  1.
         23    2    1    0    0    0 -0.23896378608E+02 -0.19393751214E+02  0.10499164268E+02  0.92482513212E+02  0.86577296694E+02 0.  0.
         13    1    3    3    0    0  0.23137687171E+02  0.15709894004E+02  0.18084210581E+02  0.33304701974E+02  0.10566000000E+00 0. -1.
         22    1    1    0    0    0  0.23896378608E+02  0.19393751214E+02 -0.10499164268E+02  0.32517486788E+02  0.00000000000E+00 0.  1.
</event>
<event>
 5    1  0.1764318E-003  0.9118800E+02  0.7818608E-02  0.1130116E+00
         25   -1    0    0    0    0  0.00000000000E+00  0.00000000000E+00  0.99999998245E-14  0.12500000000E+03  0.12500000000E+03 0.  0.
        -13    1    3    3    0    0 -0.64388957071E+01  0.54377076839E+01 -0.58244568644E+02  0.58851244536E+02  0.10566000000E+00 0.  1.
         23    2    1    0    0    0 -0.16020033230E+02 -0.44543181255E+01 -0.23618922936E+02  0.96115126185E+02  0.91672141604E+02 0.  0.
         13    1    3    3    0    0 -0.95811375225E+01 -0.98920258094E+01  0.34625645709E+02  0.37263881650E+02  0.10566000000E+00 0. -1.
         22    1    1    0    0    0  0.16020033230E+02  0.44543181255E+01  0.23618922936E+02  0.28884873815E+02  0.00000000000E+00 0.  1.
</event>
<event>
 5    1  0.1764318E-003  0.9118800E+02  0.7818608E-02  0.1130116E+00
         25   -1    0    0    0    0  0.00000000000E+00  0.00000000000E+00  0.99999998245E-14  0.12500000000E+03  0.12500000000E+03 0.  0.
        -13    1    3    3    0    0  0.27994132544E+02  0.33931598865E+02 -0.67069090606E+00  0.43994156985E+02  0.10566000000E+00 0.  1.
         23    2    1    0    0    0  0.13547725852E+02 -0.11961976500E+02  0.21451587902E+02  0.96950037771E+02  0.92803606841E+02 0.  0.
         13    1    3    3    0    0 -0.14446406693E+02 -0.45893575365E+02  0.22122278808E+02  0.52955880786E+02  0.10566000000E+00 0. -1.
         22    1    1    0    0    0 -0.13547725852E+02  0.11961976500E+02 -0.21451587902E+02  0.28049962229E+02  0.00000000000E+00 0. -1.
</event>
<event>
 5    1  0.1764318E-003  0.9118800E+02  0.7818608E-02  0.1130116E+00
         25   -1    0    0    0    0  0.00000000000E+00  0.00000000000E+00  0.99999998245E-14  0.12500000000E+03  0.12500000000E+03 0.  0.
        -13    1    3    3    0    0  0.36762532396E+02 -0.13936131819E+02 -0.15603579414E+02  0.42298728265E+02  0.10566000000E+00 0.  1.
         23    2    1    0    0    0 -0.10089908711E+02 -0.26042329836E+02  0.77292277180E+01  0.96021556939E+02  0.91544465889E+02 0.  0.
         13    1    3    3    0    0 -0.46852441107E+02 -0.12106198017E+02  0.23332807132E+02  0.53722828675E+02  0.10566000000E+00 0. -1.
         22    1    1    0    0    0  0.10089908711E+02  0.26042329836E+02 -0.77292277180E+01  0.28978443061E+02  0.00000000000E+00 0. -1.
</event>
<event>
 5    1  0.1764318E-003  0.9118800E+02  0.7818608E-02  0.1130116E+00
         25   -1    0    0    0    0  0.00000000000E+00  0.00000000000E+00  0.99999998245E-14  0.12500000000E+03  0.12500000000E+03 0.  0.
        -13    1    3    3    0    0  0.45401197477E+01  0.39131403238E+02  0.42841410352E+01  0.39626309886E+02  0.10566000000E+00 0.  1.
         23    2    1    0    0    0 -0.13564475518E+02 -0.39258587814E+01 -0.26083687628E+02  0.95339148300E+02  0.90607875348E+02 0.  0.
         13    1    3    3    0    0 -0.18104595266E+02 -0.43057262020E+02 -0.30367828664E+02  0.55712838414E+02  0.10566000000E+00 0. -1.
         22    1    1    0    0    0  0.13564475518E+02  0.39258587814E+01  0.26083687628E+02  0.29660851700E+02  0.00000000000E+00 0. -1.
</event>
<event>
 5    1  0.1764318E-003  0.9118800E+02  0.7818608E-02  0.1130116E+00
         25   -1    0    0    0    0  0.00000000000E+00  0.00000000000E+00  0.99999998245E-14  0.12500000000E+03  0.12500000000E+03 0.  0.
        -13    1    3    3    0    0  0.15904854301E+02 -0.68831899369E-01 -0.35299925674E+02  0.38717761361E+02  0.10566000000E+00 0.  1.
         23    2    1    0    0    0 -0.24147075479E+02  0.21151941384E+02 -0.70284958705E+01  0.92138386638E+02  0.86079014049E+02 0.  0.
         13    1    3    3    0    0 -0.40051929780E+02  0.21220773284E+02  0.28271429803E+02  0.53420625278E+02  0.10566000000E+00 0. -1.
         22    1    1    0    0    0  0.24147075479E+02 -0.21151941384E+02  0.70284958705E+01  0.32861613362E+02  0.00000000000E+00 0. -1.
</event>
<event>
 5    1  0.1764318E-003  0.9118800E+02  0.7818608E-02  0.1130116E+00
         25   -1    0    0    0    0  0.00000000000E+00  0.00000000000E+00  0.99999998245E-14  0.12500000000E+03  0.12500000000E+03 0.  0.
        -13    1    3    3    0    0  0.54080094005E+02  0.20980784236E+00 -0.11611777191E+02  0.55313155041E+02  0.10566000000E+00 0.  1.
         23    2    1    0    0    0  0.19866470924E+02  0.71839710254E+01  0.14894666154E+02  0.99151650216E+02  0.95723103555E+02 0.  0.
         13    1    3    3    0    0 -0.34213623081E+02  0.69741631830E+01  0.26506443345E+02  0.43838495176E+02  0.10566000000E+00 0. -1.
         22    1    1    0    0    0 -0.19866470924E+02 -0.71839710254E+01 -0.14894666154E+02  0.25848349784E+02  0.00000000000E+00 0.  1.
</event>
<event>
 5    1  0.1764318E-003  0.9118800E+02  0.7818608E-02  0.1130116E+00
         25   -1    0    0    0    0  0.00000000000E+00  0.00000000000E+00  0.99999998245E-14  0.12500000000E+03  0.12500000000E+03 0.  0.
        -13    1    3    3    0    0 -0.49715233364E+01  0.10341195246E+02  0.25125320575E+02  0.27621536189E+02  0.10566000000E+00 0.  1.
         23    2    1    0    0    0  0.30621258388E+01 -0.41223787554E+02  0.16376314286E+02  0.80536971037E+02  0.67150895447E+02 0.  0.
         13    1    3    3    0    0  0.80336491752E+01 -0.51564982799E+02 -0.87490062890E+01  0.52915434849E+02  0.10566000000E+00 0. -1.
         22    1    1    0    0    0 -0.30621258388E+01  0.41223787554E+02 -0.16376314286E+02  0.44463028963E+02  0.00000000000E+00 0. -1.
</event>
<event>
 5    1  0.1764318E-003  0.9118800E+02  0.7818608E-02  0.1130116E+00
         25   -1    0    0    0    0  0.00000000000E+00  0.00000000000E+00  0.99999998245E-14  0.12500000000E+03  0.12500000000E+03 0.  0.
        -13    1    3    3    0    0 -0.46434864151E+02  0.22273735947E+01 -0.41569373932E+02  0.62363305035E+02  0.10566000000E+00 0.  1.
         23    2    1    0    0    0 -0.21860859344E+02  0.37934007448E+01 -0.18367355110E+02  0.96196410047E+02  0.91782909693E+02 0.  0.
         13    1    3    3    0    0  0.24574004806E+02  0.15660271501E+01  0.23202018822E+02  0.33833105011E+02  0.10566000000E+00 0. -1.
         22    1    1    0    0    0  0.21860859344E+02 -0.37934007448E+01  0.18367355110E+02  0.28803589953E+02  0.00000000000E+00 0.  1.
</event>
<event>
 5    1  0.1764318E-003  0.9118800E+02  0.7818608E-02  0.1130116E+00
         25   -1    0    0    0    0  0.00000000000E+00  0.00000000000E+00  0.99999998245E-14  0.12500000000E+03  0.12500000000E+03 0.  0.
        -13    1    3    3    0    0 -0.46364956365E+01 -0.13097030480E+02  0.41745063678E+02  0.43996486276E+02  0.10566000000E+00 0.  1.
         23    2    1    0    0    0 -0.26318686994E+02 -0.10202410932E+02 -0.56654032165E+01  0.96210083926E+02  0.91801530388E+02 0.  0.
         13    1    3    3    0    0 -0.21682191358E+02  0.28946195478E+01 -0.47410466894E+02  0.52213597650E+02  0.10566000000E+00 0. -1.
         22    1    1    0    0    0  0.26318686994E+02  0.10202410932E+02  0.56654032165E+01  0.28789916074E+02  0.00000000000E+00 0. -1.
</event>
<event>
 5    1  0.1764318E-003  0.9118800E+02  0.7818608E-02  0.1130116E+00
         25   -1    0    0    0    0  0.00000000000E+00  0.00000000000E+00  0.99999998245E-14  0.12500000000E+03  0.12500000000E+03 0.  0.
        -13    1    3    3    0    0  0.14627584249E+02  0.22461410921E+02 -0.45669349767E+02  0.52954526471E+02  0.10566000000E+00 0. -1.
         23    2    1    0    0    0  0.10802966483E+01  0.28714145298E+02 -0.55824723327E+01  0.95728287061E+02  0.91143138882E+02 0.  0.
         13    1    3    3    0    0 -0.13547287601E+02  0.62527343763E+01  0.40086877435E+02  0.42773760590E+02  0.10566000000E+00 0.  1.
         22    1    1    0    0    0 -0.10802966483E+01 -0.28714145298E+02  0.55824723327E+01  0.29271712939E+02  0.00000000000E+00 0. -1.
</event>
<event>
 5    1  0.1764318E-003  0.9118800E+02  0.7818608E-02  0.1130116E+00
         25   -1    0    0    0    0  0.00000000000E+00  0.00000000000E+00  0.99999998245E-14  0.12500000000E+03  0.12500000000E+03 0.  0.
        -13    1    3    3    0    0 -0.13507418013E+01  0.87776739633E+01  0.36673793194E+02  0.37733941417E+02  0.10566000000E+00 0.  1.
         23    2    1    0    0    0 -0.13489284822E+02  0.17216084577E+02 -0.19424911939E+02  0.95747964567E+02  0.91170121979E+02 0.  0.
         13    1    3    3    0    0 -0.12138543020E+02  0.84384106139E+01 -0.56098705133E+02  0.58014023149E+02  0.10566000000E+00 0. -1.
         22    1    1    0    0    0  0.13489284822E+02 -0.17216084577E+02  0.19424911939E+02  0.29252035433E+02  0.00000000000E+00 0. -1.
</event>
<event>
 5    1  0.1764318E-003  0.9118800E+02  0.7818608E-02  0.1130116E+00
         25   -1    0    0    0    0  0.00000000000E+00  0.00000000000E+00  0.99999998245E-14  0.12500000000E+03  0.12500000000E+03 0.  0.
        -13    1    3    3    0    0 -0.14507058802E+02 -0.38797208475E+02  0.74601156566E+01  0.42087321490E+02  0.10566000000E+00 0.  1.
         23    2    1    0    0    0 -0.27153491319E+02  0.12128748997E+02 -0.10322571760E+01  0.95242913484E+02  0.90475015175E+02 0.  0.
         13    1    3    3    0    0 -0.12646432517E+02  0.50925957472E+02 -0.84923728326E+01  0.53155591994E+02  0.10566000000E+00 0. -1.
         22    1    1    0    0    0  0.27153491319E+02 -0.12128748997E+02  0.10322571760E+01  0.29757086516E+02  0.00000000000E+00 0. -1.
</event>
<event>
 5    1  0.1764318E-003  0.9118800E+02  0.7818608E-02  0.1130116E+00
         25   -1    0    0    0    0  0.00000000000E+00  0.00000000000E+00  0.99999998245E-14  0.12500000000E+03  0.12500000000E+03 0.  0.
        -13    1    3    3    0    0 -0.22633449728E+01 -0.23338163281E+02 -0.53037744449E+02  0.57989706811E+02  0.10566000000E+00 0.  1.
         23    2    1    0    0    0 -0.15427267604E+02 -0.15965304188E+02 -0.17066711872E+02  0.96997068409E+02  0.92866932233E+02 0.  0.
         13    1    3    3    0    0 -0.13163922631E+02  0.73728590927E+01  0.35971032576E+02  0.39007361598E+02  0.10566000000E+00 0. -1.
         22    1    1    0    0    0  0.15427267604E+02  0.15965304188E+02  0.17066711872E+02  0.28002931591E+02  0.00000000000E+00 0.  1.
</event>
<event>
 5    1  0.1764318E-003  0.9118800E+02  0.7818608E-02  0.1130116E+00
         25   -1    0    0    0    0  0.00000000000E+00  0.00000000000E+00  0.99999998245E-14  0.12500000000E+03  0.12500000000E+03 0.  0.
        -13    1    3    3    0    0 -0.57373563881E+00 -0.39650141454E+02 -0.94972726062E+01  0.40775878174E+02  0.10566000000E+00 0.  1.
         23    2    1    0    0    0  0.87467568082E+01 -0.35181950185E+00  0.27862941772E+02  0.95794297546E+02  0.91233625306E+02 0.  0.
         13    1    3    3    0    0  0.93204924470E+01  0.39298321952E+02  0.37360214379E+02  0.55018419372E+02  0.10566000000E+00 0. -1.
         22    1    1    0    0    0 -0.87467568082E+01  0.35181950185E+00 -0.27862941772E+02  0.29205702454E+02  0.00000000000E+00 0. -1.
</event>
<event>
 5    1  0.1764318E-003  0.9118800E+02  0.7818608E-02  0.1130116E+00
         25   -1    0    0    0    0  0.00000000000E+00  0.00000000000E+00  0.99999998245E-14  0.12500000000E+03  0.12500000000E+03 0.  0.
        -13    1    3    3    0    0 -0.23653384617E+02 -0.36270934432E+02  0.42452246986E+02  0.60640479274E+02  0.10566000000E+00 0.  1.
         23    2    1    0    0    0 -0.56616882899E+01 -0.18116052273E+02  0.31005071012E+02  0.88646726520E+02  0.80849747248E+02 0.  0.
         13    1    3    3    0    0  0.17991696327E+02  0.18154882160E+02 -0.11447175973E+02  0.28006247246E+02  0.10566000000E+00 0. -1.
         22    1    1    0    0    0  0.56616882899E+01  0.18116052273E+02 -0.31005071012E+02  0.36353273480E+02  0.00000000000E+00 0.  1.
</event>
<event>
 5    1  0.1764318E-003  0.9118800E+02  0.7818608E-02  0.1130116E+00
         25   -1    0    0    0    0  0.00000000000E+00  0.00000000000E+00  0.99999998245E-14  0.12500000000E+03  0.12500000000E+03 0.  0.
        -13    1    3    3    0    0 -0.18359600905E+02 -0.30750882025E+02  0.18671498984E+02  0.40389698304E+02  0.10566000000E+00 0. -1.
         23    2    1    0    0    0 -0.18658894463E+02  0.88024058286E+01 -0.20398932464E+02  0.95987017792E+02  0.91497292025E+02 0.  0.
         13    1    3    3    0    0 -0.29929355795E+00  0.39553287853E+02 -0.39070431448E+02  0.55597319488E+02  0.10566000000E+00 0.  1.
         22    1    1    0    0    0  0.18658894463E+02 -0.88024058286E+01  0.20398932464E+02  0.29012982208E+02  0.00000000000E+00 0.  1.
</event>
<event>
 5    1  0.1764318E-003  0.9118800E+02  0.7818608E-02  0.1130116E+00
         25   -1    0    0    0    0  0.00000000000E+00  0.00000000000E+00  0.99999998245E-14  0.12500000000E+03  0.12500000000E+03 0.  0.
        -13    1    3    3    0    0 -0.28376370715E+02 -0.39091537709E+02 -0.39562829963E+02  0.62438733284E+02  0.10566000000E+00 0. -1.
         23    2    1    0    0    0 -0.13342887739E+02 -0.15771990604E+02 -0.18417229954E+02  0.97323607533E+02  0.93305422582E+02 0.  0.
         13    1    3    3    0    0  0.15033482975E+02  0.23319547105E+02  0.21145600009E+02  0.34884874249E+02  0.10566000000E+00 0.  1.
         22    1    1    0    0    0  0.13342887739E+02  0.15771990604E+02  0.18417229954E+02  0.27676392467E+02  0.00000000000E+00 0. -1.
</event>
<event>
 5    1  0.1764318E-003  0.9118800E+02  0.7818608E-02  0.1130116E+00
         25   -1    0    0    0    0  0.00000000000E+00  0.00000000000E+00  0.99999998245E-14  0.12500000000E+03  0.12500000000E+03 0.  0.
        -13    1    3    3    0    0 -0.32329490792E+02  0.83688977018E+00 -0.10600537914E+02  0.34033497138E+02  0.10566000000E+00 0.  1.
         23    2    1    0    0    0  0.26813834569E+02  0.18200926053E+01  0.94813680640E+01  0.96501038584E+02  0.92196852691E+02 0.  0.
         13    1    3    3    0    0  0.59143325361E+02  0.98320283513E+00  0.20081905978E+02  0.62467541446E+02  0.10566000000E+00 0. -1.
         22    1    1    0    0    0 -0.26813834569E+02 -0.18200926053E+01 -0.94813680640E+01  0.28498961416E+02  0.00000000000E+00 0. -1.
</event>
<event>
 5    1  0.1764318E-003  0.9118800E+02  0.7818608E-02  0.1130116E+00
         25   -1    0    0    0    0  0.00000000000E+00  0.00000000000E+00  0.99999998245E-14  0.12500000000E+03  0.12500000000E+03 0.  0.
        -13    1    3    3    0    0  0.32126070773E+02  0.29371585460E+02  0.10854305376E+02  0.44862028097E+02  0.10566000000E+00 0.  1.
         23    2    1    0    0    0 -0.73278635528E+01  0.20423027880E+02 -0.19804498159E+02  0.95622869450E+02  0.90998447033E+02 0.  0.
         13    1    3    3    0    0 -0.39453934326E+02 -0.89485575804E+01 -0.30658803535E+02  0.50760841353E+02  0.10566000000E+00 0. -1.
         22    1    1    0    0    0  0.73278635528E+01 -0.20423027880E+02  0.19804498159E+02  0.29377130550E+02  0.00000000000E+00 0. -1.
</event>
<event>
 5    1  0.1764318E-003  0.9118800E+02  0.7818608E-02  0.1130116E+00
         25   -1    0    0    0    0  0.00000000000E+00  0.00000000000E+00  0.99999998245E-14  0.12500000000E+03  0.12500000000E+03 0.  0.
        -13    1    3    3    0    0  0.12758634668E+02  0.35445612679E+02 -0.34621389870E+01  0.37830831172E+02  0.10566000000E+00 0.  1.
         23    2    1    0    0    0 -0.29881833482E+02 -0.24610534249E+01  0.38912251782E+00  0.95014467279E+02  0.90158842161E+02 0.  0.
         13    1    3    3    0    0 -0.42640468150E+02 -0.37906666104E+02  0.38512615048E+01  0.57183636107E+02  0.10566000000E+00 0. -1.
         22    1    1    0    0    0  0.29881833482E+02  0.24610534249E+01 -0.38912251782E+00  0.29985532721E+02  0.00000000000E+00 0. -1.
</event>
<event>
 5    1  0.1764318E-003  0.9118800E+02  0.7818608E-02  0.1130116E+00
         25   -1    0    0    0    0  0.00000000000E+00  0.00000000000E+00  0.99999998245E-14  0.12500000000E+03  0.12500000000E+03 0.  0.
        -13    1    3    3    0    0 -0.41135772320E+02 -0.14714805036E+01  0.67794997147E+01  0.41716780792E+02  0.10566000000E+00 0.  1.
         23    2    1    0    0    0 -0.21136657466E+00 -0.18655558189E+02 -0.23162829909E+02  0.95257921785E+02  0.90495748222E+02 0.  0.
         13    1    3    3    0    0  0.40924405745E+02 -0.17184077685E+02 -0.29942329624E+02  0.53541140993E+02  0.10566000000E+00 0. -1.
         22    1    1    0    0    0  0.21136657466E+00  0.18655558189E+02  0.23162829909E+02  0.29742078215E+02  0.00000000000E+00 0. -1.
</event>
<event>
 5    1  0.1764318E-003  0.9118800E+02  0.7818608E-02  0.1130116E+00
         25   -1    0    0    0    0  0.00000000000E+00  0.00000000000E+00  0.99999998245E-14  0.12500000000E+03  0.12500000000E+03 0.  0.
        -13    1    3    3    0    0  0.55746243016E+02 -0.11747063063E+02 -0.11487230531E+02  0.58117163819E+02  0.10566000000E+00 0. -1.
         23    2    1    0    0    0  0.11635212680E+02  0.17338992602E+01 -0.16739494710E+02  0.10454039922E+03  0.10251877782E+03 0.  0.
         13    1    3    3    0    0 -0.44111030336E+02  0.13480962323E+02 -0.52522641790E+01  0.46423235406E+02  0.10566000000E+00 0.  1.
         22    1    1    0    0    0 -0.11635212680E+02 -0.17338992602E+01  0.16739494710E+02  0.20459600776E+02  0.00000000000E+00 0. -1.
</event>
<event>
 5    1  0.1764318E-003  0.9118800E+02  0.7818608E-02  0.1130116E+00
         25   -1    0    0    0    0  0.00000000000E+00  0.00000000000E+00  0.99999998245E-14  0.12500000000E+03  0.12500000000E+03 0.  0.
        -13    1    3    3    0    0 -0.55386310696E+02 -0.12121657661E+02  0.10967791599E+02  0.57748433863E+02  0.10566000000E+00 0.  1.
         23    2    1    0    0    0 -0.21501471669E+02  0.22781832596E+01  0.19878274414E+02  0.95629109708E+02  0.91007018559E+02 0.  0.
         13    1    3    3    0    0  0.33884839027E+02  0.14399840920E+02  0.89104828143E+01  0.37880675845E+02  0.10566000000E+00 0. -1.
         22    1    1    0    0    0  0.21501471669E+02 -0.22781832596E+01 -0.19878274414E+02  0.29370890292E+02  0.00000000000E+00 0.  1.
</event>
<event>
 5    1  0.1764318E-003  0.9118800E+02  0.7818608E-02  0.1130116E+00
         25   -1    0    0    0    0  0.00000000000E+00  0.00000000000E+00  0.99999998245E-14  0.12500000000E+03  0.12500000000E+03 0.  0.
        -13    1    3    3    0    0  0.14643392944E+02 -0.29172994970E+02 -0.31613555749E+01  0.32794785035E+02  0.10566000000E+00 0.  1.
         23    2    1    0    0    0 -0.84852403974E+01  0.28642808013E+02 -0.48169662074E+00  0.95122888575E+02  0.90309036889E+02 0.  0.
         13    1    3    3    0    0 -0.23128633341E+02  0.57815802982E+02  0.26796589541E+01  0.62328103540E+02  0.10566000000E+00 0. -1.
         22    1    1    0    0    0  0.84852403974E+01 -0.28642808013E+02  0.48169662074E+00  0.29877111425E+02  0.00000000000E+00 0. -1.
</event>
<event>
 5    1  0.1764318E-003  0.9118800E+02  0.7818608E-02  0.1130116E+00
         25   -1    0    0    0    0  0.00000000000E+00  0.00000000000E+00  0.99999998245E-14  0.12500000000E+03  0.12500000000E+03 0.  0.
        -13    1    3    3    0    0  0.11124683653E+02 -0.34101775591E+02  0.12313061164E+02  0.37925088320E+02  0.10566000000E+00 0. -1.
         23    2    1    0    0    0  0.42378910885E+02 -0.85304726605E+01  0.16937586658E+02  0.78571313895E+02  0.63386342959E+02 0.  0.
         13    1    3    3    0    0  0.31254227232E+02  0.25571302930E+02  0.46245254945E+01  0.40646225575E+02  0.10566000000E+00 0.  1.
         22    1    1    0    0    0 -0.42378910885E+02  0.85304726605E+01 -0.16937586658E+02  0.46428686105E+02  0.00000000000E+00 0. -1.
</event>
<event>
 5    1  0.1764318E-003  0.9118800E+02  0.7818608E-02  0.1130116E+00
         25   -1    0    0    0    0  0.00000000000E+00  0.00000000000E+00  0.99999998245E-14  0.12500000000E+03  0.12500000000E+03 0.  0.
        -13    1    3    3    0    0  0.24528414376E+02  0.16062671166E+02 -0.18660052911E+02  0.34754298374E+02  0.10566000000E+00 0.  1.
         23    2    1    0    0    0 -0.22236420839E+02 -0.18791670408E+02 -0.35378594985E+00  0.95884532410E+02  0.91357173241E+02 0.  0.
         13    1    3    3    0    0 -0.46764835215E+02 -0.34854341574E+02  0.18306266961E+02  0.61130234036E+02  0.10566000000E+00 0. -1.
         22    1    1    0    0    0  0.22236420839E+02  0.18791670408E+02  0.35378594985E+00  0.29115467590E+02  0.00000000000E+00 0. -1.
</event>
<event>
 5    1  0.1764318E-003  0.9118800E+02  0.7818608E-02  0.1130116E+00
         25   -1    0    0    0    0  0.00000000000E+00  0.00000000000E+00  0.99999998245E-14  0.12500000000E+03  0.12500000000E+03 0.  0.
        -13    1    3    3    0    0  0.11693022307E+00  0.26753908542E+02  0.32707641892E+02  0.42256198328E+02  0.10566000000E+00 0. -1.
         23    2    1    0    0    0 -0.47964273521E+01  0.17736200412E+02 -0.21092220014E+02  0.97027508771E+02  0.92907896289E+02 0.  0.
         13    1    3    3    0    0 -0.49133575752E+01 -0.90177081292E+01 -0.53799861906E+02  0.54771310444E+02  0.10566000000E+00 0.  1.
         22    1    1    0    0    0  0.47964273521E+01 -0.17736200412E+02  0.21092220014E+02  0.27972491229E+02  0.00000000000E+00 0.  1.
</event>
<event>
 5    1  0.1764318E-003  0.9118800E+02  0.7818608E-02  0.1130116E+00
         25   -1    0    0    0    0  0.00000000000E+00  0.00000000000E+00  0.99999998245E-14  0.12500000000E+03  0.12500000000E+03 0.  0.
        -13    1    3    3    0    0  0.46968270011E+02  0.12147374790E+01 -0.38684309820E+02  0.60860339838E+02  0.10566000000E+00 0.  1.
         23    2    1    0    0    0  0.21823886445E+02 -0.95183422265E+01 -0.17316802426E+02  0.95559339264E+02  0.90911136920E+02 0.  0.
         13    1    3    3    0    0 -0.25144383566E+02 -0.10733079705E+02  0.21367507394E+02  0.34698999426E+02  0.10566000000E+00 0. -1.
         22    1    1    0    0    0 -0.21823886445E+02  0.95183422265E+01  0.17316802426E+02  0.29440660736E+02  0.00000000000E+00 0.  1.
</event>
<event>
 5    1  0.1764318E-003  0.9118800E+02  0.7818608E-02  0.1130116E+00
         25   -1    0    0    0    0  0.00000000000E+00  0.00000000000E+00  0.99999998245E-14  0.12500000000E+03  0.12500000000E+03 0.  0.
        -13    1    3    3    0    0  0.85525998017E+01 -0.71045315306E+01  0.55086298532E+02  0.56197266674E+02  0.10566000000E+00 0.  1.
         23    2    1    0    0    0 -0.36134962596E+01  0.15096901315E+02  0.25604295532E+02  0.95057492853E+02  0.90218474900E+02 0.  0.
         13    1    3    3    0    0 -0.12166096061E+02  0.22201432846E+02 -0.29482003000E+02  0.38860226179E+02  0.10566000000E+00 0. -1.
         22    1    1    0    0    0  0.36134962596E+01 -0.15096901315E+02 -0.25604295532E+02  0.29942507147E+02  0.00000000000E+00 0.  1.
</event>
<event>
 5    1  0.1764318E-003  0.9118800E+02  0.7818608E-02  0.1130116E+00
         25   -1    0    0    0    0  0.00000000000E+00  0.00000000000E+00  0.99999998245E-14  0.12500000000E+03  0.12500000000E+03 0.  0.
        -13    1    3    3    0    0 -0.22765730229E+02  0.26828299207E+02 -0.16870695442E+02  0.39021374142E+02  0.10566000000E+00 0.  1.
         23    2    1    0    0    0  0.25294792906E+02  0.13470934958E+02  0.86657832340E+01  0.95060253243E+02  0.90222299410E+02 0.  0.
         13    1    3    3    0    0  0.48060523135E+02 -0.13357364249E+02  0.25536478676E+02  0.56038879101E+02  0.10566000000E+00 0. -1.
         22    1    1    0    0    0 -0.25294792906E+02 -0.13470934958E+02 -0.86657832340E+01  0.29939746757E+02  0.00000000000E+00 0. -1.
</event>
<event>
 5    1  0.1764318E-003  0.9118800E+02  0.7818608E-02  0.1130116E+00
         25   -1    0    0    0    0  0.00000000000E+00  0.00000000000E+00  0.99999998245E-14  0.12500000000E+03  0.12500000000E+03 0.  0.
        -13    1    3    3    0    0  0.16180249238E+02  0.44603636146E+02 -0.78296381914E+01  0.48089491795E+02  0.10566000000E+00 0.  1.
         23    2    1    0    0    0  0.98418871886E+01  0.23271471542E+02  0.26104535647E+02  0.88669972302E+02  0.80885679051E+02 0.  0.
         13    1    3    3    0    0 -0.63383620495E+01 -0.21332164603E+02  0.33934173838E+02  0.40580480508E+02  0.10566000000E+00 0. -1.
         22    1    1    0    0    0 -0.98418871886E+01 -0.23271471542E+02 -0.26104535647E+02  0.36330027698E+02  0.00000000000E+00 0.  1.
</event>
<event>
 5    1  0.1764318E-003  0.9118800E+02  0.7818608E-02  0.1130116E+00
         25   -1    0    0    0    0  0.00000000000E+00  0.00000000000E+00  0.99999998245E-14  0.12500000000E+03  0.12500000000E+03 0.  0.
        -13    1    3    3    0    0  0.14768770098E+02  0.52942441042E+02 -0.20773865328E+02  0.58758686834E+02  0.10566000000E+00 0.  1.
         23    2    1    0    0    0  0.17212079739E+02  0.21513701834E+02 -0.21120652518E+02  0.90284340445E+02  0.83343176753E+02 0.  0.
         13    1    3    3    0    0  0.24433096408E+01 -0.31428739208E+02 -0.34678719018E+00  0.31525653611E+02  0.10566000000E+00 0. -1.
         22    1    1    0    0    0 -0.17212079739E+02 -0.21513701834E+02  0.21120652518E+02  0.34715659555E+02  0.00000000000E+00 0.  1.
</event>
<event>
 5    1  0.1764318E-003  0.9118800E+02  0.7818608E-02  0.1130116E+00
         25   -1    0    0    0    0  0.00000000000E+00  0.00000000000E+00  0.99999998245E-14  0.12500000000E+03  0.12500000000E+03 0.  0.
        -13    1    3    3    0    0 -0.21280154546E+02  0.43914496543E+02 -0.31703870697E+02  0.58193423730E+02  0.10566000000E+00 0. -1.
         23    2    1    0    0    0 -0.14591189265E+02  0.70896747482E+01 -0.23392849694E+02  0.96532620264E+02  0.92239661025E+02 0.  0.
         13    1    3    3    0    0  0.66889652816E+01 -0.36824821795E+02  0.83110210023E+01  0.38339196535E+02  0.10566000000E+00 0.  1.
         22    1    1    0    0    0  0.14591189265E+02 -0.70896747482E+01  0.23392849694E+02  0.28467379736E+02  0.00000000000E+00 0. -1.
</event>
<event>
 5    1  0.1764318E-003  0.9118800E+02  0.7818608E-02  0.1130116E+00
         25   -1    0    0    0    0  0.00000000000E+00  0.00000000000E+00  0.99999998245E-14  0.12500000000E+03  0.12500000000E+03 0.  0.
        -13    1    3    3    0    0 -0.39594517388E+02  0.19572415745E+02 -0.15676274491E+02  0.46867494186E+02  0.10566000000E+00 0.  1.
         23    2    1    0    0    0  0.57197798278E+01  0.28458509735E+02  0.97659012211E+00  0.95955957825E+02  0.91454849276E+02 0.  0.
         13    1    3    3    0    0  0.45314297216E+02  0.88860939898E+01  0.16652864613E+02  0.49088463639E+02  0.10566000000E+00 0. -1.
         22    1    1    0    0    0 -0.57197798278E+01 -0.28458509735E+02 -0.97659012211E+00  0.29044042175E+02  0.00000000000E+00 0.  1.
</event>
<event>
 5    1  0.1764318E-003  0.9118800E+02  0.7818608E-02  0.1130116E+00
         25   -1    0    0    0    0  0.00000000000E+00  0.00000000000E+00  0.99999998245E-14  0.12500000000E+03  0.12500000000E+03 0.  0.
        -13    1    3    3    0    0 -0.98095105138E+01  0.77778197686E+01 -0.33533391514E+02  0.35794140405E+02  0.10566000000E+00 0. -1.
         23    2    1    0    0    0  0.49848764101E+01  0.15035701068E+02  0.24335227022E+02  0.95963392525E+02  0.91465010421E+02 0.  0.
         13    1    3    3    0    0  0.14794386924E+02  0.72578812998E+01  0.57868618536E+02  0.60169252120E+02  0.10566000000E+00 0.  1.
         22    1    1    0    0    0 -0.49848764101E+01 -0.15035701068E+02 -0.24335227022E+02  0.29036607475E+02  0.00000000000E+00 0.  1.
</event>
<event>
 5    1  0.1764318E-003  0.9118800E+02  0.7818608E-02  0.1130116E+00
         25   -1    0    0    0    0  0.00000000000E+00  0.00000000000E+00  0.99999998245E-14  0.12500000000E+03  0.12500000000E+03 0.  0.
        -13    1    3    3    0    0 -0.59774117466E+02 -0.10711090415E+02 -0.35829464466E+01  0.60831909768E+02  0.10566000000E+00 0. -1.
         23    2    1    0    0    0 -0.27822961868E+02 -0.97467633929E+01 -0.10801533708E+02  0.93602711356E+02  0.88179804032E+02 0.  0.
         13    1    3    3    0    0  0.31951155598E+02  0.96432702164E+00 -0.72185872618E+01  0.32770801589E+02  0.10566000000E+00 0.  1.
         22    1    1    0    0    0  0.27822961868E+02  0.97467633929E+01  0.10801533708E+02  0.31397288644E+02  0.00000000000E+00 0. -1.
</event>
<event>
 5    1  0.1764318E-003  0.9118800E+02  0.7818608E-02  0.1130116E+00
         25   -1    0    0    0    0  0.00000000000E+00  0.00000000000E+00  0.99999998245E-14  0.12500000000E+03  0.12500000000E+03 0.  0.
        -13    1    3    3    0    0  0.15825153208E+02 -0.28997998957E+02  0.11862147476E+02  0.35100443364E+02  0.10566000000E+00 0. -1.
         23    2    1    0    0    0  0.63511731705E+01  0.91966128982E+01 -0.30258287480E+02  0.92743542496E+02  0.86953353150E+02 0.  0.
         13    1    3    3    0    0 -0.94739800378E+01  0.38194611856E+02 -0.42120434956E+02  0.57643099132E+02  0.10566000000E+00 0.  1.
         22    1    1    0    0    0 -0.63511731705E+01 -0.91966128982E+01  0.30258287480E+02  0.32256457504E+02  0.00000000000E+00 0.  1.
</event>
<event>
 5    1  0.1764318E-003  0.9118800E+02  0.7818608E-02  0.1130116E+00
         25   -1    0    0    0    0  0.00000000000E+00  0.00000000000E+00  0.99999998245E-14  0.12500000000E+03  0.12500000000E+03 0.  0.
        -13    1    3    3    0    0 -0.23271779762E+02  0.27283628246E+02  0.17228140183E+02  0.39784319546E+02  0.10566000000E+00 0.  1.
         23    2    1    0    0    0  0.27725926840E+02  0.95709816159E+01  0.37305577398E+01  0.95432318838E+02  0.90736319682E+02 0.  0.
         13    1    3    3    0    0  0.50997706602E+02 -0.17712646631E+02 -0.13497582443E+02  0.55647999292E+02  0.10566000000E+00 0. -1.
         22    1    1    0    0    0 -0.27725926840E+02 -0.95709816159E+01 -0.37305577398E+01  0.29567681162E+02  0.00000000000E+00 0. -1.
</event>
<event>
 5    1  0.1764318E-003  0.9118800E+02  0.7818608E-02  0.1130116E+00
         25   -1    0    0    0    0  0.00000000000E+00  0.00000000000E+00  0.99999998245E-14  0.12500000000E+03  0.12500000000E+03 0.  0.
        -13    1    3    3    0    0  0.15310384011E+02 -0.20145377332E+02 -0.30244475662E+02  0.39433279835E+02  0.10566000000E+00 0. -1.
         23    2    1    0    0    0  0.59511272118E+01  0.27787037945E+02 -0.57490331295E+00  0.96577017984E+02  0.92299807670E+02 0.  0.
         13    1    3    3    0    0 -0.93592567996E+01  0.47932415278E+02  0.29669572349E+02  0.57143738149E+02  0.10566000000E+00 0.  1.
         22    1    1    0    0    0 -0.59511272118E+01 -0.27787037945E+02  0.57490331295E+00  0.28422982016E+02  0.00000000000E+00 0.  1.
</event>
<event>
 5    1  0.1764318E-003  0.9118800E+02  0.7818608E-02  0.1130116E+00
         25   -1    0    0    0    0  0.00000000000E+00  0.00000000000E+00  0.99999998245E-14  0.12500000000E+03  0.12500000000E+03 0.  0.
        -13    1    3    3    0    0 -0.31367580833E+02 -0.16058564986E+02  0.12001263802E+02  0.37226927534E+02  0.10566000000E+00 0. -1.
         23    2    1    0    0    0  0.25835541900E+01  0.29335136611E+02 -0.15519663817E+01  0.95510449446E+02  0.90843890061E+02 0.  0.
         13    1    3    3    0    0  0.33951135023E+02  0.45393701597E+02 -0.13553230184E+02  0.58283521912E+02  0.10566000000E+00 0.  1.
         22    1    1    0    0    0 -0.25835541900E+01 -0.29335136611E+02  0.15519663817E+01  0.29489550554E+02  0.00000000000E+00 0.  1.
</event>
<event>
 5    1  0.1764318E-003  0.9118800E+02  0.7818608E-02  0.1130116E+00
         25   -1    0    0    0    0  0.00000000000E+00  0.00000000000E+00  0.99999998245E-14  0.12500000000E+03  0.12500000000E+03 0.  0.
        -13    1    3    3    0    0 -0.40484978656E+02  0.34487839220E+02 -0.19149897967E+02  0.56525872899E+02  0.10566000000E+00 0.  1.
         23    2    1    0    0    0 -0.29717282793E+01  0.21218481980E+02 -0.19069786600E+02  0.96317045001E+02  0.91947056779E+02 0.  0.
         13    1    3    3    0    0  0.37513250377E+02 -0.13269357240E+02  0.80111367013E-01  0.39791172102E+02  0.10566000000E+00 0. -1.
         22    1    1    0    0    0  0.29717282793E+01 -0.21218481980E+02  0.19069786600E+02  0.28682954999E+02  0.00000000000E+00 0.  1.
</event>
<event>
 5    1  0.1764318E-003  0.9118800E+02  0.7818608E-02  0.1130116E+00
         25   -1    0    0    0    0  0.00000000000E+00  0.00000000000E+00  0.99999998245E-14  0.12500000000E+03  0.12500000000E+03 0.  0.
        -13    1    3    3    0    0 -0.24847417686E+02 -0.20078789968E+02  0.20735332082E+02  0.38085655211E+02  0.10566000000E+00 0.  1.
         23    2    1    0    0    0 -0.14600978233E+02  0.27268709885E+02 -0.61104468113E+01  0.93470511194E+02  0.87992203055E+02 0.  0.
         13    1    3    3    0    0  0.10246439453E+02  0.47347499853E+02 -0.26845778894E+02  0.55384855983E+02  0.10566000000E+00 0. -1.
         22    1    1    0    0    0  0.14600978233E+02 -0.27268709885E+02  0.61104468113E+01  0.31529488806E+02  0.00000000000E+00 0. -1.
</event>
<event>
 5    1  0.1764318E-003  0.9118800E+02  0.7818608E-02  0.1130116E+00
         25   -1    0    0    0    0  0.00000000000E+00  0.00000000000E+00  0.99999998245E-14  0.12500000000E+03  0.12500000000E+03 0.  0.
        -13    1    3    3    0    0 -0.27484482984E+02  0.47888624807E+01 -0.13930305322E+02  0.31183241960E+02  0.10566000000E+00 0. -1.
         23    2    1    0    0    0 -0.15396740258E+02  0.40841564091E+01  0.37625266825E+02  0.84141700381E+02  0.73555591869E+02 0.  0.
         13    1    3    3    0    0  0.12087742726E+02 -0.70470607166E+00  0.51555572147E+02  0.52958458420E+02  0.10566000000E+00 0.  1.
         22    1    1    0    0    0  0.15396740258E+02 -0.40841564091E+01 -0.37625266825E+02  0.40858299619E+02  0.00000000000E+00 0.  1.
</event>
<event>
 5    1  0.1764318E-003  0.9118800E+02  0.7818608E-02  0.1130116E+00
         25   -1    0    0    0    0  0.00000000000E+00  0.00000000000E+00  0.99999998245E-14  0.12500000000E+03  0.12500000000E+03 0.  0.
        -13    1    3    3    0    0 -0.50575184580E+02  0.38309753070E+01  0.18965836096E+02  0.54150159464E+02  0.10566000000E+00 0. -1.
         23    2    1    0    0    0 -0.15807539681E+02 -0.18607664815E+02  0.16355938279E+02  0.95612243746E+02  0.90983849867E+02 0.  0.
         13    1    3    3    0    0  0.34767644899E+02 -0.22438640122E+02 -0.26098978175E+01  0.41462084282E+02  0.10566000000E+00 0.  1.
         22    1    1    0    0    0  0.15807539681E+02  0.18607664815E+02 -0.16355938279E+02  0.29387756254E+02  0.00000000000E+00 0. -1.
</event>
<event>
 5    1  0.1764318E-003  0.9118800E+02  0.7818608E-02  0.1130116E+00
         25   -1    0    0    0    0  0.00000000000E+00  0.00000000000E+00  0.99999998245E-14  0.12500000000E+03  0.12500000000E+03 0.  0.
        -13    1    3    3    0    0 -0.10801871717E+01  0.26536656929E+02 -0.25443727972E+02  0.36779823578E+02  0.10566000000E+00 0.  1.
         23    2    1    0    0    0 -0.29680056826E+02  0.86801995045E+00  0.14281449952E+02  0.92051266419E+02  0.85952408953E+02 0.  0.
         13    1    3    3    0    0 -0.28599869655E+02 -0.25668636978E+02  0.39725177924E+02  0.55271442841E+02  0.10566000000E+00 0. -1.
         22    1    1    0    0    0  0.29680056826E+02 -0.86801995045E+00 -0.14281449952E+02  0.32948733581E+02  0.00000000000E+00 0. -1.
</event>
<event>
 5    1  0.1764318E-003  0.9118800E+02  0.7818608E-02  0.1130116E+00
         25   -1    0    0    0    0  0.00000000000E+00  0.00000000000E+00  0.99999998245E-14  0.12500000000E+03  0.12500000000E+03 0.  0.
        -13    1    3    3    0    0 -0.23303270912E+02 -0.13355160977E+02  0.21495564708E+02  0.34401645688E+02  0.10566000000E+00 0. -1.
         23    2    1    0    0    0  0.28721323321E+02  0.83714073059E+01 -0.90979198925E+00  0.95069704394E+02  0.90235392715E+02 0.  0.
         13    1    3    3    0    0  0.52024594233E+02  0.21726568283E+02 -0.22405356697E+02  0.60668058706E+02  0.10566000000E+00 0.  1.
         22    1    1    0    0    0 -0.28721323321E+02 -0.83714073059E+01  0.90979198925E+00  0.29930295606E+02  0.00000000000E+00 0.  1.
</event>
<event>
 5    1  0.1764318E-003  0.9118800E+02  0.7818608E-02  0.1130116E+00
         25   -1    0    0    0    0  0.00000000000E+00  0.00000000000E+00  0.99999998245E-14  0.12500000000E+03  0.12500000000E+03 0.  0.
        -13    1    3    3    0    0  0.30965225887E+02 -0.13472350146E+02  0.37538513023E+02  0.50492579224E+02  0.10566000000E+00 0.  1.
         23    2    1    0    0    0  0.24342887636E+02 -0.14666627461E+02 -0.71577460104E+01  0.95692672120E+02  0.91094280995E+02 0.  0.
         13    1    3    3    0    0 -0.66223382514E+01 -0.11942773152E+01 -0.44696259033E+02  0.45200092896E+02  0.10566000000E+00 0. -1.
         22    1    1    0    0    0 -0.24342887636E+02  0.14666627461E+02  0.71577460104E+01  0.29307327880E+02  0.00000000000E+00 0.  1.
</event>
<event>
 5    1  0.1764318E-003  0.9118800E+02  0.7818608E-02  0.1130116E+00
         25   -1    0    0    0    0  0.00000000000E+00  0.00000000000E+00  0.99999998245E-14  0.12500000000E+03  0.12500000000E+03 0.  0.
        -13    1    3    3    0    0  0.27426365576E+02  0.29683256448E+01  0.21230522461E+02  0.34810382558E+02  0.10566000000E+00 0. -1.
         23    2    1    0    0    0 -0.65866622757E+00  0.31896158245E+02 -0.15661298904E+02  0.89460233043E+02  0.82097857833E+02 0.  0.
         13    1    3    3    0    0 -0.28085031803E+02  0.28927832600E+02 -0.36891821365E+02  0.54649850485E+02  0.10566000000E+00 0.  1.
         22    1    1    0    0    0  0.65866622757E+00 -0.31896158245E+02  0.15661298904E+02  0.35539766957E+02  0.00000000000E+00 0.  1.
</event>
<event>
 5    1  0.1764318E-003  0.9118800E+02  0.7818608E-02  0.1130116E+00
         25   -1    0    0    0    0  0.00000000000E+00  0.00000000000E+00  0.99999998245E-14  0.12500000000E+03  0.12500000000E+03 0.  0.
        -13    1    3    3    0    0 -0.29456865382E+02  0.28791946872E+02 -0.23581198361E+02  0.47463324820E+02  0.10566000000E+00 0.  1.
         23    2    1    0    0    0  0.56030383435E+01  0.26767482750E+02  0.98331205671E+01  0.95938299576E+02  0.91430710891E+02 0.  0.
         13    1    3    3    0    0  0.35059903725E+02 -0.20244641220E+01  0.33414318928E+02  0.48474974757E+02  0.10566000000E+00 0. -1.
         22    1    1    0    0    0 -0.56030383435E+01 -0.26767482750E+02 -0.98331205671E+01  0.29061700424E+02  0.00000000000E+00 0.  1.
</event>
<event>
 5    1  0.1764318E-003  0.9118800E+02  0.7818608E-02  0.1130116E+00
         25   -1    0    0    0    0  0.00000000000E+00  0.00000000000E+00  0.99999998245E-14  0.12500000000E+03  0.12500000000E+03 0.  0.
        -13    1    3    3    0    0 -0.99609842805E+01 -0.10575708459E+01 -0.53146068140E+02  0.54081932165E+02  0.10566000000E+00 0. -1.
         23    2    1    0    0    0 -0.94188370143E+01  0.20775333982E+02 -0.16123608452E+02  0.97066154180E+02  0.92959875995E+02 0.  0.
         13    1    3    3    0    0  0.54214726622E+00  0.21832904828E+02  0.37022459688E+02  0.42984222015E+02  0.10566000000E+00 0.  1.
         22    1    1    0    0    0  0.94188370143E+01 -0.20775333982E+02  0.16123608452E+02  0.27933845820E+02  0.00000000000E+00 0. -1.
</event>
<event>
 5    1  0.1764318E-003  0.9118800E+02  0.7818608E-02  0.1130116E+00
         25   -1    0    0    0    0  0.00000000000E+00  0.00000000000E+00  0.99999998245E-14  0.12500000000E+03  0.12500000000E+03 0.  0.
        -13    1    3    3    0    0 -0.14527900445E+02 -0.17719466334E+01  0.35423714226E+02  0.38328193015E+02  0.10566000000E+00 0.  1.
         23    2    1    0    0    0  0.21379400310E+02 -0.26077564381E+02  0.59483528589E+01  0.90758197720E+02  0.84050874059E+02 0.  0.
         13    1    3    3    0    0  0.35907300755E+02 -0.24305617748E+02 -0.29475361367E+02  0.52430004705E+02  0.10566000000E+00 0. -1.
         22    1    1    0    0    0 -0.21379400310E+02  0.26077564381E+02 -0.59483528589E+01  0.34241802280E+02  0.00000000000E+00 0. -1.
</event>
<event>
 5    1  0.1764318E-003  0.9118800E+02  0.7818608E-02  0.1130116E+00
         25   -1    0    0    0    0  0.00000000000E+00  0.00000000000E+00  0.99999998245E-14  0.12500000000E+03  0.12500000000E+03 0.  0.
        -13    1    3    3    0    0 -0.32521236700E+02  0.16989196236E+02  0.64406587507E+01  0.37252608961E+02  0.10566000000E+00 0. -1.
         23    2    1    0    0    0  0.11241102118E+01 -0.26716612421E+02 -0.12381915815E+02  0.95532172759E+02  0.90873776139E+02 0.  0.
         13    1    3    3    0    0  0.33645346912E+02 -0.43705808657E+02 -0.18822574566E+02  0.58279563798E+02  0.10566000000E+00 0.  1.
         22    1    1    0    0    0 -0.11241102118E+01  0.26716612421E+02  0.12381915815E+02  0.29467827241E+02  0.00000000000E+00 0.  1.
</event>
<event>
 5    1  0.1764318E-003  0.9118800E+02  0.7818608E-02  0.1130116E+00
         25   -1    0    0    0    0  0.00000000000E+00  0.00000000000E+00  0.99999998245E-14  0.12500000000E+03  0.12500000000E+03 0.  0.
        -13    1    3    3    0    0 -0.36289788927E+02 -0.45896200056E+02 -0.21290987323E+02  0.62263370172E+02  0.10566000000E+00 0. -1.
         23    2    1    0    0    0 -0.23276029585E+02 -0.23913357487E+02 -0.10281266474E+02  0.90081141773E+02  0.83037855484E+02 0.  0.
         13    1    3    3    0    0  0.13013759343E+02  0.21982842569E+02  0.11009720849E+02  0.27817771601E+02  0.10566000000E+00 0.  1.
         22    1    1    0    0    0  0.23276029585E+02  0.23913357487E+02  0.10281266474E+02  0.34918858227E+02  0.00000000000E+00 0. -1.
</event>
<event>
 5    1  0.1764318E-003  0.9118800E+02  0.7818608E-02  0.1130116E+00
         25   -1    0    0    0    0  0.00000000000E+00  0.00000000000E+00  0.99999998245E-14  0.12500000000E+03  0.12500000000E+03 0.  0.
        -13    1    3    3    0    0 -0.53301387914E+02 -0.19480273685E+02  0.15363306454E+02  0.58792528145E+02  0.10566000000E+00 0.  1.
         23    2    1    0    0    0 -0.26880481270E+02 -0.78870457875E+01 -0.79425176514E+01  0.95882147208E+02  0.91353909615E+02 0.  0.
         13    1    3    3    0    0  0.26420906644E+02  0.11593227897E+02 -0.23305824106E+02  0.37089619063E+02  0.10566000000E+00 0. -1.
         22    1    1    0    0    0  0.26880481270E+02  0.78870457875E+01  0.79425176514E+01  0.29117852792E+02  0.00000000000E+00 0.  1.
</event>
<event>
 5    1  0.1764318E-003  0.9118800E+02  0.7818608E-02  0.1130116E+00
         25   -1    0    0    0    0  0.00000000000E+00  0.00000000000E+00  0.99999998245E-14  0.12500000000E+03  0.12500000000E+03 0.  0.
        -13    1    3    3    0    0 -0.56117210230E+02 -0.25279461793E+02  0.84631823307E+01  0.62127522820E+02  0.10566000000E+00 0.  1.
         23    2    1    0    0    0 -0.23559041558E+02 -0.15846143153E+02  0.44317778048E+01  0.96263797285E+02  0.91874639163E+02 0.  0.
         13    1    3    3    0    0  0.32558168672E+02  0.94333186403E+01 -0.40314045259E+01  0.34136274465E+02  0.10566000000E+00 0. -1.
         22    1    1    0    0    0  0.23559041558E+02  0.15846143153E+02 -0.44317778048E+01  0.28736202715E+02  0.00000000000E+00 0.  1.
</event>
<event>
 5    1  0.1764318E-003  0.9118800E+02  0.7818608E-02  0.1130116E+00
         25   -1    0    0    0    0  0.00000000000E+00  0.00000000000E+00  0.99999998245E-14  0.12500000000E+03  0.12500000000E+03 0.  0.
        -13    1    3    3    0    0  0.34722906674E+02 -0.49364106493E+02  0.85316944108E+00  0.60359210729E+02  0.10566000000E+00 0. -1.
         23    2    1    0    0    0  0.24128993556E+02 -0.16929246135E+02 -0.53586217393E+01  0.95041319594E+02  0.90196063653E+02 0.  0.
         13    1    3    3    0    0 -0.10593913118E+02  0.32434860358E+02 -0.62117911804E+01  0.34682108864E+02  0.10566000000E+00 0.  1.
         22    1    1    0    0    0 -0.24128993556E+02  0.16929246135E+02  0.53586217393E+01  0.29958680406E+02  0.00000000000E+00 0. -1.
</event>
<event>
 5    1  0.1764318E-003  0.9118800E+02  0.7818608E-02  0.1130116E+00
         25   -1    0    0    0    0  0.00000000000E+00  0.00000000000E+00  0.99999998245E-14  0.12500000000E+03  0.12500000000E+03 0.  0.
        -13    1    3    3    0    0 -0.48540671777E+02  0.18114386026E+02  0.23295988292E+02  0.56807059704E+02  0.10566000000E+00 0.  1.
         23    2    1    0    0    0 -0.13477584885E+02  0.39120835952E+01  0.26747341546E+02  0.94794537378E+02  0.89853404747E+02 0.  0.
         13    1    3    3    0    0  0.35063086892E+02 -0.14202302431E+02  0.34513532541E+01  0.37987477674E+02  0.10566000000E+00 0. -1.
         22    1    1    0    0    0  0.13477584885E+02 -0.39120835952E+01 -0.26747341546E+02  0.30205462622E+02  0.00000000000E+00 0.  1.
</event>
<event>
 5    1  0.1764318E-003  0.9118800E+02  0.7818608E-02  0.1130116E+00
         25   -1    0    0    0    0  0.00000000000E+00  0.00000000000E+00  0.99999998245E-14  0.12500000000E+03  0.12500000000E+03 0.  0.
        -13    1    3    3    0    0 -0.49900291844E+02 -0.23438935152E+02 -0.24934370758E+01  0.55187418853E+02  0.10566000000E+00 0.  1.
         23    2    1    0    0    0 -0.27972591901E+02  0.90793334027E+01  0.51423285684E+01  0.95144619651E+02  0.90339110648E+02 0.  0.
         13    1    3    3    0    0  0.21927699943E+02  0.32518268554E+02  0.76357656443E+01  0.39957200798E+02  0.10566000000E+00 0. -1.
         22    1    1    0    0    0  0.27972591901E+02 -0.90793334027E+01 -0.51423285684E+01  0.29855380349E+02  0.00000000000E+00 0.  1.
</event>
<event>
 5    1  0.1764318E-003  0.9118800E+02  0.7818608E-02  0.1130116E+00
         25   -1    0    0    0    0  0.00000000000E+00  0.00000000000E+00  0.99999998245E-14  0.12500000000E+03  0.12500000000E+03 0.  0.
        -13    1    3    3    0    0  0.48849872002E+01  0.36215258915E+02  0.49730063191E+02  0.61713032880E+02  0.10566000000E+00 0. -1.
         23    2    1    0    0    0 -0.26776118309E+01  0.19969737909E+02  0.33593361454E+02  0.85827637663E+02  0.76366939286E+02 0.  0.
         13    1    3    3    0    0 -0.75625990311E+01 -0.16245521006E+02 -0.16136701737E+02  0.24114604783E+02  0.10566000000E+00 0.  1.
         22    1    1    0    0    0  0.26776118309E+01 -0.19969737909E+02 -0.33593361454E+02  0.39172362337E+02  0.00000000000E+00 0. -1.
</event>
<event>
 5    1  0.1764318E-003  0.9118800E+02  0.7818608E-02  0.1130116E+00
         25   -1    0    0    0    0  0.00000000000E+00  0.00000000000E+00  0.99999998245E-14  0.12500000000E+03  0.12500000000E+03 0.  0.
        -13    1    3    3    0    0  0.29881013051E+01 -0.20342252174E+02  0.26718353435E+02  0.33713759019E+02  0.10566000000E+00 0.  1.
         23    2    1    0    0    0 -0.24592762968E+02  0.16325496971E+02 -0.11392081768E+02  0.93359750811E+02  0.87834718094E+02 0.  0.
         13    1    3    3    0    0 -0.27580864273E+02  0.36667749145E+02 -0.38110435203E+02  0.59645991792E+02  0.10566000000E+00 0. -1.
         22    1    1    0    0    0  0.24592762968E+02 -0.16325496971E+02  0.11392081768E+02  0.31640249189E+02  0.00000000000E+00 0. -1.
</event>
<event>
 5    1  0.1764318E-003  0.9118800E+02  0.7818608E-02  0.1130116E+00
         25   -1    0    0    0    0  0.00000000000E+00  0.00000000000E+00  0.99999998245E-14  0.12500000000E+03  0.12500000000E+03 0.  0.
        -13    1    3    3    0    0 -0.16240855659E+02  0.35723842862E+02 -0.35496121027E+02  0.52914498140E+02  0.10566000000E+00 0. -1.
         23    2    1    0    0    0 -0.95455047981E+01 -0.61976052580E+01 -0.26287434850E+02  0.96354647780E+02  0.91998162727E+02 0.  0.
         13    1    3    3    0    0  0.66953508606E+01 -0.41921448120E+02  0.92086861771E+01  0.43440149640E+02  0.10566000000E+00 0.  1.
         22    1    1    0    0    0  0.95455047981E+01  0.61976052580E+01  0.26287434850E+02  0.28645352220E+02  0.00000000000E+00 0. -1.
</event>
<event>
 5    1  0.1764318E-003  0.9118800E+02  0.7818608E-02  0.1130116E+00
         25   -1    0    0    0    0  0.00000000000E+00  0.00000000000E+00  0.99999998245E-14  0.12500000000E+03  0.12500000000E+03 0.  0.
        -13    1    3    3    0    0 -0.11372457333E+02  0.51924662243E+02  0.25698204247E+02  0.59041614141E+02  0.10566000000E+00 0. -1.
         23    2    1    0    0    0  0.85894638079E+01  0.26900771838E+02  0.78568387793E+01  0.95688563161E+02  0.91088642487E+02 0.  0.
         13    1    3    3    0    0  0.19961921141E+02 -0.25023890405E+02 -0.17841365468E+02  0.36646949020E+02  0.10566000000E+00 0.  1.
         22    1    1    0    0    0 -0.85894638079E+01 -0.26900771838E+02 -0.78568387793E+01  0.29311436839E+02  0.00000000000E+00 0. -1.
</event>
<event>
 5    1  0.1764318E-003  0.9118800E+02  0.7818608E-02  0.1130116E+00
         25   -1    0    0    0    0  0.00000000000E+00  0.00000000000E+00  0.99999998245E-14  0.12500000000E+03  0.12500000000E+03 0.  0.
        -13    1    3    3    0    0 -0.23589743825E+02  0.42590093261E+02 -0.10840510108E+02  0.49879052529E+02  0.10566000000E+00 0.  1.
         23    2    1    0    0    0  0.10262804049E+02  0.31424202150E+02  0.90851034805E+01  0.90716698920E+02  0.83989134594E+02 0.  0.
         13    1    3    3    0    0  0.33852547874E+02 -0.11165891111E+02  0.19925613588E+02  0.40837646391E+02  0.10566000000E+00 0. -1.
         22    1    1    0    0    0 -0.10262804049E+02 -0.31424202150E+02 -0.90851034805E+01  0.34283301080E+02  0.00000000000E+00 0.  1.
</event>
<event>
 5    1  0.1764318E-003  0.9118800E+02  0.7818608E-02  0.1130116E+00
         25   -1    0    0    0    0  0.00000000000E+00  0.00000000000E+00  0.99999998245E-14  0.12500000000E+03  0.12500000000E+03 0.  0.
        -13    1    3    3    0    0 -0.26631664338E+02 -0.34867263594E+02 -0.22063184239E+02  0.49109743216E+02  0.10566000000E+00 0.  1.
         23    2    1    0    0    0 -0.26275354664E+02 -0.22264548999E+01  0.11769965475E+02  0.96122959788E+02  0.91682822530E+02 0.  0.
         13    1    3    3    0    0  0.35630967406E+00  0.32640808694E+02  0.33833149714E+02  0.47013216572E+02  0.10566000000E+00 0. -1.
         22    1    1    0    0    0  0.26275354664E+02  0.22264548999E+01 -0.11769965475E+02  0.28877040212E+02  0.00000000000E+00 0.  1.
</event>
<event>
 5    1  0.1764318E-003  0.9118800E+02  0.7818608E-02  0.1130116E+00
         25   -1    0    0    0    0  0.00000000000E+00  0.00000000000E+00  0.99999998245E-14  0.12500000000E+03  0.12500000000E+03 0.  0.
        -13    1    3    3    0    0 -0.39595199041E+02  0.46313655857E+02 -0.24866988793E+01  0.60983025026E+02  0.10566000000E+00 0.  1.
         23    2    1    0    0    0 -0.20067539910E+02  0.21030764638E+02 -0.10794037507E+02  0.93991767786E+02  0.88729600172E+02 0.  0.
         13    1    3    3    0    0  0.19527659131E+02 -0.25282891219E+02 -0.83073386282E+01  0.33008742761E+02  0.10566000000E+00 0. -1.
         22    1    1    0    0    0  0.20067539910E+02 -0.21030764638E+02  0.10794037507E+02  0.31008232214E+02  0.00000000000E+00 0.  1.
</event>
<event>
 5    1  0.1764318E-003  0.9118800E+02  0.7818608E-02  0.1130116E+00
         25   -1    0    0    0    0  0.00000000000E+00  0.00000000000E+00  0.99999998245E-14  0.12500000000E+03  0.12500000000E+03 0.  0.
        -13    1    3    3    0    0  0.26403120103E+02 -0.19423509243E+02  0.21691115841E+02  0.39305383003E+02  0.10566000000E+00 0. -1.
         23    2    1    0    0    0 -0.47745695105E+01 -0.13130752219E+02 -0.25329065155E+02  0.96072941569E+02  0.91614602505E+02 0.  0.
         13    1    3    3    0    0 -0.31177689614E+02  0.62927570241E+01 -0.47020180996E+02  0.56767558566E+02  0.10566000000E+00 0.  1.
         22    1    1    0    0    0  0.47745695105E+01  0.13130752219E+02  0.25329065155E+02  0.28927058431E+02  0.00000000000E+00 0.  1.
</event>
<event>
 5    1  0.1764318E-003  0.9118800E+02  0.7818608E-02  0.1130116E+00
         25   -1    0    0    0    0  0.00000000000E+00  0.00000000000E+00  0.99999998245E-14  0.12500000000E+03  0.12500000000E+03 0.  0.
        -13    1    3    3    0    0  0.48528186019E+02 -0.23735120438E+02  0.80477517506E+01  0.54617929773E+02  0.10566000000E+00 0. -1.
         23    2    1    0    0    0  0.36186682276E+02  0.62484895235E+01 -0.94290031007E+00  0.88265701906E+02  0.80258491615E+02 0.  0.
         13    1    3    3    0    0 -0.12341503742E+02  0.29983609962E+02 -0.89906520606E+01  0.33647772132E+02  0.10566000000E+00 0.  1.
         22    1    1    0    0    0 -0.36186682276E+02 -0.62484895235E+01  0.94290031007E+00  0.36734298094E+02  0.00000000000E+00 0. -1.
</event>
<event>
 5    1  0.1764318E-003  0.9118800E+02  0.7818608E-02  0.1130116E+00
         25   -1    0    0    0    0  0.00000000000E+00  0.00000000000E+00  0.99999998245E-14  0.12500000000E+03  0.12500000000E+03 0.  0.
        -13    1    3    3    0    0 -0.17607868248E+02  0.23575381476E+02  0.92477090718E+00  0.29439803009E+02  0.10566000000E+00 0. -1.
         23    2    1    0    0    0  0.23022711822E+02 -0.22888269812E+02  0.79936156992E+01  0.91566243906E+02  0.85244125760E+02 0.  0.
         13    1    3    3    0    0  0.40630580070E+02 -0.46463651287E+02  0.70688447921E+01  0.62126440897E+02  0.10566000000E+00 0.  1.
         22    1    1    0    0    0 -0.23022711822E+02  0.22888269812E+02 -0.79936156992E+01  0.33433756094E+02  0.00000000000E+00 0.  1.
</event>
<event>
 5    1  0.1764318E-003  0.9118800E+02  0.7818608E-02  0.1130116E+00
         25   -1    0    0    0    0  0.00000000000E+00  0.00000000000E+00  0.99999998245E-14  0.12500000000E+03  0.12500000000E+03 0.  0.
        -13    1    3    3    0    0 -0.51361623571E+00  0.12321537113E+02  0.34815462365E+02  0.36935236052E+02  0.10566000000E+00 0. -1.
         23    2    1    0    0    0  0.27341758213E+02 -0.26991238991E+01 -0.13260537208E+02  0.94492642542E+02  0.89432436149E+02 0.  0.
         13    1    3    3    0    0  0.27855374449E+02 -0.15020661012E+02 -0.48075999573E+02  0.57557406491E+02  0.10566000000E+00 0.  1.
         22    1    1    0    0    0 -0.27341758213E+02  0.26991238991E+01  0.13260537208E+02  0.30507357458E+02  0.00000000000E+00 0.  1.
</event>
<event>
 5    1  0.1764318E-003  0.9118800E+02  0.7818608E-02  0.1130116E+00
         25   -1    0    0    0    0  0.00000000000E+00  0.00000000000E+00  0.99999998245E-14  0.12500000000E+03  0.12500000000E+03 0.  0.
        -13    1    3    3    0    0 -0.94623967222E+01  0.16478742380E+02 -0.26507996836E+02  0.32615501873E+02  0.10566000000E+00 0.  1.
         23    2    1    0    0    0  0.29090613108E+01 -0.24951482784E+02  0.17558062460E+02  0.94351595667E+02  0.89235076717E+02 0.  0.
         13    1    3    3    0    0  0.12371458033E+02 -0.41430225164E+02  0.44066059296E+02  0.61736093794E+02  0.10566000000E+00 0. -1.
         22    1    1    0    0    0 -0.29090613108E+01  0.24951482784E+02 -0.17558062460E+02  0.30648404333E+02  0.00000000000E+00 0. -1.
</event>
<event>
 5    1  0.1764318E-003  0.9118800E+02  0.7818608E-02  0.1130116E+00
         25   -1    0    0    0    0  0.00000000000E+00  0.00000000000E+00  0.99999998245E-14  0.12500000000E+03  0.12500000000E+03 0.  0.
        -13    1    3    3    0    0 -0.31793569772E+02 -0.45670741008E+02 -0.81690272538E+01  0.56244038203E+02  0.10566000000E+00 0. -1.
         23    2    1    0    0    0 -0.25319402454E+02 -0.12320781079E+02  0.10427096190E+02  0.94973376447E+02  0.90101854097E+02 0.  0.
         13    1    3    3    0    0  0.64741673182E+01  0.33349959928E+02  0.18596123444E+02  0.38729338245E+02  0.10566000000E+00 0.  1.
         22    1    1    0    0    0  0.25319402454E+02  0.12320781079E+02 -0.10427096190E+02  0.30026623553E+02  0.00000000000E+00 0. -1.
</event>
<event>
 5    1  0.1764318E-003  0.9118800E+02  0.7818608E-02  0.1130116E+00
         25   -1    0    0    0    0  0.00000000000E+00  0.00000000000E+00  0.99999998245E-14  0.12500000000E+03  0.12500000000E+03 0.  0.
        -13    1    3    3    0    0  0.22009042676E+02  0.50508586665E+02  0.28790752303E+02  0.62164570848E+02  0.10566000000E+00 0.  1.
         23    2    1    0    0    0  0.74106373115E+01  0.23939441570E+02  0.89796076600E+01  0.98379561203E+02  0.94709504806E+02 0.  0.
         13    1    3    3    0    0 -0.14598405364E+02 -0.26569145096E+02 -0.19811144643E+02  0.36214990355E+02  0.10566000000E+00 0. -1.
         22    1    1    0    0    0 -0.74106373115E+01 -0.23939441570E+02 -0.89796076600E+01  0.26620438797E+02  0.00000000000E+00 0.  1.
</event>
<event>
 5    1  0.1764318E-003  0.9118800E+02  0.7818608E-02  0.1130116E+00
         25   -1    0    0    0    0  0.00000000000E+00  0.00000000000E+00  0.99999998245E-14  0.12500000000E+03  0.12500000000E+03 0.  0.
        -13    1    3    3    0    0  0.26915714411E+02  0.32131808083E+01  0.28333630054E+02  0.39212064078E+02  0.10566000000E+00 0. -1.
         23    2    1    0    0    0 -0.31977492623E+01  0.82099647521E+01 -0.23798082516E+02  0.99623281279E+02  0.96337014277E+02 0.  0.
         13    1    3    3    0    0 -0.30113463673E+02  0.49967839437E+01 -0.52131712571E+02  0.60411217201E+02  0.10566000000E+00 0.  1.
         22    1    1    0    0    0  0.31977492623E+01 -0.82099647521E+01  0.23798082516E+02  0.25376718721E+02  0.00000000000E+00 0.  1.
</event>
<event>
 5    1  0.1764318E-003  0.9118800E+02  0.7818608E-02  0.1130116E+00
         25   -1    0    0    0    0  0.00000000000E+00  0.00000000000E+00  0.99999998245E-14  0.12500000000E+03  0.12500000000E+03 0.  0.
        -13    1    3    3    0    0  0.59259739383E+01 -0.33559161885E+02  0.26962797676E+01  0.34185020143E+02  0.10566000000E+00 0.  1.
         23    2    1    0    0    0 -0.23238862964E+02  0.19239224322E+02  0.43078074430E+01  0.94524604854E+02  0.89477098821E+02 0.  0.
         13    1    3    3    0    0 -0.29164836902E+02  0.52798386207E+02  0.16115276754E+01  0.60339584711E+02  0.10566000000E+00 0. -1.
         22    1    1    0    0    0  0.23238862964E+02 -0.19239224322E+02 -0.43078074430E+01  0.30475395146E+02  0.00000000000E+00 0. -1.
</event>
<event>
 5    1  0.1764318E-003  0.9118800E+02  0.7818608E-02  0.1130116E+00
         25   -1    0    0    0    0  0.00000000000E+00  0.00000000000E+00  0.99999998245E-14  0.12500000000E+03  0.12500000000E+03 0.  0.
        -13    1    3    3    0    0 -0.44778369097E+02  0.30109092752E+02  0.90479153439E+01  0.54713213591E+02  0.10566000000E+00 0. -1.
         23    2    1    0    0    0 -0.26174091730E+02 -0.42571918578E+01  0.15444383025E+02  0.94312287029E+02  0.89179996396E+02 0.  0.
         13    1    3    3    0    0  0.18604277368E+02 -0.34366284610E+02  0.63964676812E+01  0.39599073437E+02  0.10566000000E+00 0.  1.
         22    1    1    0    0    0  0.26174091730E+02  0.42571918578E+01 -0.15444383025E+02  0.30687712971E+02  0.00000000000E+00 0.  1.
</event>
<event>
 5    1  0.1764318E-003  0.9118800E+02  0.7818608E-02  0.1130116E+00
         25   -1    0    0    0    0  0.00000000000E+00  0.00000000000E+00  0.99999998245E-14  0.12500000000E+03  0.12500000000E+03 0.  0.
        -13    1    3    3    0    0 -0.97173263302E+01  0.57278529960E+02  0.13355147684E+02  0.59612310466E+02  0.10566000000E+00 0.  1.
         23    2    1    0    0    0  0.23508498633E+01  0.23475400472E+02  0.17332303245E+02  0.95724931115E+02  0.91138536190E+02 0.  0.
         13    1    3    3    0    0  0.12068176193E+02 -0.33803129488E+02  0.39771555614E+01  0.36112620650E+02  0.10566000000E+00 0. -1.
         22    1    1    0    0    0 -0.23508498633E+01 -0.23475400472E+02 -0.17332303245E+02  0.29275068885E+02  0.00000000000E+00 0.  1.
</event>
<event>
 5    1  0.1764318E-003  0.9118800E+02  0.7818608E-02  0.1130116E+00
         25   -1    0    0    0    0  0.00000000000E+00  0.00000000000E+00  0.99999998245E-14  0.12500000000E+03  0.12500000000E+03 0.  0.
        -13    1    3    3    0    0 -0.29761350092E+02  0.59747562502E+00 -0.13462248406E+02  0.32670142831E+02  0.10566000000E+00 0. -1.
         23    2    1    0    0    0  0.24522913908E+02  0.11478336434E+02  0.14052306465E+02  0.94494380341E+02  0.89434865042E+02 0.  0.
         13    1    3    3    0    0  0.54284263999E+02  0.10880860809E+02  0.27514554871E+02  0.61824237510E+02  0.10566000000E+00 0.  1.
         22    1    1    0    0    0 -0.24522913908E+02 -0.11478336434E+02 -0.14052306465E+02  0.30505619659E+02  0.00000000000E+00 0.  1.
</event>
<event>
 5    1  0.1764318E-003  0.9118800E+02  0.7818608E-02  0.1130116E+00
         25   -1    0    0    0    0  0.00000000000E+00  0.00000000000E+00  0.99999998245E-14  0.12500000000E+03  0.12500000000E+03 0.  0.
        -13    1    3    3    0    0 -0.48779482725E+02 -0.35021379053E+01 -0.12307135066E+02  0.50429947872E+02  0.10566000000E+00 0. -1.
         23    2    1    0    0    0 -0.15962408433E+02  0.24365733630E+02  0.20113243297E+01  0.95801834238E+02  0.91243950811E+02 0.  0.
         13    1    3    3    0    0  0.32817074292E+02  0.27867871535E+02  0.14318459396E+02  0.45371886367E+02  0.10566000000E+00 0.  1.
         22    1    1    0    0    0  0.15962408433E+02 -0.24365733630E+02 -0.20113243297E+01  0.29198165762E+02  0.00000000000E+00 0.  1.
</event>
<event>
 5    1  0.1764318E-003  0.9118800E+02  0.7818608E-02  0.1130116E+00
         25   -1    0    0    0    0  0.00000000000E+00  0.00000000000E+00  0.99999998245E-14  0.12500000000E+03  0.12500000000E+03 0.  0.
        -13    1    3    3    0    0  0.80229473942E+01  0.49380704009E+02  0.36092628183E+02  0.61688820596E+02  0.10566000000E+00 0. -1.
         23    2    1    0    0    0  0.10306143921E+02  0.22823723416E+02  0.13998375293E+02  0.96310394496E+02  0.91938015119E+02 0.  0.
         13    1    3    3    0    0  0.22831965272E+01 -0.26556980592E+02 -0.22094252890E+02  0.34621573901E+02  0.10566000000E+00 0.  1.
         22    1    1    0    0    0 -0.10306143921E+02 -0.22823723416E+02 -0.13998375293E+02  0.28689605504E+02  0.00000000000E+00 0. -1.
</event>
<event>
 5    1  0.1764318E-003  0.9118800E+02  0.7818608E-02  0.1130116E+00
         25   -1    0    0    0    0  0.00000000000E+00  0.00000000000E+00  0.99999998245E-14  0.12500000000E+03  0.12500000000E+03 0.  0.
        -13    1    3    3    0    0  0.11246623250E+02  0.13784975404E+01  0.41919974383E+02  0.43424442498E+02  0.10566000000E+00 0. -1.
         23    2    1    0    0    0  0.21124716994E+02 -0.15794767281E+02 -0.82489283362E+01  0.97363553770E+02  0.93358922671E+02 0.  0.
         13    1    3    3    0    0  0.98780937441E+01 -0.17173264822E+02 -0.50168902719E+02  0.53939111271E+02  0.10566000000E+00 0.  1.
         22    1    1    0    0    0 -0.21124716994E+02  0.15794767281E+02  0.82489283362E+01  0.27636446230E+02  0.00000000000E+00 0.  1.
</event>
<event>
 5    1  0.1764318E-003  0.9118800E+02  0.7818608E-02  0.1130116E+00
         25   -1    0    0    0    0  0.00000000000E+00  0.00000000000E+00  0.99999998245E-14  0.12500000000E+03  0.12500000000E+03 0.  0.
        -13    1    3    3    0    0 -0.13087061321E+02  0.34793090493E+01 -0.32111263430E+02  0.34849980898E+02  0.10566000000E+00 0.  1.
         23    2    1    0    0    0 -0.47019840816E+00  0.15758979838E+02  0.25460258579E+02  0.95053526101E+02  0.90212978696E+02 0.  0.
         13    1    3    3    0    0  0.12616862913E+02  0.12279670789E+02  0.57571522009E+02  0.60203545202E+02  0.10566000000E+00 0. -1.
         22    1    1    0    0    0  0.47019840816E+00 -0.15758979838E+02 -0.25460258579E+02  0.29946473899E+02  0.00000000000E+00 0. -1.
</event>
<event>
 5    1  0.1764318E-003  0.9118800E+02  0.7818608E-02  0.1130116E+00
         25   -1    0    0    0    0  0.00000000000E+00  0.00000000000E+00  0.99999998245E-14  0.12500000000E+03  0.12500000000E+03 0.  0.
        -13    1    3    3    0    0 -0.17321786047E+02 -0.36731028930E+02  0.12997683947E+02  0.42639930935E+02  0.10566000000E+00 0.  1.
         23    2    1    0    0    0 -0.17611126267E+02  0.17006298512E+02  0.14770644313E+02  0.96407380482E+02  0.92069783971E+02 0.  0.
         13    1    3    3    0    0 -0.28934022009E+00  0.53737327441E+02  0.17729603669E+01  0.53767449547E+02  0.10566000000E+00 0. -1.
         22    1    1    0    0    0  0.17611126267E+02 -0.17006298512E+02 -0.14770644313E+02  0.28592619518E+02  0.00000000000E+00 0. -1.
</event>
<event>
 5    1  0.1764318E-003  0.9118800E+02  0.7818608E-02  0.1130116E+00
         25   -1    0    0    0    0  0.00000000000E+00  0.00000000000E+00  0.99999998245E-14  0.12500000000E+03  0.12500000000E+03 0.  0.
        -13    1    3    3    0    0 -0.45597492891E+02 -0.29220776002E+02 -0.20173883767E+02  0.57792576153E+02  0.10566000000E+00 0. -1.
         23    2    1    0    0    0 -0.91097787750E+01 -0.23729305686E+02 -0.16091965908E+02  0.94916459908E+02  0.90022858080E+02 0.  0.
         13    1    3    3    0    0  0.36487714116E+02  0.54914703152E+01  0.40819178583E+01  0.37123883755E+02  0.10566000000E+00 0.  1.
         22    1    1    0    0    0  0.91097787750E+01  0.23729305686E+02  0.16091965908E+02  0.30083540092E+02  0.00000000000E+00 0. -1.
</event>
<event>
 5    1  0.1764318E-003  0.9118800E+02  0.7818608E-02  0.1130116E+00
         25   -1    0    0    0    0  0.00000000000E+00  0.00000000000E+00  0.99999998245E-14  0.12500000000E+03  0.12500000000E+03 0.  0.
        -13    1    3    3    0    0 -0.25890908128E+02  0.28820103167E+02 -0.29047895227E+01  0.38850822855E+02  0.10566000000E+00 0. -1.
         23    2    1    0    0    0 -0.29558732983E+02 -0.18909748856E+02  0.10153665910E+02  0.88470638812E+02  0.80577042035E+02 0.  0.
         13    1    3    3    0    0 -0.36678248552E+01 -0.47729852024E+02  0.13058455432E+02  0.49619815958E+02  0.10566000000E+00 0.  1.
         22    1    1    0    0    0  0.29558732983E+02  0.18909748856E+02 -0.10153665910E+02  0.36529361188E+02  0.00000000000E+00 0.  1.
</event>
<event>
 5    1  0.1764318E-003  0.9118800E+02  0.7818608E-02  0.1130116E+00
         25   -1    0    0    0    0  0.00000000000E+00  0.00000000000E+00  0.99999998245E-14  0.12500000000E+03  0.12500000000E+03 0.  0.
        -13    1    3    3    0    0 -0.15729627743E+02  0.32615629288E+02 -0.11216881160E+02  0.37908179194E+02  0.10566000000E+00 0. -1.
         23    2    1    0    0    0  0.14559964990E+02 -0.16252741884E+02 -0.19175953200E+02  0.95950707747E+02  0.91447673216E+02 0.  0.
         13    1    3    3    0    0  0.30289592733E+02 -0.48868371173E+02 -0.79590720403E+01  0.58042528553E+02  0.10566000000E+00 0.  1.
         22    1    1    0    0    0 -0.14559964990E+02  0.16252741884E+02  0.19175953200E+02  0.29049292253E+02  0.00000000000E+00 0.  1.
</event>
<event>
 5    1  0.1764318E-003  0.9118800E+02  0.7818608E-02  0.1130116E+00
         25   -1    0    0    0    0  0.00000000000E+00  0.00000000000E+00  0.99999998245E-14  0.12500000000E+03  0.12500000000E+03 0.  0.
        -13    1    3    3    0    0  0.23451701565E+02  0.23507856320E+02 -0.73848923199E+01  0.34016898942E+02  0.10566000000E+00 0.  1.
         23    2    1    0    0    0 -0.76556557621E+01 -0.27358894851E+02  0.77883445983E+01  0.95541953490E+02  0.90887228875E+02 0.  0.
         13    1    3    3    0    0 -0.31107357327E+02 -0.50866751171E+02  0.15173236918E+02  0.61525054548E+02  0.10566000000E+00 0. -1.
         22    1    1    0    0    0  0.76556557621E+01  0.27358894851E+02 -0.77883445983E+01  0.29458046510E+02  0.00000000000E+00 0. -1.
</event>
<event>
 5    1  0.1764318E-003  0.9118800E+02  0.7818608E-02  0.1130116E+00
         25   -1    0    0    0    0  0.00000000000E+00  0.00000000000E+00  0.99999998245E-14  0.12500000000E+03  0.12500000000E+03 0.  0.
        -13    1    3    3    0    0  0.18820045211E+02  0.12020624072E+01  0.29201914164E+02  0.34762077191E+02  0.10566000000E+00 0.  1.
         23    2    1    0    0    0 -0.13849436551E+02  0.12370606208E+02 -0.21807322077E+02  0.96357407818E+02  0.92001912777E+02 0.  0.
         13    1    3    3    0    0 -0.32669481762E+02  0.11168543801E+02 -0.51009236240E+02  0.61595330627E+02  0.10566000000E+00 0. -1.
         22    1    1    0    0    0  0.13849436551E+02 -0.12370606208E+02  0.21807322077E+02  0.28642592182E+02  0.00000000000E+00 0. -1.
</event>
<event>
 5    1  0.1764318E-003  0.9118800E+02  0.7818608E-02  0.1130116E+00
         25   -1    0    0    0    0  0.00000000000E+00  0.00000000000E+00  0.99999998245E-14  0.12500000000E+03  0.12500000000E+03 0.  0.
        -13    1    3    3    0    0  0.36088856875E+02  0.32057627027E+02  0.32040851218E+02  0.57937244946E+02  0.10566000000E+00 0.  1.
         23    2    1    0    0    0  0.18685670688E+02  0.24236542933E+02  0.99141894846E+00  0.94380607225E+02  0.89275706696E+02 0.  0.
         13    1    3    3    0    0 -0.17403186186E+02 -0.78210840947E+01 -0.31049432269E+02  0.36443362278E+02  0.10566000000E+00 0. -1.
         22    1    1    0    0    0 -0.18685670688E+02 -0.24236542933E+02 -0.99141894846E+00  0.30619392775E+02  0.00000000000E+00 0. -1.
</event>
<event>
 5    1  0.1764318E-003  0.9118800E+02  0.7818608E-02  0.1130116E+00
         25   -1    0    0    0    0  0.00000000000E+00  0.00000000000E+00  0.99999998245E-14  0.12500000000E+03  0.12500000000E+03 0.  0.
        -13    1    3    3    0    0 -0.31339965822E+02  0.10780559487E+02  0.19560417847E+02  0.38484217946E+02  0.10566000000E+00 0.  1.
         23    2    1    0    0    0  0.16700194562E+02 -0.19885751237E+02  0.13309688724E+02  0.95819742725E+02  0.91268481314E+02 0.  0.
         13    1    3    3    0    0  0.48040160383E+02 -0.30666310724E+02 -0.62507291229E+01  0.57335524779E+02  0.10566000000E+00 0. -1.
         22    1    1    0    0    0 -0.16700194562E+02  0.19885751237E+02 -0.13309688724E+02  0.29180257275E+02  0.00000000000E+00 0. -1.
</event>
<event>
 5    1  0.1764318E-003  0.9118800E+02  0.7818608E-02  0.1130116E+00
         25   -1    0    0    0    0  0.00000000000E+00  0.00000000000E+00  0.99999998245E-14  0.12500000000E+03  0.12500000000E+03 0.  0.
        -13    1    3    3    0    0  0.54183112522E+02  0.28432034507E+02  0.26858138975E+01  0.61248796144E+02  0.10566000000E+00 0. -1.
         23    2    1    0    0    0  0.25744429440E+02  0.46278337869E+01  0.48445110270E+01  0.98398086914E+02  0.94733952353E+02 0.  0.
         13    1    3    3    0    0 -0.28438683082E+02 -0.23804200721E+02  0.21586971295E+01  0.37149290770E+02  0.10566000000E+00 0.  1.
         22    1    1    0    0    0 -0.25744429440E+02 -0.46278337869E+01 -0.48445110270E+01  0.26601913086E+02  0.00000000000E+00 0. -1.
</event>
<event>
 5    1  0.1764318E-003  0.9118800E+02  0.7818608E-02  0.1130116E+00
         25   -1    0    0    0    0  0.00000000000E+00  0.00000000000E+00  0.99999998245E-14  0.12500000000E+03  0.12500000000E+03 0.  0.
        -13    1    3    3    0    0  0.40707585726E+02  0.64366354602E+01 -0.45705970188E+02  0.61543356153E+02  0.10566000000E+00 0.  1.
         23    2    1    0    0    0  0.20754088528E+02  0.96706195149E+01 -0.17815211781E+02  0.95989056492E+02  0.91500077175E+02 0.  0.
         13    1    3    3    0    0 -0.19953497198E+02  0.32339840547E+01  0.27890758408E+02  0.34445700339E+02  0.10566000000E+00 0. -1.
         22    1    1    0    0    0 -0.20754088528E+02 -0.96706195149E+01  0.17815211781E+02  0.29010943508E+02  0.00000000000E+00 0.  1.
</event>
<event>
 5    1  0.1764318E-003  0.9118800E+02  0.7818608E-02  0.1130116E+00
         25   -1    0    0    0    0  0.00000000000E+00  0.00000000000E+00  0.99999998245E-14  0.12500000000E+03  0.12500000000E+03 0.  0.
        -13    1    3    3    0    0  0.20418278053E+02  0.23921621171E+02  0.26587201209E+02  0.41183011913E+02  0.10566000000E+00 0. -1.
         23    2    1    0    0    0 -0.27125818219E+02  0.10531321667E+02  0.35472359236E+01  0.95686152883E+02  0.91085334828E+02 0.  0.
         13    1    3    3    0    0 -0.47544096272E+02 -0.13390299504E+02 -0.23039965285E+02  0.54503140969E+02  0.10566000000E+00 0.  1.
         22    1    1    0    0    0  0.27125818219E+02 -0.10531321667E+02 -0.35472359236E+01  0.29313847117E+02  0.00000000000E+00 0.  1.
</event>
<event>
 5    1  0.1764318E-003  0.9118800E+02  0.7818608E-02  0.1130116E+00
         25   -1    0    0    0    0  0.00000000000E+00  0.00000000000E+00  0.99999998245E-14  0.12500000000E+03  0.12500000000E+03 0.  0.
        -13    1    3    3    0    0  0.57609628475E+01  0.61685275028E+02 -0.66200805292E+01  0.62306488253E+02  0.10566000000E+00 0. -1.
         23    2    1    0    0    0 -0.67646374127E+00  0.29741090642E+02 -0.36511676658E+01  0.95027994710E+02  0.90177595209E+02 0.  0.
         13    1    3    3    0    0 -0.64374265887E+01 -0.31944184386E+02  0.29689128634E+01  0.32721506457E+02  0.10566000000E+00 0.  1.
         22    1    1    0    0    0  0.67646374127E+00 -0.29741090642E+02  0.36511676658E+01  0.29972005290E+02  0.00000000000E+00 0. -1.
</event>
<event>
 5    1  0.1764318E-003  0.9118800E+02  0.7818608E-02  0.1130116E+00
         25   -1    0    0    0    0  0.00000000000E+00  0.00000000000E+00  0.99999998245E-14  0.12500000000E+03  0.12500000000E+03 0.  0.
        -13    1    3    3    0    0 -0.52471583999E+02  0.10686943730E+02 -0.18783764393E+02  0.56747853373E+02  0.10566000000E+00 0.  1.
         23    2    1    0    0    0 -0.24824004973E+02  0.13497566978E+02  0.82970130492E+01  0.95550790117E+02  0.90899381347E+02 0.  0.
         13    1    3    3    0    0  0.27647579026E+02  0.28106232474E+01  0.27080777442E+02  0.38802936744E+02  0.10566000000E+00 0. -1.
         22    1    1    0    0    0  0.24824004973E+02 -0.13497566978E+02 -0.82970130492E+01  0.29449209883E+02  0.00000000000E+00 0.  1.
</event>
<event>
 5    1  0.1764318E-003  0.9118800E+02  0.7818608E-02  0.1130116E+00
         25   -1    0    0    0    0  0.00000000000E+00  0.00000000000E+00  0.99999998245E-14  0.12500000000E+03  0.12500000000E+03 0.  0.
        -13    1    3    3    0    0  0.41926138408E+02 -0.32774237876E+02 -0.31792185556E+02  0.61989563449E+02  0.10566000000E+00 0.  1.
         23    2    1    0    0    0  0.23492053680E+02 -0.12125039571E+02 -0.12316079381E+02  0.95835312756E+02  0.91289803314E+02 0.  0.
         13    1    3    3    0    0 -0.18434084728E+02  0.20649198304E+02  0.19476106175E+02  0.33845749307E+02  0.10566000000E+00 0. -1.
         22    1    1    0    0    0 -0.23492053680E+02  0.12125039571E+02  0.12316079381E+02  0.29164687244E+02  0.00000000000E+00 0.  1.
</event>
<event>
 5    1  0.1764318E-003  0.9118800E+02  0.7818608E-02  0.1130116E+00
         25   -1    0    0    0    0  0.00000000000E+00  0.00000000000E+00  0.99999998245E-14  0.12500000000E+03  0.12500000000E+03 0.  0.
        -13    1    3    3    0    0  0.38042228492E+02  0.55295899872E+01 -0.45099948938E+02  0.59260476477E+02  0.10566000000E+00 0.  1.
         23    2    1    0    0    0  0.25813373914E+02 -0.53559962805E+01 -0.12323157271E+02  0.95898845828E+02  0.91376755562E+02 0.  0.
         13    1    3    3    0    0 -0.12228854577E+02 -0.10885586268E+02  0.32776791667E+02  0.36638369351E+02  0.10566000000E+00 0. -1.
         22    1    1    0    0    0 -0.25813373914E+02  0.53559962805E+01  0.12323157271E+02  0.29101154172E+02  0.00000000000E+00 0.  1.
</event>
<event>
 5    1  0.1764318E-003  0.9118800E+02  0.7818608E-02  0.1130116E+00
         25   -1    0    0    0    0  0.00000000000E+00  0.00000000000E+00  0.99999998245E-14  0.12500000000E+03  0.12500000000E+03 0.  0.
        -13    1    3    3    0    0  0.88445352544E+01 -0.23251571875E+02 -0.40239215272E+02  0.47308212905E+02  0.10566000000E+00 0. -1.
         23    2    1    0    0    0 -0.10395486024E+02  0.17319751546E+02 -0.20043790300E+02  0.96543129953E+02  0.92253902292E+02 0.  0.
         13    1    3    3    0    0 -0.19240021278E+02  0.40571323421E+02  0.20195424972E+02  0.49234917048E+02  0.10566000000E+00 0.  1.
         22    1    1    0    0    0  0.10395486024E+02 -0.17319751546E+02  0.20043790300E+02  0.28456870047E+02  0.00000000000E+00 0.  1.
</event>
<event>
 5    1  0.1764318E-003  0.9118800E+02  0.7818608E-02  0.1130116E+00
         25   -1    0    0    0    0  0.00000000000E+00  0.00000000000E+00  0.99999998245E-14  0.12500000000E+03  0.12500000000E+03 0.  0.
        -13    1    3    3    0    0  0.56011915873E+02 -0.97566712981E+01  0.23951455086E+02  0.61694495049E+02  0.10566000000E+00 0.  1.
         23    2    1    0    0    0  0.22850018483E+02 -0.14316528303E+01  0.16740669514E+02  0.96637648365E+02  0.92381881834E+02 0.  0.
         13    1    3    3    0    0 -0.33161897390E+02  0.83250184678E+01 -0.72107855719E+01  0.34943153315E+02  0.10566000000E+00 0. -1.
         22    1    1    0    0    0 -0.22850018483E+02  0.14316528303E+01 -0.16740669514E+02  0.28362351635E+02  0.00000000000E+00 0.  1.
</event>
<event>
 5    1  0.1764318E-003  0.9118800E+02  0.7818608E-02  0.1130116E+00
         25   -1    0    0    0    0  0.00000000000E+00  0.00000000000E+00  0.99999998245E-14  0.12500000000E+03  0.12500000000E+03 0.  0.
        -13    1    3    3    0    0  0.19854461050E+02  0.24328413595E+02  0.24184790686E+02  0.39635673278E+02  0.10566000000E+00 0. -1.
         23    2    1    0    0    0  0.20809050087E+02 -0.11344094930E+02 -0.18254752856E+02  0.95084434534E+02  0.90255795567E+02 0.  0.
         13    1    3    3    0    0  0.95458903737E+00 -0.35672508525E+02 -0.42439543542E+02  0.55448761256E+02  0.10566000000E+00 0.  1.
         22    1    1    0    0    0 -0.20809050087E+02  0.11344094930E+02  0.18254752856E+02  0.29915565466E+02  0.00000000000E+00 0.  1.
</event>
<event>
 5    1  0.1764318E-003  0.9118800E+02  0.7818608E-02  0.1130116E+00
         25   -1    0    0    0    0  0.00000000000E+00  0.00000000000E+00  0.99999998245E-14  0.12500000000E+03  0.12500000000E+03 0.  0.
        -13    1    3    3    0    0  0.33737235497E+02 -0.37023512423E+02 -0.32481557122E+02  0.59699281807E+02  0.10566000000E+00 0.  1.
         23    2    1    0    0    0  0.21816561574E+02 -0.55523383491E+01 -0.17248956739E+02  0.96639511135E+02  0.92384402275E+02 0.  0.
         13    1    3    3    0    0 -0.11920673923E+02  0.31471174074E+02  0.15232600382E+02  0.36940229328E+02  0.10566000000E+00 0. -1.
         22    1    1    0    0    0 -0.21816561574E+02  0.55523383491E+01  0.17248956739E+02  0.28360488865E+02  0.00000000000E+00 0.  1.
</event>
<event>
 5    1  0.1764318E-003  0.9118800E+02  0.7818608E-02  0.1130116E+00
         25   -1    0    0    0    0  0.00000000000E+00  0.00000000000E+00  0.99999998245E-14  0.12500000000E+03  0.12500000000E+03 0.  0.
        -13    1    3    3    0    0 -0.26424938080E+02  0.20163759223E+02 -0.17358258675E+02  0.37498997944E+02  0.10566000000E+00 0.  1.
         23    2    1    0    0    0 -0.12426940403E+02 -0.23712449344E+02  0.15491815140E+02  0.94069344689E+02  0.88838821312E+02 0.  0.
         13    1    3    3    0    0  0.13997997677E+02 -0.43876208567E+02  0.32850073815E+02  0.56570346745E+02  0.10566000000E+00 0. -1.
         22    1    1    0    0    0  0.12426940403E+02  0.23712449344E+02 -0.15491815140E+02  0.30930655311E+02  0.00000000000E+00 0. -1.
</event>
<event>
 5    1  0.1764318E-003  0.9118800E+02  0.7818608E-02  0.1130116E+00
         25   -1    0    0    0    0  0.00000000000E+00  0.00000000000E+00  0.99999998245E-14  0.12500000000E+03  0.12500000000E+03 0.  0.
        -13    1    3    3    0    0 -0.54945229506E+02 -0.51324956291E+01  0.69192652278E+01  0.55616617590E+02  0.10566000000E+00 0. -1.
         23    2    1    0    0    0 -0.23866012691E+02  0.22025323826E+01 -0.17085544458E+02  0.95566115783E+02  0.90920453946E+02 0.  0.
         13    1    3    3    0    0  0.31079216815E+02  0.73350280117E+01 -0.24004809686E+02  0.39949498193E+02  0.10566000000E+00 0.  1.
         22    1    1    0    0    0  0.23866012691E+02 -0.22025323826E+01  0.17085544458E+02  0.29433884217E+02  0.00000000000E+00 0. -1.
</event>
<event>
 5    1  0.1764318E-003  0.9118800E+02  0.7818608E-02  0.1130116E+00
         25   -1    0    0    0    0  0.00000000000E+00  0.00000000000E+00  0.99999998245E-14  0.12500000000E+03  0.12500000000E+03 0.  0.
        -13    1    3    3    0    0 -0.39573361907E+02 -0.12700111669E+02 -0.91583257198E+01  0.42558546768E+02  0.10566000000E+00 0. -1.
         23    2    1    0    0    0 -0.20349621604E+00  0.56531437201E+01 -0.32596501680E+02  0.91916297571E+02  0.85755900046E+02 0.  0.
         13    1    3    3    0    0  0.39369865691E+02  0.18353255389E+02 -0.23438175961E+02  0.49357750802E+02  0.10566000000E+00 0.  1.
         22    1    1    0    0    0  0.20349621604E+00 -0.56531437201E+01  0.32596501680E+02  0.33083702429E+02  0.00000000000E+00 0.  1.
</event>
<event>
 5    1  0.1764318E-003  0.9118800E+02  0.7818608E-02  0.1130116E+00
         25   -1    0    0    0    0  0.00000000000E+00  0.00000000000E+00  0.99999998245E-14  0.12500000000E+03  0.12500000000E+03 0.  0.
        -13    1    3    3    0    0 -0.56730515117E+02  0.12559679531E+02 -0.10916863955E+02  0.59120943650E+02  0.10566000000E+00 0.  1.
         23    2    1    0    0    0 -0.27270390596E+02 -0.59302294913E+01  0.36973336402E+01  0.96848408551E+02  0.92666618249E+02 0.  0.
         13    1    3    3    0    0  0.29460124522E+02 -0.18489909022E+02  0.14614197596E+02  0.37727464901E+02  0.10566000000E+00 0. -1.
         22    1    1    0    0    0  0.27270390596E+02  0.59302294913E+01 -0.36973336402E+01  0.28151591449E+02  0.00000000000E+00 0.  1.
</event>
<event>
 5    1  0.1764318E-003  0.9118800E+02  0.7818608E-02  0.1130116E+00
         25   -1    0    0    0    0  0.00000000000E+00  0.00000000000E+00  0.99999998245E-14  0.12500000000E+03  0.12500000000E+03 0.  0.
        -13    1    3    3    0    0 -0.48581700276E+02  0.19729139491E+01  0.24956545165E+02  0.54652669667E+02  0.10566000000E+00 0.  1.
         23    2    1    0    0    0 -0.77342151094E+01 -0.45207151143E+01  0.27486413577E+02  0.96090522664E+02  0.91638587211E+02 0.  0.
         13    1    3    3    0    0  0.40847485166E+02 -0.64936290634E+01  0.25298684118E+01  0.41437852997E+02  0.10566000000E+00 0. -1.
         22    1    1    0    0    0  0.77342151094E+01  0.45207151143E+01 -0.27486413577E+02  0.28909477336E+02  0.00000000000E+00 0.  1.
</event>
<event>
 5    1  0.1764318E-003  0.9118800E+02  0.7818608E-02  0.1130116E+00
         25   -1    0    0    0    0  0.00000000000E+00  0.00000000000E+00  0.99999998245E-14  0.12500000000E+03  0.12500000000E+03 0.  0.
        -13    1    3    3    0    0 -0.36888420731E+02  0.13759540205E+02 -0.16148858398E+02  0.42554404264E+02  0.10566000000E+00 0.  1.
         23    2    1    0    0    0 -0.49253712675E+00 -0.98381414228E+01 -0.34105261072E+02  0.89500697862E+02  0.82159445383E+02 0.  0.
         13    1    3    3    0    0  0.36395883605E+02 -0.23597681628E+02 -0.17956402674E+02  0.46946293598E+02  0.10566000000E+00 0. -1.
         22    1    1    0    0    0  0.49253712675E+00  0.98381414228E+01  0.34105261072E+02  0.35499302138E+02  0.00000000000E+00 0.  1.
</event>
<event>
 5    1  0.1764318E-003  0.9118800E+02  0.7818608E-02  0.1130116E+00
         25   -1    0    0    0    0  0.00000000000E+00  0.00000000000E+00  0.99999998245E-14  0.12500000000E+03  0.12500000000E+03 0.  0.
        -13    1    3    3    0    0  0.50264172920E+02 -0.16794439179E+02 -0.11150578816E+02  0.54156133897E+02  0.10566000000E+00 0.  1.
         23    2    1    0    0    0  0.11074409698E+02 -0.12941067858E+02 -0.23992697737E+02  0.95576143486E+02  0.90934239269E+02 0.  0.
         13    1    3    3    0    0 -0.39189763222E+02  0.38533713213E+01 -0.12842118922E+02  0.41420009589E+02  0.10566000000E+00 0. -1.
         22    1    1    0    0    0 -0.11074409698E+02  0.12941067858E+02  0.23992697737E+02  0.29423856514E+02  0.00000000000E+00 0.  1.
</event>
<event>
 5    1  0.1764318E-003  0.9118800E+02  0.7818608E-02  0.1130116E+00
         25   -1    0    0    0    0  0.00000000000E+00  0.00000000000E+00  0.99999998245E-14  0.12500000000E+03  0.12500000000E+03 0.  0.
        -13    1    3    3    0    0  0.16297235741E+02  0.25731303188E+02  0.36713454705E+02  0.47703131731E+02  0.10566000000E+00 0.  1.
         23    2    1    0    0    0 -0.22560103728E+02  0.16471984500E+02  0.12660821290E+02  0.94331107791E+02  0.89206372798E+02 0.  0.
         13    1    3    3    0    0 -0.38857339469E+02 -0.92593186884E+01 -0.24052633416E+02  0.46627976060E+02  0.10566000000E+00 0. -1.
         22    1    1    0    0    0  0.22560103728E+02 -0.16471984500E+02 -0.12660821290E+02  0.30668892209E+02  0.00000000000E+00 0. -1.
</event>
<event>
 5    1  0.1764318E-003  0.9118800E+02  0.7818608E-02  0.1130116E+00
         25   -1    0    0    0    0  0.00000000000E+00  0.00000000000E+00  0.99999998245E-14  0.12500000000E+03  0.12500000000E+03 0.  0.
        -13    1    3    3    0    0  0.42295336086E+02  0.12796498840E+02  0.41420474315E+02  0.60566597178E+02  0.10566000000E+00 0.  1.
         23    2    1    0    0    0  0.80839784596E+01  0.10109400375E+02  0.20493294970E+02  0.10076106804E+03  0.97802183058E+02 0.  0.
         13    1    3    3    0    0 -0.34211357626E+02 -0.26870984652E+01 -0.20927179345E+02  0.40194470866E+02  0.10566000000E+00 0. -1.
         22    1    1    0    0    0 -0.80839784596E+01 -0.10109400375E+02 -0.20493294970E+02  0.24238931957E+02  0.00000000000E+00 0.  1.
</event>
<event>
 5    1  0.1764318E-003  0.9118800E+02  0.7818608E-02  0.1130116E+00
         25   -1    0    0    0    0  0.00000000000E+00  0.00000000000E+00  0.99999998245E-14  0.12500000000E+03  0.12500000000E+03 0.  0.
        -13    1    3    3    0    0 -0.74993125235E+01 -0.30521038167E+02  0.12488448248E+02  0.33819313459E+02  0.10566000000E+00 0. -1.
         23    2    1    0    0    0 -0.64895758904E+01  0.24649793178E+02 -0.14954824140E+02  0.95447103966E+02  0.90756685657E+02 0.  0.
         13    1    3    3    0    0  0.10097366331E+01  0.55170831345E+02 -0.27443272388E+02  0.61627790507E+02  0.10566000000E+00 0.  1.
         22    1    1    0    0    0  0.64895758904E+01 -0.24649793178E+02  0.14954824140E+02  0.29552896034E+02  0.00000000000E+00 0.  1.
</event>
<event>
 5    1  0.1764318E-003  0.9118800E+02  0.7818608E-02  0.1130116E+00
         25   -1    0    0    0    0  0.00000000000E+00  0.00000000000E+00  0.99999998245E-14  0.12500000000E+03  0.12500000000E+03 0.  0.
        -13    1    3    3    0    0 -0.13625527595E+02 -0.31478615121E+02  0.22415407113E+02  0.40975844741E+02  0.10566000000E+00 0.  1.
         23    2    1    0    0    0 -0.23180975224E+02  0.14793544214E+02 -0.69884355140E+01  0.96626688708E+02  0.92367051360E+02 0.  0.
         13    1    3    3    0    0 -0.95554476285E+01  0.46272159335E+02 -0.29403842627E+02  0.55650843967E+02  0.10566000000E+00 0. -1.
         22    1    1    0    0    0  0.23180975224E+02 -0.14793544214E+02  0.69884355140E+01  0.28373311292E+02  0.00000000000E+00 0. -1.
</event>
<event>
 5    1  0.1764318E-003  0.9118800E+02  0.7818608E-02  0.1130116E+00
         25   -1    0    0    0    0  0.00000000000E+00  0.00000000000E+00  0.99999998245E-14  0.12500000000E+03  0.12500000000E+03 0.  0.
        -13    1    3    3    0    0 -0.20177020551E+02  0.41653598686E+01  0.25432949175E+02  0.32730848582E+02  0.10566000000E+00 0. -1.
         23    2    1    0    0    0  0.25662703568E+02 -0.14529852449E+02 -0.10275075712E+02  0.93770716507E+02  0.88417640360E+02 0.  0.
         13    1    3    3    0    0  0.45839724119E+02 -0.18695212317E+02 -0.35708024888E+02  0.61039867925E+02  0.10566000000E+00 0.  1.
         22    1    1    0    0    0 -0.25662703568E+02  0.14529852449E+02  0.10275075712E+02  0.31229283493E+02  0.00000000000E+00 0.  1.
</event>
<event>
 5    1  0.1764318E-003  0.9118800E+02  0.7818608E-02  0.1130116E+00
         25   -1    0    0    0    0  0.00000000000E+00  0.00000000000E+00  0.99999998245E-14  0.12500000000E+03  0.12500000000E+03 0.  0.
        -13    1    3    3    0    0 -0.22383115835E+02  0.40378199086E+02 -0.28392627501E+02  0.54199218595E+02  0.10566000000E+00 0.  1.
         23    2    1    0    0    0 -0.27769060618E+02  0.80069427791E+01 -0.25165018435E+01  0.95990266430E+02  0.91501730080E+02 0.  0.
         13    1    3    3    0    0 -0.53859447830E+01 -0.32371256306E+02  0.25876125658E+02  0.41791047835E+02  0.10566000000E+00 0. -1.
         22    1    1    0    0    0  0.27769060618E+02 -0.80069427791E+01  0.25165018435E+01  0.29009733570E+02  0.00000000000E+00 0. -1.
</event>
<event>
 5    1  0.1764318E-003  0.9118800E+02  0.7818608E-02  0.1130116E+00
         25   -1    0    0    0    0  0.00000000000E+00  0.00000000000E+00  0.99999998245E-14  0.12500000000E+03  0.12500000000E+03 0.  0.
        -13    1    3    3    0    0  0.16328660632E+02  0.29169666459E+02  0.13521083297E+02  0.36060025748E+02  0.10566000000E+00 0.  1.
         23    2    1    0    0    0 -0.14784374895E+02 -0.19541254585E+02 -0.10095163968E+02  0.98498099930E+02  0.94865826210E+02 0.  0.
         13    1    3    3    0    0 -0.31113035527E+02 -0.48710921044E+02 -0.23616247265E+02  0.62438074182E+02  0.10566000000E+00 0. -1.
         22    1    1    0    0    0  0.14784374895E+02  0.19541254585E+02  0.10095163968E+02  0.26501900070E+02  0.00000000000E+00 0. -1.
</event>
<event>
 5    1  0.1764318E-003  0.9118800E+02  0.7818608E-02  0.1130116E+00
         25   -1    0    0    0    0  0.00000000000E+00  0.00000000000E+00  0.99999998245E-14  0.12500000000E+03  0.12500000000E+03 0.  0.
        -13    1    3    3    0    0 -0.11409269915E+02 -0.32582291145E+02  0.25288478927E+02  0.42793638157E+02  0.10566000000E+00 0. -1.
         23    2    1    0    0    0 -0.27817079530E+02  0.67798598086E+01 -0.60763275255E+01  0.95730934952E+02  0.91146770310E+02 0.  0.
         13    1    3    3    0    0 -0.16407809615E+02  0.39362150954E+02 -0.31364806452E+02  0.52937296794E+02  0.10566000000E+00 0.  1.
         22    1    1    0    0    0  0.27817079530E+02 -0.67798598086E+01  0.60763275255E+01  0.29269065048E+02  0.00000000000E+00 0. -1.
</event>
<event>
 5    1  0.1764318E-003  0.9118800E+02  0.7818608E-02  0.1130116E+00
         25   -1    0    0    0    0  0.00000000000E+00  0.00000000000E+00  0.99999998245E-14  0.12500000000E+03  0.12500000000E+03 0.  0.
        -13    1    3    3    0    0 -0.57477598064E+01 -0.21066725725E+02  0.27026975799E+02  0.34746399244E+02  0.10566000000E+00 0. -1.
         23    2    1    0    0    0  0.14392518097E+02  0.17414513525E+02 -0.17102391633E+02  0.96664480628E+02  0.92418180879E+02 0.  0.
         13    1    3    3    0    0  0.20140277903E+02  0.38481239250E+02 -0.44129367432E+02  0.61918081384E+02  0.10566000000E+00 0.  1.
         22    1    1    0    0    0 -0.14392518097E+02 -0.17414513525E+02  0.17102391633E+02  0.28335519372E+02  0.00000000000E+00 0.  1.
</event>
<event>
 5    1  0.1764318E-003  0.9118800E+02  0.7818608E-02  0.1130116E+00
         25   -1    0    0    0    0  0.00000000000E+00  0.00000000000E+00  0.99999998245E-14  0.12500000000E+03  0.12500000000E+03 0.  0.
        -13    1    3    3    0    0 -0.44679385739E+02  0.18252464956E+02  0.26880175067E+02  0.55244501651E+02  0.10566000000E+00 0.  1.
         23    2    1    0    0    0 -0.21436465126E+02  0.17131864485E+02 -0.73095104992E+01  0.96601905670E+02  0.92333506473E+02 0.  0.
         13    1    3    3    0    0  0.23242920614E+02 -0.11206004712E+01 -0.34189685566E+02  0.41357404019E+02  0.10566000000E+00 0. -1.
         22    1    1    0    0    0  0.21436465126E+02 -0.17131864485E+02  0.73095104992E+01  0.28398094330E+02  0.00000000000E+00 0.  1.
</event>
<event>
 5    1  0.1764318E-003  0.9118800E+02  0.7818608E-02  0.1130116E+00
         25   -1    0    0    0    0  0.00000000000E+00  0.00000000000E+00  0.99999998245E-14  0.12500000000E+03  0.12500000000E+03 0.  0.
        -13    1    3    3    0    0 -0.16443460155E+02 -0.15200001156E+02 -0.34810051492E+02  0.41390557691E+02  0.10566000000E+00 0.  1.
         23    2    1    0    0    0  0.21389962170E+02 -0.19509737672E+02  0.40149489442E+01  0.95771928550E+02  0.91202972197E+02 0.  0.
         13    1    3    3    0    0  0.37833422325E+02 -0.43097365155E+01  0.38825000436E+02  0.54381370860E+02  0.10566000000E+00 0. -1.
         22    1    1    0    0    0 -0.21389962170E+02  0.19509737672E+02 -0.40149489442E+01  0.29228071450E+02  0.00000000000E+00 0. -1.
</event>
<event>
 5    1  0.1764318E-003  0.9118800E+02  0.7818608E-02  0.1130116E+00
         25   -1    0    0    0    0  0.00000000000E+00  0.00000000000E+00  0.99999998245E-14  0.12500000000E+03  0.12500000000E+03 0.  0.
        -13    1    3    3    0    0  0.92117072445E+00  0.13727383609E+02 -0.33488151812E+02  0.36204379460E+02  0.10566000000E+00 0. -1.
         23    2    1    0    0    0 -0.12774302931E+02  0.11650597713E+02  0.24046544096E+02  0.95383188467E+02  0.90668611530E+02 0.  0.
         13    1    3    3    0    0 -0.13695473655E+02 -0.20767858961E+01  0.57534695908E+02  0.59178809007E+02  0.10566000000E+00 0.  1.
         22    1    1    0    0    0  0.12774302931E+02 -0.11650597713E+02 -0.24046544096E+02  0.29616811533E+02  0.00000000000E+00 0.  1.
</event>
<event>
 5    1  0.1764318E-003  0.9118800E+02  0.7818608E-02  0.1130116E+00
         25   -1    0    0    0    0  0.00000000000E+00  0.00000000000E+00  0.99999998245E-14  0.12500000000E+03  0.12500000000E+03 0.  0.
        -13    1    3    3    0    0  0.49297532170E+02  0.11492011997E+01 -0.18834617858E+02  0.52785616747E+02  0.10566000000E+00 0.  1.
         23    2    1    0    0    0  0.10011542466E+02  0.14906837088E+02 -0.24318101688E+02  0.94770629444E+02  0.89820138950E+02 0.  0.
         13    1    3    3    0    0 -0.39285989704E+02  0.13757635888E+02 -0.54834838296E+01  0.41985012697E+02  0.10566000000E+00 0. -1.
         22    1    1    0    0    0 -0.10011542466E+02 -0.14906837088E+02  0.24318101688E+02  0.30229370556E+02  0.00000000000E+00 0.  1.
</event>
<event>
 5    1  0.1764318E-003  0.9118800E+02  0.7818608E-02  0.1130116E+00
         25   -1    0    0    0    0  0.00000000000E+00  0.00000000000E+00  0.99999998245E-14  0.12500000000E+03  0.12500000000E+03 0.  0.
        -13    1    3    3    0    0  0.23314159767E+02 -0.39830374047E+02 -0.17128497438E+02  0.49228094934E+02  0.10566000000E+00 0. -1.
         23    2    1    0    0    0  0.20882683133E+02  0.62423438466E+01 -0.19951682493E+02  0.95451346124E+02  0.90762528232E+02 0.  0.
         13    1    3    3    0    0 -0.24314766333E+01  0.46072717893E+02 -0.28231850555E+01  0.46223251190E+02  0.10566000000E+00 0.  1.
         22    1    1    0    0    0 -0.20882683133E+02 -0.62423438466E+01  0.19951682493E+02  0.29548653876E+02  0.00000000000E+00 0. -1.
</event>
<event>
 5    1  0.1764318E-003  0.9118800E+02  0.7818608E-02  0.1130116E+00
         25   -1    0    0    0    0  0.00000000000E+00  0.00000000000E+00  0.99999998245E-14  0.12500000000E+03  0.12500000000E+03 0.  0.
        -13    1    3    3    0    0 -0.32950185289E+02  0.38986027952E+02 -0.34243693140E+02  0.61467607485E+02  0.10566000000E+00 0.  1.
         23    2    1    0    0    0 -0.17390701606E+02  0.15883611006E+02 -0.24598372148E+02  0.90944082551E+02  0.84326867828E+02 0.  0.
         13    1    3    3    0    0  0.15559483683E+02 -0.23102416946E+02  0.96453209915E+01  0.29476475065E+02  0.10566000000E+00 0. -1.
         22    1    1    0    0    0  0.17390701606E+02 -0.15883611006E+02  0.24598372148E+02  0.34055917449E+02  0.00000000000E+00 0.  1.
</event>
<event>
 5    1  0.1764318E-003  0.9118800E+02  0.7818608E-02  0.1130116E+00
         25   -1    0    0    0    0  0.00000000000E+00  0.00000000000E+00  0.99999998245E-14  0.12500000000E+03  0.12500000000E+03 0.  0.
        -13    1    3    3    0    0 -0.11925999944E+02  0.15086865707E+02 -0.34272884301E+02  0.39299933255E+02  0.10566000000E+00 0.  1.
         23    2    1    0    0    0  0.24593151999E+02 -0.15701563100E+02 -0.47923019444E+01  0.95430955935E+02  0.90734442103E+02 0.  0.
         13    1    3    3    0    0  0.36519151943E+02 -0.30788428806E+02  0.29480582356E+02  0.56131022680E+02  0.10566000000E+00 0. -1.
         22    1    1    0    0    0 -0.24593151999E+02  0.15701563100E+02  0.47923019444E+01  0.29569044065E+02  0.00000000000E+00 0. -1.
</event>
<event>
 5    1  0.1764318E-003  0.9118800E+02  0.7818608E-02  0.1130116E+00
         25   -1    0    0    0    0  0.00000000000E+00  0.00000000000E+00  0.99999998245E-14  0.12500000000E+03  0.12500000000E+03 0.  0.
        -13    1    3    3    0    0  0.11758486753E+02 -0.31123005350E+02 -0.13257895691E+02  0.35814612031E+02  0.10566000000E+00 0. -1.
         23    2    1    0    0    0 -0.53966240757E+01  0.91479546652E+01  0.27435151690E+02  0.95580683655E+02  0.90940480061E+02 0.  0.
         13    1    3    3    0    0 -0.17155110829E+02  0.40270960016E+02  0.40693047381E+02  0.59766071623E+02  0.10566000000E+00 0.  1.
         22    1    1    0    0    0  0.53966240757E+01 -0.91479546652E+01 -0.27435151690E+02  0.29419316345E+02  0.00000000000E+00 0.  1.
</event>
<event>
 5    1  0.1764318E-003  0.9118800E+02  0.7818608E-02  0.1130116E+00
         25   -1    0    0    0    0  0.00000000000E+00  0.00000000000E+00  0.99999998245E-14  0.12500000000E+03  0.12500000000E+03 0.  0.
        -13    1    3    3    0    0  0.27706398517E+02 -0.15215337885E+02  0.44031021961E+02  0.54202334679E+02  0.10566000000E+00 0. -1.
         23    2    1    0    0    0  0.74687644626E+01 -0.21596366559E+02  0.10637852572E+01  0.10212387423E+03  0.99528732323E+02 0.  0.
         13    1    3    3    0    0 -0.20237634054E+02 -0.63810286737E+01 -0.42967236704E+02  0.47921539552E+02  0.10566000000E+00 0.  1.
         22    1    1    0    0    0 -0.74687644626E+01  0.21596366559E+02 -0.10637852572E+01  0.22876125769E+02  0.00000000000E+00 0. -1.
</event>
<event>
 5    1  0.1764318E-003  0.9118800E+02  0.7818608E-02  0.1130116E+00
         25   -1    0    0    0    0  0.00000000000E+00  0.00000000000E+00  0.99999998245E-14  0.12500000000E+03  0.12500000000E+03 0.  0.
        -13    1    3    3    0    0  0.34382800166E+01 -0.36102134026E+02 -0.92850664470E+00  0.36277529399E+02  0.10566000000E+00 0.  1.
         23    2    1    0    0    0 -0.14866272877E+02  0.18758306741E+02 -0.16205590489E+02  0.96094960576E+02  0.91644640563E+02 0.  0.
         13    1    3    3    0    0 -0.18304552894E+02  0.54860440766E+02 -0.15277083844E+02  0.59817431176E+02  0.10566000000E+00 0. -1.
         22    1    1    0    0    0  0.14866272877E+02 -0.18758306741E+02  0.16205590489E+02  0.28905039424E+02  0.00000000000E+00 0. -1.
</event>
<event>
 5    1  0.1764318E-003  0.9118800E+02  0.7818608E-02  0.1130116E+00
         25   -1    0    0    0    0  0.00000000000E+00  0.00000000000E+00  0.99999998245E-14  0.12500000000E+03  0.12500000000E+03 0.  0.
        -13    1    3    3    0    0 -0.95535472116E+01 -0.15964765586E+02 -0.36036476917E+02  0.40555922344E+02  0.10566000000E+00 0.  1.
         23    2    1    0    0    0 -0.70899020634E+01 -0.25799226101E+02  0.16169878572E+02  0.93737694396E+02  0.88370943182E+02 0.  0.
         13    1    3    3    0    0  0.24636451482E+01 -0.98344605146E+01  0.52206355489E+02  0.53181772052E+02  0.10566000000E+00 0. -1.
         22    1    1    0    0    0  0.70899020634E+01  0.25799226101E+02 -0.16169878572E+02  0.31262305604E+02  0.00000000000E+00 0. -1.
</event>
<event>
 5    1  0.1764318E-003  0.9118800E+02  0.7818608E-02  0.1130116E+00
         25   -1    0    0    0    0  0.00000000000E+00  0.00000000000E+00  0.99999998245E-14  0.12500000000E+03  0.12500000000E+03 0.  0.
        -13    1    3    3    0    0 -0.26267108237E+02 -0.76114862108E+01  0.28764556857E+02  0.39690132183E+02  0.10566000000E+00 0.  1.
         23    2    1    0    0    0 -0.79325251432E+01 -0.11242987959E+02 -0.24918994036E+02  0.96534477044E+02  0.92242177235E+02 0.  0.
         13    1    3    3    0    0  0.18334583094E+02 -0.36315017480E+01 -0.53683550893E+02  0.56844344861E+02  0.10566000000E+00 0. -1.
         22    1    1    0    0    0  0.79325251432E+01  0.11242987959E+02  0.24918994036E+02  0.28465522956E+02  0.00000000000E+00 0. -1.
</event>
<event>
 5    1  0.1764318E-003  0.9118800E+02  0.7818608E-02  0.1130116E+00
         25   -1    0    0    0    0  0.00000000000E+00  0.00000000000E+00  0.99999998245E-14  0.12500000000E+03  0.12500000000E+03 0.  0.
        -13    1    3    3    0    0  0.19234500089E+02 -0.17753053449E+02  0.21567305396E+02  0.33916024627E+02  0.10566000000E+00 0. -1.
         23    2    1    0    0    0  0.10343025448E+02  0.26059504017E+02 -0.16356641486E+02  0.92540553829E+02  0.86661055021E+02 0.  0.
         13    1    3    3    0    0 -0.88914746411E+01  0.43812557465E+02 -0.37923946882E+02  0.58624529202E+02  0.10566000000E+00 0.  1.
         22    1    1    0    0    0 -0.10343025448E+02 -0.26059504017E+02  0.16356641486E+02  0.32459446171E+02  0.00000000000E+00 0.  1.
</event>
<event>
 5    1  0.1764318E-003  0.9118800E+02  0.7818608E-02  0.1130116E+00
         25   -1    0    0    0    0  0.00000000000E+00  0.00000000000E+00  0.99999998245E-14  0.12500000000E+03  0.12500000000E+03 0.  0.
        -13    1    3    3    0    0  0.18599517822E+02  0.21572679250E+02  0.32611435275E+02  0.43299416023E+02  0.10566000000E+00 0. -1.
         23    2    1    0    0    0 -0.10811484641E+02  0.23200977878E+02 -0.11977805068E+02  0.96739756036E+02  0.92519938441E+02 0.  0.
         13    1    3    3    0    0 -0.29411002464E+02  0.16282986279E+01 -0.44589240343E+02  0.53440340013E+02  0.10566000000E+00 0.  1.
         22    1    1    0    0    0  0.10811484641E+02 -0.23200977878E+02  0.11977805068E+02  0.28260243964E+02  0.00000000000E+00 0.  1.
</event>
<event>
 5    1  0.1764318E-003  0.9118800E+02  0.7818608E-02  0.1130116E+00
         25   -1    0    0    0    0  0.00000000000E+00  0.00000000000E+00  0.99999998245E-14  0.12500000000E+03  0.12500000000E+03 0.  0.
        -13    1    3    3    0    0  0.30637275381E+02  0.30187752859E+02  0.42269093405E+02  0.60304481481E+02  0.10566000000E+00 0. -1.
         23    2    1    0    0    0  0.23350716820E+02  0.10871850702E+02  0.12929831169E+02  0.96179284399E+02  0.91759583149E+02 0.  0.
         13    1    3    3    0    0 -0.72865585607E+01 -0.19315902157E+02 -0.29339262235E+02  0.35874802917E+02  0.10566000000E+00 0.  1.
         22    1    1    0    0    0 -0.23350716820E+02 -0.10871850702E+02 -0.12929831169E+02  0.28820715601E+02  0.00000000000E+00 0. -1.
</event>
<event>
 5    1  0.1764318E-003  0.9118800E+02  0.7818608E-02  0.1130116E+00
         25   -1    0    0    0    0  0.00000000000E+00  0.00000000000E+00  0.99999998245E-14  0.12500000000E+03  0.12500000000E+03 0.  0.
        -13    1    3    3    0    0  0.11624972307E+02  0.40804998650E+02  0.39135524616E+02  0.57721645393E+02  0.10566000000E+00 0. -1.
         23    2    1    0    0    0  0.20459194283E+02  0.18816529143E+02  0.95910420897E+01  0.95595434231E+02  0.90960752843E+02 0.  0.
         13    1    3    3    0    0  0.88342219753E+01 -0.21988469506E+02 -0.29544482526E+02  0.37873788837E+02  0.10566000000E+00 0.  1.
         22    1    1    0    0    0 -0.20459194283E+02 -0.18816529143E+02 -0.95910420897E+01  0.29404565769E+02  0.00000000000E+00 0. -1.
</event>
<event>
 5    1  0.1764318E-003  0.9118800E+02  0.7818608E-02  0.1130116E+00
         25   -1    0    0    0    0  0.00000000000E+00  0.00000000000E+00  0.99999998245E-14  0.12500000000E+03  0.12500000000E+03 0.  0.
        -13    1    3    3    0    0 -0.57057640485E+01  0.40138222485E+02  0.37397817579E+02  0.55156509782E+02  0.10566000000E+00 0.  1.
         23    2    1    0    0    0 -0.23788408058E+02  0.15753384702E+02  0.16113344463E+02  0.92232678515E+02  0.86215831659E+02 0.  0.
         13    1    3    3    0    0 -0.18082644010E+02 -0.24384837783E+02 -0.21284473116E+02  0.37076168733E+02  0.10566000000E+00 0. -1.
         22    1    1    0    0    0  0.23788408058E+02 -0.15753384702E+02 -0.16113344463E+02  0.32767321485E+02  0.00000000000E+00 0.  1.
</event>
<event>
 5    1  0.1764318E-003  0.9118800E+02  0.7818608E-02  0.1130116E+00
         25   -1    0    0    0    0  0.00000000000E+00  0.00000000000E+00  0.99999998245E-14  0.12500000000E+03  0.12500000000E+03 0.  0.
        -13    1    3    3    0    0  0.35510882691E+02  0.16648656199E+02  0.29973835271E+02  0.49362359219E+02  0.10566000000E+00 0.  1.
         23    2    1    0    0    0 -0.35196794767E+01  0.27895306697E+02  0.70109117163E+01  0.96022609462E+02  0.91545903051E+02 0.  0.
         13    1    3    3    0    0 -0.39030562167E+02  0.11246650497E+02 -0.22962923555E+02  0.46660250243E+02  0.10566000000E+00 0. -1.
         22    1    1    0    0    0  0.35196794767E+01 -0.27895306697E+02 -0.70109117163E+01  0.28977390538E+02  0.00000000000E+00 0.  1.
</event>
<event>
 5    1  0.1764318E-003  0.9118800E+02  0.7818608E-02  0.1130116E+00
         25   -1    0    0    0    0  0.00000000000E+00  0.00000000000E+00  0.99999998245E-14  0.12500000000E+03  0.12500000000E+03 0.  0.
        -13    1    3    3    0    0 -0.76872676800E+01  0.37787394007E+02  0.57056939867E+01  0.38981371681E+02  0.10566000000E+00 0. -1.
         23    2    1    0    0    0 -0.11999719545E+02 -0.22430756550E+02  0.24950279771E+01  0.99439145688E+02  0.96097796135E+02 0.  0.
         13    1    3    3    0    0 -0.43124518651E+01 -0.60218150557E+02 -0.32106660095E+01  0.60457774007E+02  0.10566000000E+00 0.  1.
         22    1    1    0    0    0  0.11999719545E+02  0.22430756550E+02 -0.24950279771E+01  0.25560854312E+02  0.00000000000E+00 0.  1.
</event>
<event>
 5    1  0.1764318E-003  0.9118800E+02  0.7818608E-02  0.1130116E+00
         25   -1    0    0    0    0  0.00000000000E+00  0.00000000000E+00  0.99999998245E-14  0.12500000000E+03  0.12500000000E+03 0.  0.
        -13    1    3    3    0    0 -0.10794539612E+02 -0.18624492589E+02  0.33425669064E+02  0.39757770637E+02  0.10566000000E+00 0. -1.
         23    2    1    0    0    0  0.83844951494E+01 -0.22656222401E+02 -0.18053587754E+02  0.94841482079E+02  0.89918688379E+02 0.  0.
         13    1    3    3    0    0  0.19179034761E+02 -0.40317298117E+01 -0.51479256818E+02  0.55083711442E+02  0.10566000000E+00 0.  1.
         22    1    1    0    0    0 -0.83844951494E+01  0.22656222401E+02  0.18053587754E+02  0.30158517921E+02  0.00000000000E+00 0.  1.
</event>
<event>
 5    1  0.1764318E-003  0.9118800E+02  0.7818608E-02  0.1130116E+00
         25   -1    0    0    0    0  0.00000000000E+00  0.00000000000E+00  0.99999998245E-14  0.12500000000E+03  0.12500000000E+03 0.  0.
        -13    1    3    3    0    0 -0.12408489551E+02  0.82092653575E+01  0.50718387274E+02  0.52855734054E+02  0.10566000000E+00 0. -1.
         23    2    1    0    0    0  0.81019797250E+01  0.19780778940E+02  0.41825844041E+02  0.78028492458E+02  0.62306685954E+02 0.  0.
         13    1    3    3    0    0  0.20510469276E+02  0.11571513583E+02 -0.88925432324E+01  0.25172758405E+02  0.10566000000E+00 0.  1.
         22    1    1    0    0    0 -0.81019797250E+01 -0.19780778940E+02 -0.41825844041E+02  0.46971507542E+02  0.00000000000E+00 0. -1.
</event>
<event>
 5    1  0.1764318E-003  0.9118800E+02  0.7818608E-02  0.1130116E+00
         25   -1    0    0    0    0  0.00000000000E+00  0.00000000000E+00  0.99999998245E-14  0.12500000000E+03  0.12500000000E+03 0.  0.
        -13    1    3    3    0    0  0.12869355927E+02  0.26415746995E+02 -0.31435695618E+02  0.43030525610E+02  0.10566000000E+00 0.  1.
         23    2    1    0    0    0 -0.54600676411E+01  0.97269740180E+01  0.21106725566E+02  0.10112699796E+03  0.98268761519E+02 0.  0.
         13    1    3    3    0    0 -0.18329423568E+02 -0.16688772977E+02  0.52542421184E+02  0.58096472352E+02  0.10566000000E+00 0. -1.
         22    1    1    0    0    0  0.54600676411E+01 -0.97269740180E+01 -0.21106725566E+02  0.23873002038E+02  0.00000000000E+00 0. -1.
</event>
<event>
 5    1  0.1764318E-003  0.9118800E+02  0.7818608E-02  0.1130116E+00
         25   -1    0    0    0    0  0.00000000000E+00  0.00000000000E+00  0.99999998245E-14  0.12500000000E+03  0.12500000000E+03 0.  0.
        -13    1    3    3    0    0 -0.58862823803E+01 -0.40759135578E+02  0.32058737334E+02  0.52189359613E+02  0.10566000000E+00 0.  1.
         23    2    1    0    0    0 -0.30216563277E+01 -0.26275498320E+02 -0.99688763436E+01  0.96734991341E+02  0.92513500828E+02 0.  0.
         13    1    3    3    0    0  0.28646260526E+01  0.14483637258E+02 -0.42027613677E+02  0.44545631729E+02  0.10566000000E+00 0. -1.
         22    1    1    0    0    0  0.30216563277E+01  0.26275498320E+02  0.99688763436E+01  0.28265008659E+02  0.00000000000E+00 0. -1.
</event>
<event>
 5    1  0.1764318E-003  0.9118800E+02  0.7818608E-02  0.1130116E+00
         25   -1    0    0    0    0  0.00000000000E+00  0.00000000000E+00  0.99999998245E-14  0.12500000000E+03  0.12500000000E+03 0.  0.
        -13    1    3    3    0    0  0.13838073507E+02  0.37902612837E+02  0.19456550874E+02  0.44795857780E+02  0.10566000000E+00 0.  1.
         23    2    1    0    0    0 -0.26578445608E+02  0.87752872948E+01  0.69684380825E+01  0.96155961320E+02  0.91727805654E+02 0.  0.
         13    1    3    3    0    0 -0.40416519114E+02 -0.29127325543E+02 -0.12488112791E+02  0.51360103541E+02  0.10566000000E+00 0. -1.
         22    1    1    0    0    0  0.26578445608E+02 -0.87752872948E+01 -0.69684380825E+01  0.28844038680E+02  0.00000000000E+00 0. -1.
</event>
<event>
 5    1  0.1764318E-003  0.9118800E+02  0.7818608E-02  0.1130116E+00
         25   -1    0    0    0    0  0.00000000000E+00  0.00000000000E+00  0.99999998245E-14  0.12500000000E+03  0.12500000000E+03 0.  0.
        -13    1    3    3    0    0  0.26210194183E+02  0.38007538376E+02 -0.33161133550E+02  0.56843814042E+02  0.10566000000E+00 0. -1.
         23    2    1    0    0    0  0.12020183378E+02  0.31400830731E+02 -0.24817376486E+01  0.91285670691E+02  0.84831702050E+02 0.  0.
         13    1    3    3    0    0 -0.14190010805E+02 -0.66067076455E+01  0.30679395901E+02  0.34441856649E+02  0.10566000000E+00 0.  1.
         22    1    1    0    0    0 -0.12020183378E+02 -0.31400830731E+02  0.24817376486E+01  0.33714329309E+02  0.00000000000E+00 0. -1.
</event>
<event>
 5    1  0.1764318E-003  0.9118800E+02  0.7818608E-02  0.1130116E+00
         25   -1    0    0    0    0  0.00000000000E+00  0.00000000000E+00  0.99999998245E-14  0.12500000000E+03  0.12500000000E+03 0.  0.
        -13    1    3    3    0    0  0.20144915693E+02  0.35903305819E+02  0.46680703159E+02  0.62241177756E+02  0.10566000000E+00 0.  1.
         23    2    1    0    0    0  0.36473047525E+01  0.14289825202E+02  0.15801502067E+02  0.10338543538E+03  0.10110073612E+03 0.  0.
         13    1    3    3    0    0 -0.16497610940E+02 -0.21613480617E+02 -0.30879201092E+02  0.41144257621E+02  0.10566000000E+00 0. -1.
         22    1    1    0    0    0 -0.36473047525E+01 -0.14289825202E+02 -0.15801502067E+02  0.21614564623E+02  0.00000000000E+00 0.  1.
</event>
<event>
 5    1  0.1764318E-003  0.9118800E+02  0.7818608E-02  0.1130116E+00
         25   -1    0    0    0    0  0.00000000000E+00  0.00000000000E+00  0.99999998245E-14  0.12500000000E+03  0.12500000000E+03 0.  0.
        -13    1    3    3    0    0 -0.28330723441E+02 -0.36892223009E+02 -0.82911406385E+01  0.47248494012E+02  0.10566000000E+00 0. -1.
         23    2    1    0    0    0 -0.21147153118E+02  0.11076463045E+02 -0.15860290765E+02  0.96339243874E+02  0.91977230706E+02 0.  0.
         13    1    3    3    0    0  0.71835703228E+01  0.47968686054E+02 -0.75691501266E+01  0.49090749862E+02  0.10566000000E+00 0.  1.
         22    1    1    0    0    0  0.21147153118E+02 -0.11076463045E+02  0.15860290765E+02  0.28660756126E+02  0.00000000000E+00 0. -1.
</event>
<event>
 5    1  0.1764318E-003  0.9118800E+02  0.7818608E-02  0.1130116E+00
         25   -1    0    0    0    0  0.00000000000E+00  0.00000000000E+00  0.99999998245E-14  0.12500000000E+03  0.12500000000E+03 0.  0.
        -13    1    3    3    0    0  0.37449304977E+02  0.20134744510E+02 -0.15226413226E+02  0.45163184160E+02  0.10566000000E+00 0.  1.
         23    2    1    0    0    0  0.94641851313E+01 -0.20367381689E+02 -0.20393424005E+02  0.94663672277E+02  0.89671166320E+02 0.  0.
         13    1    3    3    0    0 -0.27985119845E+02 -0.40502126199E+02 -0.51670107783E+01  0.49500488117E+02  0.10566000000E+00 0. -1.
         22    1    1    0    0    0 -0.94641851313E+01  0.20367381689E+02  0.20393424005E+02  0.30336327723E+02  0.00000000000E+00 0. -1.
</event>
<event>
 5    1  0.1764318E-003  0.9118800E+02  0.7818608E-02  0.1130116E+00
         25   -1    0    0    0    0  0.00000000000E+00  0.00000000000E+00  0.99999998245E-14  0.12500000000E+03  0.12500000000E+03 0.  0.
        -13    1    3    3    0    0  0.12304396213E+02 -0.20791217436E+02  0.44242941734E+02  0.50409542212E+02  0.10566000000E+00 0. -1.
         23    2    1    0    0    0 -0.12528793184E+02 -0.27353194169E+02  0.98353729122E+01  0.93347157312E+02  0.87816794112E+02 0.  0.
         13    1    3    3    0    0 -0.24833189397E+02 -0.65619767321E+01 -0.34407568822E+02  0.42937615101E+02  0.10566000000E+00 0.  1.
         22    1    1    0    0    0  0.12528793184E+02  0.27353194169E+02 -0.98353729122E+01  0.31652842688E+02  0.00000000000E+00 0. -1.
</event>
<event>
 5    1  0.1764318E-003  0.9118800E+02  0.7818608E-02  0.1130116E+00
         25   -1    0    0    0    0  0.00000000000E+00  0.00000000000E+00  0.99999998245E-14  0.12500000000E+03  0.12500000000E+03 0.  0.
        -13    1    3    3    0    0  0.45104655269E+00  0.18873197415E+02 -0.56297017138E+02  0.59378163716E+02  0.10566000000E+00 0.  1.
         23    2    1    0    0    0 -0.71297101852E+01 -0.23167817481E+01 -0.30407010158E+02  0.93682488736E+02  0.88292820682E+02 0.  0.
         13    1    3    3    0    0 -0.75807567379E+01 -0.21189979163E+02  0.25890006979E+02  0.34304325020E+02  0.10566000000E+00 0. -1.
         22    1    1    0    0    0  0.71297101852E+01  0.23167817481E+01  0.30407010158E+02  0.31317511264E+02  0.00000000000E+00 0.  1.
</event>
<event>
 5    1  0.1764318E-003  0.9118800E+02  0.7818608E-02  0.1130116E+00
         25   -1    0    0    0    0  0.00000000000E+00  0.00000000000E+00  0.99999998245E-14  0.12500000000E+03  0.12500000000E+03 0.  0.
        -13    1    3    3    0    0  0.54306097687E+02 -0.92893829433E+01  0.13040787718E+02  0.56617295854E+02  0.10566000000E+00 0. -1.
         23    2    1    0    0    0  0.26213168828E+02 -0.37318569441E+01 -0.13160248847E+02  0.95432295896E+02  0.90736288077E+02 0.  0.
         13    1    3    3    0    0 -0.28092928859E+02  0.55575259992E+01 -0.26201036565E+02  0.38815000042E+02  0.10566000000E+00 0.  1.
         22    1    1    0    0    0 -0.26213168828E+02  0.37318569441E+01  0.13160248847E+02  0.29567704104E+02  0.00000000000E+00 0. -1.
</event>
<event>
 5    1  0.1764318E-003  0.9118800E+02  0.7818608E-02  0.1130116E+00
         25   -1    0    0    0    0  0.00000000000E+00  0.00000000000E+00  0.99999998245E-14  0.12500000000E+03  0.12500000000E+03 0.  0.
        -13    1    3    3    0    0  0.49701992807E+02  0.85769062084E+01 -0.91522113934E+01  0.51260370136E+02  0.10566000000E+00 0.  1.
         23    2    1    0    0    0  0.18578320830E+02  0.29607317215E+01  0.22273162866E+02  0.95845005209E+02  0.91303073893E+02 0.  0.
         13    1    3    3    0    0 -0.31123671977E+02 -0.56161744869E+01  0.31425374260E+02  0.44584635073E+02  0.10566000000E+00 0. -1.
         22    1    1    0    0    0 -0.18578320830E+02 -0.29607317215E+01 -0.22273162866E+02  0.29154994791E+02  0.00000000000E+00 0. -1.
</event>
<event>
 5    1  0.1764318E-003  0.9118800E+02  0.7818608E-02  0.1130116E+00
         25   -1    0    0    0    0  0.00000000000E+00  0.00000000000E+00  0.99999998245E-14  0.12500000000E+03  0.12500000000E+03 0.  0.
        -13    1    3    3    0    0  0.15360974684E+02 -0.35402192949E+02 -0.12968413205E+02  0.40711984893E+02  0.10566000000E+00 0.  1.
         23    2    1    0    0    0  0.18979354003E+02  0.11772044322E+02  0.17187727525E+02  0.96818181688E+02  0.92625835607E+02 0.  0.
         13    1    3    3    0    0  0.36183793193E+01  0.47174237271E+02  0.30156140730E+02  0.56106196795E+02  0.10566000000E+00 0. -1.
         22    1    1    0    0    0 -0.18979354003E+02 -0.11772044322E+02 -0.17187727525E+02  0.28181818312E+02  0.00000000000E+00 0. -1.
</event>
<event>
 5    1  0.1764318E-003  0.9118800E+02  0.7818608E-02  0.1130116E+00
         25   -1    0    0    0    0  0.00000000000E+00  0.00000000000E+00  0.99999998245E-14  0.12500000000E+03  0.12500000000E+03 0.  0.
        -13    1    3    3    0    0  0.50523314397E+02  0.21214731399E+02  0.24317431194E+01  0.54850657833E+02  0.10566000000E+00 0. -1.
         23    2    1    0    0    0  0.32112367360E+02 -0.99554232503E+01  0.43311811661E+01  0.91102010092E+02  0.84560644054E+02 0.  0.
         13    1    3    3    0    0 -0.18410947038E+02 -0.31170154649E+02  0.18994380467E+01  0.36251352259E+02  0.10566000000E+00 0.  1.
         22    1    1    0    0    0 -0.32112367360E+02  0.99554232503E+01 -0.43311811661E+01  0.33897989908E+02  0.00000000000E+00 0. -1.
</event>
<event>
 5    1  0.1764318E-003  0.9118800E+02  0.7818608E-02  0.1130116E+00
         25   -1    0    0    0    0  0.00000000000E+00  0.00000000000E+00  0.99999998245E-14  0.12500000000E+03  0.12500000000E+03 0.  0.
        -13    1    3    3    0    0  0.11042560640E+02  0.52976676757E+02  0.13968514414E+02  0.55889149078E+02  0.10566000000E+00 0. -1.
         23    2    1    0    0    0  0.63741151528E+01  0.24001219526E+02 -0.14052098645E+02  0.96466697369E+02  0.92150281292E+02 0.  0.
         13    1    3    3    0    0 -0.46684454874E+01 -0.28975457231E+02 -0.28020613059E+02  0.40577548291E+02  0.10566000000E+00 0.  1.
         22    1    1    0    0    0 -0.63741151528E+01 -0.24001219526E+02  0.14052098645E+02  0.28533302631E+02  0.00000000000E+00 0. -1.
</event>
<event>
 5    1  0.1764318E-003  0.9118800E+02  0.7818608E-02  0.1130116E+00
         25   -1    0    0    0    0  0.00000000000E+00  0.00000000000E+00  0.99999998245E-14  0.12500000000E+03  0.12500000000E+03 0.  0.
        -13    1    3    3    0    0 -0.13518246982E+02 -0.20146861804E+02 -0.38750925620E+02  0.45719628634E+02  0.10566000000E+00 0. -1.
         23    2    1    0    0    0  0.25088277963E+02 -0.11338624998E+01 -0.20967988920E+02  0.92283583713E+02  0.86289604984E+02 0.  0.
         13    1    3    3    0    0  0.38606524945E+02  0.19012999305E+02  0.17782936700E+02  0.46563955079E+02  0.10566000000E+00 0.  1.
         22    1    1    0    0    0 -0.25088277963E+02  0.11338624998E+01  0.20967988920E+02  0.32716416287E+02  0.00000000000E+00 0.  1.
</event>
<event>
 5    1  0.1764318E-003  0.9118800E+02  0.7818608E-02  0.1130116E+00
         25   -1    0    0    0    0  0.00000000000E+00  0.00000000000E+00  0.99999998245E-14  0.12500000000E+03  0.12500000000E+03 0.  0.
        -13    1    3    3    0    0 -0.12798630631E+01 -0.62940346158E+01  0.37196927813E+02  0.37747523415E+02  0.10566000000E+00 0. -1.
         23    2    1    0    0    0  0.16999437801E+02 -0.19756708927E+02 -0.15183714462E+02  0.94836220097E+02  0.89911373164E+02 0.  0.
         13    1    3    3    0    0  0.18279300864E+02 -0.13462674311E+02 -0.52380642275E+02  0.57088696682E+02  0.10566000000E+00 0.  1.
         22    1    1    0    0    0 -0.16999437801E+02  0.19756708927E+02  0.15183714462E+02  0.30163779903E+02  0.00000000000E+00 0.  1.
</event>
<event>
 5    1  0.1764318E-003  0.9118800E+02  0.7818608E-02  0.1130116E+00
         25   -1    0    0    0    0  0.00000000000E+00  0.00000000000E+00  0.99999998245E-14  0.12500000000E+03  0.12500000000E+03 0.  0.
        -13    1    3    3    0    0 -0.51206111855E+01 -0.51544419792E+02  0.31834036237E+02  0.60798559998E+02  0.10566000000E+00 0. -1.
         23    2    1    0    0    0 -0.25842609452E+01 -0.13091328204E+02  0.19710486150E+02  0.10119738369E+03  0.98358252949E+02 0.  0.
         13    1    3    3    0    0  0.25363502403E+01  0.38453091588E+02 -0.12123550087E+02  0.40398823695E+02  0.10566000000E+00 0.  1.
         22    1    1    0    0    0  0.25842609452E+01  0.13091328204E+02 -0.19710486150E+02  0.23802616307E+02  0.00000000000E+00 0. -1.
</event>
<event>
 5    1  0.1764318E-003  0.9118800E+02  0.7818608E-02  0.1130116E+00
         25   -1    0    0    0    0  0.00000000000E+00  0.00000000000E+00  0.99999998245E-14  0.12500000000E+03  0.12500000000E+03 0.  0.
        -13    1    3    3    0    0  0.11064948671E+02 -0.29863723063E+02  0.23586583528E+02  0.39630961770E+02  0.10566000000E+00 0. -1.
         23    2    1    0    0    0  0.24578875782E+02  0.15882636584E+02 -0.51025366946E+01  0.95294526425E+02  0.90546295376E+02 0.  0.
         13    1    3    3    0    0  0.13513927111E+02  0.45746359647E+02 -0.28689120222E+02  0.55663564655E+02  0.10566000000E+00 0.  1.
         22    1    1    0    0    0 -0.24578875782E+02 -0.15882636584E+02  0.51025366946E+01  0.29705473575E+02  0.00000000000E+00 0.  1.
</event>
<event>
 5    1  0.1764318E-003  0.9118800E+02  0.7818608E-02  0.1130116E+00
         25   -1    0    0    0    0  0.00000000000E+00  0.00000000000E+00  0.99999998245E-14  0.12500000000E+03  0.12500000000E+03 0.  0.
        -13    1    3    3    0    0 -0.19418151003E+02 -0.48616692543E+02 -0.41574950322E+01  0.52516124297E+02  0.10566000000E+00 0.  1.
         23    2    1    0    0    0  0.11733663502E+02 -0.24270424965E+02  0.12333466599E+02  0.95354649850E+02  0.90629258313E+02 0.  0.
         13    1    3    3    0    0  0.31151814505E+02  0.24346267578E+02  0.16490961632E+02  0.42838525552E+02  0.10566000000E+00 0. -1.
         22    1    1    0    0    0 -0.11733663502E+02  0.24270424965E+02 -0.12333466599E+02  0.29645350150E+02  0.00000000000E+00 0.  1.
</event>
<event>
 5    1  0.1764318E-003  0.9118800E+02  0.7818608E-02  0.1130116E+00
         25   -1    0    0    0    0  0.00000000000E+00  0.00000000000E+00  0.99999998245E-14  0.12500000000E+03  0.12500000000E+03 0.  0.
        -13    1    3    3    0    0 -0.40928689407E+01  0.25628468397E+02 -0.33135210882E+02  0.42089468193E+02  0.10566000000E+00 0. -1.
         23    2    1    0    0    0  0.11325790087E+02 -0.22342040552E+02 -0.15841766052E+02  0.95362155127E+02  0.90639609342E+02 0.  0.
         13    1    3    3    0    0  0.15418659027E+02 -0.47970508949E+02  0.17293444830E+02  0.53272686934E+02  0.10566000000E+00 0.  1.
         22    1    1    0    0    0 -0.11325790087E+02  0.22342040552E+02  0.15841766052E+02  0.29637844873E+02  0.00000000000E+00 0.  1.
</event>
<event>
 5    1  0.1764318E-003  0.9118800E+02  0.7818608E-02  0.1130116E+00
         25   -1    0    0    0    0  0.00000000000E+00  0.00000000000E+00  0.99999998245E-14  0.12500000000E+03  0.12500000000E+03 0.  0.
        -13    1    3    3    0    0  0.46774461782E+02 -0.55860433614E+01  0.32497027370E+02  0.57228682559E+02  0.10566000000E+00 0. -1.
         23    2    1    0    0    0  0.11069007066E+02  0.77272647623E+01  0.25746858873E+02  0.95928806699E+02  0.91417731731E+02 0.  0.
         13    1    3    3    0    0 -0.35705454716E+02  0.13313308124E+02 -0.67501684978E+01  0.38700124140E+02  0.10566000000E+00 0.  1.
         22    1    1    0    0    0 -0.11069007066E+02 -0.77272647623E+01 -0.25746858873E+02  0.29071193301E+02  0.00000000000E+00 0. -1.
</event>
<event>
 5    1  0.1764318E-003  0.9118800E+02  0.7818608E-02  0.1130116E+00
         25   -1    0    0    0    0  0.00000000000E+00  0.00000000000E+00  0.99999998245E-14  0.12500000000E+03  0.12500000000E+03 0.  0.
        -13    1    3    3    0    0  0.27194801362E+02 -0.48861109960E+02 -0.23396327008E+02  0.60616537093E+02  0.10566000000E+00 0.  1.
         23    2    1    0    0    0  0.55597673893E+01 -0.27732064123E+02 -0.42771483604E+01  0.96394539122E+02  0.92052348045E+02 0.  0.
         13    1    3    3    0    0 -0.21635033973E+02  0.21129045838E+02  0.19119178647E+02  0.35778002029E+02  0.10566000000E+00 0. -1.
         22    1    1    0    0    0 -0.55597673893E+01  0.27732064123E+02  0.42771483604E+01  0.28605460878E+02  0.00000000000E+00 0.  1.
</event>
<event>
 5    1  0.1764318E-003  0.9118800E+02  0.7818608E-02  0.1130116E+00
         25   -1    0    0    0    0  0.00000000000E+00  0.00000000000E+00  0.99999998245E-14  0.12500000000E+03  0.12500000000E+03 0.  0.
        -13    1    3    3    0    0 -0.52026681659E+01  0.23644392157E+02 -0.28139918693E+02  0.37121304188E+02  0.10566000000E+00 0. -1.
         23    2    1    0    0    0  0.22268276928E+02 -0.18316830161E+02  0.27675542476E+01  0.96033782072E+02  0.91561157256E+02 0.  0.
         13    1    3    3    0    0  0.27470945094E+02 -0.41961222319E+02  0.30907472941E+02  0.58912477884E+02  0.10566000000E+00 0.  1.
         22    1    1    0    0    0 -0.22268276928E+02  0.18316830161E+02 -0.27675542476E+01  0.28966217928E+02  0.00000000000E+00 0.  1.
</event>
<event>
 5    1  0.1764318E-003  0.9118800E+02  0.7818608E-02  0.1130116E+00
         25   -1    0    0    0    0  0.00000000000E+00  0.00000000000E+00  0.99999998245E-14  0.12500000000E+03  0.12500000000E+03 0.  0.
        -13    1    3    3    0    0 -0.15636516187E+02 -0.14698661208E+02 -0.15686143004E+02  0.26582278423E+02  0.10566000000E+00 0. -1.
         23    2    1    0    0    0  0.53233103812E+01  0.18608326821E+02 -0.45237643681E+02  0.75795814545E+02  0.57653739135E+02 0.  0.
         13    1    3    3    0    0  0.20959826568E+02  0.33306988029E+02 -0.29551500677E+02  0.49213536122E+02  0.10566000000E+00 0.  1.
         22    1    1    0    0    0 -0.53233103812E+01 -0.18608326821E+02  0.45237643681E+02  0.49204185455E+02  0.00000000000E+00 0.  1.
</event>
<event>
 5    1  0.1764318E-003  0.9118800E+02  0.7818608E-02  0.1130116E+00
         25   -1    0    0    0    0  0.00000000000E+00  0.00000000000E+00  0.99999998245E-14  0.12500000000E+03  0.12500000000E+03 0.  0.
        -13    1    3    3    0    0  0.10702338033E+02  0.34303857613E+02  0.75106830640E+01  0.36711254550E+02  0.10566000000E+00 0.  1.
         23    2    1    0    0    0 -0.19587392156E+02 -0.15007978230E+02  0.16554560955E+02  0.95285376825E+02  0.90533663388E+02 0.  0.
         13    1    3    3    0    0 -0.30289730189E+02 -0.49311835842E+02  0.90438778905E+01  0.58574122276E+02  0.10566000000E+00 0. -1.
         22    1    1    0    0    0  0.19587392156E+02  0.15007978230E+02 -0.16554560955E+02  0.29714623175E+02  0.00000000000E+00 0. -1.
</event>
<event>
 5    1  0.1764318E-003  0.9118800E+02  0.7818608E-02  0.1130116E+00
         25   -1    0    0    0    0  0.00000000000E+00  0.00000000000E+00  0.99999998245E-14  0.12500000000E+03  0.12500000000E+03 0.  0.
        -13    1    3    3    0    0 -0.25286581475E+02 -0.38347011156E+02  0.36067594779E+02  0.58401943670E+02  0.10566000000E+00 0.  1.
         23    2    1    0    0    0  0.26299493234E+01 -0.16300747819E+02  0.23806481750E+02  0.96027951639E+02  0.91553197158E+02 0.  0.
         13    1    3    3    0    0  0.27916530798E+02  0.22046263336E+02 -0.12261113029E+02  0.37626007969E+02  0.10566000000E+00 0. -1.
         22    1    1    0    0    0 -0.26299493234E+01  0.16300747819E+02 -0.23806481750E+02  0.28972048361E+02  0.00000000000E+00 0.  1.
</event>
<event>
 5    1  0.1764318E-003  0.9118800E+02  0.7818608E-02  0.1130116E+00
         25   -1    0    0    0    0  0.00000000000E+00  0.00000000000E+00  0.99999998245E-14  0.12500000000E+03  0.12500000000E+03 0.  0.
        -13    1    3    3    0    0  0.56646763391E+01  0.13511412218E+02  0.57318065828E+02  0.59160955473E+02  0.10566000000E+00 0. -1.
         23    2    1    0    0    0 -0.10916926944E+02  0.11218570693E+02  0.27390565365E+02  0.93451962132E+02  0.87965848674E+02 0.  0.
         13    1    3    3    0    0 -0.16581603283E+02 -0.22928415248E+01 -0.29927500463E+02  0.34291006659E+02  0.10566000000E+00 0.  1.
         22    1    1    0    0    0  0.10916926944E+02 -0.11218570693E+02 -0.27390565365E+02  0.31548037868E+02  0.00000000000E+00 0. -1.
</event>
<event>
 5    1  0.1764318E-003  0.9118800E+02  0.7818608E-02  0.1130116E+00
         25   -1    0    0    0    0  0.00000000000E+00  0.00000000000E+00  0.99999998245E-14  0.12500000000E+03  0.12500000000E+03 0.  0.
        -13    1    3    3    0    0 -0.30441809878E+02  0.32202563884E+02 -0.31412160070E+02  0.54317988490E+02  0.10566000000E+00 0.  1.
         23    2    1    0    0    0  0.40689927785E+01  0.64881028497E+01 -0.26239886529E+02  0.97665336551E+02  0.93762114619E+02 0.  0.
         13    1    3    3    0    0  0.34510802657E+02 -0.25714461034E+02  0.51722735410E+01  0.43347348061E+02  0.10566000000E+00 0. -1.
         22    1    1    0    0    0 -0.40689927785E+01 -0.64881028497E+01  0.26239886529E+02  0.27334663449E+02  0.00000000000E+00 0.  1.
</event>
<event>
 5    1  0.1764318E-003  0.9118800E+02  0.7818608E-02  0.1130116E+00
         25   -1    0    0    0    0  0.00000000000E+00  0.00000000000E+00  0.99999998245E-14  0.12500000000E+03  0.12500000000E+03 0.  0.
        -13    1    3    3    0    0 -0.21704132675E+02  0.29255394577E+02  0.70216377212E+01  0.37098005975E+02  0.10566000000E+00 0. -1.
         23    2    1    0    0    0  0.16994201874E+02  0.40769888825E+01 -0.25866722489E+02  0.93782824150E+02  0.88434755824E+02 0.  0.
         13    1    3    3    0    0  0.38698334549E+02 -0.25178405694E+02 -0.32888360210E+02  0.56684818175E+02  0.10566000000E+00 0.  1.
         22    1    1    0    0    0 -0.16994201874E+02 -0.40769888825E+01  0.25866722489E+02  0.31217175850E+02  0.00000000000E+00 0.  1.
</event>
<event>
 5    1  0.1764318E-003  0.9118800E+02  0.7818608E-02  0.1130116E+00
         25   -1    0    0    0    0  0.00000000000E+00  0.00000000000E+00  0.99999998245E-14  0.12500000000E+03  0.12500000000E+03 0.  0.
        -13    1    3    3    0    0  0.17134337847E+02 -0.50219740953E+02 -0.24633974544E+02  0.58501724596E+02  0.10566000000E+00 0.  1.
         23    2    1    0    0    0  0.12296681365E+02 -0.14770097090E+02 -0.23957375178E+02  0.94286485612E+02  0.89143824257E+02 0.  0.
         13    1    3    3    0    0 -0.48376564819E+01  0.35449643863E+02  0.67659936642E+00  0.35784761016E+02  0.10566000000E+00 0. -1.
         22    1    1    0    0    0 -0.12296681365E+02  0.14770097090E+02  0.23957375178E+02  0.30713514388E+02  0.00000000000E+00 0.  1.
</event>
<event>
 5    1  0.1764318E-003  0.9118800E+02  0.7818608E-02  0.1130116E+00
         25   -1    0    0    0    0  0.00000000000E+00  0.00000000000E+00  0.99999998245E-14  0.12500000000E+03  0.12500000000E+03 0.  0.
        -13    1    3    3    0    0 -0.14175874711E+02 -0.54436340776E+02  0.18622231411E+02  0.59254276535E+02  0.10566000000E+00 0. -1.
         23    2    1    0    0    0 -0.42574188464E+01 -0.27505195570E+02 -0.53609104674E+01  0.96655675002E+02  0.92406270082E+02 0.  0.
         13    1    3    3    0    0  0.99184558648E+01  0.26931145206E+02 -0.23983141879E+02  0.37401398467E+02  0.10566000000E+00 0.  1.
         22    1    1    0    0    0  0.42574188464E+01  0.27505195570E+02  0.53609104674E+01  0.28344324998E+02  0.00000000000E+00 0. -1.
</event>
<event>
 5    1  0.1764318E-003  0.9118800E+02  0.7818608E-02  0.1130116E+00
         25   -1    0    0    0    0  0.00000000000E+00  0.00000000000E+00  0.99999998245E-14  0.12500000000E+03  0.12500000000E+03 0.  0.
        -13    1    3    3    0    0 -0.91581981395E+01  0.99575481478E+01 -0.40100679741E+02  0.42321401654E+02  0.10566000000E+00 0.  1.
         23    2    1    0    0    0  0.10526170206E+02  0.26089370088E+02  0.71344922264E+01  0.95976622007E+02  0.91483088610E+02 0.  0.
         13    1    3    3    0    0  0.19684368346E+02  0.16131821941E+02  0.47235171967E+02  0.53655220353E+02  0.10566000000E+00 0. -1.
         22    1    1    0    0    0 -0.10526170206E+02 -0.26089370088E+02 -0.71344922264E+01  0.29023377993E+02  0.00000000000E+00 0. -1.
</event>
<event>
 5    1  0.1764318E-003  0.9118800E+02  0.7818608E-02  0.1130116E+00
         25   -1    0    0    0    0  0.00000000000E+00  0.00000000000E+00  0.99999998245E-14  0.12500000000E+03  0.12500000000E+03 0.  0.
        -13    1    3    3    0    0 -0.12411223512E+02 -0.18295612531E+02  0.25763907011E+02  0.33949344256E+02  0.10566000000E+00 0.  1.
         23    2    1    0    0    0  0.68650502977E+01  0.21315050354E+02 -0.18168082946E+02  0.96163572948E+02  0.91738177642E+02 0.  0.
         13    1    3    3    0    0  0.19276273810E+02  0.39610662884E+02 -0.43931989957E+02  0.62214228692E+02  0.10566000000E+00 0. -1.
         22    1    1    0    0    0 -0.68650502977E+01 -0.21315050354E+02  0.18168082946E+02  0.28836427052E+02  0.00000000000E+00 0. -1.
</event>
<event>
 5    1  0.1764318E-003  0.9118800E+02  0.7818608E-02  0.1130116E+00
         25   -1    0    0    0    0  0.00000000000E+00  0.00000000000E+00  0.99999998245E-14  0.12500000000E+03  0.12500000000E+03 0.  0.
        -13    1    3    3    0    0 -0.10814139407E+02 -0.21195929394E+01  0.48097012641E+02  0.49343409634E+02  0.10566000000E+00 0. -1.
         23    2    1    0    0    0  0.20832687603E+02 -0.12629158476E+02  0.14655122522E+02  0.96569925559E+02  0.92290202025E+02 0.  0.
         13    1    3    3    0    0  0.31646827011E+02 -0.10509565536E+02 -0.33441890119E+02  0.47226515925E+02  0.10566000000E+00 0.  1.
         22    1    1    0    0    0 -0.20832687603E+02  0.12629158476E+02 -0.14655122522E+02  0.28430074441E+02  0.00000000000E+00 0. -1.
</event>
<event>
 5    1  0.1764318E-003  0.9118800E+02  0.7818608E-02  0.1130116E+00
         25   -1    0    0    0    0  0.00000000000E+00  0.00000000000E+00  0.99999998245E-14  0.12500000000E+03  0.12500000000E+03 0.  0.
        -13    1    3    3    0    0 -0.81243624193E+01  0.29752600683E+02  0.43506204641E+02  0.53329387006E+02  0.10566000000E+00 0. -1.
         23    2    1    0    0    0 -0.72672935722E+01  0.26847199990E+02 -0.24505358994E+00  0.97185511789E+02  0.93120233823E+02 0.  0.
         13    1    3    3    0    0  0.85706884719E+00 -0.29054006928E+01 -0.43751258231E+02  0.43856124783E+02  0.10566000000E+00 0.  1.
         22    1    1    0    0    0  0.72672935722E+01 -0.26847199990E+02  0.24505358994E+00  0.27814488211E+02  0.00000000000E+00 0. -1.
</event>
<event>
 5    1  0.1764318E-003  0.9118800E+02  0.7818608E-02  0.1130116E+00
         25   -1    0    0    0    0  0.00000000000E+00  0.00000000000E+00  0.99999998245E-14  0.12500000000E+03  0.12500000000E+03 0.  0.
        -13    1    3    3    0    0 -0.13267355947E+02  0.44444478407E+02  0.18908405958E+02  0.50088655149E+02  0.10566000000E+00 0.  1.
         23    2    1    0    0    0  0.12208119525E+02  0.65451692006E+01  0.25257181558E+02  0.96193704812E+02  0.91779225335E+02 0.  0.
         13    1    3    3    0    0  0.25475475472E+02 -0.37899309206E+02  0.63487755995E+01  0.46105049664E+02  0.10566000000E+00 0. -1.
         22    1    1    0    0    0 -0.12208119525E+02 -0.65451692006E+01 -0.25257181558E+02  0.28806295188E+02  0.00000000000E+00 0.  1.
</event>
<event>
 5    1  0.1764318E-003  0.9118800E+02  0.7818608E-02  0.1130116E+00
         25   -1    0    0    0    0  0.00000000000E+00  0.00000000000E+00  0.99999998245E-14  0.12500000000E+03  0.12500000000E+03 0.  0.
        -13    1    3    3    0    0  0.42073164977E+02  0.38021138135E+02 -0.23543075883E+02  0.61400698224E+02  0.10566000000E+00 0.  1.
         23    2    1    0    0    0  0.19532708371E+02  0.19998791100E+02 -0.20320552038E+02  0.90439861445E+02  0.83576105206E+02 0.  0.
         13    1    3    3    0    0 -0.22540456606E+02 -0.18022347035E+02  0.32225238449E+01  0.29039163222E+02  0.10566000000E+00 0. -1.
         22    1    1    0    0    0 -0.19532708371E+02 -0.19998791100E+02  0.20320552038E+02  0.34560138555E+02  0.00000000000E+00 0.  1.
</event>
<event>
 5    1  0.1764318E-003  0.9118800E+02  0.7818608E-02  0.1130116E+00
         25   -1    0    0    0    0  0.00000000000E+00  0.00000000000E+00  0.99999998245E-14  0.12500000000E+03  0.12500000000E+03 0.  0.
        -13    1    3    3    0    0 -0.11345557996E+02  0.12074251777E+02 -0.32432794272E+02  0.36419864779E+02  0.10566000000E+00 0. -1.
         23    2    1    0    0    0 -0.27695814653E+02 -0.80065246274E+00  0.18664366797E+02  0.91592549011E+02  0.85282690229E+02 0.  0.
         13    1    3    3    0    0 -0.16350256657E+02 -0.12874904240E+02  0.51097161069E+02  0.55172684231E+02  0.10566000000E+00 0.  1.
         22    1    1    0    0    0  0.27695814653E+02  0.80065246274E+00 -0.18664366797E+02  0.33407450989E+02  0.00000000000E+00 0.  1.
</event>
<event>
 5    1  0.1764318E-003  0.9118800E+02  0.7818608E-02  0.1130116E+00
         25   -1    0    0    0    0  0.00000000000E+00  0.00000000000E+00  0.99999998245E-14  0.12500000000E+03  0.12500000000E+03 0.  0.
        -13    1    3    3    0    0  0.34142364819E+01  0.24345543035E+02  0.21410059305E+02  0.32600065643E+02  0.10566000000E+00 0. -1.
         23    2    1    0    0    0  0.13709507378E+01 -0.16126559816E+02 -0.25629577694E+02  0.94687944805E+02  0.89704995408E+02 0.  0.
         13    1    3    3    0    0 -0.20432857441E+01 -0.40472102851E+02 -0.47039636999E+02  0.62087879162E+02  0.10566000000E+00 0.  1.
         22    1    1    0    0    0 -0.13709507378E+01  0.16126559816E+02  0.25629577694E+02  0.30312055195E+02  0.00000000000E+00 0.  1.
</event>
<event>
 5    1  0.1764318E-003  0.9118800E+02  0.7818608E-02  0.1130116E+00
         25   -1    0    0    0    0  0.00000000000E+00  0.00000000000E+00  0.99999998245E-14  0.12500000000E+03  0.12500000000E+03 0.  0.
        -13    1    3    3    0    0  0.30278525138E+02 -0.10673054633E+02 -0.47928222936E+02  0.57687337411E+02  0.10566000000E+00 0.  1.
         23    2    1    0    0    0  0.21005358420E+02 -0.17290445191E+02 -0.12208280580E+02  0.95180095708E+02  0.90388184665E+02 0.  0.
         13    1    3    3    0    0 -0.92731667171E+01 -0.66173905575E+01  0.35719942356E+02  0.37492758297E+02  0.10566000000E+00 0. -1.
         22    1    1    0    0    0 -0.21005358420E+02  0.17290445191E+02  0.12208280580E+02  0.29819904292E+02  0.00000000000E+00 0.  1.
</event>
<event>
 5    1  0.1764318E-003  0.9118800E+02  0.7818608E-02  0.1130116E+00
         25   -1    0    0    0    0  0.00000000000E+00  0.00000000000E+00  0.99999998245E-14  0.12500000000E+03  0.12500000000E+03 0.  0.
        -13    1    3    3    0    0 -0.21147337241E+02  0.38412987722E+01 -0.31357139404E+02  0.38016401779E+02  0.10566000000E+00 0. -1.
         23    2    1    0    0    0  0.22696370094E+01 -0.21913801517E+02  0.16699214865E+02  0.97355294789E+02  0.93347863914E+02 0.  0.
         13    1    3    3    0    0  0.23416974250E+02 -0.25755100289E+02  0.48056354269E+02  0.59338893010E+02  0.10566000000E+00 0.  1.
         22    1    1    0    0    0 -0.22696370094E+01  0.21913801517E+02 -0.16699214865E+02  0.27644705211E+02  0.00000000000E+00 0.  1.
</event>
<event>
 5    1  0.1764318E-003  0.9118800E+02  0.7818608E-02  0.1130116E+00
         25   -1    0    0    0    0  0.00000000000E+00  0.00000000000E+00  0.99999998245E-14  0.12500000000E+03  0.12500000000E+03 0.  0.
        -13    1    3    3    0    0 -0.17790798471E+02 -0.40834971956E+02  0.42087937704E+02  0.61281425482E+02  0.10566000000E+00 0.  1.
         23    2    1    0    0    0 -0.15878554944E+02 -0.17427933214E+02  0.15361246205E+02  0.96860539306E+02  0.92682980241E+02 0.  0.
         13    1    3    3    0    0  0.19122435274E+01  0.23407038742E+02 -0.26726691499E+02  0.35579113824E+02  0.10566000000E+00 0. -1.
         22    1    1    0    0    0  0.15878554944E+02  0.17427933214E+02 -0.15361246205E+02  0.28139460694E+02  0.00000000000E+00 0.  1.
</event>
<event>
 5    1  0.1764318E-003  0.9118800E+02  0.7818608E-02  0.1130116E+00
         25   -1    0    0    0    0  0.00000000000E+00  0.00000000000E+00  0.99999998245E-14  0.12500000000E+03  0.12500000000E+03 0.  0.
        -13    1    3    3    0    0 -0.16033452853E+02  0.55605199607E+02 -0.36193840548E+01  0.57983798933E+02  0.10566000000E+00 0. -1.
         23    2    1    0    0    0 -0.47991077306E+01  0.21895114406E+02 -0.17935872066E+02  0.96292457844E+02  0.91913625002E+02 0.  0.
         13    1    3    3    0    0  0.11234345123E+02 -0.33710085201E+02 -0.14316488011E+02  0.38308658912E+02  0.10566000000E+00 0.  1.
         22    1    1    0    0    0  0.47991077306E+01 -0.21895114406E+02  0.17935872066E+02  0.28707542156E+02  0.00000000000E+00 0. -1.
</event>
<event>
 5    1  0.1764318E-003  0.9118800E+02  0.7818608E-02  0.1130116E+00
         25   -1    0    0    0    0  0.00000000000E+00  0.00000000000E+00  0.99999998245E-14  0.12500000000E+03  0.12500000000E+03 0.  0.
        -13    1    3    3    0    0  0.24962008377E+02  0.78738858213E+01  0.40849872685E+02  0.48516215872E+02  0.10566000000E+00 0. -1.
         23    2    1    0    0    0 -0.11190189052E+02  0.22910120892E+02  0.15468136216E+02  0.95177907379E+02  0.90385158322E+02 0.  0.
         13    1    3    3    0    0 -0.36152197429E+02  0.15036235071E+02 -0.25381736469E+02  0.46661691507E+02  0.10566000000E+00 0.  1.
         22    1    1    0    0    0  0.11190189052E+02 -0.22910120892E+02 -0.15468136216E+02  0.29822092621E+02  0.00000000000E+00 0. -1.
</event>
<event>
 5    1  0.1764318E-003  0.9118800E+02  0.7818608E-02  0.1130116E+00
         25   -1    0    0    0    0  0.00000000000E+00  0.00000000000E+00  0.99999998245E-14  0.12500000000E+03  0.12500000000E+03 0.  0.
        -13    1    3    3    0    0  0.82974442076E+01  0.57772172210E+01 -0.31249378892E+02  0.32844461700E+02  0.10566000000E+00 0.  1.
         23    2    1    0    0    0  0.60616106379E+01  0.66047666126E+01  0.29769496989E+02  0.93909985260E+02  0.88614312134E+02 0.  0.
         13    1    3    3    0    0 -0.22358335697E+01  0.82754939154E+00  0.61018875882E+02  0.61065523560E+02  0.10566000000E+00 0. -1.
         22    1    1    0    0    0 -0.60616106379E+01 -0.66047666126E+01 -0.29769496989E+02  0.31090014740E+02  0.00000000000E+00 0. -1.
</event>
<event>
 5    1  0.1764318E-003  0.9118800E+02  0.7818608E-02  0.1130116E+00
         25   -1    0    0    0    0  0.00000000000E+00  0.00000000000E+00  0.99999998245E-14  0.12500000000E+03  0.12500000000E+03 0.  0.
        -13    1    3    3    0    0  0.37159172219E+02  0.22301781065E+02 -0.36853656613E+02  0.56889161432E+02  0.10566000000E+00 0.  1.
         23    2    1    0    0    0 -0.33452183884E+01  0.14548724788E+02 -0.16055136504E+02  0.10307687780E+03  0.10071851592E+03 0.  0.
         13    1    3    3    0    0 -0.40504390607E+02 -0.77530562768E+01  0.20798520109E+02  0.46187716363E+02  0.10566000000E+00 0. -1.
         22    1    1    0    0    0  0.33452183884E+01 -0.14548724788E+02  0.16055136504E+02  0.21923122205E+02  0.00000000000E+00 0.  1.
</event>
<event>
 5    1  0.1764318E-003  0.9118800E+02  0.7818608E-02  0.1130116E+00
         25   -1    0    0    0    0  0.00000000000E+00  0.00000000000E+00  0.99999998245E-14  0.12500000000E+03  0.12500000000E+03 0.  0.
        -13    1    3    3    0    0  0.59580353853E+01 -0.10784009801E+01 -0.41893001168E+02  0.42328428334E+02  0.10566000000E+00 0.  1.
         23    2    1    0    0    0  0.13890617142E+02  0.25447864610E+02  0.38046799641E+01  0.95759298103E+02  0.91185659650E+02 0.  0.
         13    1    3    3    0    0  0.79325817566E+01  0.26526265590E+02  0.45697681132E+02  0.53430869770E+02  0.10566000000E+00 0. -1.
         22    1    1    0    0    0 -0.13890617142E+02 -0.25447864610E+02 -0.38046799641E+01  0.29240701897E+02  0.00000000000E+00 0. -1.
</event>
<event>
 5    1  0.1764318E-003  0.9118800E+02  0.7818608E-02  0.1130116E+00
         25   -1    0    0    0    0  0.00000000000E+00  0.00000000000E+00  0.99999998245E-14  0.12500000000E+03  0.12500000000E+03 0.  0.
        -13    1    3    3    0    0  0.13645539771E+02  0.43693465478E+02  0.35179057299E+01  0.45909764820E+02  0.10566000000E+00 0. -1.
         23    2    1    0    0    0  0.33103547155E+01  0.33420795826E+01  0.29582019720E+02  0.95046305153E+02  0.90202972724E+02 0.  0.
         13    1    3    3    0    0 -0.10335185056E+02 -0.40351385895E+02  0.26064113990E+02  0.49136540333E+02  0.10566000000E+00 0.  1.
         22    1    1    0    0    0 -0.33103547155E+01 -0.33420795826E+01 -0.29582019720E+02  0.29953694847E+02  0.00000000000E+00 0.  1.
</event>
<event>
 5    1  0.1764318E-003  0.9118800E+02  0.7818608E-02  0.1130116E+00
         25   -1    0    0    0    0  0.00000000000E+00  0.00000000000E+00  0.99999998245E-14  0.12500000000E+03  0.12500000000E+03 0.  0.
        -13    1    3    3    0    0  0.44125938531E+02  0.42878233856E+02 -0.10760645972E+02  0.62461540612E+02  0.10566000000E+00 0.  1.
         23    2    1    0    0    0  0.22195843490E+02  0.19433166497E+02 -0.49210494742E+01  0.95091470175E+02  0.90265539071E+02 0.  0.
         13    1    3    3    0    0 -0.21930095041E+02 -0.23445067359E+02  0.58395964975E+01  0.32629929563E+02  0.10566000000E+00 0. -1.
         22    1    1    0    0    0 -0.22195843490E+02 -0.19433166497E+02  0.49210494742E+01  0.29908529825E+02  0.00000000000E+00 0.  1.
</event>
<event>
 5    1  0.1764318E-003  0.9118800E+02  0.7818608E-02  0.1130116E+00
         25   -1    0    0    0    0  0.00000000000E+00  0.00000000000E+00  0.99999998245E-14  0.12500000000E+03  0.12500000000E+03 0.  0.
        -13    1    3    3    0    0  0.16792347173E+02  0.23897641749E+02  0.24098870080E+02  0.37866171022E+02  0.10566000000E+00 0. -1.
         23    2    1    0    0    0 -0.40464173888E+01 -0.26716146180E+02 -0.72796323693E+00  0.97969352748E+02  0.94166544945E+02 0.  0.
         13    1    3    3    0    0 -0.20838764562E+02 -0.50613787929E+02 -0.24826833317E+02  0.60103181726E+02  0.10566000000E+00 0.  1.
         22    1    1    0    0    0  0.40464173888E+01  0.26716146180E+02  0.72796323693E+00  0.27030647252E+02  0.00000000000E+00 0.  1.
</event>
<event>
 5    1  0.1764318E-003  0.9118800E+02  0.7818608E-02  0.1130116E+00
         25   -1    0    0    0    0  0.00000000000E+00  0.00000000000E+00  0.99999998245E-14  0.12500000000E+03  0.12500000000E+03 0.  0.
        -13    1    3    3    0    0  0.46344379683E+02  0.15434485824E+02 -0.17586724210E+02  0.51916557218E+02  0.10566000000E+00 0. -1.
         23    2    1    0    0    0  0.51232389904E+01  0.27195722943E+02 -0.10684406018E+02  0.95335012960E+02  0.90602170173E+02 0.  0.
         13    1    3    3    0    0 -0.41221140693E+02  0.11761237119E+02  0.69023181919E+01  0.43418455742E+02  0.10566000000E+00 0.  1.
         22    1    1    0    0    0 -0.51232389904E+01 -0.27195722943E+02  0.10684406018E+02  0.29664987040E+02  0.00000000000E+00 0.  1.
</event>
<event>
 5    1  0.1764318E-003  0.9118800E+02  0.7818608E-02  0.1130116E+00
         25   -1    0    0    0    0  0.00000000000E+00  0.00000000000E+00  0.99999998245E-14  0.12500000000E+03  0.12500000000E+03 0.  0.
        -13    1    3    3    0    0 -0.19486024484E+01  0.51207224476E+02 -0.30215501929E+02  0.59489197430E+02  0.10566000000E+00 0. -1.
         23    2    1    0    0    0 -0.62967300809E+00  0.15182656583E+02 -0.24760512386E+02  0.95948450599E+02  0.91444587864E+02 0.  0.
         13    1    3    3    0    0  0.13189294403E+01 -0.36024567892E+02  0.54549895430E+01  0.36459253169E+02  0.10566000000E+00 0.  1.
         22    1    1    0    0    0  0.62967300809E+00 -0.15182656583E+02  0.24760512386E+02  0.29051549401E+02  0.00000000000E+00 0. -1.
</event>
<event>
 5    1  0.1764318E-003  0.9118800E+02  0.7818608E-02  0.1130116E+00
         25   -1    0    0    0    0  0.00000000000E+00  0.00000000000E+00  0.99999998245E-14  0.12500000000E+03  0.12500000000E+03 0.  0.
        -13    1    3    3    0    0 -0.15614767357E+01  0.53014346389E+02  0.21214752085E+02  0.57122990141E+02  0.10566000000E+00 0. -1.
         23    2    1    0    0    0 -0.17710002808E+02  0.24150973971E+02  0.29460433261E+01  0.94906929128E+02  0.90009623274E+02 0.  0.
         13    1    3    3    0    0 -0.16148526073E+02 -0.28863372417E+02 -0.18268708759E+02  0.37783938987E+02  0.10566000000E+00 0.  1.
         22    1    1    0    0    0  0.17710002808E+02 -0.24150973971E+02 -0.29460433261E+01  0.30093070872E+02  0.00000000000E+00 0. -1.
</event>
<event>
 5    1  0.1764318E-003  0.9118800E+02  0.7818608E-02  0.1130116E+00
         25   -1    0    0    0    0  0.00000000000E+00  0.00000000000E+00  0.99999998245E-14  0.12500000000E+03  0.12500000000E+03 0.  0.
        -13    1    3    3    0    0 -0.19997942077E+02 -0.94237219611E+01 -0.24919108486E+02  0.33312120237E+02  0.10566000000E+00 0. -1.
         23    2    1    0    0    0  0.13158567554E+02 -0.19509919803E-01  0.26615684012E+02  0.95309211595E+02  0.90566566120E+02 0.  0.
         13    1    3    3    0    0  0.33156509631E+02  0.94042120412E+01  0.51534792497E+02  0.61997091358E+02  0.10566000000E+00 0.  1.
         22    1    1    0    0    0 -0.13158567554E+02  0.19509919803E-01 -0.26615684012E+02  0.29690788405E+02  0.00000000000E+00 0.  1.
</event>
<event>
 5    1  0.1764318E-003  0.9118800E+02  0.7818608E-02  0.1130116E+00
         25   -1    0    0    0    0  0.00000000000E+00  0.00000000000E+00  0.99999998245E-14  0.12500000000E+03  0.12500000000E+03 0.  0.
        -13    1    3    3    0    0 -0.33265805410E+02 -0.32946580026E+02 -0.40764512436E+01  0.46997016541E+02  0.10566000000E+00 0.  1.
         23    2    1    0    0    0 -0.19699217946E+02  0.86091885126E+01  0.18893956660E+02  0.96379047661E+02  0.92031309430E+02 0.  0.
         13    1    3    3    0    0  0.13566587464E+02  0.41555768539E+02  0.22970407903E+02  0.49382031120E+02  0.10566000000E+00 0. -1.
         22    1    1    0    0    0  0.19699217946E+02 -0.86091885126E+01 -0.18893956660E+02  0.28620952339E+02  0.00000000000E+00 0. -1.
</event>
<event>
 5    1  0.1764318E-003  0.9118800E+02  0.7818608E-02  0.1130116E+00
         25   -1    0    0    0    0  0.00000000000E+00  0.00000000000E+00  0.99999998245E-14  0.12500000000E+03  0.12500000000E+03 0.  0.
        -13    1    3    3    0    0 -0.14065436438E+02 -0.38445518400E+02  0.31982852254E+02  0.51950056685E+02  0.10566000000E+00 0.  1.
         23    2    1    0    0    0 -0.44113886465E+01 -0.28112576457E+02 -0.88794872523E+01  0.95190226457E+02  0.90402193636E+02 0.  0.
         13    1    3    3    0    0  0.96540477912E+01  0.10332941943E+02 -0.40862339506E+02  0.43240169772E+02  0.10566000000E+00 0. -1.
         22    1    1    0    0    0  0.44113886465E+01  0.28112576457E+02  0.88794872523E+01  0.29809773543E+02  0.00000000000E+00 0.  1.
</event>
<event>
 5    1  0.1764318E-003  0.9118800E+02  0.7818608E-02  0.1130116E+00
         25   -1    0    0    0    0  0.00000000000E+00  0.00000000000E+00  0.99999998245E-14  0.12500000000E+03  0.12500000000E+03 0.  0.
        -13    1    3    3    0    0 -0.38795832243E+02 -0.10803701983E+02  0.32418707865E+01  0.40402443815E+02  0.10566000000E+00 0. -1.
         23    2    1    0    0    0  0.15054262846E+02 -0.21211929766E+02  0.12692209177E+02  0.96057488567E+02  0.91593515828E+02 0.  0.
         13    1    3    3    0    0  0.53850095089E+02 -0.10408227783E+02  0.94503383902E+01  0.55655044753E+02  0.10566000000E+00 0.  1.
         22    1    1    0    0    0 -0.15054262846E+02  0.21211929766E+02 -0.12692209177E+02  0.28942511433E+02  0.00000000000E+00 0.  1.
</event>
<event>
 4    1  0.1764318E-003  0.9118800E+02  0.7818608E-02  0.1130116E+00
         25   -1    0    0    0    0  0.00000000000E+00  0.00000000000E+00  0.99999998245E-14  0.12500000000E+03  0.12500000000E+03 0.  0.
        -13    1    1    0    0    0 -0.11868605533E+02  0.15016765878E+02 -0.10784995680E+02  0.21970306110E+02  0.10566000000E+00 0.  1.
         13    1    1    0    0    0 -0.40324001235E+02  0.78179182187E+01 -0.10192970148E+02  0.42320830868E+02  0.10566000000E+00 0. -1.
         22    1    1    0    0    0  0.52192606768E+02 -0.22834684097E+02  0.20977965828E+02  0.60708863021E+02  0.00000000000E+00 0. -1.
</event>
<event>
 5    1  0.1764318E-003  0.9118800E+02  0.7818608E-02  0.1130116E+00
         25   -1    0    0    0    0  0.00000000000E+00  0.00000000000E+00  0.99999998245E-14  0.12500000000E+03  0.12500000000E+03 0.  0.
        -13    1    3    3    0    0  0.30588403544E+02  0.24284133057E+02  0.46878620904E+01  0.39336455924E+02  0.10566000000E+00 0.  1.
         23    2    1    0    0    0 -0.23904335369E+02  0.10270749569E+02  0.12488651922E+02  0.96140478643E+02  0.91706704557E+02 0.  0.
         13    1    3    3    0    0 -0.54492738912E+02 -0.14013383488E+02  0.78007898318E+01  0.56804022718E+02  0.10566000000E+00 0. -1.
         22    1    1    0    0    0  0.23904335369E+02 -0.10270749569E+02 -0.12488651922E+02  0.28859521357E+02  0.00000000000E+00 0. -1.
</event>
<event>
 5    1  0.1764318E-003  0.9118800E+02  0.7818608E-02  0.1130116E+00
         25   -1    0    0    0    0  0.00000000000E+00  0.00000000000E+00  0.99999998245E-14  0.12500000000E+03  0.12500000000E+03 0.  0.
        -13    1    3    3    0    0 -0.56423909271E+01 -0.12367192175E+02  0.31657049711E+02  0.34452343579E+02  0.10566000000E+00 0. -1.
         23    2    1    0    0    0 -0.71120693494E+01  0.31455745090E+02 -0.59351355990E+01  0.92208670900E+02  0.86181017196E+02 0.  0.
         13    1    3    3    0    0 -0.14696784222E+01  0.43822937265E+02 -0.37592185310E+02  0.57756327321E+02  0.10566000000E+00 0.  1.
         22    1    1    0    0    0  0.71120693494E+01 -0.31455745090E+02  0.59351355990E+01  0.32791329100E+02  0.00000000000E+00 0.  1.
</event>
<event>
 5    1  0.1764318E-003  0.9118800E+02  0.7818608E-02  0.1130116E+00
         25   -1    0    0    0    0  0.00000000000E+00  0.00000000000E+00  0.99999998245E-14  0.12500000000E+03  0.12500000000E+03 0.  0.
        -13    1    3    3    0    0 -0.25134839132E+02 -0.13610400001E+02 -0.21002006416E+02  0.35469685140E+02  0.10566000000E+00 0.  1.
         23    2    1    0    0    0  0.73859968399E+01 -0.42670444095E+02 -0.12755137745E+02  0.79855639472E+02  0.65870402064E+02 0.  0.
         13    1    3    3    0    0  0.32520835972E+02 -0.29060044094E+02  0.82468686716E+01  0.44385954332E+02  0.10566000000E+00 0. -1.
         22    1    1    0    0    0 -0.73859968399E+01  0.42670444095E+02  0.12755137745E+02  0.45144360528E+02  0.00000000000E+00 0. -1.
</event>
<event>
 5    1  0.1764318E-003  0.9118800E+02  0.7818608E-02  0.1130116E+00
         25   -1    0    0    0    0  0.00000000000E+00  0.00000000000E+00  0.99999998245E-14  0.12500000000E+03  0.12500000000E+03 0.  0.
        -13    1    3    3    0    0  0.33329706257E+02 -0.11975561809E+02 -0.39869756124E+02  0.53328154077E+02  0.10566000000E+00 0.  1.
         23    2    1    0    0    0  0.29542491984E+02 -0.21066097513E+01  0.82246650667E+00  0.95371076826E+02  0.90651912316E+02 0.  0.
         13    1    3    3    0    0 -0.37872142725E+01  0.98689520579E+01  0.40692222631E+02  0.42042922749E+02  0.10566000000E+00 0. -1.
         22    1    1    0    0    0 -0.29542491984E+02  0.21066097513E+01 -0.82246650667E+00  0.29628923174E+02  0.00000000000E+00 0. -1.
</event>
<event>
 5    1  0.1764318E-003  0.9118800E+02  0.7818608E-02  0.1130116E+00
         25   -1    0    0    0    0  0.00000000000E+00  0.00000000000E+00  0.99999998245E-14  0.12500000000E+03  0.12500000000E+03 0.  0.
        -13    1    3    3    0    0  0.48782335699E+02 -0.13105017324E+02  0.25520829751E+02  0.56593123880E+02  0.10566000000E+00 0.  1.
         23    2    1    0    0    0  0.23753201233E+02  0.13181320181E+02  0.10459527760E+02  0.95890491391E+02  0.91365326288E+02 0.  0.
         13    1    3    3    0    0 -0.25029134466E+02  0.26286337505E+02 -0.15061301992E+02  0.39297367510E+02  0.10566000000E+00 0. -1.
         22    1    1    0    0    0 -0.23753201233E+02 -0.13181320181E+02 -0.10459527760E+02  0.29109508609E+02  0.00000000000E+00 0.  1.
</event>
<event>
 5    1  0.1764318E-003  0.9118800E+02  0.7818608E-02  0.1130116E+00
         25   -1    0    0    0    0  0.00000000000E+00  0.00000000000E+00  0.99999998245E-14  0.12500000000E+03  0.12500000000E+03 0.  0.
        -13    1    3    3    0    0  0.11055612454E+02  0.37606087256E+02 -0.29666562093E+02  0.49158523532E+02  0.10566000000E+00 0.  1.
         23    2    1    0    0    0 -0.17528916900E+01  0.25936318194E+02  0.13525205077E+02  0.95696477974E+02  0.91099503256E+02 0.  0.
         13    1    3    3    0    0 -0.12808504144E+02 -0.11669769062E+02  0.43191767170E+02  0.46537954442E+02  0.10566000000E+00 0. -1.
         22    1    1    0    0    0  0.17528916900E+01 -0.25936318194E+02 -0.13525205077E+02  0.29303522026E+02  0.00000000000E+00 0. -1.
</event>
<event>
 5    1  0.1764318E-003  0.9118800E+02  0.7818608E-02  0.1130116E+00
         25   -1    0    0    0    0  0.00000000000E+00  0.00000000000E+00  0.99999998245E-14  0.12500000000E+03  0.12500000000E+03 0.  0.
        -13    1    3    3    0    0  0.62553184784E+01 -0.16063765443E+02  0.32329099242E+02  0.36638168504E+02  0.10566000000E+00 0.  1.
         23    2    1    0    0    0 -0.16426245570E+02  0.17161694446E+01 -0.21614559387E+02  0.97797868492E+02  0.93938634879E+02 0.  0.
         13    1    3    3    0    0 -0.22681564048E+02  0.17779934888E+02 -0.53943658629E+02  0.61159699988E+02  0.10566000000E+00 0. -1.
         22    1    1    0    0    0  0.16426245570E+02 -0.17161694446E+01  0.21614559387E+02  0.27202131508E+02  0.00000000000E+00 0. -1.
</event>
<event>
 5    1  0.1764318E-003  0.9118800E+02  0.7818608E-02  0.1130116E+00
         25   -1    0    0    0    0  0.00000000000E+00  0.00000000000E+00  0.99999998245E-14  0.12500000000E+03  0.12500000000E+03 0.  0.
        -13    1    3    3    0    0 -0.20093885030E+01 -0.34358894817E+02 -0.39086199195E+02  0.52079875449E+02  0.10566000000E+00 0.  1.
         23    2    1    0    0    0 -0.17615684209E+02 -0.42541440285E+01 -0.34140002870E+02  0.86348352331E+02  0.77214558749E+02 0.  0.
         13    1    3    3    0    0 -0.15606295705E+02  0.30104750789E+02  0.49461963249E+01  0.34268476882E+02  0.10566000000E+00 0. -1.
         22    1    1    0    0    0  0.17615684209E+02  0.42541440285E+01  0.34140002870E+02  0.38651647669E+02  0.00000000000E+00 0.  1.
</event>
<event>
 5    1  0.1764318E-003  0.9118800E+02  0.7818608E-02  0.1130116E+00
         25   -1    0    0    0    0  0.00000000000E+00  0.00000000000E+00  0.99999998245E-14  0.12500000000E+03  0.12500000000E+03 0.  0.
        -13    1    3    3    0    0  0.33341909264E+02 -0.81491893241E+01 -0.21287127748E+02  0.40388676282E+02  0.10566000000E+00 0. -1.
         23    2    1    0    0    0 -0.45199704475E+01 -0.23365068373E+02  0.16530858124E+02  0.96023702389E+02  0.91547395361E+02 0.  0.
         13    1    3    3    0    0 -0.37861879711E+02 -0.15215879049E+02  0.37817985872E+02  0.55635026107E+02  0.10566000000E+00 0.  1.
         22    1    1    0    0    0  0.45199704475E+01  0.23365068373E+02 -0.16530858124E+02  0.28976297611E+02  0.00000000000E+00 0.  1.
</event>
<event>
 5    1  0.1764318E-003  0.9118800E+02  0.7818608E-02  0.1130116E+00
         25   -1    0    0    0    0  0.00000000000E+00  0.00000000000E+00  0.99999998245E-14  0.12500000000E+03  0.12500000000E+03 0.  0.
        -13    1    3    3    0    0 -0.48627195115E+02 -0.26336338221E+01 -0.10303739521E+02  0.49776684743E+02  0.10566000000E+00 0.  1.
         23    2    1    0    0    0 -0.57076589410E+01  0.22455712153E+02 -0.10666510712E+02  0.99492925890E+02  0.96167725732E+02 0.  0.
         13    1    3    3    0    0  0.42919536174E+02  0.25089345975E+02 -0.36277119088E+00  0.49716241147E+02  0.10566000000E+00 0. -1.
         22    1    1    0    0    0  0.57076589410E+01 -0.22455712153E+02  0.10666510712E+02  0.25507074110E+02  0.00000000000E+00 0. -1.
</event>
<event>
 5    1  0.1764318E-003  0.9118800E+02  0.7818608E-02  0.1130116E+00
         25   -1    0    0    0    0  0.00000000000E+00  0.00000000000E+00  0.99999998245E-14  0.12500000000E+03  0.12500000000E+03 0.  0.
        -13    1    3    3    0    0  0.50956221703E+01 -0.39551244985E+02 -0.23750592667E+02  0.46415171671E+02  0.10566000000E+00 0.  1.
         23    2    1    0    0    0  0.27229498992E+02 -0.12329255317E+02  0.83452142980E+01  0.93966167595E+02  0.88693527942E+02 0.  0.
         13    1    3    3    0    0  0.22133876822E+02  0.27221989667E+02  0.32095806965E+02  0.47550995924E+02  0.10566000000E+00 0. -1.
         22    1    1    0    0    0 -0.27229498992E+02  0.12329255317E+02 -0.83452142980E+01  0.31033832405E+02  0.00000000000E+00 0. -1.
</event>
<event>
 5    1  0.1764318E-003  0.9118800E+02  0.7818608E-02  0.1130116E+00
         25   -1    0    0    0    0  0.00000000000E+00  0.00000000000E+00  0.99999998245E-14  0.12500000000E+03  0.12500000000E+03 0.  0.
        -13    1    3    3    0    0  0.55604313166E+01  0.25316012775E+02  0.24640904829E+02  0.35763168960E+02  0.10566000000E+00 0.  1.
         23    2    1    0    0    0 -0.22738708227E+02 -0.19310372950E+02 -0.23041549325E+01  0.95079296711E+02  0.90248679646E+02 0.  0.
         13    1    3    3    0    0 -0.28299139544E+02 -0.44626385725E+02 -0.26945059761E+02  0.59316127751E+02  0.10566000000E+00 0. -1.
         22    1    1    0    0    0  0.22738708227E+02  0.19310372950E+02  0.23041549325E+01  0.29920703289E+02  0.00000000000E+00 0. -1.
</event>
<event>
 5    1  0.1764318E-003  0.9118800E+02  0.7818608E-02  0.1130116E+00
         25   -1    0    0    0    0  0.00000000000E+00  0.00000000000E+00  0.99999998245E-14  0.12500000000E+03  0.12500000000E+03 0.  0.
        -13    1    3    3    0    0 -0.17967934217E+02  0.37798537464E+02  0.36173516141E+02  0.55318265777E+02  0.10566000000E+00 0. -1.
         23    2    1    0    0    0  0.80905459222E+01  0.28337006451E+02  0.88808325338E+01  0.94221565107E+02  0.89052744353E+02 0.  0.
         13    1    3    3    0    0  0.26058480140E+02 -0.94615310129E+01 -0.27292683607E+02  0.38903299331E+02  0.10566000000E+00 0.  1.
         22    1    1    0    0    0 -0.80905459222E+01 -0.28337006451E+02 -0.88808325338E+01  0.30778434893E+02  0.00000000000E+00 0. -1.
</event>
<event>
 5    1  0.1764318E-003  0.9118800E+02  0.7818608E-02  0.1130116E+00
         25   -1    0    0    0    0  0.00000000000E+00  0.00000000000E+00  0.99999998245E-14  0.12500000000E+03  0.12500000000E+03 0.  0.
        -13    1    3    3    0    0 -0.41062353616E+02 -0.38006247385E+02  0.21384854552E+02  0.59899206114E+02  0.10566000000E+00 0.  1.
         23    2    1    0    0    0 -0.20258951956E+02 -0.19755456326E+02 -0.26842720484E+01  0.96576268622E+02  0.92298792817E+02 0.  0.
         13    1    3    3    0    0  0.20803401660E+02  0.18250791059E+02 -0.24069126601E+02  0.36677062509E+02  0.10566000000E+00 0. -1.
         22    1    1    0    0    0  0.20258951956E+02  0.19755456326E+02  0.26842720484E+01  0.28423731378E+02  0.00000000000E+00 0.  1.
</event>
<event>
 5    1  0.1764318E-003  0.9118800E+02  0.7818608E-02  0.1130116E+00
         25   -1    0    0    0    0  0.00000000000E+00  0.00000000000E+00  0.99999998245E-14  0.12500000000E+03  0.12500000000E+03 0.  0.
        -13    1    3    3    0    0  0.92938204149E+01  0.95848608895E+01  0.60217423387E+02  0.61679768965E+02  0.10566000000E+00 0. -1.
         23    2    1    0    0    0  0.68497151765E+01 -0.22054170951E+01  0.28487075177E+02  0.95618102261E+02  0.90991898350E+02 0.  0.
         13    1    3    3    0    0 -0.24441052385E+01 -0.11790277985E+02 -0.31730348210E+02  0.33938333296E+02  0.10566000000E+00 0.  1.
         22    1    1    0    0    0 -0.68497151765E+01  0.22054170951E+01 -0.28487075177E+02  0.29381897739E+02  0.00000000000E+00 0. -1.
</event>
<event>
 5    1  0.1764318E-003  0.9118800E+02  0.7818608E-02  0.1130116E+00
         25   -1    0    0    0    0  0.00000000000E+00  0.00000000000E+00  0.99999998245E-14  0.12500000000E+03  0.12500000000E+03 0.  0.
        -13    1    3    3    0    0 -0.32554745915E+02 -0.16822116780E+02 -0.47458501011E+00  0.36647394034E+02  0.10566000000E+00 0.  1.
         23    2    1    0    0    0  0.14666303951E+02  0.49522540573E+01 -0.26127985718E+02  0.94630658066E+02  0.89625133285E+02 0.  0.
         13    1    3    3    0    0  0.47221049866E+02  0.21774370837E+02 -0.25653400708E+02  0.57983264031E+02  0.10566000000E+00 0. -1.
         22    1    1    0    0    0 -0.14666303951E+02 -0.49522540573E+01  0.26127985718E+02  0.30369341934E+02  0.00000000000E+00 0. -1.
</event>
<event>
 5    1  0.1764318E-003  0.9118800E+02  0.7818608E-02  0.1130116E+00
         25   -1    0    0    0    0  0.00000000000E+00  0.00000000000E+00  0.99999998245E-14  0.12500000000E+03  0.12500000000E+03 0.  0.
        -13    1    3    3    0    0 -0.17229890605E+02  0.26664575375E+02 -0.52588096755E+02  0.61427907295E+02  0.10566000000E+00 0. -1.
         23    2    1    0    0    0 -0.42401927150E+01  0.18771922991E+02 -0.20802704170E+02  0.96660684062E+02  0.92413045700E+02 0.  0.
         13    1    3    3    0    0  0.12989697890E+02 -0.78926523845E+01  0.31785392585E+02  0.35232776768E+02  0.10566000000E+00 0.  1.
         22    1    1    0    0    0  0.42401927150E+01 -0.18771922991E+02  0.20802704170E+02  0.28339315938E+02  0.00000000000E+00 0. -1.
</event>
<event>
 5    1  0.1764318E-003  0.9118800E+02  0.7818608E-02  0.1130116E+00
         25   -1    0    0    0    0  0.00000000000E+00  0.00000000000E+00  0.99999998245E-14  0.12500000000E+03  0.12500000000E+03 0.  0.
        -13    1    3    3    0    0  0.45309932242E+02  0.33443298492E+02  0.70301289581E+01  0.56752780117E+02  0.10566000000E+00 0.  1.
         23    2    1    0    0    0  0.18274870826E+02  0.14408895582E+02 -0.15745517686E+02  0.96901806058E+02  0.92738619326E+02 0.  0.
         13    1    3    3    0    0 -0.27035061416E+02 -0.19034402909E+02 -0.22775646644E+02  0.40149025941E+02  0.10566000000E+00 0. -1.
         22    1    1    0    0    0 -0.18274870826E+02 -0.14408895582E+02  0.15745517686E+02  0.28098193942E+02  0.00000000000E+00 0.  1.
</event>
<event>
 5    1  0.1764318E-003  0.9118800E+02  0.7818608E-02  0.1130116E+00
         25   -1    0    0    0    0  0.00000000000E+00  0.00000000000E+00  0.99999998245E-14  0.12500000000E+03  0.12500000000E+03 0.  0.
        -13    1    3    3    0    0 -0.18818979604E+02 -0.48329111576E+02 -0.99357868812E+01  0.52807083276E+02  0.10566000000E+00 0.  1.
         23    2    1    0    0    0  0.49274194551E+01 -0.22338800456E+02  0.16467790815E+02  0.96813308059E+02  0.92619258336E+02 0.  0.
         13    1    3    3    0    0  0.23746399060E+02  0.25990311121E+02  0.26403577696E+02  0.44006224783E+02  0.10566000000E+00 0. -1.
         22    1    1    0    0    0 -0.49274194551E+01  0.22338800456E+02 -0.16467790815E+02  0.28186691941E+02  0.00000000000E+00 0.  1.
</event>
<event>
 5    1  0.1764318E-003  0.9118800E+02  0.7818608E-02  0.1130116E+00
         25   -1    0    0    0    0  0.00000000000E+00  0.00000000000E+00  0.99999998245E-14  0.12500000000E+03  0.12500000000E+03 0.  0.
        -13    1    3    3    0    0  0.35840104349E+02 -0.42283609465E+02 -0.14548234125E+02  0.57306884310E+02  0.10566000000E+00 0. -1.
         23    2    1    0    0    0  0.32136171098E+02 -0.11702429643E+02 -0.14847917691E+01  0.90767194696E+02  0.84064253247E+02 0.  0.
         13    1    3    3    0    0 -0.37039332507E+01  0.30581179823E+02  0.13063442356E+02  0.33460310386E+02  0.10566000000E+00 0.  1.
         22    1    1    0    0    0 -0.32136171098E+02  0.11702429643E+02  0.14847917691E+01  0.34232805304E+02  0.00000000000E+00 0. -1.
</event>
<event>
 5    1  0.1764318E-003  0.9118800E+02  0.7818608E-02  0.1130116E+00
         25   -1    0    0    0    0  0.00000000000E+00  0.00000000000E+00  0.99999998245E-14  0.12500000000E+03  0.12500000000E+03 0.  0.
        -13    1    3    3    0    0 -0.55175937550E+02 -0.22683537990E+01 -0.25070614156E+02  0.60647146443E+02  0.10566000000E+00 0. -1.
         23    2    1    0    0    0 -0.21786368138E+02  0.42132092930E+01 -0.20172859243E+02  0.95010981689E+02  0.90154009464E+02 0.  0.
         13    1    3    3    0    0  0.33389569412E+02  0.64815630919E+01  0.48977549134E+01  0.34363835246E+02  0.10566000000E+00 0.  1.
         22    1    1    0    0    0  0.21786368138E+02 -0.42132092930E+01  0.20172859243E+02  0.29989018311E+02  0.00000000000E+00 0. -1.
</event>
<event>
 5    1  0.1764318E-003  0.9118800E+02  0.7818608E-02  0.1130116E+00
         25   -1    0    0    0    0  0.00000000000E+00  0.00000000000E+00  0.99999998245E-14  0.12500000000E+03  0.12500000000E+03 0.  0.
        -13    1    3    3    0    0 -0.46624946127E+02 -0.89348781120E+01 -0.89895877767E+01  0.48317093255E+02  0.10566000000E+00 0. -1.
         23    2    1    0    0    0 -0.35699224556E+01 -0.27875747466E+02  0.26465423849E+01  0.96772250715E+02  0.92563830294E+02 0.  0.
         13    1    3    3    0    0  0.43055023671E+02 -0.18940869354E+02  0.11636130162E+02  0.48455157459E+02  0.10566000000E+00 0.  1.
         22    1    1    0    0    0  0.35699224556E+01  0.27875747466E+02 -0.26465423849E+01  0.28227749285E+02  0.00000000000E+00 0. -1.
</event>
<event>
 5    1  0.1764318E-003  0.9118800E+02  0.7818608E-02  0.1130116E+00
         25   -1    0    0    0    0  0.00000000000E+00  0.00000000000E+00  0.99999998245E-14  0.12500000000E+03  0.12500000000E+03 0.  0.
        -13    1    3    3    0    0 -0.41046177089E+02  0.22132629231E+01  0.42411950369E+02  0.59063287112E+02  0.10566000000E+00 0.  1.
         23    2    1    0    0    0 -0.12528254909E+02 -0.10395654646E+02  0.26062501647E+02  0.94270847739E+02  0.89121893690E+02 0.  0.
         13    1    3    3    0    0  0.28517922180E+02 -0.12608917569E+02 -0.16349448722E+02  0.35207560627E+02  0.10566000000E+00 0. -1.
         22    1    1    0    0    0  0.12528254909E+02  0.10395654646E+02 -0.26062501647E+02  0.30729152261E+02  0.00000000000E+00 0.  1.
</event>
<event>
 5    1  0.1764318E-003  0.9118800E+02  0.7818608E-02  0.1130116E+00
         25   -1    0    0    0    0  0.00000000000E+00  0.00000000000E+00  0.99999998245E-14  0.12500000000E+03  0.12500000000E+03 0.  0.
        -13    1    3    3    0    0 -0.57723094549E+02  0.17702289057E+02 -0.37127566954E+01  0.60490680344E+02  0.10566000000E+00 0. -1.
         23    2    1    0    0    0 -0.29769233158E+02  0.53934016140E+01  0.87907619037E+01  0.93494865202E+02  0.88026793084E+02 0.  0.
         13    1    3    3    0    0  0.27953861391E+02 -0.12308887443E+02  0.12503518599E+02  0.33004184858E+02  0.10566000000E+00 0.  1.
         22    1    1    0    0    0  0.29769233158E+02 -0.53934016140E+01 -0.87907619037E+01  0.31505134798E+02  0.00000000000E+00 0. -1.
</event>
<event>
 5    1  0.1764318E-003  0.9118800E+02  0.7818608E-02  0.1130116E+00
         25   -1    0    0    0    0  0.00000000000E+00  0.00000000000E+00  0.99999998245E-14  0.12500000000E+03  0.12500000000E+03 0.  0.
        -13    1    3    3    0    0  0.36713951554E+02 -0.39388657148E+01  0.15796487574E+02  0.40161786384E+02  0.10566000000E+00 0.  1.
         23    2    1    0    0    0 -0.17207119818E+02 -0.14260427037E+02  0.19710830104E+02  0.95201315883E+02  0.90417525794E+02 0.  0.
         13    1    3    3    0    0 -0.53921071372E+02 -0.10321561322E+02  0.39143425297E+01  0.55039529499E+02  0.10566000000E+00 0. -1.
         22    1    1    0    0    0  0.17207119818E+02  0.14260427037E+02 -0.19710830104E+02  0.29798684117E+02  0.00000000000E+00 0. -1.
</event>
<event>
 5    1  0.1764318E-003  0.9118800E+02  0.7818608E-02  0.1130116E+00
         25   -1    0    0    0    0  0.00000000000E+00  0.00000000000E+00  0.99999998245E-14  0.12500000000E+03  0.12500000000E+03 0.  0.
        -13    1    3    3    0    0  0.19131538637E+02  0.26948382810E+02  0.11116902489E+02  0.34868722254E+02  0.10566000000E+00 0. -1.
         23    2    1    0    0    0 -0.43662621721E+01 -0.28404966421E+02  0.83763419418E+01  0.95065580562E+02  0.90229679931E+02 0.  0.
         13    1    3    3    0    0 -0.23497800809E+02 -0.55353349231E+02 -0.27405605471E+01  0.60196858308E+02  0.10566000000E+00 0.  1.
         22    1    1    0    0    0  0.43662621721E+01  0.28404966421E+02 -0.83763419418E+01  0.29934419438E+02  0.00000000000E+00 0.  1.
</event>
<event>
 5    1  0.1764318E-003  0.9118800E+02  0.7818608E-02  0.1130116E+00
         25   -1    0    0    0    0  0.00000000000E+00  0.00000000000E+00  0.99999998245E-14  0.12500000000E+03  0.12500000000E+03 0.  0.
        -13    1    3    3    0    0 -0.49203676823E+01 -0.12007668351E+02  0.42739989443E+02  0.44666676382E+02  0.10566000000E+00 0. -1.
         23    2    1    0    0    0 -0.24243990226E+02  0.76985300831E+01 -0.42965328471E+01  0.99202740029E+02  0.95789795945E+02 0.  0.
         13    1    3    3    0    0 -0.19323622544E+02  0.19706198434E+02 -0.47036522290E+02  0.54536063647E+02  0.10566000000E+00 0.  1.
         22    1    1    0    0    0  0.24243990226E+02 -0.76985300831E+01  0.42965328471E+01  0.25797259971E+02  0.00000000000E+00 0. -1.
</event>
<event>
 5    1  0.1764318E-003  0.9118800E+02  0.7818608E-02  0.1130116E+00
         25   -1    0    0    0    0  0.00000000000E+00  0.00000000000E+00  0.99999998245E-14  0.12500000000E+03  0.12500000000E+03 0.  0.
        -13    1    3    3    0    0 -0.25496080519E+02 -0.23273628556E+02 -0.24305022631E+02  0.42219156755E+02  0.10566000000E+00 0. -1.
         23    2    1    0    0    0 -0.27235754965E+01  0.24436688298E+02 -0.15820051639E+02  0.95762290919E+02  0.91189762198E+02 0.  0.
         13    1    3    3    0    0  0.22772505022E+02  0.47710316854E+02  0.84849709923E+01  0.53543134164E+02  0.10566000000E+00 0.  1.
         22    1    1    0    0    0  0.27235754965E+01 -0.24436688298E+02  0.15820051639E+02  0.29237709081E+02  0.00000000000E+00 0.  1.
</event>
<event>
 5    1  0.1764318E-003  0.9118800E+02  0.7818608E-02  0.1130116E+00
         25   -1    0    0    0    0  0.00000000000E+00  0.00000000000E+00  0.99999998245E-14  0.12500000000E+03  0.12500000000E+03 0.  0.
        -13    1    3    3    0    0 -0.36955170106E+02  0.38093222505E+02  0.31571425267E+02  0.61753900733E+02  0.10566000000E+00 0.  1.
         23    2    1    0    0    0 -0.12351984204E+02  0.18128122379E+02  0.19464560524E+02  0.95673059295E+02  0.91067364207E+02 0.  0.
         13    1    3    3    0    0  0.24603185902E+02 -0.19965100126E+02 -0.12106864743E+02  0.33919158561E+02  0.10566000000E+00 0. -1.
         22    1    1    0    0    0  0.12351984204E+02 -0.18128122379E+02 -0.19464560524E+02  0.29326940705E+02  0.00000000000E+00 0.  1.
</event>
<event>
 5    1  0.1764318E-003  0.9118800E+02  0.7818608E-02  0.1130116E+00
         25   -1    0    0    0    0  0.00000000000E+00  0.00000000000E+00  0.99999998245E-14  0.12500000000E+03  0.12500000000E+03 0.  0.
        -13    1    3    3    0    0 -0.25458452659E+02  0.21443471760E+02 -0.19564320691E+01  0.33343576344E+02  0.10566000000E+00 0. -1.
         23    2    1    0    0    0  0.26913346881E+02 -0.45040620608E+01  0.14548088813E+02  0.94076518574E+02  0.88848914701E+02 0.  0.
         13    1    3    3    0    0  0.52371799540E+02 -0.25947533821E+02  0.16504520882E+02  0.60732942231E+02  0.10566000000E+00 0.  1.
         22    1    1    0    0    0 -0.26913346881E+02  0.45040620608E+01 -0.14548088813E+02  0.30923481426E+02  0.00000000000E+00 0.  1.
</event>
<event>
 5    1  0.1764318E-003  0.9118800E+02  0.7818608E-02  0.1130116E+00
         25   -1    0    0    0    0  0.00000000000E+00  0.00000000000E+00  0.99999998245E-14  0.12500000000E+03  0.12500000000E+03 0.  0.
        -13    1    3    3    0    0  0.19979842875E+02 -0.38754252581E+02 -0.31774149157E+02  0.53950847381E+02  0.10566000000E+00 0.  1.
         23    2    1    0    0    0  0.17390480482E+02  0.22688551115E+01 -0.23160557805E+02  0.95948529250E+02  0.91444695377E+02 0.  0.
         13    1    3    3    0    0 -0.25893623933E+01  0.41023107693E+02  0.86135913522E+01  0.41997681869E+02  0.10566000000E+00 0. -1.
         22    1    1    0    0    0 -0.17390480482E+02 -0.22688551115E+01  0.23160557805E+02  0.29051470750E+02  0.00000000000E+00 0.  1.
</event>
<event>
 5    1  0.1764318E-003  0.9118800E+02  0.7818608E-02  0.1130116E+00
         25   -1    0    0    0    0  0.00000000000E+00  0.00000000000E+00  0.99999998245E-14  0.12500000000E+03  0.12500000000E+03 0.  0.
        -13    1    3    3    0    0  0.44232241423E+02 -0.38143186650E+02  0.16365984559E+02  0.60656825533E+02  0.10566000000E+00 0. -1.
         23    2    1    0    0    0  0.20570741390E+02 -0.13761840725E+02  0.17560833027E+02  0.94653228869E+02  0.89656607215E+02 0.  0.
         13    1    3    3    0    0 -0.23661500033E+02  0.24381345925E+02  0.11948484671E+01  0.33996403337E+02  0.10566000000E+00 0.  1.
         22    1    1    0    0    0 -0.20570741390E+02  0.13761840725E+02 -0.17560833027E+02  0.30346771131E+02  0.00000000000E+00 0. -1.
</event>
<event>
 5    1  0.1764318E-003  0.9118800E+02  0.7818608E-02  0.1130116E+00
         25   -1    0    0    0    0  0.00000000000E+00  0.00000000000E+00  0.99999998245E-14  0.12500000000E+03  0.12500000000E+03 0.  0.
        -13    1    3    3    0    0  0.15106852780E+02  0.17802622366E+02 -0.38820632350E+02  0.45301247490E+02  0.10566000000E+00 0. -1.
         23    2    1    0    0    0  0.27317194666E+01 -0.24882261840E+02 -0.16349543934E+02  0.95101892495E+02  0.90279970778E+02 0.  0.
         13    1    3    3    0    0 -0.12375133314E+02 -0.42684884206E+02  0.22471088416E+02  0.49800645005E+02  0.10566000000E+00 0.  1.
         22    1    1    0    0    0 -0.27317194666E+01  0.24882261840E+02  0.16349543934E+02  0.29898107505E+02  0.00000000000E+00 0. -1.
</event>
<event>
 5    1  0.1764318E-003  0.9118800E+02  0.7818608E-02  0.1130116E+00
         25   -1    0    0    0    0  0.00000000000E+00  0.00000000000E+00  0.99999998245E-14  0.12500000000E+03  0.12500000000E+03 0.  0.
        -13    1    3    3    0    0  0.50374276735E+02  0.12781479673E+02 -0.34190016222E+02  0.62208539225E+02  0.10566000000E+00 0. -1.
         23    2    1    0    0    0  0.22033964847E+02  0.99749052800E+01 -0.15492161804E+02  0.96277162056E+02  0.91892820796E+02 0.  0.
         13    1    3    3    0    0 -0.28340311888E+02 -0.28065743933E+01  0.18697854418E+02  0.34068622831E+02  0.10566000000E+00 0.  1.
         22    1    1    0    0    0 -0.22033964847E+02 -0.99749052800E+01  0.15492161804E+02  0.28722837944E+02  0.00000000000E+00 0. -1.
</event>
<event>
 5    1  0.1764318E-003  0.9118800E+02  0.7818608E-02  0.1130116E+00
         25   -1    0    0    0    0  0.00000000000E+00  0.00000000000E+00  0.99999998245E-14  0.12500000000E+03  0.12500000000E+03 0.  0.
        -13    1    3    3    0    0  0.97291319741E+01  0.57360999826E+01  0.32097343520E+02  0.34026599552E+02  0.10566000000E+00 0.  1.
         23    2    1    0    0    0 -0.13351530272E+02  0.27030947481E+01 -0.25466240420E+02  0.96119219488E+02  0.91677722878E+02 0.  0.
         13    1    3    3    0    0 -0.23080662246E+02 -0.30330052344E+01 -0.57563583940E+02  0.62092619936E+02  0.10566000000E+00 0. -1.
         22    1    1    0    0    0  0.13351530272E+02 -0.27030947481E+01  0.25466240420E+02  0.28880780512E+02  0.00000000000E+00 0. -1.
</event>
<event>
 5    1  0.1764318E-003  0.9118800E+02  0.7818608E-02  0.1130116E+00
         25   -1    0    0    0    0  0.00000000000E+00  0.00000000000E+00  0.99999998245E-14  0.12500000000E+03  0.12500000000E+03 0.  0.
        -13    1    3    3    0    0  0.37132591096E+01 -0.33190537331E+02 -0.51078087075E+01  0.33786105655E+02  0.10566000000E+00 0. -1.
         23    2    1    0    0    0  0.10647093428E+02  0.27729090559E+02 -0.18438582178E+00  0.95296514348E+02  0.90549039681E+02 0.  0.
         13    1    3    3    0    0  0.69338343185E+01  0.60919627890E+02  0.49234228857E+01  0.61510408693E+02  0.10566000000E+00 0.  1.
         22    1    1    0    0    0 -0.10647093428E+02 -0.27729090559E+02  0.18438582178E+00  0.29703485652E+02  0.00000000000E+00 0.  1.
</event>
<event>
 5    1  0.1764318E-003  0.9118800E+02  0.7818608E-02  0.1130116E+00
         25   -1    0    0    0    0  0.00000000000E+00  0.00000000000E+00  0.99999998245E-14  0.12500000000E+03  0.12500000000E+03 0.  0.
        -13    1    3    3    0    0 -0.14011351714E+02 -0.24956744179E+02  0.53757483158E+02  0.60901849040E+02  0.10566000000E+00 0. -1.
         23    2    1    0    0    0 -0.14367703764E+02 -0.15083715504E+02  0.19827597097E+02  0.96240949398E+02  0.91843548220E+02 0.  0.
         13    1    3    3    0    0 -0.35635205034E+00  0.98730286754E+01 -0.33929886061E+02  0.35339100359E+02  0.10566000000E+00 0.  1.
         22    1    1    0    0    0  0.14367703764E+02  0.15083715504E+02 -0.19827597097E+02  0.28759050602E+02  0.00000000000E+00 0. -1.
</event>
<event>
 5    1  0.1764318E-003  0.9118800E+02  0.7818608E-02  0.1130116E+00
         25   -1    0    0    0    0  0.00000000000E+00  0.00000000000E+00  0.99999998245E-14  0.12500000000E+03  0.12500000000E+03 0.  0.
        -13    1    3    3    0    0 -0.31573976108E+02 -0.10214187136E+02 -0.20533763750E+02  0.39024251484E+02  0.10566000000E+00 0.  1.
         23    2    1    0    0    0  0.87267827401E+01 -0.21081662846E+02  0.18081726166E+02  0.95887424255E+02  0.91361129940E+02 0.  0.
         13    1    3    3    0    0  0.40300758848E+02 -0.10867475710E+02  0.38615489916E+02  0.56863172771E+02  0.10566000000E+00 0. -1.
         22    1    1    0    0    0 -0.87267827401E+01  0.21081662846E+02 -0.18081726166E+02  0.29112575745E+02  0.00000000000E+00 0. -1.
</event>
<event>
 5    1  0.1764318E-003  0.9118800E+02  0.7818608E-02  0.1130116E+00
         25   -1    0    0    0    0  0.00000000000E+00  0.00000000000E+00  0.99999998245E-14  0.12500000000E+03  0.12500000000E+03 0.  0.
        -13    1    3    3    0    0  0.18455057099E+02 -0.40500596906E+02 -0.66023008556E+01  0.44994322118E+02  0.10566000000E+00 0.  1.
         23    2    1    0    0    0 -0.77767244967E+01 -0.40366911234E+01 -0.28655337232E+02  0.95035009244E+02  0.90187317906E+02 0.  0.
         13    1    3    3    0    0 -0.26231781595E+02  0.36463905783E+02 -0.22053036376E+02  0.50040687126E+02  0.10566000000E+00 0. -1.
         22    1    1    0    0    0  0.77767244967E+01  0.40366911234E+01  0.28655337232E+02  0.29964990756E+02  0.00000000000E+00 0. -1.
</event>
<event>
 5    1  0.1764318E-003  0.9118800E+02  0.7818608E-02  0.1130116E+00
         25   -1    0    0    0    0  0.00000000000E+00  0.00000000000E+00  0.99999998245E-14  0.12500000000E+03  0.12500000000E+03 0.  0.
        -13    1    3    3    0    0 -0.12775420307E+02  0.32581689515E+02  0.41462125721E+02  0.54257689677E+02  0.10566000000E+00 0.  1.
         23    2    1    0    0    0 -0.18691885771E+02  0.26620318579E+02  0.44992239583E+01  0.92162963423E+02  0.86114695934E+02 0.  0.
         13    1    3    3    0    0 -0.59164654638E+01 -0.59613709357E+01 -0.36962901763E+02  0.37905273746E+02  0.10566000000E+00 0. -1.
         22    1    1    0    0    0  0.18691885771E+02 -0.26620318579E+02 -0.44992239583E+01  0.32837036577E+02  0.00000000000E+00 0.  1.
</event>
<event>
 5    1  0.1764318E-003  0.9118800E+02  0.7818608E-02  0.1130116E+00
         25   -1    0    0    0    0  0.00000000000E+00  0.00000000000E+00  0.99999998245E-14  0.12500000000E+03  0.12500000000E+03 0.  0.
        -13    1    3    3    0    0  0.44682068176E+01  0.48571091126E+02 -0.16866749599E+02  0.51610213829E+02  0.10566000000E+00 0. -1.
         23    2    1    0    0    0 -0.20167993341E+02  0.11512949487E+02 -0.17182921637E+02  0.96111442450E+02  0.91667118492E+02 0.  0.
         13    1    3    3    0    0 -0.24636200159E+02 -0.37058141640E+02 -0.31617203848E+00  0.44501228622E+02  0.10566000000E+00 0.  1.
         22    1    1    0    0    0  0.20167993341E+02 -0.11512949487E+02  0.17182921637E+02  0.28888557550E+02  0.00000000000E+00 0. -1.
</event>
<event>
 5    1  0.1764318E-003  0.9118800E+02  0.7818608E-02  0.1130116E+00
         25   -1    0    0    0    0  0.00000000000E+00  0.00000000000E+00  0.99999998245E-14  0.12500000000E+03  0.12500000000E+03 0.  0.
        -13    1    3    3    0    0  0.32691851428E+02 -0.10924376290E+02 -0.97673375102E+01  0.35826124451E+02  0.10566000000E+00 0.  1.
         23    2    1    0    0    0 -0.23091667011E+02  0.13576221071E+02 -0.89464191079E+01  0.96758589292E+02  0.92545379804E+02 0.  0.
         13    1    3    3    0    0 -0.55783518440E+02  0.24500597360E+02  0.82091840239E+00  0.60932464841E+02  0.10566000000E+00 0. -1.
         22    1    1    0    0    0  0.23091667011E+02 -0.13576221071E+02  0.89464191079E+01  0.28241410708E+02  0.00000000000E+00 0. -1.
</event>
<event>
 5    1  0.1764318E-003  0.9118800E+02  0.7818608E-02  0.1130116E+00
         25   -1    0    0    0    0  0.00000000000E+00  0.00000000000E+00  0.99999998245E-14  0.12500000000E+03  0.12500000000E+03 0.  0.
        -13    1    3    3    0    0 -0.22320606690E+02  0.12121359062E+02  0.50439132818E+02  0.56473481493E+02  0.10566000000E+00 0. -1.
         23    2    1    0    0    0 -0.25159490384E+02 -0.33484632711E+01  0.14345745807E+02  0.95845024688E+02  0.91303100561E+02 0.  0.
         13    1    3    3    0    0 -0.28388836936E+01 -0.15469822333E+02 -0.36093387011E+02  0.39371543195E+02  0.10566000000E+00 0.  1.
         22    1    1    0    0    0  0.25159490384E+02  0.33484632711E+01 -0.14345745807E+02  0.29154975312E+02  0.00000000000E+00 0. -1.
</event>
<event>
 5    1  0.1764318E-003  0.9118800E+02  0.7818608E-02  0.1130116E+00
         25   -1    0    0    0    0  0.00000000000E+00  0.00000000000E+00  0.99999998245E-14  0.12500000000E+03  0.12500000000E+03 0.  0.
        -13    1    3    3    0    0  0.38477153353E+02 -0.37156248735E+02 -0.84090452126E+01  0.54146111178E+02  0.10566000000E+00 0.  1.
         23    2    1    0    0    0  0.24869985774E+02  0.27184895648E+01  0.70210629705E+01  0.99015356398E+02  0.95544958525E+02 0.  0.
         13    1    3    3    0    0 -0.13607167580E+02  0.39874738300E+02  0.15430108183E+02  0.44869245220E+02  0.10566000000E+00 0. -1.
         22    1    1    0    0    0 -0.24869985774E+02 -0.27184895648E+01 -0.70210629705E+01  0.25984643602E+02  0.00000000000E+00 0.  1.
</event>
<event>
 5    1  0.1764318E-003  0.9118800E+02  0.7818608E-02  0.1130116E+00
         25   -1    0    0    0    0  0.00000000000E+00  0.00000000000E+00  0.99999998245E-14  0.12500000000E+03  0.12500000000E+03 0.  0.
        -13    1    3    3    0    0  0.11369309913E+02 -0.33984726509E+02 -0.27935138434E+02  0.45437935331E+02  0.10566000000E+00 0. -1.
         23    2    1    0    0    0 -0.23128716408E+02 -0.38961050397E+01 -0.24094224167E+02  0.91374878507E+02  0.84963048597E+02 0.  0.
         13    1    3    3    0    0 -0.34498026321E+02  0.30088621469E+02  0.38409142666E+01  0.45936943177E+02  0.10566000000E+00 0.  1.
         22    1    1    0    0    0  0.23128716408E+02  0.38961050397E+01  0.24094224167E+02  0.33625121493E+02  0.00000000000E+00 0.  1.
</event>
<event>
 5    1  0.1764318E-003  0.9118800E+02  0.7818608E-02  0.1130116E+00
         25   -1    0    0    0    0  0.00000000000E+00  0.00000000000E+00  0.99999998245E-14  0.12500000000E+03  0.12500000000E+03 0.  0.
        -13    1    3    3    0    0  0.58299644862E+02 -0.87552621134E+01  0.18491057175E+02  0.61785383103E+02  0.10566000000E+00 0.  1.
         23    2    1    0    0    0  0.28025336765E+02  0.23076913999E+01  0.68315460438E+01  0.96061877018E+02  0.91599504663E+02 0.  0.
         13    1    3    3    0    0 -0.30274308097E+02  0.11062953513E+02 -0.11659511131E+02  0.34276493914E+02  0.10566000000E+00 0. -1.
         22    1    1    0    0    0 -0.28025336765E+02 -0.23076913999E+01 -0.68315460438E+01  0.28938122982E+02  0.00000000000E+00 0.  1.
</event>
<event>
 5    1  0.1764318E-003  0.9118800E+02  0.7818608E-02  0.1130116E+00
         25   -1    0    0    0    0  0.00000000000E+00  0.00000000000E+00  0.99999998245E-14  0.12500000000E+03  0.12500000000E+03 0.  0.
        -13    1    3    3    0    0 -0.36709198176E+02  0.35334042937E+01  0.39890094846E+02  0.54325693806E+02  0.10566000000E+00 0.  1.
         23    2    1    0    0    0 -0.85627156257E+01 -0.19726538393E+02  0.18425331848E+02  0.96681291174E+02  0.92440915149E+02 0.  0.
         13    1    3    3    0    0  0.28146482551E+02 -0.23259942687E+02 -0.21464762999E+02  0.42355597368E+02  0.10566000000E+00 0. -1.
         22    1    1    0    0    0  0.85627156257E+01  0.19726538393E+02 -0.18425331848E+02  0.28318708826E+02  0.00000000000E+00 0.  1.
</event>
<event>
 5    1  0.1764318E-003  0.9118800E+02  0.7818608E-02  0.1130116E+00
         25   -1    0    0    0    0  0.00000000000E+00  0.00000000000E+00  0.99999998245E-14  0.12500000000E+03  0.12500000000E+03 0.  0.
        -13    1    3    3    0    0 -0.11300346946E+02  0.38596967565E+02 -0.54779707468E+01  0.40588706235E+02  0.10566000000E+00 0.  1.
         23    2    1    0    0    0  0.28448273723E+02 -0.38066937842E+00 -0.39131197683E+01  0.96281335454E+02  0.91898497613E+02 0.  0.
         13    1    3    3    0    0  0.39748620668E+02 -0.38977636943E+02  0.15648509785E+01  0.55692629219E+02  0.10566000000E+00 0. -1.
         22    1    1    0    0    0 -0.28448273723E+02  0.38066937842E+00  0.39131197683E+01  0.28718664546E+02  0.00000000000E+00 0. -1.
</event>
<event>
 5    1  0.1764318E-003  0.9118800E+02  0.7818608E-02  0.1130116E+00
         25   -1    0    0    0    0  0.00000000000E+00  0.00000000000E+00  0.99999998245E-14  0.12500000000E+03  0.12500000000E+03 0.  0.
        -13    1    3    3    0    0 -0.26918608180E+02  0.29947794777E+02 -0.66274008711E+01  0.40809502383E+02  0.10566000000E+00 0. -1.
         23    2    1    0    0    0  0.25207161578E+02  0.90916810823E+01 -0.82057697801E+01  0.96975112535E+02  0.92837374660E+02 0.  0.
         13    1    3    3    0    0  0.52125769759E+02 -0.20856113695E+02 -0.15783689089E+01  0.56165610153E+02  0.10566000000E+00 0.  1.
         22    1    1    0    0    0 -0.25207161578E+02 -0.90916810823E+01  0.82057697801E+01  0.28024887465E+02  0.00000000000E+00 0. -1.
</event>
<event>
 5    1  0.1764318E-003  0.9118800E+02  0.7818608E-02  0.1130116E+00
         25   -1    0    0    0    0  0.00000000000E+00  0.00000000000E+00  0.99999998245E-14  0.12500000000E+03  0.12500000000E+03 0.  0.
        -13    1    3    3    0    0  0.19014897670E+02  0.26866456014E+01  0.40524983315E+02  0.44844953281E+02  0.10566000000E+00 0.  1.
         23    2    1    0    0    0  0.10955620972E+02 -0.27886661695E+02  0.15963634566E+01  0.94996001805E+02  0.90133237218E+02 0.  0.
         13    1    3    3    0    0 -0.80592766989E+01 -0.30573307297E+02 -0.38928619859E+02  0.50151048525E+02  0.10566000000E+00 0. -1.
         22    1    1    0    0    0 -0.10955620972E+02  0.27886661695E+02 -0.15963634566E+01  0.30003998195E+02  0.00000000000E+00 0. -1.
</event>
<event>
 5    1  0.1764318E-003  0.9118800E+02  0.7818608E-02  0.1130116E+00
         25   -1    0    0    0    0  0.00000000000E+00  0.00000000000E+00  0.99999998245E-14  0.12500000000E+03  0.12500000000E+03 0.  0.
        -13    1    3    3    0    0  0.14016531379E+02  0.51796967005E+01 -0.29336620750E+02  0.32923257598E+02  0.10566000000E+00 0.  1.
         23    2    1    0    0    0 -0.27596884059E+02 -0.49946143296E+00  0.14659163730E+02  0.93747343269E+02  0.88384590383E+02 0.  0.
         13    1    3    3    0    0 -0.41613415439E+02 -0.56791581334E+01  0.43995784480E+02  0.60824085670E+02  0.10566000000E+00 0. -1.
         22    1    1    0    0    0  0.27596884059E+02  0.49946143296E+00 -0.14659163730E+02  0.31252656731E+02  0.00000000000E+00 0. -1.
</event>
<event>
 5    1  0.1764318E-003  0.9118800E+02  0.7818608E-02  0.1130116E+00
         25   -1    0    0    0    0  0.00000000000E+00  0.00000000000E+00  0.99999998245E-14  0.12500000000E+03  0.12500000000E+03 0.  0.
        -13    1    3    3    0    0  0.49969830402E+02 -0.17122424807E+02  0.67284464196E+01  0.53248892354E+02  0.10566000000E+00 0.  1.
         23    2    1    0    0    0  0.12623501197E+02 -0.43284933136E+01  0.24932210664E+02  0.96720965975E+02  0.92494548454E+02 0.  0.
         13    1    3    3    0    0 -0.37346329205E+02  0.12793931493E+02  0.18203764244E+02  0.43472073620E+02  0.10566000000E+00 0. -1.
         22    1    1    0    0    0 -0.12623501197E+02  0.43284933136E+01 -0.24932210664E+02  0.28279034025E+02  0.00000000000E+00 0.  1.
</event>
<event>
 5    1  0.1764318E-003  0.9118800E+02  0.7818608E-02  0.1130116E+00
         25   -1    0    0    0    0  0.00000000000E+00  0.00000000000E+00  0.99999998245E-14  0.12500000000E+03  0.12500000000E+03 0.  0.
        -13    1    3    3    0    0 -0.21973791547E+02 -0.53587859978E+01 -0.46587361037E+02  0.51787618933E+02  0.10566000000E+00 0.  1.
         23    2    1    0    0    0  0.15902580464E+02 -0.50849285018E+01 -0.23588553720E+02  0.96100719216E+02  0.91652494804E+02 0.  0.
         13    1    3    3    0    0  0.37876372011E+02  0.27385749598E+00  0.22998807317E+02  0.44313100283E+02  0.10566000000E+00 0. -1.
         22    1    1    0    0    0 -0.15902580464E+02  0.50849285018E+01  0.23588553720E+02  0.28899280784E+02  0.00000000000E+00 0.  1.
</event>
<event>
 5    1  0.1764318E-003  0.9118800E+02  0.7818608E-02  0.1130116E+00
         25   -1    0    0    0    0  0.00000000000E+00  0.00000000000E+00  0.99999998245E-14  0.12500000000E+03  0.12500000000E+03 0.  0.
        -13    1    3    3    0    0  0.90580238468E+01  0.63598917841E+01 -0.58847842618E+02  0.59879677390E+02  0.10566000000E+00 0. -1.
         23    2    1    0    0    0  0.16745888495E+02  0.14401017622E+01 -0.25462487273E+02  0.94490379670E+02  0.89429273269E+02 0.  0.
         13    1    3    3    0    0  0.76878646486E+01 -0.49197900219E+01  0.33385355345E+02  0.34610702279E+02  0.10566000000E+00 0.  1.
         22    1    1    0    0    0 -0.16745888495E+02 -0.14401017622E+01  0.25462487273E+02  0.30509620330E+02  0.00000000000E+00 0. -1.
</event>
<event>
 5    1  0.1764318E-003  0.9118800E+02  0.7818608E-02  0.1130116E+00
         25   -1    0    0    0    0  0.00000000000E+00  0.00000000000E+00  0.99999998245E-14  0.12500000000E+03  0.12500000000E+03 0.  0.
        -13    1    3    3    0    0 -0.19747003750E+01 -0.28763212285E+02 -0.13699252043E+02  0.31920252084E+02  0.10566000000E+00 0. -1.
         23    2    1    0    0    0  0.15998967201E+02  0.24372416885E+02  0.11813585175E+02  0.93543006326E+02  0.88095128024E+02 0.  0.
         13    1    3    3    0    0  0.17973667576E+02  0.53135629170E+02  0.25512837218E+02  0.61622754242E+02  0.10566000000E+00 0.  1.
         22    1    1    0    0    0 -0.15998967201E+02 -0.24372416885E+02 -0.11813585175E+02  0.31456993674E+02  0.00000000000E+00 0.  1.
</event>
<event>
 5    1  0.1764318E-003  0.9118800E+02  0.7818608E-02  0.1130116E+00
         25   -1    0    0    0    0  0.00000000000E+00  0.00000000000E+00  0.99999998245E-14  0.12500000000E+03  0.12500000000E+03 0.  0.
        -13    1    3    3    0    0 -0.34161780844E+02  0.17372175583E+02  0.21366691970E+02  0.43878997763E+02  0.10566000000E+00 0.  1.
         23    2    1    0    0    0 -0.13207297693E+02 -0.26515590835E+02  0.81159236254E+01  0.94285549233E+02  0.89142511229E+02 0.  0.
         13    1    3    3    0    0  0.20954483151E+02 -0.43887766418E+02 -0.13250768345E+02  0.50406551469E+02  0.10566000000E+00 0. -1.
         22    1    1    0    0    0  0.13207297693E+02  0.26515590835E+02 -0.81159236254E+01  0.30714450767E+02  0.00000000000E+00 0. -1.
</event>
<event>
 5    1  0.1764318E-003  0.9118800E+02  0.7818608E-02  0.1130116E+00
         25   -1    0    0    0    0  0.00000000000E+00  0.00000000000E+00  0.99999998245E-14  0.12500000000E+03  0.12500000000E+03 0.  0.
        -13    1    3    3    0    0 -0.54620372934E+02  0.89235609014E+01  0.28867083574E+02  0.62420627654E+02  0.10566000000E+00 0. -1.
         23    2    1    0    0    0 -0.27402017698E+02  0.22227991018E+01  0.14401459079E+02  0.93964319995E+02  0.88690923994E+02 0.  0.
         13    1    3    3    0    0  0.27218355236E+02 -0.67007617996E+01 -0.14465624495E+02  0.31543692341E+02  0.10566000000E+00 0.  1.
         22    1    1    0    0    0  0.27402017698E+02 -0.22227991018E+01 -0.14401459079E+02  0.31035680005E+02  0.00000000000E+00 0. -1.
</event>
<event>
 5    1  0.1764318E-003  0.9118800E+02  0.7818608E-02  0.1130116E+00
         25   -1    0    0    0    0  0.00000000000E+00  0.00000000000E+00  0.99999998245E-14  0.12500000000E+03  0.12500000000E+03 0.  0.
        -13    1    3    3    0    0  0.90911774193E+01 -0.11956310355E+02  0.59480718312E+02  0.61347941115E+02  0.10566000000E+00 0.  1.
         23    2    1    0    0    0 -0.59845581345E+00 -0.12909960854E+02  0.34392833159E+02  0.88259120705E+02  0.80248240955E+02 0.  0.
         13    1    3    3    0    0 -0.96896332328E+01 -0.95365049911E+00 -0.25087885153E+02  0.26911179590E+02  0.10566000000E+00 0. -1.
         22    1    1    0    0    0  0.59845581345E+00  0.12909960854E+02 -0.34392833159E+02  0.36740879295E+02  0.00000000000E+00 0.  1.
</event>
<event>
 5    1  0.1764318E-003  0.9118800E+02  0.7818608E-02  0.1130116E+00
         25   -1    0    0    0    0  0.00000000000E+00  0.00000000000E+00  0.99999998245E-14  0.12500000000E+03  0.12500000000E+03 0.  0.
        -13    1    3    3    0    0  0.26323501077E+02 -0.16193059916E+02 -0.15570857283E+02  0.34606425111E+02  0.10566000000E+00 0. -1.
         23    2    1    0    0    0 -0.27694956054E+02 -0.11111865819E+01  0.90296743698E+01  0.95849007810E+02  0.91308553556E+02 0.  0.
         13    1    3    3    0    0 -0.54018457130E+02  0.15081873334E+02  0.24600531653E+02  0.61242582699E+02  0.10566000000E+00 0.  1.
         22    1    1    0    0    0  0.27694956054E+02  0.11111865819E+01 -0.90296743698E+01  0.29150992190E+02  0.00000000000E+00 0.  1.
</event>
<event>
 5    1  0.1764318E-003  0.9118800E+02  0.7818608E-02  0.1130116E+00
         25   -1    0    0    0    0  0.00000000000E+00  0.00000000000E+00  0.99999998245E-14  0.12500000000E+03  0.12500000000E+03 0.  0.
        -13    1    3    3    0    0  0.44941738963E+01 -0.26835056906E+02  0.18651839503E+02  0.32988182112E+02  0.10566000000E+00 0. -1.
         23    2    1    0    0    0 -0.14322326426E+02  0.27527793039E+02 -0.14736074620E+01  0.93934264168E+02  0.88648553525E+02 0.  0.
         13    1    3    3    0    0 -0.18816500322E+02  0.54362849944E+02 -0.20125446965E+02  0.60946082056E+02  0.10566000000E+00 0.  1.
         22    1    1    0    0    0  0.14322326426E+02 -0.27527793039E+02  0.14736074620E+01  0.31065735832E+02  0.00000000000E+00 0.  1.
</event>
<event>
 5    1  0.1764318E-003  0.9118800E+02  0.7818608E-02  0.1130116E+00
         25   -1    0    0    0    0  0.00000000000E+00  0.00000000000E+00  0.99999998245E-14  0.12500000000E+03  0.12500000000E+03 0.  0.
        -13    1    3    3    0    0  0.20788519274E+01  0.14077074091E+02 -0.51379949194E+02  0.53314125553E+02  0.10566000000E+00 0.  1.
         23    2    1    0    0    0 -0.16066958536E+02 -0.92488593416E+01 -0.29786537300E+02  0.89915439862E+02  0.82788042407E+02 0.  0.
         13    1    3    3    0    0 -0.18145810463E+02 -0.23325933433E+02  0.21593411894E+02  0.36601314309E+02  0.10566000000E+00 0. -1.
         22    1    1    0    0    0  0.16066958536E+02  0.92488593416E+01  0.29786537300E+02  0.35084560138E+02  0.00000000000E+00 0.  1.
</event>
<event>
 5    1  0.1764318E-003  0.9118800E+02  0.7818608E-02  0.1130116E+00
         25   -1    0    0    0    0  0.00000000000E+00  0.00000000000E+00  0.99999998245E-14  0.12500000000E+03  0.12500000000E+03 0.  0.
        -13    1    3    3    0    0  0.20486999039E+02  0.23507245635E+02  0.22894478735E+02  0.38684312680E+02  0.10566000000E+00 0.  1.
         23    2    1    0    0    0 -0.28168535647E+02  0.36135891196E+01 -0.13437230384E+01  0.96568854782E+02  0.92288751728E+02 0.  0.
         13    1    3    3    0    0 -0.48655534686E+02 -0.19893656515E+02 -0.24238201773E+02  0.57884542102E+02  0.10566000000E+00 0. -1.
         22    1    1    0    0    0  0.28168535647E+02 -0.36135891196E+01  0.13437230384E+01  0.28431145218E+02  0.00000000000E+00 0. -1.
</event>
<event>
 5    1  0.1764318E-003  0.9118800E+02  0.7818608E-02  0.1130116E+00
         25   -1    0    0    0    0  0.00000000000E+00  0.00000000000E+00  0.99999998245E-14  0.12500000000E+03  0.12500000000E+03 0.  0.
        -13    1    3    3    0    0  0.12837141411E+02 -0.17021447524E+02  0.42826983162E+02  0.47840187355E+02  0.10566000000E+00 0. -1.
         23    2    1    0    0    0 -0.15988934138E+02  0.13972118123E+02  0.19508338053E+02  0.96165275217E+02  0.91740497079E+02 0.  0.
         13    1    3    3    0    0 -0.28826075550E+02  0.30993565646E+02 -0.23318645109E+02  0.48325087861E+02  0.10566000000E+00 0.  1.
         22    1    1    0    0    0  0.15988934138E+02 -0.13972118123E+02 -0.19508338053E+02  0.28834724783E+02  0.00000000000E+00 0. -1.
</event>
<event>
 5    1  0.1764318E-003  0.9118800E+02  0.7818608E-02  0.1130116E+00
         25   -1    0    0    0    0  0.00000000000E+00  0.00000000000E+00  0.99999998245E-14  0.12500000000E+03  0.12500000000E+03 0.  0.
        -13    1    3    3    0    0  0.30798322402E+02 -0.33147670731E+01 -0.28613464249E+02  0.42169489491E+02  0.10566000000E+00 0. -1.
         23    2    1    0    0    0  0.79552691550E+01  0.27397343733E+02 -0.33771266956E+02  0.80791412341E+02  0.67622873980E+02 0.  0.
         13    1    3    3    0    0 -0.22843053247E+02  0.30712110807E+02 -0.51578027068E+01  0.38621922850E+02  0.10566000000E+00 0.  1.
         22    1    1    0    0    0 -0.79552691550E+01 -0.27397343733E+02  0.33771266956E+02  0.44208587659E+02  0.00000000000E+00 0. -1.
</event>
<event>
 5    1  0.1764318E-003  0.9118800E+02  0.7818608E-02  0.1130116E+00
         25   -1    0    0    0    0  0.00000000000E+00  0.00000000000E+00  0.99999998245E-14  0.12500000000E+03  0.12500000000E+03 0.  0.
        -13    1    3    3    0    0 -0.51529115191E+02 -0.74301081166E+01  0.20195901567E+02  0.55842115138E+02  0.10566000000E+00 0. -1.
         23    2    1    0    0    0 -0.27962853551E+02 -0.12177323105E+02  0.30381410214E+02  0.81950743754E+02  0.69732961636E+02 0.  0.
         13    1    3    3    0    0  0.23566261639E+02 -0.47472149880E+01  0.10185508647E+02  0.26108628616E+02  0.10566000000E+00 0.  1.
         22    1    1    0    0    0  0.27962853551E+02  0.12177323105E+02 -0.30381410214E+02  0.43049256246E+02  0.00000000000E+00 0. -1.
</event>
<event>
 5    1  0.1764318E-003  0.9118800E+02  0.7818608E-02  0.1130116E+00
         25   -1    0    0    0    0  0.00000000000E+00  0.00000000000E+00  0.99999998245E-14  0.12500000000E+03  0.12500000000E+03 0.  0.
        -13    1    3    3    0    0  0.36700568627E+02  0.84573753608E+01  0.10069430335E+01  0.37676040581E+02  0.10566000000E+00 0. -1.
         23    2    1    0    0    0  0.20501525329E+01  0.33718478375E+02 -0.20331270566E+02  0.85572858687E+02  0.75948763464E+02 0.  0.
         13    1    3    3    0    0 -0.34650416094E+02  0.25261103014E+02 -0.21338213599E+02  0.47896818106E+02  0.10566000000E+00 0.  1.
         22    1    1    0    0    0 -0.20501525329E+01 -0.33718478375E+02  0.20331270566E+02  0.39427141313E+02  0.00000000000E+00 0.  1.
</event>
<event>
 5    1  0.1764318E-003  0.9118800E+02  0.7818608E-02  0.1130116E+00
         25   -1    0    0    0    0  0.00000000000E+00  0.00000000000E+00  0.99999998245E-14  0.12500000000E+03  0.12500000000E+03 0.  0.
        -13    1    3    3    0    0  0.34900654278E+02 -0.57494780272E+01 -0.15217346563E+02  0.38505726419E+02  0.10566000000E+00 0. -1.
         23    2    1    0    0    0 -0.23614355648E+01  0.95621296843E+01  0.26638444886E+02  0.96598988610E+02  0.92329557307E+02 0.  0.
         13    1    3    3    0    0 -0.37262089843E+02  0.15311607712E+02  0.41855791449E+02  0.58093262191E+02  0.10566000000E+00 0.  1.
         22    1    1    0    0    0  0.23614355648E+01 -0.95621296843E+01 -0.26638444886E+02  0.28401011390E+02  0.00000000000E+00 0.  1.
</event>
<event>
 5    1  0.1764318E-003  0.9118800E+02  0.7818608E-02  0.1130116E+00
         25   -1    0    0    0    0  0.00000000000E+00  0.00000000000E+00  0.99999998245E-14  0.12500000000E+03  0.12500000000E+03 0.  0.
        -13    1    3    3    0    0 -0.40962155888E+02  0.26404193069E+02 -0.64854717614E+01  0.49164541436E+02  0.10566000000E+00 0.  1.
         23    2    1    0    0    0 -0.19155682364E+01  0.33931111387E+02  0.52180384162E+01  0.90616607984E+02  0.83840038144E+02 0.  0.
         13    1    3    3    0    0  0.39046587652E+02  0.75269183178E+01  0.11703510178E+02  0.41452066548E+02  0.10566000000E+00 0. -1.
         22    1    1    0    0    0  0.19155682364E+01 -0.33931111387E+02 -0.52180384162E+01  0.34383392016E+02  0.00000000000E+00 0.  1.
</event>
<event>
 5    1  0.1764318E-003  0.9118800E+02  0.7818608E-02  0.1130116E+00
         25   -1    0    0    0    0  0.00000000000E+00  0.00000000000E+00  0.99999998245E-14  0.12500000000E+03  0.12500000000E+03 0.  0.
        -13    1    3    3    0    0 -0.16161321410E+02 -0.57485468019E+01 -0.54392478984E+02  0.57033209923E+02  0.10566000000E+00 0.  1.
         23    2    1    0    0    0 -0.20127719669E+02  0.81990352043E+01 -0.16179016762E+02  0.97905538191E+02  0.94081797111E+02 0.  0.
         13    1    3    3    0    0 -0.39663982589E+01  0.13947582006E+02  0.38213462222E+02  0.40872328268E+02  0.10566000000E+00 0. -1.
         22    1    1    0    0    0  0.20127719669E+02 -0.81990352043E+01  0.16179016762E+02  0.27094461809E+02  0.00000000000E+00 0.  1.
</event>
<event>
 5    1  0.1764318E-003  0.9118800E+02  0.7818608E-02  0.1130116E+00
         25   -1    0    0    0    0  0.00000000000E+00  0.00000000000E+00  0.99999998245E-14  0.12500000000E+03  0.12500000000E+03 0.  0.
        -13    1    3    3    0    0 -0.19774575617E+02 -0.32763240337E+02 -0.48649008323E+01  0.38576445953E+02  0.10566000000E+00 0.  1.
         23    2    1    0    0    0  0.14915301502E+02  0.96292890568E+01 -0.22698253481E+02  0.96183335763E+02  0.91765101977E+02 0.  0.
         13    1    3    3    0    0  0.34689877119E+02  0.42392529393E+02 -0.17833352649E+02  0.57606889811E+02  0.10566000000E+00 0. -1.
         22    1    1    0    0    0 -0.14915301502E+02 -0.96292890568E+01  0.22698253481E+02  0.28816664237E+02  0.00000000000E+00 0. -1.
</event>
<event>
 5    1  0.1764318E-003  0.9118800E+02  0.7818608E-02  0.1130116E+00
         25   -1    0    0    0    0  0.00000000000E+00  0.00000000000E+00  0.99999998245E-14  0.12500000000E+03  0.12500000000E+03 0.  0.
        -13    1    3    3    0    0 -0.32764038319E+02  0.27115133382E+02 -0.39323550151E+02  0.57922926599E+02  0.10566000000E+00 0. -1.
         23    2    1    0    0    0 -0.22103436806E+01  0.23202224381E+02 -0.20019046570E+02  0.94275562479E+02  0.89128506213E+02 0.  0.
         13    1    3    3    0    0  0.30553694639E+02 -0.39129090010E+01  0.19304503581E+02  0.36352635881E+02  0.10566000000E+00 0.  1.
         22    1    1    0    0    0  0.22103436806E+01 -0.23202224381E+02  0.20019046570E+02  0.30724437521E+02  0.00000000000E+00 0. -1.
</event>
<event>
 5    1  0.1764318E-003  0.9118800E+02  0.7818608E-02  0.1130116E+00
         25   -1    0    0    0    0  0.00000000000E+00  0.00000000000E+00  0.99999998245E-14  0.12500000000E+03  0.12500000000E+03 0.  0.
        -13    1    3    3    0    0  0.42338809156E+02 -0.29353539442E+02 -0.89490562412E+01  0.52290551825E+02  0.10566000000E+00 0. -1.
         23    2    1    0    0    0  0.13825511614E+01 -0.22977823080E+02 -0.19240247454E+02  0.94998684641E+02  0.90136957793E+02 0.  0.
         13    1    3    3    0    0 -0.40956257994E+02  0.63757163621E+01 -0.10291191213E+02  0.42708132816E+02  0.10566000000E+00 0.  1.
         22    1    1    0    0    0 -0.13825511614E+01  0.22977823080E+02  0.19240247454E+02  0.30001315359E+02  0.00000000000E+00 0. -1.
</event>
<event>
 5    1  0.1764318E-003  0.9118800E+02  0.7818608E-02  0.1130116E+00
         25   -1    0    0    0    0  0.00000000000E+00  0.00000000000E+00  0.99999998245E-14  0.12500000000E+03  0.12500000000E+03 0.  0.
        -13    1    3    3    0    0  0.44893770958E+02 -0.38074967441E+02  0.15908127005E+02  0.60977319433E+02  0.10566000000E+00 0. -1.
         23    2    1    0    0    0  0.14472785491E+02 -0.24786015624E+02  0.54292863335E+01  0.95788953451E+02  0.91226303020E+02 0.  0.
         13    1    3    3    0    0 -0.30420985466E+02  0.13288951817E+02 -0.10478840671E+02  0.34811634018E+02  0.10566000000E+00 0.  1.
         22    1    1    0    0    0 -0.14472785491E+02  0.24786015624E+02 -0.54292863335E+01  0.29211046549E+02  0.00000000000E+00 0. -1.
</event>
<event>
 5    1  0.1764318E-003  0.9118800E+02  0.7818608E-02  0.1130116E+00
         25   -1    0    0    0    0  0.00000000000E+00  0.00000000000E+00  0.99999998245E-14  0.12500000000E+03  0.12500000000E+03 0.  0.
        -13    1    3    3    0    0  0.46342755021E+01  0.73319345588E+01 -0.39627007567E+02  0.40565313589E+02  0.10566000000E+00 0.  1.
         23    2    1    0    0    0  0.18460510208E+02 -0.21178576115E+02  0.61508387626E+01  0.96239691571E+02  0.91841836289E+02 0.  0.
         13    1    3    3    0    0  0.13826234706E+02 -0.28510510674E+02  0.45777846330E+02  0.55674377982E+02  0.10566000000E+00 0. -1.
         22    1    1    0    0    0 -0.18460510208E+02  0.21178576115E+02 -0.61508387626E+01  0.28760308429E+02  0.00000000000E+00 0. -1.
</event>
<event>
 5    1  0.1764318E-003  0.9118800E+02  0.7818608E-02  0.1130116E+00
         25   -1    0    0    0    0  0.00000000000E+00  0.00000000000E+00  0.99999998245E-14  0.12500000000E+03  0.12500000000E+03 0.  0.
        -13    1    3    3    0    0  0.32244551528E+02  0.20180331501E+02  0.21079478710E+02  0.43489222452E+02  0.10566000000E+00 0.  1.
         23    2    1    0    0    0 -0.13816917025E+02  0.10478729109E+02  0.28987947286E+02  0.91221130160E+02  0.84736547841E+02 0.  0.
         13    1    3    3    0    0 -0.46061468553E+02 -0.97016023917E+01  0.79084685764E+01  0.47731907708E+02  0.10566000000E+00 0. -1.
         22    1    1    0    0    0  0.13816917025E+02 -0.10478729109E+02 -0.28987947286E+02  0.33778869840E+02  0.00000000000E+00 0.  1.
</event>
<event>
 5    1  0.1764318E-003  0.9118800E+02  0.7818608E-02  0.1130116E+00
         25   -1    0    0    0    0  0.00000000000E+00  0.00000000000E+00  0.99999998245E-14  0.12500000000E+03  0.12500000000E+03 0.  0.
        -13    1    3    3    0    0  0.15937254174E+02  0.28549497115E+02  0.91354172080E+01  0.33949033384E+02  0.10566000000E+00 0. -1.
         23    2    1    0    0    0 -0.65252634338E+01 -0.28235174196E+02 -0.17075697921E+01  0.95970361364E+02  0.91474533838E+02 0.  0.
         13    1    3    3    0    0 -0.22462517608E+02 -0.56784671311E+02 -0.10842987000E+02  0.62021327979E+02  0.10566000000E+00 0.  1.
         22    1    1    0    0    0  0.65252634338E+01  0.28235174196E+02  0.17075697921E+01  0.29029638636E+02  0.00000000000E+00 0.  1.
</event>
<event>
 5    1  0.1764318E-003  0.9118800E+02  0.7818608E-02  0.1130116E+00
         25   -1    0    0    0    0  0.00000000000E+00  0.00000000000E+00  0.99999998245E-14  0.12500000000E+03  0.12500000000E+03 0.  0.
        -13    1    3    3    0    0 -0.45723838369E+02  0.41074283752E+02 -0.97283404260E+00  0.61471324624E+02  0.10566000000E+00 0.  1.
         23    2    1    0    0    0 -0.19443567350E+02  0.19148155283E+02  0.74372102475E+01  0.96715441345E+02  0.92487081997E+02 0.  0.
         13    1    3    3    0    0  0.26280271019E+02 -0.21926128469E+02  0.84100442901E+01  0.35244116721E+02  0.10566000000E+00 0. -1.
         22    1    1    0    0    0  0.19443567350E+02 -0.19148155283E+02 -0.74372102475E+01  0.28284558655E+02  0.00000000000E+00 0.  1.
</event>
<event>
 5    1  0.1764318E-003  0.9118800E+02  0.7818608E-02  0.1130116E+00
         25   -1    0    0    0    0  0.00000000000E+00  0.00000000000E+00  0.99999998245E-14  0.12500000000E+03  0.12500000000E+03 0.  0.
        -13    1    3    3    0    0  0.35182412159E+02 -0.45440887578E+02  0.70913434180E+00  0.57473388840E+02  0.10566000000E+00 0.  1.
         23    2    1    0    0    0  0.26067243855E+02 -0.57603727839E+01  0.21879044457E+01  0.98214369100E+02  0.94491228562E+02 0.  0.
         13    1    3    3    0    0 -0.91151683038E+01  0.39680514794E+02  0.14787701039E+01  0.40740980260E+02  0.10566000000E+00 0. -1.
         22    1    1    0    0    0 -0.26067243855E+02  0.57603727839E+01 -0.21879044457E+01  0.26785630900E+02  0.00000000000E+00 0.  1.
</event>
<event>
 5    1  0.1764318E-003  0.9118800E+02  0.7818608E-02  0.1130116E+00
         25   -1    0    0    0    0  0.00000000000E+00  0.00000000000E+00  0.99999998245E-14  0.12500000000E+03  0.12500000000E+03 0.  0.
        -13    1    3    3    0    0  0.69361599302E+01  0.36923356055E+02 -0.69393343277E+01  0.38204843435E+02  0.10566000000E+00 0.  1.
         23    2    1    0    0    0 -0.14108572551E+02 -0.16180666562E+02 -0.18705501579E+02  0.96526124620E+02  0.92230857933E+02 0.  0.
         13    1    3    3    0    0 -0.21044732481E+02 -0.53104022617E+02 -0.11766167252E+02  0.58321281185E+02  0.10566000000E+00 0. -1.
         22    1    1    0    0    0  0.14108572551E+02  0.16180666562E+02  0.18705501579E+02  0.28473875380E+02  0.00000000000E+00 0. -1.
</event>
<event>
 5    1  0.1764318E-003  0.9118800E+02  0.7818608E-02  0.1130116E+00
         25   -1    0    0    0    0  0.00000000000E+00  0.00000000000E+00  0.99999998245E-14  0.12500000000E+03  0.12500000000E+03 0.  0.
        -13    1    3    3    0    0  0.37379113465E+02  0.37395677677E+02 -0.16156775246E+02  0.55287316654E+02  0.10566000000E+00 0. -1.
         23    2    1    0    0    0  0.14150139891E+02  0.22383508498E+01 -0.22926140041E+02  0.97965862865E+02  0.94161912238E+02 0.  0.
         13    1    3    3    0    0 -0.23228973575E+02 -0.35157326827E+02 -0.67693647942E+01  0.42678546211E+02  0.10566000000E+00 0.  1.
         22    1    1    0    0    0 -0.14150139891E+02 -0.22383508498E+01  0.22926140041E+02  0.27034137135E+02  0.00000000000E+00 0. -1.
</event>
<event>
 5    1  0.1764318E-003  0.9118800E+02  0.7818608E-02  0.1130116E+00
         25   -1    0    0    0    0  0.00000000000E+00  0.00000000000E+00  0.99999998245E-14  0.12500000000E+03  0.12500000000E+03 0.  0.
        -13    1    3    3    0    0 -0.25790633669E+02 -0.25336744948E+02  0.33652656292E+02  0.49392508229E+02  0.10566000000E+00 0. -1.
         23    2    1    0    0    0 -0.21284709953E+02 -0.16051387541E+02 -0.11686937185E+02  0.95892090069E+02  0.91367513468E+02 0.  0.
         13    1    3    3    0    0  0.45059237156E+01  0.92853574070E+01 -0.45339593477E+02  0.46499581841E+02  0.10566000000E+00 0.  1.
         22    1    1    0    0    0  0.21284709953E+02  0.16051387541E+02  0.11686937185E+02  0.29107909931E+02  0.00000000000E+00 0. -1.
</event>
<event>
 5    1  0.1764318E-003  0.9118800E+02  0.7818608E-02  0.1130116E+00
         25   -1    0    0    0    0  0.00000000000E+00  0.00000000000E+00  0.99999998245E-14  0.12500000000E+03  0.12500000000E+03 0.  0.
        -13    1    3    3    0    0  0.29454977145E+02  0.52638038327E+02 -0.24409460427E+01  0.60368270964E+02  0.10566000000E+00 0.  1.
         23    2    1    0    0    0  0.23978059932E+02  0.19462344809E+02 -0.27569311780E+01  0.93994663474E+02  0.88733679448E+02 0.  0.
         13    1    3    3    0    0 -0.54769172127E+01 -0.33175693518E+02 -0.31598513522E+00  0.33626392510E+02  0.10566000000E+00 0. -1.
         22    1    1    0    0    0 -0.23978059932E+02 -0.19462344809E+02  0.27569311780E+01  0.31005336526E+02  0.00000000000E+00 0.  1.
</event>
<event>
 5    1  0.1764318E-003  0.9118800E+02  0.7818608E-02  0.1130116E+00
         25   -1    0    0    0    0  0.00000000000E+00  0.00000000000E+00  0.99999998245E-14  0.12500000000E+03  0.12500000000E+03 0.  0.
        -13    1    3    3    0    0  0.18246493170E+02  0.24726738611E+02  0.38976370157E+02  0.49633806121E+02  0.10566000000E+00 0.  1.
         23    2    1    0    0    0  0.88105779510E+00 -0.11818650529E+02  0.32237984667E+02  0.90652592258E+02  0.83893671183E+02 0.  0.
         13    1    3    3    0    0 -0.17365435375E+02 -0.36545389140E+02 -0.67383854903E+01  0.41018786138E+02  0.10566000000E+00 0. -1.
         22    1    1    0    0    0 -0.88105779510E+00  0.11818650529E+02 -0.32237984667E+02  0.34347407742E+02  0.00000000000E+00 0.  1.
</event>
<event>
 5    1  0.1764318E-003  0.9118800E+02  0.7818608E-02  0.1130116E+00
         25   -1    0    0    0    0  0.00000000000E+00  0.00000000000E+00  0.99999998245E-14  0.12500000000E+03  0.12500000000E+03 0.  0.
        -13    1    3    3    0    0 -0.91251960123E+01 -0.29481786063E+02 -0.25408641996E+02  0.39975682156E+02  0.10566000000E+00 0. -1.
         23    2    1    0    0    0 -0.23391378756E+02  0.97314003202E+00  0.18413101258E+02  0.95215005463E+02  0.90436449321E+02 0.  0.
         13    1    3    3    0    0 -0.14266182744E+02  0.30454926095E+02  0.43821743254E+02  0.55239323307E+02  0.10566000000E+00 0.  1.
         22    1    1    0    0    0  0.23391378756E+02 -0.97314003202E+00 -0.18413101258E+02  0.29784994537E+02  0.00000000000E+00 0.  1.
</event>
<event>
 5    1  0.1764318E-003  0.9118800E+02  0.7818608E-02  0.1130116E+00
         25   -1    0    0    0    0  0.00000000000E+00  0.00000000000E+00  0.99999998245E-14  0.12500000000E+03  0.12500000000E+03 0.  0.
        -13    1    3    3    0    0 -0.36437216289E+02  0.32016722550E+02  0.57156693603E+01  0.48840774912E+02  0.10566000000E+00 0. -1.
         23    2    1    0    0    0 -0.15535117543E+02 -0.49883337912E+00  0.27646915422E+02  0.93283432655E+02  0.87726040398E+02 0.  0.
         13    1    3    3    0    0  0.20902098747E+02 -0.32515555929E+02  0.21931246061E+02  0.44442657743E+02  0.10566000000E+00 0.  1.
         22    1    1    0    0    0  0.15535117543E+02  0.49883337912E+00 -0.27646915422E+02  0.31716567345E+02  0.00000000000E+00 0. -1.
</event>
<event>
 5    1  0.1764318E-003  0.9118800E+02  0.7818608E-02  0.1130116E+00
         25   -1    0    0    0    0  0.00000000000E+00  0.00000000000E+00  0.99999998245E-14  0.12500000000E+03  0.12500000000E+03 0.  0.
        -13    1    3    3    0    0  0.24287438350E+02 -0.28208114833E+02  0.48510933309E+02  0.61146538893E+02  0.10566000000E+00 0.  1.
         23    2    1    0    0    0  0.71503828235E+01 -0.55909572137E+01  0.26287255378E+02  0.97189811715E+02  0.93126005653E+02 0.  0.
         13    1    3    3    0    0 -0.17137055527E+02  0.22617157620E+02 -0.22223677931E+02  0.36043272822E+02  0.10566000000E+00 0. -1.
         22    1    1    0    0    0 -0.71503828235E+01  0.55909572137E+01 -0.26287255378E+02  0.27810188285E+02  0.00000000000E+00 0.  1.
</event>
<event>
 5    1  0.1764318E-003  0.9118800E+02  0.7818608E-02  0.1130116E+00
         25   -1    0    0    0    0  0.00000000000E+00  0.00000000000E+00  0.99999998245E-14  0.12500000000E+03  0.12500000000E+03 0.  0.
        -13    1    3    3    0    0  0.27411913915E+02  0.40353960880E+00 -0.53630503284E+02  0.60231369860E+02  0.10566000000E+00 0.  1.
         23    2    1    0    0    0  0.16338131944E+02 -0.10971140803E+02 -0.23014377033E+02  0.94718618985E+02  0.89747728363E+02 0.  0.
         13    1    3    3    0    0 -0.11073781971E+02 -0.11374680411E+02  0.30616126251E+02  0.34487249125E+02  0.10566000000E+00 0. -1.
         22    1    1    0    0    0 -0.16338131944E+02  0.10971140803E+02  0.23014377033E+02  0.30281381015E+02  0.00000000000E+00 0.  1.
</event>
<event>
 5    1  0.1764318E-003  0.9118800E+02  0.7818608E-02  0.1130116E+00
         25   -1    0    0    0    0  0.00000000000E+00  0.00000000000E+00  0.99999998245E-14  0.12500000000E+03  0.12500000000E+03 0.  0.
        -13    1    3    3    0    0 -0.21399708654E+02  0.27612430311E+02  0.48643895336E+02  0.59888509379E+02  0.10566000000E+00 0.  1.
         23    2    1    0    0    0 -0.42574629054E-01  0.81094401814E+01  0.29090241700E+02  0.94800546448E+02  0.89861763905E+02 0.  0.
         13    1    3    3    0    0  0.21357134025E+02 -0.19502990130E+02 -0.19553653636E+02  0.34912037069E+02  0.10566000000E+00 0. -1.
         22    1    1    0    0    0  0.42574629054E-01 -0.81094401814E+01 -0.29090241700E+02  0.30199453552E+02  0.00000000000E+00 0.  1.
</event>
<event>
 5    1  0.1764318E-003  0.9118800E+02  0.7818608E-02  0.1130116E+00
         25   -1    0    0    0    0  0.00000000000E+00  0.00000000000E+00  0.99999998245E-14  0.12500000000E+03  0.12500000000E+03 0.  0.
        -13    1    3    3    0    0  0.25207508277E+02 -0.31801984528E+02 -0.23363507591E+02  0.46825733785E+02  0.10566000000E+00 0. -1.
         23    2    1    0    0    0  0.88039838114E+00 -0.21090912346E+02  0.18842412871E+02  0.96704448977E+02  0.92472224178E+02 0.  0.
         13    1    3    3    0    0 -0.24327109896E+02  0.10711072182E+02  0.42205920462E+02  0.49878715193E+02  0.10566000000E+00 0.  1.
         22    1    1    0    0    0 -0.88039838114E+00  0.21090912346E+02 -0.18842412871E+02  0.28295551023E+02  0.00000000000E+00 0.  1.
</event>
<event>
 5    1  0.1764318E-003  0.9118800E+02  0.7818608E-02  0.1130116E+00
         25   -1    0    0    0    0  0.00000000000E+00  0.00000000000E+00  0.99999998245E-14  0.12500000000E+03  0.12500000000E+03 0.  0.
        -13    1    3    3    0    0 -0.17539124480E+02 -0.30618855907E+02 -0.17428611008E+02  0.39356103342E+02  0.10566000000E+00 0.  1.
         23    2    1    0    0    0  0.16021076930E-01 -0.66300414383E+01  0.29421261829E+02  0.94840949057E+02  0.89917947398E+02 0.  0.
         13    1    3    3    0    0  0.17555145557E+02  0.23988814468E+02  0.46849872837E+02  0.55484845715E+02  0.10566000000E+00 0. -1.
         22    1    1    0    0    0 -0.16021076930E-01  0.66300414383E+01 -0.29421261829E+02  0.30159050943E+02  0.00000000000E+00 0. -1.
</event>
<event>
 5    1  0.1764318E-003  0.9118800E+02  0.7818608E-02  0.1130116E+00
         25   -1    0    0    0    0  0.00000000000E+00  0.00000000000E+00  0.99999998245E-14  0.12500000000E+03  0.12500000000E+03 0.  0.
        -13    1    3    3    0    0 -0.23856363944E+02 -0.34171663489E+02  0.39260092437E+02  0.57255521205E+02  0.10566000000E+00 0.  1.
         23    2    1    0    0    0  0.64727173746E+01 -0.25259153760E+01  0.17456051809E+02  0.10621197021E+03  0.10453703914E+03 0.  0.
         13    1    3    3    0    0  0.30329081319E+02  0.31645748113E+02 -0.21804040628E+02  0.48956449003E+02  0.10566000000E+00 0. -1.
         22    1    1    0    0    0 -0.64727173746E+01  0.25259153760E+01 -0.17456051809E+02  0.18788029792E+02  0.00000000000E+00 0. -1.
</event>
<event>
 5    1  0.1764318E-003  0.9118800E+02  0.7818608E-02  0.1130116E+00
         25   -1    0    0    0    0  0.00000000000E+00  0.00000000000E+00  0.99999998245E-14  0.12500000000E+03  0.12500000000E+03 0.  0.
        -13    1    3    3    0    0  0.21831760195E+02 -0.17141740031E+02  0.50271911855E+02  0.57425963553E+02  0.10566000000E+00 0.  1.
         23    2    1    0    0    0  0.10854909334E+02 -0.15982717092E+02  0.36486256173E+01  0.10533813917E+03  0.10348688223E+03 0.  0.
         13    1    3    3    0    0 -0.10976850860E+02  0.11590229393E+01 -0.46623286237E+02  0.47912175619E+02  0.10566000000E+00 0. -1.
         22    1    1    0    0    0 -0.10854909334E+02  0.15982717092E+02 -0.36486256173E+01  0.19661860827E+02  0.00000000000E+00 0.  1.
</event>
<event>
 5    1  0.1764318E-003  0.9118800E+02  0.7818608E-02  0.1130116E+00
         25   -1    0    0    0    0  0.00000000000E+00  0.00000000000E+00  0.99999998245E-14  0.12500000000E+03  0.12500000000E+03 0.  0.
        -13    1    3    3    0    0 -0.62174582576E+02 -0.23771240493E+01  0.58543062082E+01  0.62494907812E+02  0.10566000000E+00 0. -1.
         23    2    1    0    0    0 -0.29552066715E+02 -0.16521805611E+01  0.25772888513E+01  0.95289786848E+02  0.90539752109E+02 0.  0.
         13    1    3    3    0    0  0.32622515861E+02  0.72494348821E+00 -0.32770173569E+01  0.32794879035E+02  0.10566000000E+00 0.  1.
         22    1    1    0    0    0  0.29552066715E+02  0.16521805611E+01 -0.25772888513E+01  0.29710213152E+02  0.00000000000E+00 0. -1.
</event>
<event>
 5    1  0.1764318E-003  0.9118800E+02  0.7818608E-02  0.1130116E+00
         25   -1    0    0    0    0  0.00000000000E+00  0.00000000000E+00  0.99999998245E-14  0.12500000000E+03  0.12500000000E+03 0.  0.
        -13    1    3    3    0    0  0.65756318203E+01  0.40671037913E+02  0.92431720465E+01  0.42223449081E+02  0.10566000000E+00 0.  1.
         23    2    1    0    0    0 -0.28915431923E+02  0.31429117591E+01 -0.42400887659E+01  0.95606829869E+02  0.90976411598E+02 0.  0.
         13    1    3    3    0    0 -0.35491063743E+02 -0.37528126154E+02 -0.13483260812E+02  0.53383380788E+02  0.10566000000E+00 0. -1.
         22    1    1    0    0    0  0.28915431923E+02 -0.31429117591E+01  0.42400887659E+01  0.29393170131E+02  0.00000000000E+00 0. -1.
</event>
<event>
 5    1  0.1764318E-003  0.9118800E+02  0.7818608E-02  0.1130116E+00
         25   -1    0    0    0    0  0.00000000000E+00  0.00000000000E+00  0.99999998245E-14  0.12500000000E+03  0.12500000000E+03 0.  0.
        -13    1    3    3    0    0 -0.49835132153E+02 -0.82424698945E+01  0.17195682973E+02  0.53358985969E+02  0.10566000000E+00 0.  1.
         23    2    1    0    0    0 -0.82750548168E+01 -0.52053953924E+01  0.27099750456E+02  0.96190814864E+02  0.91775289245E+02 0.  0.
         13    1    3    3    0    0  0.41560077336E+02  0.30370745021E+01  0.99040674839E+01  0.42831828895E+02  0.10566000000E+00 0. -1.
         22    1    1    0    0    0  0.82750548168E+01  0.52053953924E+01 -0.27099750456E+02  0.28809185136E+02  0.00000000000E+00 0. -1.
</event>
<event>
 5    1  0.1764318E-003  0.9118800E+02  0.7818608E-02  0.1130116E+00
         25   -1    0    0    0    0  0.00000000000E+00  0.00000000000E+00  0.99999998245E-14  0.12500000000E+03  0.12500000000E+03 0.  0.
        -13    1    3    3    0    0  0.11136955350E+02  0.19243193579E+02  0.26257238779E+02  0.34406191680E+02  0.10566000000E+00 0. -1.
         23    2    1    0    0    0 -0.11445860566E+02 -0.24167431893E+02 -0.11178040444E+02  0.96016882905E+02  0.91538083474E+02 0.  0.
         13    1    3    3    0    0 -0.22582815916E+02 -0.43410625472E+02 -0.37435279223E+02  0.61610691224E+02  0.10566000000E+00 0.  1.
         22    1    1    0    0    0  0.11445860566E+02  0.24167431893E+02  0.11178040444E+02  0.28983117095E+02  0.00000000000E+00 0.  1.
</event>
<event>
 5    1  0.1764318E-003  0.9118800E+02  0.7818608E-02  0.1130116E+00
         25   -1    0    0    0    0  0.00000000000E+00  0.00000000000E+00  0.99999998245E-14  0.12500000000E+03  0.12500000000E+03 0.  0.
        -13    1    3    3    0    0  0.36875307576E+02  0.34247344587E+02  0.16892548740E+02  0.53085198380E+02  0.10566000000E+00 0.  1.
         23    2    1    0    0    0  0.24584839702E+02 -0.64537899880E+01  0.14653927527E+02  0.95660549760E+02  0.91050191873E+02 0.  0.
         13    1    3    3    0    0 -0.12290467874E+02 -0.40701134575E+02 -0.22386212121E+01  0.42575351381E+02  0.10566000000E+00 0. -1.
         22    1    1    0    0    0 -0.24584839702E+02  0.64537899880E+01 -0.14653927527E+02  0.29339450240E+02  0.00000000000E+00 0.  1.
</event>
<event>
 5    1  0.1764318E-003  0.9118800E+02  0.7818608E-02  0.1130116E+00
         25   -1    0    0    0    0  0.00000000000E+00  0.00000000000E+00  0.99999998245E-14  0.12500000000E+03  0.12500000000E+03 0.  0.
        -13    1    3    3    0    0  0.14810159854E+01  0.38203481328E+02 -0.26626179693E+02  0.46590385306E+02  0.10566000000E+00 0.  1.
         23    2    1    0    0    0 -0.22373873649E+02  0.13422660488E+02  0.10203348781E+02  0.96984533504E+02  0.92850058568E+02 0.  0.
         13    1    3    3    0    0 -0.23854889634E+02 -0.24780820840E+02  0.36829528473E+02  0.50394148198E+02  0.10566000000E+00 0. -1.
         22    1    1    0    0    0  0.22373873649E+02 -0.13422660488E+02 -0.10203348781E+02  0.28015466496E+02  0.00000000000E+00 0. -1.
</event>
<event>
 5    1  0.1764318E-003  0.9118800E+02  0.7818608E-02  0.1130116E+00
         25   -1    0    0    0    0  0.00000000000E+00  0.00000000000E+00  0.99999998245E-14  0.12500000000E+03  0.12500000000E+03 0.  0.
        -13    1    3    3    0    0 -0.11324202145E+02 -0.32305491656E+02  0.71255656146E+01  0.34966658330E+02  0.10566000000E+00 0. -1.
         23    2    1    0    0    0 -0.62466557331E+01  0.28265905027E+02  0.14316321117E+01  0.96016700234E+02  0.91537834027E+02 0.  0.
         13    1    3    3    0    0  0.50775464122E+01  0.60571396683E+02 -0.56939335028E+01  0.61050041904E+02  0.10566000000E+00 0.  1.
         22    1    1    0    0    0  0.62466557331E+01 -0.28265905027E+02 -0.14316321117E+01  0.28983299766E+02  0.00000000000E+00 0.  1.
</event>
<event>
 5    1  0.1764318E-003  0.9118800E+02  0.7818608E-02  0.1130116E+00
         25   -1    0    0    0    0  0.00000000000E+00  0.00000000000E+00  0.99999998245E-14  0.12500000000E+03  0.12500000000E+03 0.  0.
        -13    1    3    3    0    0 -0.43564774740E+02 -0.12941027316E+02  0.83331265424E+01  0.46204025237E+02  0.10566000000E+00 0. -1.
         23    2    1    0    0    0 -0.13705518571E+02  0.24419493888E+02  0.12744067310E+02  0.94233716951E+02  0.89069799807E+02 0.  0.
         13    1    3    3    0    0  0.29859256169E+02  0.37360521204E+02  0.44109407675E+01  0.48029691714E+02  0.10566000000E+00 0.  1.
         22    1    1    0    0    0  0.13705518571E+02 -0.24419493888E+02 -0.12744067310E+02  0.30766283049E+02  0.00000000000E+00 0.  1.
</event>
<event>
 5    1  0.1764318E-003  0.9118800E+02  0.7818608E-02  0.1130116E+00
         25   -1    0    0    0    0  0.00000000000E+00  0.00000000000E+00  0.99999998245E-14  0.12500000000E+03  0.12500000000E+03 0.  0.
        -13    1    3    3    0    0  0.21398049693E+02  0.19777894363E+02  0.27241880374E+02  0.39889507974E+02  0.10566000000E+00 0. -1.
         23    2    1    0    0    0 -0.17562671263E+02 -0.16621049432E+02  0.19845319459E+02  0.93718321487E+02  0.88343536107E+02 0.  0.
         13    1    3    3    0    0 -0.38960720957E+02 -0.36398943795E+02 -0.73965609145E+01  0.53828813513E+02  0.10566000000E+00 0.  1.
         22    1    1    0    0    0  0.17562671263E+02  0.16621049432E+02 -0.19845319459E+02  0.31281678513E+02  0.00000000000E+00 0. -1.
</event>
<event>
 5    1  0.1764318E-003  0.9118800E+02  0.7818608E-02  0.1130116E+00
         25   -1    0    0    0    0  0.00000000000E+00  0.00000000000E+00  0.99999998245E-14  0.12500000000E+03  0.12500000000E+03 0.  0.
        -13    1    3    3    0    0  0.30888353407E+02 -0.22258591546E+02 -0.15764282117E+02  0.41207511797E+02  0.10566000000E+00 0. -1.
         23    2    1    0    0    0  0.13681478429E+02  0.61641936965E+01  0.26244957372E+02  0.94767932201E+02  0.89816385199E+02 0.  0.
         13    1    3    3    0    0 -0.17206874977E+02  0.28422785242E+02  0.42009239489E+02  0.53560420404E+02  0.10566000000E+00 0.  1.
         22    1    1    0    0    0 -0.13681478429E+02 -0.61641936965E+01 -0.26244957372E+02  0.30232067799E+02  0.00000000000E+00 0.  1.
</event>
<event>
 5    1  0.1764318E-003  0.9118800E+02  0.7818608E-02  0.1130116E+00
         25   -1    0    0    0    0  0.00000000000E+00  0.00000000000E+00  0.99999998245E-14  0.12500000000E+03  0.12500000000E+03 0.  0.
        -13    1    3    3    0    0  0.30348693312E+02 -0.40874036066E+02 -0.93206780856E+01  0.51755349618E+02  0.10566000000E+00 0.  1.
         23    2    1    0    0    0  0.15822218391E+02 -0.12442563864E+02  0.21088470374E+02  0.95847237300E+02  0.91306129723E+02 0.  0.
         13    1    3    3    0    0 -0.14526474921E+02  0.28431472202E+02  0.30409148460E+02  0.44091887681E+02  0.10566000000E+00 0. -1.
         22    1    1    0    0    0 -0.15822218391E+02  0.12442563864E+02 -0.21088470374E+02  0.29152762700E+02  0.00000000000E+00 0. -1.
</event>
<event>
 5    1  0.1764318E-003  0.9118800E+02  0.7818608E-02  0.1130116E+00
         25   -1    0    0    0    0  0.00000000000E+00  0.00000000000E+00  0.99999998245E-14  0.12500000000E+03  0.12500000000E+03 0.  0.
        -13    1    3    3    0    0 -0.48607427633E+02  0.52132720832E+01 -0.84548621589E+01  0.49612055844E+02  0.10566000000E+00 0. -1.
         23    2    1    0    0    0 -0.14662247274E+02  0.20482679857E+02  0.16915624631E+02  0.94657619970E+02  0.89662729115E+02 0.  0.
         13    1    3    3    0    0  0.33945180359E+02  0.15269407774E+02  0.25370486790E+02  0.45045564125E+02  0.10566000000E+00 0.  1.
         22    1    1    0    0    0  0.14662247274E+02 -0.20482679857E+02 -0.16915624631E+02  0.30342380030E+02  0.00000000000E+00 0. -1.
</event>
<event>
 5    1  0.1764318E-003  0.9118800E+02  0.7818608E-02  0.1130116E+00
         25   -1    0    0    0    0  0.00000000000E+00  0.00000000000E+00  0.99999998245E-14  0.12500000000E+03  0.12500000000E+03 0.  0.
        -13    1    3    3    0    0  0.10332524327E+02  0.35289931631E+02  0.11413884355E+02  0.38502314912E+02  0.10566000000E+00 0.  1.
         23    2    1    0    0    0  0.16429210718E+02 -0.18283407519E+02 -0.12426511017E+02  0.97456940414E+02  0.93483876169E+02 0.  0.
         13    1    3    3    0    0  0.60966863904E+01 -0.53573339150E+02 -0.23840395372E+02  0.58954625502E+02  0.10566000000E+00 0. -1.
         22    1    1    0    0    0 -0.16429210718E+02  0.18283407519E+02  0.12426511017E+02  0.27543059586E+02  0.00000000000E+00 0. -1.
</event>
<event>
 5    1  0.1764318E-003  0.9118800E+02  0.7818608E-02  0.1130116E+00
         25   -1    0    0    0    0  0.00000000000E+00  0.00000000000E+00  0.99999998245E-14  0.12500000000E+03  0.12500000000E+03 0.  0.
        -13    1    3    3    0    0 -0.22675314908E+02 -0.64255250055E+01 -0.18275863453E+02  0.29824077970E+02  0.10566000000E+00 0. -1.
         23    2    1    0    0    0  0.27351165245E+02  0.13936082048E+02  0.12347191085E+02  0.91912936806E+02  0.85751001169E+02 0.  0.
         13    1    3    3    0    0  0.50026480153E+02  0.20361607053E+02  0.30623054538E+02  0.62088858836E+02  0.10566000000E+00 0.  1.
         22    1    1    0    0    0 -0.27351165245E+02 -0.13936082048E+02 -0.12347191085E+02  0.33087063194E+02  0.00000000000E+00 0.  1.
</event>
<event>
 5    1  0.1764318E-003  0.9118800E+02  0.7818608E-02  0.1130116E+00
         25   -1    0    0    0    0  0.00000000000E+00  0.00000000000E+00  0.99999998245E-14  0.12500000000E+03  0.12500000000E+03 0.  0.
        -13    1    3    3    0    0  0.42517621876E+02 -0.14764482750E+02 -0.33849794386E+02  0.56316586054E+02  0.10566000000E+00 0.  1.
         23    2    1    0    0    0  0.22543480297E+02 -0.18212380637E+02  0.28672931881E+00  0.96017565215E+02  0.91539015200E+02 0.  0.
         13    1    3    3    0    0 -0.19974141579E+02 -0.34478978874E+01  0.34136523705E+02  0.39700979161E+02  0.10566000000E+00 0. -1.
         22    1    1    0    0    0 -0.22543480297E+02  0.18212380637E+02 -0.28672931881E+00  0.28982434785E+02  0.00000000000E+00 0.  1.
</event>
<event>
 5    1  0.1764318E-003  0.9118800E+02  0.7818608E-02  0.1130116E+00
         25   -1    0    0    0    0  0.00000000000E+00  0.00000000000E+00  0.99999998245E-14  0.12500000000E+03  0.12500000000E+03 0.  0.
        -13    1    3    3    0    0 -0.16850585282E+02  0.48465469095E+01  0.32272704921E+02  0.36728325421E+02  0.10566000000E+00 0.  1.
         23    2    1    0    0    0  0.26651949356E+02 -0.14871547660E+02 -0.19060371669E+00  0.94479094639E+02  0.89413498196E+02 0.  0.
         13    1    3    3    0    0  0.43502534639E+02 -0.19718094570E+02 -0.32463308638E+02  0.57750769217E+02  0.10566000000E+00 0. -1.
         22    1    1    0    0    0 -0.26651949356E+02  0.14871547660E+02  0.19060371669E+00  0.30520905361E+02  0.00000000000E+00 0. -1.
</event>
<event>
 5    1  0.1764318E-003  0.9118800E+02  0.7818608E-02  0.1130116E+00
         25   -1    0    0    0    0  0.00000000000E+00  0.00000000000E+00  0.99999998245E-14  0.12500000000E+03  0.12500000000E+03 0.  0.
        -13    1    3    3    0    0 -0.30908451677E+02 -0.16958745667E+02 -0.39015770573E+01  0.35470620339E+02  0.10566000000E+00 0. -1.
         23    2    1    0    0    0  0.25708699323E+02  0.59592971315E+01  0.74100284676E+01  0.97589072160E+02  0.93660386717E+02 0.  0.
         13    1    3    3    0    0  0.56617150999E+02  0.22918042799E+02  0.11311605525E+02  0.62118451821E+02  0.10566000000E+00 0.  1.
         22    1    1    0    0    0 -0.25708699323E+02 -0.59592971315E+01 -0.74100284676E+01  0.27410927840E+02  0.00000000000E+00 0.  1.
</event>
<event>
 5    1  0.1764318E-003  0.9118800E+02  0.7818608E-02  0.1130116E+00
         25   -1    0    0    0    0  0.00000000000E+00  0.00000000000E+00  0.99999998245E-14  0.12500000000E+03  0.12500000000E+03 0.  0.
        -13    1    3    3    0    0  0.10420751896E+02 -0.45471382129E+02 -0.21173908044E+02  0.51230695961E+02  0.10566000000E+00 0.  1.
         23    2    1    0    0    0  0.23253524937E+02 -0.15023933178E+02  0.89107666825E+01  0.95916555345E+02  0.91400978312E+02 0.  0.
         13    1    3    3    0    0  0.12832773041E+02  0.30447448951E+02  0.30084674726E+02  0.44685859385E+02  0.10566000000E+00 0. -1.
         22    1    1    0    0    0 -0.23253524937E+02  0.15023933178E+02 -0.89107666825E+01  0.29083444655E+02  0.00000000000E+00 0.  1.
</event>
<event>
 5    1  0.1764318E-003  0.9118800E+02  0.7818608E-02  0.1130116E+00
         25   -1    0    0    0    0  0.00000000000E+00  0.00000000000E+00  0.99999998245E-14  0.12500000000E+03  0.12500000000E+03 0.  0.
        -13    1    3    3    0    0 -0.47679747767E+02  0.13753066833E+01  0.20179706334E+02  0.51792678318E+02  0.10566000000E+00 0.  1.
         23    2    1    0    0    0 -0.11188934307E+02 -0.22762078981E+02  0.14146078912E+02  0.95958374028E+02  0.91458151671E+02 0.  0.
         13    1    3    3    0    0  0.36490813460E+02 -0.24137385665E+02 -0.60336274215E+01  0.44165695710E+02  0.10566000000E+00 0. -1.
         22    1    1    0    0    0  0.11188934307E+02  0.22762078981E+02 -0.14146078912E+02  0.29041625972E+02  0.00000000000E+00 0.  1.
</event>
<event>
 5    1  0.1764318E-003  0.9118800E+02  0.7818608E-02  0.1130116E+00
         25   -1    0    0    0    0  0.00000000000E+00  0.00000000000E+00  0.99999998245E-14  0.12500000000E+03  0.12500000000E+03 0.  0.
        -13    1    3    3    0    0 -0.17178628385E+02  0.21808003278E+02 -0.51776003696E+02  0.58749127678E+02  0.10566000000E+00 0.  1.
         23    2    1    0    0    0 -0.65972750179E+01  0.23381674696E+02 -0.16448588625E+02  0.95660899520E+02  0.91050672046E+02 0.  0.
         13    1    3    3    0    0  0.10581353368E+02  0.15736714172E+01  0.35327415071E+02  0.36911771841E+02  0.10566000000E+00 0. -1.
         22    1    1    0    0    0  0.65972750179E+01 -0.23381674696E+02  0.16448588625E+02  0.29339100480E+02  0.00000000000E+00 0.  1.
</event>
<event>
 5    1  0.1764318E-003  0.9118800E+02  0.7818608E-02  0.1130116E+00
         25   -1    0    0    0    0  0.00000000000E+00  0.00000000000E+00  0.99999998245E-14  0.12500000000E+03  0.12500000000E+03 0.  0.
        -13    1    3    3    0    0 -0.10833112489E+02 -0.15554948275E+02 -0.29748070444E+02  0.35274234240E+02  0.10566000000E+00 0. -1.
         23    2    1    0    0    0  0.47580503559E+01 -0.14017586293E+01  0.27907666713E+02  0.96654950488E+02  0.92405290011E+02 0.  0.
         13    1    3    3    0    0  0.15591162845E+02  0.14153189646E+02  0.57655737157E+02  0.61380716248E+02  0.10566000000E+00 0.  1.
         22    1    1    0    0    0 -0.47580503559E+01  0.14017586293E+01 -0.27907666713E+02  0.28345049512E+02  0.00000000000E+00 0.  1.
</event>
<event>
 5    1  0.1764318E-003  0.9118800E+02  0.7818608E-02  0.1130116E+00
         25   -1    0    0    0    0  0.00000000000E+00  0.00000000000E+00  0.99999998245E-14  0.12500000000E+03  0.12500000000E+03 0.  0.
        -13    1    3    3    0    0  0.37434163367E+02  0.95840676532E+01 -0.17050278723E+02  0.42236170617E+02  0.10566000000E+00 0. -1.
         23    2    1    0    0    0  0.83392902741E+01 -0.22535630563E+02  0.15472466303E+02  0.96420363532E+02  0.92087408927E+02 0.  0.
         13    1    3    3    0    0 -0.29094873093E+02 -0.32119698216E+02  0.32522745026E+02  0.54184192915E+02  0.10566000000E+00 0.  1.
         22    1    1    0    0    0 -0.83392902741E+01  0.22535630563E+02 -0.15472466303E+02  0.28579636468E+02  0.00000000000E+00 0.  1.
</event>
<event>
 5    1  0.1764318E-003  0.9118800E+02  0.7818608E-02  0.1130116E+00
         25   -1    0    0    0    0  0.00000000000E+00  0.00000000000E+00  0.99999998245E-14  0.12500000000E+03  0.12500000000E+03 0.  0.
        -13    1    3    3    0    0 -0.30725231650E+02  0.94715340499E+01  0.22878552390E+02  0.39461235925E+02  0.10566000000E+00 0.  1.
         23    2    1    0    0    0  0.11278471302E+02  0.22318235471E+02 -0.13579184001E+02  0.96544740599E+02  0.92256084622E+02 0.  0.
         13    1    3    3    0    0  0.42003702952E+02  0.12846701421E+02 -0.36457736391E+02  0.57083504674E+02  0.10566000000E+00 0. -1.
         22    1    1    0    0    0 -0.11278471302E+02 -0.22318235471E+02  0.13579184001E+02  0.28455259401E+02  0.00000000000E+00 0. -1.
</event>
<event>
 5    1  0.1764318E-003  0.9118800E+02  0.7818608E-02  0.1130116E+00
         25   -1    0    0    0    0  0.00000000000E+00  0.00000000000E+00  0.99999998245E-14  0.12500000000E+03  0.12500000000E+03 0.  0.
        -13    1    3    3    0    0  0.16326143087E+02  0.45511057728E+02 -0.15418053707E+02  0.50749648942E+02  0.10566000000E+00 0.  1.
         23    2    1    0    0    0  0.44718522994E+00  0.18275831154E+01 -0.26419190025E+02  0.98513897300E+02  0.94886639339E+02 0.  0.
         13    1    3    3    0    0 -0.15878957857E+02 -0.43683474612E+02 -0.11001136318E+02  0.47764248358E+02  0.10566000000E+00 0. -1.
         22    1    1    0    0    0 -0.44718522994E+00 -0.18275831154E+01  0.26419190025E+02  0.26486102700E+02  0.00000000000E+00 0.  1.
</event>
<event>
 5    1  0.1764318E-003  0.9118800E+02  0.7818608E-02  0.1130116E+00
         25   -1    0    0    0    0  0.00000000000E+00  0.00000000000E+00  0.99999998245E-14  0.12500000000E+03  0.12500000000E+03 0.  0.
        -13    1    3    3    0    0 -0.42411433907E+02 -0.52745750319E+01 -0.42011720087E+02  0.59929514069E+02  0.10566000000E+00 0.  1.
         23    2    1    0    0    0 -0.22838605690E+02 -0.12785404824E+02 -0.12858294688E+02  0.95838308886E+02  0.91293905719E+02 0.  0.
         13    1    3    3    0    0  0.19572828218E+02 -0.75108297925E+01  0.29153425400E+02  0.35908794817E+02  0.10566000000E+00 0. -1.
         22    1    1    0    0    0  0.22838605690E+02  0.12785404824E+02  0.12858294688E+02  0.29161691114E+02  0.00000000000E+00 0.  1.
</event>
<event>
 5    1  0.1764318E-003  0.9118800E+02  0.7818608E-02  0.1130116E+00
         25   -1    0    0    0    0  0.00000000000E+00  0.00000000000E+00  0.99999998245E-14  0.12500000000E+03  0.12500000000E+03 0.  0.
        -13    1    3    3    0    0 -0.19573960069E+01  0.91458968341E+01  0.33880553228E+02  0.35147999646E+02  0.10566000000E+00 0. -1.
         23    2    1    0    0    0  0.13413990337E+02 -0.88269984758E+01 -0.23114610542E+02  0.96855084662E+02  0.92675623362E+02 0.  0.
         13    1    3    3    0    0  0.15371386343E+02 -0.17972895310E+02 -0.56995163771E+02  0.61707085016E+02  0.10566000000E+00 0.  1.
         22    1    1    0    0    0 -0.13413990337E+02  0.88269984758E+01  0.23114610542E+02  0.28144915338E+02  0.00000000000E+00 0.  1.
</event>
<event>
 5    1  0.1764318E-003  0.9118800E+02  0.7818608E-02  0.1130116E+00
         25   -1    0    0    0    0  0.00000000000E+00  0.00000000000E+00  0.99999998245E-14  0.12500000000E+03  0.12500000000E+03 0.  0.
        -13    1    3    3    0    0 -0.50275701760E+01 -0.13183870813E+02  0.50618612427E+02  0.52548510916E+02  0.10566000000E+00 0.  1.
         23    2    1    0    0    0 -0.23686586057E+02 -0.13330329017E+02  0.12305320187E+02  0.95164233953E+02  0.90366246399E+02 0.  0.
         13    1    3    3    0    0 -0.18659015881E+02 -0.14645820406E+00 -0.38313292240E+02  0.42615723036E+02  0.10566000000E+00 0. -1.
         22    1    1    0    0    0  0.23686586057E+02  0.13330329017E+02 -0.12305320187E+02  0.29835766047E+02  0.00000000000E+00 0.  1.
</event>
<event>
 5    1  0.1764318E-003  0.9118800E+02  0.7818608E-02  0.1130116E+00
         25   -1    0    0    0    0  0.00000000000E+00  0.00000000000E+00  0.99999998245E-14  0.12500000000E+03  0.12500000000E+03 0.  0.
        -13    1    3    3    0    0 -0.44990556905E+02  0.30966717746E+02 -0.19272042594E+02  0.57918137127E+02  0.10566000000E+00 0. -1.
         23    2    1    0    0    0 -0.28842091748E+02 -0.50103442545E+00 -0.75118932191E+01  0.95191514100E+02  0.90403974056E+02 0.  0.
         13    1    3    3    0    0  0.16148465157E+02 -0.31467752171E+02  0.11760149375E+02  0.37273376973E+02  0.10566000000E+00 0.  1.
         22    1    1    0    0    0  0.28842091748E+02  0.50103442545E+00  0.75118932191E+01  0.29808485900E+02  0.00000000000E+00 0. -1.
</event>
<event>
 5    1  0.1764318E-003  0.9118800E+02  0.7818608E-02  0.1130116E+00
         25   -1    0    0    0    0  0.00000000000E+00  0.00000000000E+00  0.99999998245E-14  0.12500000000E+03  0.12500000000E+03 0.  0.
        -13    1    3    3    0    0  0.56426217814E+02 -0.99511973718E+01  0.35189523103E+01  0.57405039634E+02  0.10566000000E+00 0. -1.
         23    2    1    0    0    0  0.23058201478E+02  0.11915951951E+01 -0.15300007667E+02  0.97301790868E+02  0.93276190516E+02 0.  0.
         13    1    3    3    0    0 -0.33368016337E+02  0.11142792567E+02 -0.18818959977E+02  0.39896751235E+02  0.10566000000E+00 0.  1.
         22    1    1    0    0    0 -0.23058201478E+02 -0.11915951951E+01  0.15300007667E+02  0.27698209132E+02  0.00000000000E+00 0. -1.
</event>
<event>
 5    1  0.1764318E-003  0.9118800E+02  0.7818608E-02  0.1130116E+00
         25   -1    0    0    0    0  0.00000000000E+00  0.00000000000E+00  0.99999998245E-14  0.12500000000E+03  0.12500000000E+03 0.  0.
        -13    1    3    3    0    0 -0.31355226057E+02  0.12903727721E+02 -0.30915947711E+02  0.45885328560E+02  0.10566000000E+00 0.  1.
         23    2    1    0    0    0  0.84695187308E+01 -0.13912141458E+02 -0.26229341660E+02  0.94125110666E+02  0.88917251793E+02 0.  0.
         13    1    3    3    0    0  0.39824744788E+02 -0.26815869179E+02  0.46866060513E+01  0.48239782105E+02  0.10566000000E+00 0. -1.
         22    1    1    0    0    0 -0.84695187308E+01  0.13912141458E+02  0.26229341660E+02  0.30874889334E+02  0.00000000000E+00 0. -1.
</event>
<event>
 5    1  0.1764318E-003  0.9118800E+02  0.7818608E-02  0.1130116E+00
         25   -1    0    0    0    0  0.00000000000E+00  0.00000000000E+00  0.99999998245E-14  0.12500000000E+03  0.12500000000E+03 0.  0.
        -13    1    3    3    0    0  0.25777151059E+02  0.44030188750E+02 -0.28971424956E+02  0.58672597233E+02  0.10566000000E+00 0. -1.
         23    2    1    0    0    0 -0.28606109503E+01  0.25151256480E+02 -0.13665358900E+02  0.96233512007E+02  0.91833425297E+02 0.  0.
         13    1    3    3    0    0 -0.28637762009E+02 -0.18878932270E+02  0.15306066056E+02  0.37560914774E+02  0.10566000000E+00 0.  1.
         22    1    1    0    0    0  0.28606109503E+01 -0.25151256480E+02  0.13665358900E+02  0.28766487993E+02  0.00000000000E+00 0. -1.
</event>
<event>
 5    1  0.1764318E-003  0.9118800E+02  0.7818608E-02  0.1130116E+00
         25   -1    0    0    0    0  0.00000000000E+00  0.00000000000E+00  0.99999998245E-14  0.12500000000E+03  0.12500000000E+03 0.  0.
        -13    1    3    3    0    0  0.35964542535E+02  0.25945866998E+02  0.56183847900E-01  0.44346935121E+02  0.10566000000E+00 0.  1.
         23    2    1    0    0    0 -0.11613638253E+02  0.22059030796E+02  0.16803435255E+02  0.94936186711E+02  0.90050245295E+02 0.  0.
         13    1    3    3    0    0 -0.47578180787E+02 -0.38868362020E+01  0.16747251407E+02  0.50589251590E+02  0.10566000000E+00 0. -1.
         22    1    1    0    0    0  0.11613638253E+02 -0.22059030796E+02 -0.16803435255E+02  0.30063813289E+02  0.00000000000E+00 0.  1.
</event>
<event>
 5    1  0.1764318E-003  0.9118800E+02  0.7818608E-02  0.1130116E+00
         25   -1    0    0    0    0  0.00000000000E+00  0.00000000000E+00  0.99999998245E-14  0.12500000000E+03  0.12500000000E+03 0.  0.
        -13    1    3    3    0    0  0.21115884111E+02 -0.10477978405E+02 -0.27240058112E+02  0.36023610636E+02  0.10566000000E+00 0. -1.
         23    2    1    0    0    0 -0.78810135364E+01  0.22057001407E+02  0.15378399730E+02  0.96980063103E+02  0.92844040066E+02 0.  0.
         13    1    3    3    0    0 -0.28996897648E+02  0.32534979812E+02  0.42618457842E+02  0.60956452468E+02  0.10566000000E+00 0.  1.
         22    1    1    0    0    0  0.78810135364E+01 -0.22057001407E+02 -0.15378399730E+02  0.28019936897E+02  0.00000000000E+00 0.  1.
</event>
<event>
 5    1  0.1764318E-003  0.9118800E+02  0.7818608E-02  0.1130116E+00
         25   -1    0    0    0    0  0.00000000000E+00  0.00000000000E+00  0.99999998245E-14  0.12500000000E+03  0.12500000000E+03 0.  0.
        -13    1    3    3    0    0 -0.18422050030E+02 -0.28731715220E+00  0.31771634709E+02  0.36727406859E+02  0.10566000000E+00 0. -1.
         23    2    1    0    0    0  0.19414558920E+02  0.76131679658E+01 -0.16386058880E+02  0.98478530393E+02  0.94840036895E+02 0.  0.
         13    1    3    3    0    0  0.37836608949E+02  0.79004851180E+01 -0.48157693589E+02  0.61751123534E+02  0.10566000000E+00 0.  1.
         22    1    1    0    0    0 -0.19414558920E+02 -0.76131679658E+01  0.16386058880E+02  0.26521469607E+02  0.00000000000E+00 0.  1.
</event>
<event>
 5    1  0.1764318E-003  0.9118800E+02  0.7818608E-02  0.1130116E+00
         25   -1    0    0    0    0  0.00000000000E+00  0.00000000000E+00  0.99999998245E-14  0.12500000000E+03  0.12500000000E+03 0.  0.
        -13    1    3    3    0    0  0.11492666517E+02  0.33869501182E+01 -0.48074403714E+02  0.49545052944E+02  0.10566000000E+00 0.  1.
         23    2    1    0    0    0  0.74811081059E+01  0.26817678496E+02 -0.81858381418E+01  0.95979958572E+02  0.91487647488E+02 0.  0.
         13    1    3    3    0    0 -0.40115584108E+01  0.23430728378E+02  0.39888565572E+02  0.46434905628E+02  0.10566000000E+00 0. -1.
         22    1    1    0    0    0 -0.74811081059E+01 -0.26817678496E+02  0.81858381418E+01  0.29020041428E+02  0.00000000000E+00 0.  1.
</event>
<event>
 5    1  0.1764318E-003  0.9118800E+02  0.7818608E-02  0.1130116E+00
         25   -1    0    0    0    0  0.00000000000E+00  0.00000000000E+00  0.99999998245E-14  0.12500000000E+03  0.12500000000E+03 0.  0.
        -13    1    3    3    0    0  0.43676138344E+02  0.55298750254E+01  0.37052539113E+02  0.57542040259E+02  0.10566000000E+00 0. -1.
         23    2    1    0    0    0  0.21168276349E+02 -0.14413552889E+02  0.11836695654E+02  0.96787346908E+02  0.92584214243E+02 0.  0.
         13    1    3    3    0    0 -0.22507861994E+02 -0.19943427915E+02 -0.25215843460E+02  0.39245306649E+02  0.10566000000E+00 0.  1.
         22    1    1    0    0    0 -0.21168276349E+02  0.14413552889E+02 -0.11836695654E+02  0.28212653092E+02  0.00000000000E+00 0. -1.
</event>
<event>
 5    1  0.1764318E-003  0.9118800E+02  0.7818608E-02  0.1130116E+00
         25   -1    0    0    0    0  0.00000000000E+00  0.00000000000E+00  0.99999998245E-14  0.12500000000E+03  0.12500000000E+03 0.  0.
        -13    1    3    3    0    0 -0.37448064785E+02  0.26937139358E+02  0.31873490700E+02  0.56070470003E+02  0.10566000000E+00 0.  1.
         23    2    1    0    0    0 -0.12932423508E+02 -0.31301639339E+01  0.26646287706E+02  0.95216277054E+02  0.90438206879E+02 0.  0.
         13    1    3    3    0    0  0.24515641277E+02 -0.30067303292E+02 -0.52272029944E+01  0.39145807051E+02  0.10566000000E+00 0. -1.
         22    1    1    0    0    0  0.12932423508E+02  0.31301639339E+01 -0.26646287706E+02  0.29783722946E+02  0.00000000000E+00 0.  1.
</event>
<event>
 5    1  0.1764318E-003  0.9118800E+02  0.7818608E-02  0.1130116E+00
         25   -1    0    0    0    0  0.00000000000E+00  0.00000000000E+00  0.99999998245E-14  0.12500000000E+03  0.12500000000E+03 0.  0.
        -13    1    3    3    0    0 -0.15846258101E+02  0.89582785694E+01  0.47567386650E+02  0.50931543148E+02  0.10566000000E+00 0. -1.
         23    2    1    0    0    0 -0.29546692008E+02  0.90395730802E+01  0.76023049294E+01  0.93179944527E+02  0.87578457006E+02 0.  0.
         13    1    3    3    0    0 -0.13700433907E+02  0.81294510833E-01 -0.39965081721E+02  0.42248401378E+02  0.10566000000E+00 0.  1.
         22    1    1    0    0    0  0.29546692008E+02 -0.90395730802E+01 -0.76023049294E+01  0.31820055473E+02  0.00000000000E+00 0.  1.
</event>
<event>
 5    1  0.1764318E-003  0.9118800E+02  0.7818608E-02  0.1130116E+00
         25   -1    0    0    0    0  0.00000000000E+00  0.00000000000E+00  0.99999998245E-14  0.12500000000E+03  0.12500000000E+03 0.  0.
        -13    1    3    3    0    0 -0.37980819846E+02 -0.44484778273E+02  0.29883391659E+01  0.58569441769E+02  0.10566000000E+00 0. -1.
         23    2    1    0    0    0 -0.28016760107E+02 -0.10561634268E+02  0.72826529817E+01  0.94185652696E+02  0.89002321172E+02 0.  0.
         13    1    3    3    0    0  0.99640597381E+01  0.33923144004E+02  0.42943138158E+01  0.35616210927E+02  0.10566000000E+00 0.  1.
         22    1    1    0    0    0  0.28016760107E+02  0.10561634268E+02 -0.72826529817E+01  0.30814347304E+02  0.00000000000E+00 0. -1.
</event>
<event>
 5    1  0.1764318E-003  0.9118800E+02  0.7818608E-02  0.1130116E+00
         25   -1    0    0    0    0  0.00000000000E+00  0.00000000000E+00  0.99999998245E-14  0.12500000000E+03  0.12500000000E+03 0.  0.
        -13    1    3    3    0    0  0.28537471956E+02 -0.31904915146E+02 -0.20664765348E+02  0.47532668839E+02  0.10566000000E+00 0. -1.
         23    2    1    0    0    0  0.28489602029E+02  0.90667813385E+01  0.31730862967E+01  0.94934531032E+02  0.90047946995E+02 0.  0.
         13    1    3    3    0    0 -0.47869927007E-01  0.40971696484E+02  0.23837851644E+02  0.47401862193E+02  0.10566000000E+00 0.  1.
         22    1    1    0    0    0 -0.28489602029E+02 -0.90667813385E+01 -0.31730862967E+01  0.30065468968E+02  0.00000000000E+00 0.  1.
</event>
<event>
 5    1  0.1764318E-003  0.9118800E+02  0.7818608E-02  0.1130116E+00
         25   -1    0    0    0    0  0.00000000000E+00  0.00000000000E+00  0.99999998245E-14  0.12500000000E+03  0.12500000000E+03 0.  0.
        -13    1    3    3    0    0 -0.25958729352E+02 -0.38031910144E+02  0.37530306055E+02  0.59403845460E+02  0.10566000000E+00 0. -1.
         23    2    1    0    0    0  0.82143598144E+00 -0.16695926214E+02  0.22921502509E+02  0.96630580082E+02  0.92372317393E+02 0.  0.
         13    1    3    3    0    0  0.26780165333E+02  0.21335983930E+02 -0.14608803546E+02  0.37226734622E+02  0.10566000000E+00 0.  1.
         22    1    1    0    0    0 -0.82143598144E+00  0.16695926214E+02 -0.22921502509E+02  0.28369419918E+02  0.00000000000E+00 0. -1.
</event>
<event>
 5    1  0.1764318E-003  0.9118800E+02  0.7818608E-02  0.1130116E+00
         25   -1    0    0    0    0  0.00000000000E+00  0.00000000000E+00  0.99999998245E-14  0.12500000000E+03  0.12500000000E+03 0.  0.
        -13    1    3    3    0    0 -0.48524376964E+02  0.38473817880E+02  0.48118418762E+01  0.62112919818E+02  0.10566000000E+00 0. -1.
         23    2    1    0    0    0 -0.26457837249E+02  0.15231728871E+02  0.36639634219E+00  0.94468754323E+02  0.89399041275E+02 0.  0.
         13    1    3    3    0    0  0.22066539715E+02 -0.23242089010E+02 -0.44454455340E+01  0.32355834505E+02  0.10566000000E+00 0.  1.
         22    1    1    0    0    0  0.26457837249E+02 -0.15231728871E+02 -0.36639634219E+00  0.30531245677E+02  0.00000000000E+00 0. -1.
</event>
<event>
 5    1  0.1764318E-003  0.9118800E+02  0.7818608E-02  0.1130116E+00
         25   -1    0    0    0    0  0.00000000000E+00  0.00000000000E+00  0.99999998245E-14  0.12500000000E+03  0.12500000000E+03 0.  0.
        -13    1    3    3    0    0  0.38170140344E+02  0.95927264121E+01  0.11241199905E+02  0.40931109846E+02  0.10566000000E+00 0.  1.
         23    2    1    0    0    0  0.90020716070E-01  0.40025907088E+01 -0.28479683409E+02  0.96240285064E+02  0.91842644050E+02 0.  0.
         13    1    3    3    0    0 -0.38080119628E+02 -0.55901357033E+01 -0.39720883314E+02  0.55309175218E+02  0.10566000000E+00 0. -1.
         22    1    1    0    0    0 -0.90020716070E-01 -0.40025907088E+01  0.28479683409E+02  0.28759714936E+02  0.00000000000E+00 0. -1.
</event>
<event>
 5    1  0.1764318E-003  0.9118800E+02  0.7818608E-02  0.1130116E+00
         25   -1    0    0    0    0  0.00000000000E+00  0.00000000000E+00  0.99999998245E-14  0.12500000000E+03  0.12500000000E+03 0.  0.
        -13    1    3    3    0    0  0.48349049614E+02 -0.10128123665E+02 -0.31732838187E+02  0.58712806704E+02  0.10566000000E+00 0. -1.
         23    2    1    0    0    0  0.24618886090E+02 -0.15320712420E+02 -0.37610067466E+01  0.95760318861E+02  0.91187058924E+02 0.  0.
         13    1    3    3    0    0 -0.23730163525E+02 -0.51925887548E+01  0.27971831440E+02  0.37047512157E+02  0.10566000000E+00 0.  1.
         22    1    1    0    0    0 -0.24618886090E+02  0.15320712420E+02  0.37610067466E+01  0.29239681139E+02  0.00000000000E+00 0. -1.
</event>
<event>
 5    1  0.1764318E-003  0.9118800E+02  0.7818608E-02  0.1130116E+00
         25   -1    0    0    0    0  0.00000000000E+00  0.00000000000E+00  0.99999998245E-14  0.12500000000E+03  0.12500000000E+03 0.  0.
        -13    1    3    3    0    0 -0.18722061376E+01 -0.13711739311E+02  0.60514439330E+02  0.62076770875E+02  0.10566000000E+00 0. -1.
         23    2    1    0    0    0  0.29105108357E+01 -0.28539656972E+01  0.28323186458E+02  0.96384984978E+02  0.92039373339E+02 0.  0.
         13    1    3    3    0    0  0.47827169733E+01  0.10857773614E+02 -0.32191252872E+02  0.34308214104E+02  0.10566000000E+00 0.  1.
         22    1    1    0    0    0 -0.29105108357E+01  0.28539656972E+01 -0.28323186458E+02  0.28615015022E+02  0.00000000000E+00 0. -1.
</event>
<event>
 5    1  0.1764318E-003  0.9118800E+02  0.7818608E-02  0.1130116E+00
         25   -1    0    0    0    0  0.00000000000E+00  0.00000000000E+00  0.99999998245E-14  0.12500000000E+03  0.12500000000E+03 0.  0.
        -13    1    3    3    0    0 -0.31224021735E+01 -0.25196635887E+02  0.56947336066E+02  0.62350862900E+02  0.10566000000E+00 0. -1.
         23    2    1    0    0    0 -0.28567619545E+01 -0.93340091234E+01  0.27796362543E+02  0.95539474108E+02  0.90883818840E+02 0.  0.
         13    1    3    3    0    0  0.26564021898E+00  0.15862626764E+02 -0.29150973522E+02  0.33188611208E+02  0.10566000000E+00 0.  1.
         22    1    1    0    0    0  0.28567619545E+01  0.93340091234E+01 -0.27796362543E+02  0.29460525892E+02  0.00000000000E+00 0. -1.
</event>
<event>
 5    1  0.1764318E-003  0.9118800E+02  0.7818608E-02  0.1130116E+00
         25   -1    0    0    0    0  0.00000000000E+00  0.00000000000E+00  0.99999998245E-14  0.12500000000E+03  0.12500000000E+03 0.  0.
        -13    1    3    3    0    0 -0.28062263303E+01 -0.45776544296E+01  0.35069356419E+02  0.35478172866E+02  0.10566000000E+00 0. -1.
         23    2    1    0    0    0  0.18631748971E+02 -0.18187929612E+02 -0.17341163161E+02  0.93716477291E+02  0.88340926658E+02 0.  0.
         13    1    3    3    0    0  0.21437975301E+02 -0.13610275183E+02 -0.52410519580E+02  0.58238304424E+02  0.10566000000E+00 0.  1.
         22    1    1    0    0    0 -0.18631748971E+02  0.18187929612E+02  0.17341163161E+02  0.31283522709E+02  0.00000000000E+00 0.  1.
</event>
<event>
 5    1  0.1764318E-003  0.9118800E+02  0.7818608E-02  0.1130116E+00
         25   -1    0    0    0    0  0.00000000000E+00  0.00000000000E+00  0.99999998245E-14  0.12500000000E+03  0.12500000000E+03 0.  0.
        -13    1    3    3    0    0  0.25628745441E+02 -0.31921975705E+02  0.19406760393E+02  0.45304289408E+02  0.10566000000E+00 0.  1.
         23    2    1    0    0    0 -0.21653261321E+02 -0.14825717243E+02  0.12070217655E+02  0.96114782814E+02  0.91671673398E+02 0.  0.
         13    1    3    3    0    0 -0.47282006762E+02  0.17096258461E+02 -0.73365427375E+01  0.50810493406E+02  0.10566000000E+00 0. -1.
         22    1    1    0    0    0  0.21653261321E+02  0.14825717243E+02 -0.12070217655E+02  0.28885217186E+02  0.00000000000E+00 0. -1.
</event>
<event>
 5    1  0.1764318E-003  0.9118800E+02  0.7818608E-02  0.1130116E+00
         25   -1    0    0    0    0  0.00000000000E+00  0.00000000000E+00  0.99999998245E-14  0.12500000000E+03  0.12500000000E+03 0.  0.
        -13    1    3    3    0    0  0.37167439798E+02  0.19727211543E+02  0.60132656509E+01  0.42505905286E+02  0.10566000000E+00 0. -1.
         23    2    1    0    0    0  0.11179605228E+02 -0.20212690315E+02 -0.17859818826E+02  0.95802233795E+02  0.91244498184E+02 0.  0.
         13    1    3    3    0    0 -0.25987834570E+02 -0.39939901858E+02 -0.23873084477E+02  0.53296328509E+02  0.10566000000E+00 0.  1.
         22    1    1    0    0    0 -0.11179605228E+02  0.20212690315E+02  0.17859818826E+02  0.29197766205E+02  0.00000000000E+00 0.  1.
</event>
<event>
 5    1  0.1764318E-003  0.9118800E+02  0.7818608E-02  0.1130116E+00
         25   -1    0    0    0    0  0.00000000000E+00  0.00000000000E+00  0.99999998245E-14  0.12500000000E+03  0.12500000000E+03 0.  0.
        -13    1    3    3    0    0 -0.12363827200E+01  0.13303028429E+02 -0.41853628766E+02  0.43934458145E+02  0.10566000000E+00 0. -1.
         23    2    1    0    0    0 -0.38565310639E-01  0.29003342880E+02  0.69163052953E+01  0.95183382746E+02  0.90392730275E+02 0.  0.
         13    1    3    3    0    0  0.11978174094E+01  0.15700314451E+02  0.48769934061E+02  0.51248924601E+02  0.10566000000E+00 0.  1.
         22    1    1    0    0    0  0.38565310639E-01 -0.29003342880E+02 -0.69163052953E+01  0.29816617254E+02  0.00000000000E+00 0. -1.
</event>
<event>
 5    1  0.1764318E-003  0.9118800E+02  0.7818608E-02  0.1130116E+00
         25   -1    0    0    0    0  0.00000000000E+00  0.00000000000E+00  0.99999998245E-14  0.12500000000E+03  0.12500000000E+03 0.  0.
        -13    1    3    3    0    0  0.20273739792E+02  0.85954204671E+01 -0.52103358144E+02  0.56565686348E+02  0.10566000000E+00 0. -1.
         23    2    1    0    0    0  0.35573427561E+01 -0.14507928902E+02 -0.24817272231E+02  0.96033956267E+02  0.91561395068E+02 0.  0.
         13    1    3    3    0    0 -0.16716397036E+02 -0.23103349369E+02  0.27286085913E+02  0.39468269919E+02  0.10566000000E+00 0.  1.
         22    1    1    0    0    0 -0.35573427561E+01  0.14507928902E+02  0.24817272231E+02  0.28966043733E+02  0.00000000000E+00 0. -1.
</event>
<event>
 5    1  0.1764318E-003  0.9118800E+02  0.7818608E-02  0.1130116E+00
         25   -1    0    0    0    0  0.00000000000E+00  0.00000000000E+00  0.99999998245E-14  0.12500000000E+03  0.12500000000E+03 0.  0.
        -13    1    3    3    0    0 -0.38966555914E+02 -0.37212549903E+02 -0.77754225599E+01  0.54439275437E+02  0.10566000000E+00 0. -1.
         23    2    1    0    0    0 -0.23292879264E+02 -0.18248788025E+02 -0.26437938209E+02  0.85319512786E+02  0.75530644088E+02 0.  0.
         13    1    3    3    0    0  0.15673676650E+02  0.18963761878E+02 -0.18662515650E+02  0.30880237349E+02  0.10566000000E+00 0.  1.
         22    1    1    0    0    0  0.23292879264E+02  0.18248788025E+02  0.26437938209E+02  0.39680487214E+02  0.00000000000E+00 0. -1.
</event>
<event>
 5    1  0.1764318E-003  0.9118800E+02  0.7818608E-02  0.1130116E+00
         25   -1    0    0    0    0  0.00000000000E+00  0.00000000000E+00  0.99999998245E-14  0.12500000000E+03  0.12500000000E+03 0.  0.
        -13    1    3    3    0    0  0.11659309363E+02  0.25829104595E+02  0.20392566338E+02  0.34913465380E+02  0.10566000000E+00 0.  1.
         23    2    1    0    0    0 -0.29507903412E+01 -0.82782124592E+01 -0.27862201451E+02  0.95784623315E+02  0.91220369594E+02 0.  0.
         13    1    3    3    0    0 -0.14610099704E+02 -0.34107317054E+02 -0.48254767788E+02  0.60871157935E+02  0.10566000000E+00 0. -1.
         22    1    1    0    0    0  0.29507903412E+01  0.82782124592E+01  0.27862201451E+02  0.29215376685E+02  0.00000000000E+00 0. -1.
</event>
<event>
 5    1  0.1764318E-003  0.9118800E+02  0.7818608E-02  0.1130116E+00
         25   -1    0    0    0    0  0.00000000000E+00  0.00000000000E+00  0.99999998245E-14  0.12500000000E+03  0.12500000000E+03 0.  0.
        -13    1    3    3    0    0 -0.49502793772E+01 -0.23474043816E+02  0.31967252381E+02  0.39968142161E+02  0.10566000000E+00 0. -1.
         23    2    1    0    0    0  0.10364924757E+02 -0.13046420389E+02 -0.22214776858E+02  0.97230645289E+02  0.93180799107E+02 0.  0.
         13    1    3    3    0    0  0.15315204134E+02  0.10427623427E+02 -0.54182029239E+02  0.57262503128E+02  0.10566000000E+00 0.  1.
         22    1    1    0    0    0 -0.10364924757E+02  0.13046420389E+02  0.22214776858E+02  0.27769354711E+02  0.00000000000E+00 0.  1.
</event>
<event>
 5    1  0.1764318E-003  0.9118800E+02  0.7818608E-02  0.1130116E+00
         25   -1    0    0    0    0  0.00000000000E+00  0.00000000000E+00  0.99999998245E-14  0.12500000000E+03  0.12500000000E+03 0.  0.
        -13    1    3    3    0    0  0.13476104761E+02 -0.52537661297E+02  0.29779135405E+02  0.61875837963E+02  0.10566000000E+00 0.  1.
         23    2    1    0    0    0  0.11771798605E+02 -0.21037820713E+02  0.13318684431E+02  0.97458168222E+02  0.93485517891E+02 0.  0.
         13    1    3    3    0    0 -0.17043061559E+01  0.31499840585E+02 -0.16460450974E+02  0.35582330259E+02  0.10566000000E+00 0. -1.
         22    1    1    0    0    0 -0.11771798605E+02  0.21037820713E+02 -0.13318684431E+02  0.27541831778E+02  0.00000000000E+00 0.  1.
</event>
<event>
 5    1  0.1764318E-003  0.9118800E+02  0.7818608E-02  0.1130116E+00
         25   -1    0    0    0    0  0.00000000000E+00  0.00000000000E+00  0.99999998245E-14  0.12500000000E+03  0.12500000000E+03 0.  0.
        -13    1    3    3    0    0  0.47127741732E+02 -0.15796746514E+02  0.24063132536E+02  0.55223244677E+02  0.10566000000E+00 0.  1.
         23    2    1    0    0    0  0.19821428467E+02 -0.17356372720E+02 -0.80934848093E+01  0.97438483408E+02  0.93459193512E+02 0.  0.
         13    1    3    3    0    0 -0.27306313264E+02 -0.15596262066E+01 -0.32156617345E+02  0.42215238731E+02  0.10566000000E+00 0. -1.
         22    1    1    0    0    0 -0.19821428467E+02  0.17356372720E+02  0.80934848093E+01  0.27561516592E+02  0.00000000000E+00 0.  1.
</event>
<event>
 5    1  0.1764318E-003  0.9118800E+02  0.7818608E-02  0.1130116E+00
         25   -1    0    0    0    0  0.00000000000E+00  0.00000000000E+00  0.99999998245E-14  0.12500000000E+03  0.12500000000E+03 0.  0.
        -13    1    3    3    0    0 -0.16752490330E+02 -0.54044031945E+02  0.10813299585E+02  0.57605051281E+02  0.10566000000E+00 0.  1.
         23    2    1    0    0    0 -0.68619176446E+01 -0.25143454247E+02 -0.12560577597E+02  0.96068230010E+02  0.91608173775E+02 0.  0.
         13    1    3    3    0    0  0.98905726851E+01  0.28900577699E+02 -0.23373877182E+02  0.38463178729E+02  0.10566000000E+00 0. -1.
         22    1    1    0    0    0  0.68619176446E+01  0.25143454247E+02  0.12560577597E+02  0.28931769990E+02  0.00000000000E+00 0.  1.
</event>
<event>
 5    1  0.1764318E-003  0.9118800E+02  0.7818608E-02  0.1130116E+00
         25   -1    0    0    0    0  0.00000000000E+00  0.00000000000E+00  0.99999998245E-14  0.12500000000E+03  0.12500000000E+03 0.  0.
        -13    1    3    3    0    0  0.27651341993E+02  0.36274111810E+02 -0.32563337549E+02  0.56042751698E+02  0.10566000000E+00 0.  1.
         23    2    1    0    0    0 -0.48654902701E+01  0.10235915413E+02 -0.23839150101E+02  0.98603938978E+02  0.95005182725E+02 0.  0.
         13    1    3    3    0    0 -0.32516832263E+02 -0.26038196397E+02  0.87241874474E+01  0.42561187280E+02  0.10566000000E+00 0. -1.
         22    1    1    0    0    0  0.48654902701E+01 -0.10235915413E+02  0.23839150101E+02  0.26396061022E+02  0.00000000000E+00 0. -1.
</event>
<event>
 5    1  0.1764318E-003  0.9118800E+02  0.7818608E-02  0.1130116E+00
         25   -1    0    0    0    0  0.00000000000E+00  0.00000000000E+00  0.99999998245E-14  0.12500000000E+03  0.12500000000E+03 0.  0.
        -13    1    3    3    0    0 -0.30448470710E+02 -0.50912590524E+02  0.13051191606E+02  0.60741633241E+02  0.10566000000E+00 0.  1.
         23    2    1    0    0    0 -0.12284241950E+02 -0.26170476522E+02 -0.39365895305E+01  0.95823071121E+02  0.91273039722E+02 0.  0.
         13    1    3    3    0    0  0.18164228760E+02  0.24742114002E+02 -0.16987781136E+02  0.35081437879E+02  0.10566000000E+00 0. -1.
         22    1    1    0    0    0  0.12284241950E+02  0.26170476522E+02  0.39365895305E+01  0.29176928879E+02  0.00000000000E+00 0.  1.
</event>
<event>
 5    1  0.1764318E-003  0.9118800E+02  0.7818608E-02  0.1130116E+00
         25   -1    0    0    0    0  0.00000000000E+00  0.00000000000E+00  0.99999998245E-14  0.12500000000E+03  0.12500000000E+03 0.  0.
        -13    1    3    3    0    0  0.53526435707E+00  0.23765968046E+02 -0.53231251276E+02  0.58298242011E+02  0.10566000000E+00 0.  1.
         23    2    1    0    0    0 -0.14077779840E+02  0.16439696790E+02 -0.19135231776E+02  0.96110475759E+02  0.91665800273E+02 0.  0.
         13    1    3    3    0    0 -0.14613044197E+02 -0.73262712559E+01  0.34096019500E+02  0.37812233748E+02  0.10566000000E+00 0. -1.
         22    1    1    0    0    0  0.14077779840E+02 -0.16439696790E+02  0.19135231776E+02  0.28889524241E+02  0.00000000000E+00 0.  1.
</event>
<event>
 5    1  0.1764318E-003  0.9118800E+02  0.7818608E-02  0.1130116E+00
         25   -1    0    0    0    0  0.00000000000E+00  0.00000000000E+00  0.99999998245E-14  0.12500000000E+03  0.12500000000E+03 0.  0.
        -13    1    3    3    0    0  0.37553632924E+02  0.40805638246E+02  0.57716017445E+01  0.55755699343E+02  0.10566000000E+00 0. -1.
         23    2    1    0    0    0  0.17547094616E+01  0.30888287108E+02  0.82350402126E+01  0.92984672842E+02  0.87299302463E+02 0.  0.
         13    1    3    3    0    0 -0.35798923463E+02 -0.99173511383E+01  0.24634384682E+01  0.37228973499E+02  0.10566000000E+00 0.  1.
         22    1    1    0    0    0 -0.17547094616E+01 -0.30888287108E+02 -0.82350402126E+01  0.32015327158E+02  0.00000000000E+00 0. -1.
</event>
<event>
 5    1  0.1764318E-003  0.9118800E+02  0.7818608E-02  0.1130116E+00
         25   -1    0    0    0    0  0.00000000000E+00  0.00000000000E+00  0.99999998245E-14  0.12500000000E+03  0.12500000000E+03 0.  0.
        -13    1    3    3    0    0  0.22028161184E+02  0.26886321752E+02 -0.36020206246E+02  0.50055774937E+02  0.10566000000E+00 0. -1.
         23    2    1    0    0    0 -0.14939443568E+01 -0.11568714546E+02 -0.26383299103E+02  0.96153067797E+02  0.91723862485E+02 0.  0.
         13    1    3    3    0    0 -0.23522105541E+02 -0.38455036298E+02  0.96369071431E+01  0.46097292860E+02  0.10566000000E+00 0.  1.
         22    1    1    0    0    0  0.14939443568E+01  0.11568714546E+02  0.26383299103E+02  0.28846932203E+02  0.00000000000E+00 0. -1.
</event>
<event>
 5    1  0.1764318E-003  0.9118800E+02  0.7818608E-02  0.1130116E+00
         25   -1    0    0    0    0  0.00000000000E+00  0.00000000000E+00  0.99999998245E-14  0.12500000000E+03  0.12500000000E+03 0.  0.
        -13    1    3    3    0    0  0.17229200691E+02  0.31699905608E+02 -0.22838231730E+02  0.42700414103E+02  0.10566000000E+00 0.  1.
         23    2    1    0    0    0  0.25388271412E+02 -0.10253334959E+02  0.92002908708E+01  0.96115046214E+02  0.91672032560E+02 0.  0.
         13    1    3    3    0    0  0.81590707210E+01 -0.41953240567E+02  0.32038522601E+02  0.53414632111E+02  0.10566000000E+00 0. -1.
         22    1    1    0    0    0 -0.25388271412E+02  0.10253334959E+02 -0.92002908708E+01  0.28884953786E+02  0.00000000000E+00 0. -1.
</event>
<event>
 5    1  0.1764318E-003  0.9118800E+02  0.7818608E-02  0.1130116E+00
         25   -1    0    0    0    0  0.00000000000E+00  0.00000000000E+00  0.99999998245E-14  0.12500000000E+03  0.12500000000E+03 0.  0.
        -13    1    3    3    0    0  0.51192778972E+02  0.92629806748E+01 -0.11251603615E+02  0.53226996701E+02  0.10566000000E+00 0.  1.
         23    2    1    0    0    0  0.18945852111E+02  0.14438319472E+02  0.16449075171E+02  0.96052073384E+02  0.91586125292E+02 0.  0.
         13    1    3    3    0    0 -0.32246926861E+02  0.51753387972E+01  0.27700678786E+02  0.42825076683E+02  0.10566000000E+00 0. -1.
         22    1    1    0    0    0 -0.18945852111E+02 -0.14438319472E+02 -0.16449075171E+02  0.28947926616E+02  0.00000000000E+00 0.  1.
</event>
<event>
 5    1  0.1764318E-003  0.9118800E+02  0.7818608E-02  0.1130116E+00
         25   -1    0    0    0    0  0.00000000000E+00  0.00000000000E+00  0.99999998245E-14  0.12500000000E+03  0.12500000000E+03 0.  0.
        -13    1    3    3    0    0 -0.12490906145E+02  0.35919675017E+02  0.72278344545E+01  0.38710444903E+02  0.10566000000E+00 0.  1.
         23    2    1    0    0    0  0.25756992915E+02 -0.13800009228E+01 -0.13343986269E+02  0.95958838589E+02  0.91458786605E+02 0.  0.
         13    1    3    3    0    0  0.38247899060E+02 -0.37299675939E+02 -0.20571820724E+02  0.57248393686E+02  0.10566000000E+00 0. -1.
         22    1    1    0    0    0 -0.25756992915E+02  0.13800009228E+01  0.13343986269E+02  0.29041161411E+02  0.00000000000E+00 0. -1.
</event>
<event>
 5    1  0.1764318E-003  0.9118800E+02  0.7818608E-02  0.1130116E+00
         25   -1    0    0    0    0  0.00000000000E+00  0.00000000000E+00  0.99999998245E-14  0.12500000000E+03  0.12500000000E+03 0.  0.
        -13    1    3    3    0    0  0.81825729092E+00 -0.29078108616E+02 -0.17482813295E+02  0.33939149524E+02  0.10566000000E+00 0. -1.
         23    2    1    0    0    0 -0.53661933427E+01  0.26596462467E+02  0.96773862239E+01  0.96193409593E+02  0.91778823257E+02 0.  0.
         13    1    3    3    0    0 -0.61844506336E+01  0.55674571082E+02  0.27160199519E+02  0.62254260069E+02  0.10566000000E+00 0.  1.
         22    1    1    0    0    0  0.53661933427E+01 -0.26596462467E+02 -0.96773862239E+01  0.28806590407E+02  0.00000000000E+00 0.  1.
</event>
<event>
 5    1  0.1764318E-003  0.9118800E+02  0.7818608E-02  0.1130116E+00
         25   -1    0    0    0    0  0.00000000000E+00  0.00000000000E+00  0.99999998245E-14  0.12500000000E+03  0.12500000000E+03 0.  0.
        -13    1    3    3    0    0 -0.94437720704E+01  0.45398600148E+02  0.20986445695E+02  0.50898524470E+02  0.10566000000E+00 0. -1.
         23    2    1    0    0    0  0.15370473917E+02  0.70321718384E+01  0.22790043750E+02  0.96625909647E+02  0.92365997054E+02 0.  0.
         13    1    3    3    0    0  0.24814245988E+02 -0.38366428309E+02  0.18035980550E+01  0.45727385177E+02  0.10566000000E+00 0.  1.
         22    1    1    0    0    0 -0.15370473917E+02 -0.70321718384E+01 -0.22790043750E+02  0.28374090353E+02  0.00000000000E+00 0. -1.
</event>
<event>
 5    1  0.1764318E-003  0.9118800E+02  0.7818608E-02  0.1130116E+00
         25   -1    0    0    0    0  0.00000000000E+00  0.00000000000E+00  0.99999998245E-14  0.12500000000E+03  0.12500000000E+03 0.  0.
        -13    1    3    3    0    0  0.56235873210E+02 -0.58689474251E+01 -0.20966760529E+01  0.56580254454E+02  0.10566000000E+00 0. -1.
         23    2    1    0    0    0  0.27462274786E+02  0.15530073181E+02 -0.67411552681E+01  0.92738523224E+02  0.86946137383E+02 0.  0.
         13    1    3    3    0    0 -0.28773598424E+02  0.21399020607E+02 -0.46444792151E+01  0.36158268770E+02  0.10566000000E+00 0.  1.
         22    1    1    0    0    0 -0.27462274786E+02 -0.15530073181E+02  0.67411552681E+01  0.32261476776E+02  0.00000000000E+00 0. -1.
</event>
<event>
 5    1  0.1764318E-003  0.9118800E+02  0.7818608E-02  0.1130116E+00
         25   -1    0    0    0    0  0.00000000000E+00  0.00000000000E+00  0.99999998245E-14  0.12500000000E+03  0.12500000000E+03 0.  0.
        -13    1    3    3    0    0 -0.43811705151E+02  0.28716870354E+02  0.10007207169E+02  0.53331787055E+02  0.10566000000E+00 0. -1.
         23    2    1    0    0    0 -0.32590799325E+02 -0.32192178726E+01 -0.74434295064E+01  0.91415357570E+02  0.85022581662E+02 0.  0.
         13    1    3    3    0    0  0.11220905827E+02 -0.31936088226E+02 -0.17450636675E+02  0.38083570515E+02  0.10566000000E+00 0.  1.
         22    1    1    0    0    0  0.32590799325E+02  0.32192178726E+01  0.74434295064E+01  0.33584642430E+02  0.00000000000E+00 0. -1.
</event>
<event>
 5    1  0.1764318E-003  0.9118800E+02  0.7818608E-02  0.1130116E+00
         25   -1    0    0    0    0  0.00000000000E+00  0.00000000000E+00  0.99999998245E-14  0.12500000000E+03  0.12500000000E+03 0.  0.
        -13    1    3    3    0    0  0.53399229208E+02  0.85133964120E+01 -0.14534703396E+02  0.55993074263E+02  0.10566000000E+00 0. -1.
         23    2    1    0    0    0  0.24033695253E+02  0.21619716245E+02  0.28473253765E+01  0.92547913783E+02  0.86671670376E+02 0.  0.
         13    1    3    3    0    0 -0.29365533955E+02  0.13106319833E+02  0.17382028773E+02  0.36554839520E+02  0.10566000000E+00 0.  1.
         22    1    1    0    0    0 -0.24033695253E+02 -0.21619716245E+02 -0.28473253765E+01  0.32452086217E+02  0.00000000000E+00 0. -1.
</event>
<event>
 5    1  0.1764318E-003  0.9118800E+02  0.7818608E-02  0.1130116E+00
         25   -1    0    0    0    0  0.00000000000E+00  0.00000000000E+00  0.99999998245E-14  0.12500000000E+03  0.12500000000E+03 0.  0.
        -13    1    3    3    0    0  0.18383059125E+02 -0.35782855141E+02 -0.35224554230E+02  0.53470832886E+02  0.10566000000E+00 0.  1.
         23    2    1    0    0    0 -0.14001476991E+02 -0.23820577597E+02 -0.13646259048E+02  0.94183094559E+02  0.88998728304E+02 0.  0.
         13    1    3    3    0    0 -0.32384536116E+02  0.11962277544E+02  0.21578295181E+02  0.40712261672E+02  0.10566000000E+00 0. -1.
         22    1    1    0    0    0  0.14001476991E+02  0.23820577597E+02  0.13646259048E+02  0.30816905441E+02  0.00000000000E+00 0.  1.
</event>
<event>
 5    1  0.1764318E-003  0.9118800E+02  0.7818608E-02  0.1130116E+00
         25   -1    0    0    0    0  0.00000000000E+00  0.00000000000E+00  0.99999998245E-14  0.12500000000E+03  0.12500000000E+03 0.  0.
        -13    1    3    3    0    0  0.23839718852E+02  0.28400065826E+02  0.46949978724E+02  0.59826479088E+02  0.10566000000E+00 0. -1.
         23    2    1    0    0    0  0.11285960618E+02  0.22749721071E+02  0.12980856307E+02  0.96479387342E+02  0.92167493378E+02 0.  0.
         13    1    3    3    0    0 -0.12553758234E+02 -0.56503447547E+01 -0.33969122417E+02  0.36652908254E+02  0.10566000000E+00 0.  1.
         22    1    1    0    0    0 -0.11285960618E+02 -0.22749721071E+02 -0.12980856307E+02  0.28520612658E+02  0.00000000000E+00 0. -1.
</event>
<event>
 4    1  0.1764318E-003  0.9118800E+02  0.7818608E-02  0.1130116E+00
         25   -1    0    0    0    0  0.00000000000E+00  0.00000000000E+00  0.99999998245E-14  0.12500000000E+03  0.12500000000E+03 0.  0.
        -13    1    1    0    0    0 -0.88576369218E+01 -0.14371125769E+02 -0.77335757003E+01  0.18568961868E+02  0.10566000000E+00 0. -1.
         13    1    1    0    0    0 -0.24456368116E+02  0.10993398780E+02  0.47438135968E+02  0.54491803662E+02  0.10566000000E+00 0.  1.
         22    1    1    0    0    0  0.33314005037E+02  0.33777269888E+01 -0.39704560268E+02  0.51939234470E+02  0.00000000000E+00 0.  1.
</event>
<event>
 5    1  0.1764318E-003  0.9118800E+02  0.7818608E-02  0.1130116E+00
         25   -1    0    0    0    0  0.00000000000E+00  0.00000000000E+00  0.99999998245E-14  0.12500000000E+03  0.12500000000E+03 0.  0.
        -13    1    3    3    0    0  0.43881463249E+02 -0.32848285238E+02  0.10796262742E+02  0.55867370738E+02  0.10566000000E+00 0. -1.
         23    2    1    0    0    0  0.68253858843E+01 -0.24985042840E+02  0.16665990955E+02  0.94200754673E+02  0.89023528734E+02 0.  0.
         13    1    3    3    0    0 -0.37056077364E+02  0.78632423980E+01  0.58697282134E+01  0.38333383936E+02  0.10566000000E+00 0.  1.
         22    1    1    0    0    0 -0.68253858843E+01  0.24985042840E+02 -0.16665990955E+02  0.30799245327E+02  0.00000000000E+00 0. -1.
</event>
<event>
 5    1  0.1764318E-003  0.9118800E+02  0.7818608E-02  0.1130116E+00
         25   -1    0    0    0    0  0.00000000000E+00  0.00000000000E+00  0.99999998245E-14  0.12500000000E+03  0.12500000000E+03 0.  0.
        -13    1    3    3    0    0  0.23521448291E+02  0.82349989640E+01  0.56029112995E+02  0.61321663421E+02  0.10566000000E+00 0.  1.
         23    2    1    0    0    0  0.75300671028E+01  0.11627522434E+02  0.23719509741E+02  0.97531539343E+02  0.93583571398E+02 0.  0.
         13    1    3    3    0    0 -0.15991381188E+02  0.33925234702E+01 -0.32309603254E+02  0.36209875922E+02  0.10566000000E+00 0. -1.
         22    1    1    0    0    0 -0.75300671028E+01 -0.11627522434E+02 -0.23719509741E+02  0.27468460657E+02  0.00000000000E+00 0.  1.
</event>
<event>
 5    1  0.1764318E-003  0.9118800E+02  0.7818608E-02  0.1130116E+00
         25   -1    0    0    0    0  0.00000000000E+00  0.00000000000E+00  0.99999998245E-14  0.12500000000E+03  0.12500000000E+03 0.  0.
        -13    1    3    3    0    0  0.48417648333E+01  0.18235939365E+02  0.48684674527E+02  0.52213033517E+02  0.10566000000E+00 0.  1.
         23    2    1    0    0    0 -0.17840948746E+02 -0.75998113927E+01  0.21533567056E+02  0.96021540836E+02  0.91544443901E+02 0.  0.
         13    1    3    3    0    0 -0.22682713579E+02 -0.25835750758E+02 -0.27151107472E+02  0.43808507319E+02  0.10566000000E+00 0. -1.
         22    1    1    0    0    0  0.17840948746E+02  0.75998113927E+01 -0.21533567056E+02  0.28978459164E+02  0.00000000000E+00 0. -1.
</event>
<event>
 5    1  0.1764318E-003  0.9118800E+02  0.7818608E-02  0.1130116E+00
         25   -1    0    0    0    0  0.00000000000E+00  0.00000000000E+00  0.99999998245E-14  0.12500000000E+03  0.12500000000E+03 0.  0.
        -13    1    3    3    0    0 -0.18037392371E+02  0.26541520924E+02 -0.29779803166E+02  0.43779535141E+02  0.10566000000E+00 0.  1.
         23    2    1    0    0    0  0.71697625719E+01 -0.19206640717E+02 -0.18862672140E+02  0.97141411679E+02  0.93061017187E+02 0.  0.
         13    1    3    3    0    0  0.25207154943E+02 -0.45748161641E+02  0.10917131025E+02  0.53361876538E+02  0.10566000000E+00 0. -1.
         22    1    1    0    0    0 -0.71697625719E+01  0.19206640717E+02  0.18862672140E+02  0.27858588321E+02  0.00000000000E+00 0. -1.
</event>
<event>
 5    1  0.1764318E-003  0.9118800E+02  0.7818608E-02  0.1130116E+00
         25   -1    0    0    0    0  0.00000000000E+00  0.00000000000E+00  0.99999998245E-14  0.12500000000E+03  0.12500000000E+03 0.  0.
        -13    1    3    3    0    0  0.35943924105E+02  0.87851662579E+01 -0.47264213903E+02  0.60025510461E+02  0.10566000000E+00 0. -1.
         23    2    1    0    0    0  0.24610963867E+02  0.61971318721E+01 -0.12445786246E+02  0.96733383981E+02  0.92511329010E+02 0.  0.
         13    1    3    3    0    0 -0.11332960237E+02 -0.25880343859E+01  0.34818427658E+02  0.36707873519E+02  0.10566000000E+00 0.  1.
         22    1    1    0    0    0 -0.24610963867E+02 -0.61971318721E+01  0.12445786246E+02  0.28266616019E+02  0.00000000000E+00 0. -1.
</event>
<event>
 5    1  0.1764318E-003  0.9118800E+02  0.7818608E-02  0.1130116E+00
         25   -1    0    0    0    0  0.00000000000E+00  0.00000000000E+00  0.99999998245E-14  0.12500000000E+03  0.12500000000E+03 0.  0.
        -13    1    3    3    0    0 -0.43820115473E+02  0.20895043317E+02 -0.33262895441E+02  0.58849271299E+02  0.10566000000E+00 0.  1.
         23    2    1    0    0    0 -0.17098560407E+02 -0.58573651257E+01 -0.17585862531E+02  0.99782306704E+02  0.96543133759E+02 0.  0.
         13    1    3    3    0    0  0.26721555065E+02 -0.26752408442E+02  0.15677032910E+02  0.40933035405E+02  0.10566000000E+00 0. -1.
         22    1    1    0    0    0  0.17098560407E+02  0.58573651257E+01  0.17585862531E+02  0.25217693296E+02  0.00000000000E+00 0.  1.
</event>
<event>
 5    1  0.1764318E-003  0.9118800E+02  0.7818608E-02  0.1130116E+00
         25   -1    0    0    0    0  0.00000000000E+00  0.00000000000E+00  0.99999998245E-14  0.12500000000E+03  0.12500000000E+03 0.  0.
        -13    1    3    3    0    0 -0.97129834011E+01 -0.66396836858E+01  0.34901715419E+02  0.36831621594E+02  0.10566000000E+00 0.  1.
         23    2    1    0    0    0  0.15488881101E+02  0.28940015230E+02  0.83196082396E+00  0.92165230653E+02  0.86117986874E+02 0.  0.
         13    1    3    3    0    0  0.25201864502E+02  0.35579698915E+02 -0.34069754595E+02  0.55333609059E+02  0.10566000000E+00 0. -1.
         22    1    1    0    0    0 -0.15488881101E+02 -0.28940015230E+02 -0.83196082396E+00  0.32834769347E+02  0.00000000000E+00 0. -1.
</event>
<event>
 5    1  0.1764318E-003  0.9118800E+02  0.7818608E-02  0.1130116E+00
         25   -1    0    0    0    0  0.00000000000E+00  0.00000000000E+00  0.99999998245E-14  0.12500000000E+03  0.12500000000E+03 0.  0.
        -13    1    3    3    0    0 -0.51593602999E+02 -0.32783586945E+02 -0.12897224078E+02  0.62474098604E+02  0.10566000000E+00 0.  1.
         23    2    1    0    0    0 -0.24085997733E+02 -0.15187039086E+02 -0.47160759117E+01  0.96137865376E+02  0.91703142498E+02 0.  0.
         13    1    3    3    0    0  0.27507605265E+02  0.17596547859E+02  0.81811481662E+01  0.33663766773E+02  0.10566000000E+00 0. -1.
         22    1    1    0    0    0  0.24085997733E+02  0.15187039086E+02  0.47160759117E+01  0.28862134624E+02  0.00000000000E+00 0.  1.
</event>
<event>
 5    1  0.1764318E-003  0.9118800E+02  0.7818608E-02  0.1130116E+00
         25   -1    0    0    0    0  0.00000000000E+00  0.00000000000E+00  0.99999998245E-14  0.12500000000E+03  0.12500000000E+03 0.  0.
        -13    1    3    3    0    0 -0.35869000228E+02  0.70525986558E+00  0.17474923351E+02  0.39905722384E+02  0.10566000000E+00 0.  1.
         23    2    1    0    0    0 -0.24836991468E+01 -0.82445639877E+01 -0.27245325455E+02  0.96426422066E+02  0.92095632451E+02 0.  0.
         13    1    3    3    0    0  0.33385301081E+02 -0.89498238533E+01 -0.44720248806E+02  0.56520699682E+02  0.10566000000E+00 0. -1.
         22    1    1    0    0    0  0.24836991468E+01  0.82445639877E+01  0.27245325455E+02  0.28573577934E+02  0.00000000000E+00 0. -1.
</event>
<event>
 5    1  0.1764318E-003  0.9118800E+02  0.7818608E-02  0.1130116E+00
         25   -1    0    0    0    0  0.00000000000E+00  0.00000000000E+00  0.99999998245E-14  0.12500000000E+03  0.12500000000E+03 0.  0.
        -13    1    3    3    0    0 -0.26419384266E+02 -0.74183631193E+01 -0.51809339212E+02  0.58627935065E+02  0.10566000000E+00 0.  1.
         23    2    1    0    0    0 -0.24123369583E+02 -0.72013639720E+01 -0.14622868418E+02  0.95886001926E+02  0.91359183892E+02 0.  0.
         13    1    3    3    0    0  0.22960146833E+01  0.21699914731E+00  0.37186470794E+02  0.37258066861E+02  0.10566000000E+00 0. -1.
         22    1    1    0    0    0  0.24123369583E+02  0.72013639720E+01  0.14622868418E+02  0.29113998074E+02  0.00000000000E+00 0.  1.
</event>
<event>
 5    1  0.1764318E-003  0.9118800E+02  0.7818608E-02  0.1130116E+00
         25   -1    0    0    0    0  0.00000000000E+00  0.00000000000E+00  0.99999998245E-14  0.12500000000E+03  0.12500000000E+03 0.  0.
        -13    1    3    3    0    0  0.25008126953E+02 -0.13478472656E+02  0.22174007501E+02  0.36038499019E+02  0.10566000000E+00 0.  1.
         23    2    1    0    0    0 -0.22160095543E+02 -0.13835932246E+02 -0.13887258907E+02  0.95413536617E+02  0.90710441264E+02 0.  0.
         13    1    3    3    0    0 -0.47168222496E+02 -0.35745959014E+00 -0.36061266408E+02  0.59375037598E+02  0.10566000000E+00 0. -1.
         22    1    1    0    0    0  0.22160095543E+02  0.13835932246E+02  0.13887258907E+02  0.29586463383E+02  0.00000000000E+00 0. -1.
</event>
<event>
 5    1  0.1764318E-003  0.9118800E+02  0.7818608E-02  0.1130116E+00
         25   -1    0    0    0    0  0.00000000000E+00  0.00000000000E+00  0.99999998245E-14  0.12500000000E+03  0.12500000000E+03 0.  0.
        -13    1    3    3    0    0  0.25505877381E+02 -0.17217235612E+02 -0.21346688925E+02  0.37452306674E+02  0.10566000000E+00 0. -1.
         23    2    1    0    0    0  0.26882911010E+00  0.30712027974E+02 -0.67153398634E+01  0.93561222657E+02  0.88120971761E+02 0.  0.
         13    1    3    3    0    0 -0.25237048271E+02  0.47929263586E+02  0.14631349062E+02  0.56108915983E+02  0.10566000000E+00 0.  1.
         22    1    1    0    0    0 -0.26882911010E+00 -0.30712027974E+02  0.67153398634E+01  0.31438777343E+02  0.00000000000E+00 0.  1.
</event>
<event>
 5    1  0.1764318E-003  0.9118800E+02  0.7818608E-02  0.1130116E+00
         25   -1    0    0    0    0  0.00000000000E+00  0.00000000000E+00  0.99999998245E-14  0.12500000000E+03  0.12500000000E+03 0.  0.
        -13    1    3    3    0    0  0.10617753265E+02  0.17659951054E+02 -0.29597410465E+02  0.36064226400E+02  0.10566000000E+00 0. -1.
         23    2    1    0    0    0 -0.30794448552E+01  0.76896300531E+01  0.27842955668E+02  0.95951014281E+02  0.91448092218E+02 0.  0.
         13    1    3    3    0    0 -0.13697198121E+02 -0.99703210004E+01  0.57440366132E+02  0.59886787881E+02  0.10566000000E+00 0.  1.
         22    1    1    0    0    0  0.30794448552E+01 -0.76896300531E+01 -0.27842955668E+02  0.29048985719E+02  0.00000000000E+00 0.  1.
</event>
<event>
 5    1  0.1764318E-003  0.9118800E+02  0.7818608E-02  0.1130116E+00
         25   -1    0    0    0    0  0.00000000000E+00  0.00000000000E+00  0.99999998245E-14  0.12500000000E+03  0.12500000000E+03 0.  0.
        -13    1    3    3    0    0 -0.42527404845E+02 -0.31658207459E+02  0.28580263729E+02  0.60230099628E+02  0.10566000000E+00 0.  1.
         23    2    1    0    0    0 -0.27075448654E+02 -0.63512899944E+01  0.89739084705E+01  0.95777579880E+02  0.91210717408E+02 0.  0.
         13    1    3    3    0    0  0.15451956191E+02  0.25306917465E+02 -0.19606355259E+02  0.35547480252E+02  0.10566000000E+00 0. -1.
         22    1    1    0    0    0  0.27075448654E+02  0.63512899944E+01 -0.89739084705E+01  0.29222420120E+02  0.00000000000E+00 0.  1.
</event>
<event>
 5    1  0.1764318E-003  0.9118800E+02  0.7818608E-02  0.1130116E+00
         25   -1    0    0    0    0  0.00000000000E+00  0.00000000000E+00  0.99999998245E-14  0.12500000000E+03  0.12500000000E+03 0.  0.
        -13    1    3    3    0    0 -0.13833477579E+02 -0.26021094437E+02  0.19440518088E+02  0.35304494972E+02  0.10566000000E+00 0.  1.
         23    2    1    0    0    0 -0.71617975577E+01  0.19087125442E+02 -0.20621539272E+02  0.96002455555E+02  0.91518380059E+02 0.  0.
         13    1    3    3    0    0  0.66716800217E+01  0.45108219879E+02 -0.40062057360E+02  0.60697960583E+02  0.10566000000E+00 0. -1.
         22    1    1    0    0    0  0.71617975577E+01 -0.19087125442E+02  0.20621539272E+02  0.28997544445E+02  0.00000000000E+00 0. -1.
</event>
<event>
 5    1  0.1764318E-003  0.9118800E+02  0.7818608E-02  0.1130116E+00
         25   -1    0    0    0    0  0.00000000000E+00  0.00000000000E+00  0.99999998245E-14  0.12500000000E+03  0.12500000000E+03 0.  0.
        -13    1    3    3    0    0  0.22812997519E+02 -0.16707314071E+02  0.55365113968E+02  0.62168112470E+02  0.10566000000E+00 0.  1.
         23    2    1    0    0    0  0.91075533891E+01 -0.36520209638E+01  0.27029807723E+02  0.96244212906E+02  0.91847989780E+02 0.  0.
         13    1    3    3    0    0 -0.13705444130E+02  0.13055293107E+02 -0.28335306246E+02  0.34076100437E+02  0.10566000000E+00 0. -1.
         22    1    1    0    0    0 -0.91075533891E+01  0.36520209638E+01 -0.27029807723E+02  0.28755787094E+02  0.00000000000E+00 0.  1.
</event>
<event>
 5    1  0.1764318E-003  0.9118800E+02  0.7818608E-02  0.1130116E+00
         25   -1    0    0    0    0  0.00000000000E+00  0.00000000000E+00  0.99999998245E-14  0.12500000000E+03  0.12500000000E+03 0.  0.
        -13    1    3    3    0    0  0.82097366285E+01 -0.69687190544E+01  0.32154978808E+02  0.33910420920E+02  0.10566000000E+00 0. -1.
         23    2    1    0    0    0 -0.15203007393E+02  0.18899953888E+01 -0.24644650449E+02  0.95981690054E+02  0.91490013190E+02 0.  0.
         13    1    3    3    0    0 -0.23412744022E+02  0.88587144432E+01 -0.56799629257E+02  0.62071269135E+02  0.10566000000E+00 0.  1.
         22    1    1    0    0    0  0.15203007393E+02 -0.18899953888E+01  0.24644650449E+02  0.29018309946E+02  0.00000000000E+00 0.  1.
</event>
<event>
 5    1  0.1764318E-003  0.9118800E+02  0.7818608E-02  0.1130116E+00
         25   -1    0    0    0    0  0.00000000000E+00  0.00000000000E+00  0.99999998245E-14  0.12500000000E+03  0.12500000000E+03 0.  0.
        -13    1    3    3    0    0  0.40925159325E+02  0.10925890213E+02  0.33018375782E+02  0.53707243888E+02  0.10566000000E+00 0.  1.
         23    2    1    0    0    0  0.67765360420E+01 -0.13594630127E+02  0.23830586018E+02  0.96739917924E+02  0.92520157160E+02 0.  0.
         13    1    3    3    0    0 -0.34148623283E+02 -0.24520520340E+02 -0.91877897640E+01  0.43032674036E+02  0.10566000000E+00 0. -1.
         22    1    1    0    0    0 -0.67765360420E+01  0.13594630127E+02 -0.23830586018E+02  0.28260082076E+02  0.00000000000E+00 0.  1.
</event>
<event>
 5    1  0.1764318E-003  0.9118800E+02  0.7818608E-02  0.1130116E+00
         25   -1    0    0    0    0  0.00000000000E+00  0.00000000000E+00  0.99999998245E-14  0.12500000000E+03  0.12500000000E+03 0.  0.
        -13    1    3    3    0    0 -0.13411000791E+02 -0.24265115033E+02 -0.40649808986E+02  0.49204358389E+02  0.10566000000E+00 0.  1.
         23    2    1    0    0    0 -0.11506202177E+02  0.17170497663E+02 -0.22399313252E+02  0.94521353169E+02  0.89472556084E+02 0.  0.
         13    1    3    3    0    0  0.19047986142E+01  0.41435612696E+02  0.18250495735E+02  0.45316994780E+02  0.10566000000E+00 0. -1.
         22    1    1    0    0    0  0.11506202177E+02 -0.17170497663E+02  0.22399313252E+02  0.30478646831E+02  0.00000000000E+00 0.  1.
</event>
<event>
 5    1  0.1764318E-003  0.9118800E+02  0.7818608E-02  0.1130116E+00
         25   -1    0    0    0    0  0.00000000000E+00  0.00000000000E+00  0.99999998245E-14  0.12500000000E+03  0.12500000000E+03 0.  0.
        -13    1    3    3    0    0  0.45599793345E+02  0.12500597240E+02  0.14276237703E+02  0.49390568042E+02  0.10566000000E+00 0.  1.
         23    2    1    0    0    0  0.19996530053E+02 -0.19461191124E+02 -0.79507338841E+01  0.95985980226E+02  0.91495874533E+02 0.  0.
         13    1    3    3    0    0 -0.25603263293E+02 -0.31961788365E+02 -0.22226971587E+02  0.46595412185E+02  0.10566000000E+00 0. -1.
         22    1    1    0    0    0 -0.19996530053E+02  0.19461191124E+02  0.79507338841E+01  0.29014019774E+02  0.00000000000E+00 0.  1.
</event>
<event>
 5    1  0.1764318E-003  0.9118800E+02  0.7818608E-02  0.1130116E+00
         25   -1    0    0    0    0  0.00000000000E+00  0.00000000000E+00  0.99999998245E-14  0.12500000000E+03  0.12500000000E+03 0.  0.
        -13    1    3    3    0    0 -0.19411463472E+02  0.93309645649E+01  0.44559546667E+02  0.49491778884E+02  0.10566000000E+00 0.  1.
         23    2    1    0    0    0 -0.15216022054E+02 -0.22349174401E+02  0.11063652164E+02  0.95786692711E+02  0.91223205259E+02 0.  0.
         13    1    3    3    0    0  0.41954414182E+01 -0.31680138966E+02 -0.33495894504E+02  0.46294913827E+02  0.10566000000E+00 0. -1.
         22    1    1    0    0    0  0.15216022054E+02  0.22349174401E+02 -0.11063652164E+02  0.29213307289E+02  0.00000000000E+00 0. -1.
</event>
<event>
 5    1  0.1764318E-003  0.9118800E+02  0.7818608E-02  0.1130116E+00
         25   -1    0    0    0    0  0.00000000000E+00  0.00000000000E+00  0.99999998245E-14  0.12500000000E+03  0.12500000000E+03 0.  0.
        -13    1    3    3    0    0  0.27168001961E+02  0.33622578224E+02  0.39214782307E+02  0.58364273425E+02  0.10566000000E+00 0.  1.
         23    2    1    0    0    0  0.77246943677E+01  0.27670291719E+02  0.87930593965E+01  0.94956134729E+02  0.90077931161E+02 0.  0.
         13    1    3    3    0    0 -0.19443307594E+02 -0.59522865052E+01 -0.30421722910E+02  0.36591861304E+02  0.10566000000E+00 0. -1.
         22    1    1    0    0    0 -0.77246943677E+01 -0.27670291719E+02 -0.87930593965E+01  0.30043865271E+02  0.00000000000E+00 0.  1.
</event>
<event>
 5    1  0.1764318E-003  0.9118800E+02  0.7818608E-02  0.1130116E+00
         25   -1    0    0    0    0  0.00000000000E+00  0.00000000000E+00  0.99999998245E-14  0.12500000000E+03  0.12500000000E+03 0.  0.
        -13    1    3    3    0    0  0.39445027771E+02  0.15498042612E+02 -0.19320606396E+02  0.46576781085E+02  0.10566000000E+00 0.  1.
         23    2    1    0    0    0  0.35525993536E+00 -0.14380453896E+02 -0.25053299352E+02  0.96110703154E+02  0.91666110360E+02 0.  0.
         13    1    3    3    0    0 -0.39089767836E+02 -0.29878496507E+02 -0.57326929558E+01  0.49533922069E+02  0.10566000000E+00 0. -1.
         22    1    1    0    0    0 -0.35525993536E+00  0.14380453896E+02  0.25053299352E+02  0.28889296846E+02  0.00000000000E+00 0. -1.
</event>
<event>
 5    1  0.1764318E-003  0.9118800E+02  0.7818608E-02  0.1130116E+00
         25   -1    0    0    0    0  0.00000000000E+00  0.00000000000E+00  0.99999998245E-14  0.12500000000E+03  0.12500000000E+03 0.  0.
        -13    1    3    3    0    0  0.32349539118E+02 -0.44099058445E+02  0.23243645962E+02  0.59426407249E+02  0.10566000000E+00 0.  1.
         23    2    1    0    0    0  0.19877755552E+02 -0.10272614021E+02  0.18844819895E+02  0.95746299353E+02  0.91167838838E+02 0.  0.
         13    1    3    3    0    0 -0.12471783566E+02  0.33826444424E+02 -0.43988260667E+01  0.36319892104E+02  0.10566000000E+00 0. -1.
         22    1    1    0    0    0 -0.19877755552E+02  0.10272614021E+02 -0.18844819895E+02  0.29253700647E+02  0.00000000000E+00 0.  1.
</event>
<event>
 5    1  0.1764318E-003  0.9118800E+02  0.7818608E-02  0.1130116E+00
         25   -1    0    0    0    0  0.00000000000E+00  0.00000000000E+00  0.99999998245E-14  0.12500000000E+03  0.12500000000E+03 0.  0.
        -13    1    3    3    0    0  0.58368207324E+02  0.14497669664E+02  0.34267829615E+01  0.60239389584E+02  0.10566000000E+00 0.  1.
         23    2    1    0    0    0  0.25498379396E+02  0.60763174222E+01  0.13338494700E+02  0.95589042415E+02  0.90951968663E+02 0.  0.
         13    1    3    3    0    0 -0.32869827929E+02 -0.84213522420E+01  0.99117117385E+01  0.35349652831E+02  0.10566000000E+00 0. -1.
         22    1    1    0    0    0 -0.25498379396E+02 -0.60763174222E+01 -0.13338494700E+02  0.29410957585E+02  0.00000000000E+00 0.  1.
</event>
<event>
 5    1  0.1764318E-003  0.9118800E+02  0.7818608E-02  0.1130116E+00
         25   -1    0    0    0    0  0.00000000000E+00  0.00000000000E+00  0.99999998245E-14  0.12500000000E+03  0.12500000000E+03 0.  0.
        -13    1    3    3    0    0  0.29511006498E+02 -0.25148826184E+02  0.21483093953E+02  0.44327163826E+02  0.10566000000E+00 0.  1.
         23    2    1    0    0    0 -0.20643336653E+02 -0.16778038971E+02  0.10823711855E+02  0.96280621904E+02  0.91897527040E+02 0.  0.
         13    1    3    3    0    0 -0.50154343152E+02  0.83707872135E+01 -0.10659382098E+02  0.51953458078E+02  0.10566000000E+00 0. -1.
         22    1    1    0    0    0  0.20643336653E+02  0.16778038971E+02 -0.10823711855E+02  0.28719378096E+02  0.00000000000E+00 0.  1.
</event>
<event>
 5    1  0.1764318E-003  0.9118800E+02  0.7818608E-02  0.1130116E+00
         25   -1    0    0    0    0  0.00000000000E+00  0.00000000000E+00  0.99999998245E-14  0.12500000000E+03  0.12500000000E+03 0.  0.
        -13    1    3    3    0    0 -0.42249455864E+02 -0.12586871905E+02  0.25603356178E+01  0.44158944142E+02  0.10566000000E+00 0.  1.
         23    2    1    0    0    0 -0.28681883642E+01  0.97888306362E+01  0.27361694046E+02  0.95798801210E+02  0.91239795607E+02 0.  0.
         13    1    3    3    0    0  0.39381267500E+02  0.22375702541E+02  0.24801358428E+02  0.51639857068E+02  0.10566000000E+00 0. -1.
         22    1    1    0    0    0  0.28681883642E+01 -0.97888306362E+01 -0.27361694046E+02  0.29201198790E+02  0.00000000000E+00 0. -1.
</event>
<event>
 5    1  0.1764318E-003  0.9118800E+02  0.7818608E-02  0.1130116E+00
         25   -1    0    0    0    0  0.00000000000E+00  0.00000000000E+00  0.99999998245E-14  0.12500000000E+03  0.12500000000E+03 0.  0.
        -13    1    3    3    0    0  0.28441964501E+02  0.35363609063E+01  0.22017259176E+02  0.36141694188E+02  0.10566000000E+00 0.  1.
         23    2    1    0    0    0 -0.46099091473E+01 -0.24923264674E+02 -0.16850898860E+02  0.94563620834E+02  0.89531587769E+02 0.  0.
         13    1    3    3    0    0 -0.33051873649E+02 -0.28459625580E+02 -0.38868158036E+02  0.58421926646E+02  0.10566000000E+00 0. -1.
         22    1    1    0    0    0  0.46099091473E+01  0.24923264674E+02  0.16850898860E+02  0.30436379166E+02  0.00000000000E+00 0. -1.
</event>
<event>
 5    1  0.1764318E-003  0.9118800E+02  0.7818608E-02  0.1130116E+00
         25   -1    0    0    0    0  0.00000000000E+00  0.00000000000E+00  0.99999998245E-14  0.12500000000E+03  0.12500000000E+03 0.  0.
        -13    1    3    3    0    0  0.31948704515E+02 -0.83715858813E+01 -0.14279020747E+01  0.33058330852E+02  0.10566000000E+00 0.  1.
         23    2    1    0    0    0 -0.28673583944E+02  0.66889309788E+01  0.48123581639E+00  0.95552626573E+02  0.90901906708E+02 0.  0.
         13    1    3    3    0    0 -0.60622288459E+02  0.15060516860E+02  0.19091378911E+01  0.62494295721E+02  0.10566000000E+00 0. -1.
         22    1    1    0    0    0  0.28673583944E+02 -0.66889309788E+01 -0.48123581639E+00  0.29447373427E+02  0.00000000000E+00 0. -1.
</event>
<event>
 5    1  0.1764318E-003  0.9118800E+02  0.7818608E-02  0.1130116E+00
         25   -1    0    0    0    0  0.00000000000E+00  0.00000000000E+00  0.99999998245E-14  0.12500000000E+03  0.12500000000E+03 0.  0.
        -13    1    3    3    0    0  0.54300277381E+02 -0.20271876763E+02 -0.72910825530E+01  0.58417806874E+02  0.10566000000E+00 0.  1.
         23    2    1    0    0    0  0.28581405199E+02  0.61157313794E+01 -0.13612150200E+01  0.95739928234E+02  0.91159102993E+02 0.  0.
         13    1    3    3    0    0 -0.25718872182E+02  0.26387608143E+02  0.59298675330E+01  0.37322121360E+02  0.10566000000E+00 0. -1.
         22    1    1    0    0    0 -0.28581405199E+02 -0.61157313794E+01  0.13612150200E+01  0.29260071766E+02  0.00000000000E+00 0.  1.
</event>
<event>
 5    1  0.1764318E-003  0.9118800E+02  0.7818608E-02  0.1130116E+00
         25   -1    0    0    0    0  0.00000000000E+00  0.00000000000E+00  0.99999998245E-14  0.12500000000E+03  0.12500000000E+03 0.  0.
        -13    1    3    3    0    0 -0.28515250897E+01  0.19907619488E+02 -0.58242635564E+02  0.61617045292E+02  0.10566000000E+00 0. -1.
         23    2    1    0    0    0  0.59116161646E+01  0.79959887084E+01 -0.28111644706E+02  0.95181421744E+02  0.90390018454E+02 0.  0.
         13    1    3    3    0    0  0.87631412543E+01 -0.11911630780E+02  0.30130990858E+02  0.33564376452E+02  0.10566000000E+00 0.  1.
         22    1    1    0    0    0 -0.59116161646E+01 -0.79959887084E+01  0.28111644706E+02  0.29818578256E+02  0.00000000000E+00 0. -1.
</event>
<event>
 5    1  0.1764318E-003  0.9118800E+02  0.7818608E-02  0.1130116E+00
         25   -1    0    0    0    0  0.00000000000E+00  0.00000000000E+00  0.99999998245E-14  0.12500000000E+03  0.12500000000E+03 0.  0.
        -13    1    3    3    0    0  0.21240352004E+02 -0.46303021649E+02  0.31767947265E+02  0.60036122497E+02  0.10566000000E+00 0. -1.
         23    2    1    0    0    0  0.20566244643E+02 -0.15292117046E+02  0.15226178400E+02  0.95189670059E+02  0.90401424297E+02 0.  0.
         13    1    3    3    0    0 -0.67410736090E+00  0.31010904602E+02 -0.16541768865E+02  0.35153547562E+02  0.10566000000E+00 0.  1.
         22    1    1    0    0    0 -0.20566244643E+02  0.15292117046E+02 -0.15226178400E+02  0.29810329941E+02  0.00000000000E+00 0. -1.
</event>
<event>
 5    1  0.1764318E-003  0.9118800E+02  0.7818608E-02  0.1130116E+00
         25   -1    0    0    0    0  0.00000000000E+00  0.00000000000E+00  0.99999998245E-14  0.12500000000E+03  0.12500000000E+03 0.  0.
        -13    1    3    3    0    0  0.18326076471E+02  0.19618533407E+02 -0.23297718973E+02  0.35546122225E+02  0.10566000000E+00 0.  1.
         23    2    1    0    0    0  0.40997954601E+00  0.40054122587E-01  0.29953282876E+02  0.95043884721E+02  0.90199618515E+02 0.  0.
         13    1    3    3    0    0 -0.17916096925E+02 -0.19578479284E+02  0.53251001849E+02  0.59497762496E+02  0.10566000000E+00 0. -1.
         22    1    1    0    0    0 -0.40997954601E+00 -0.40054122587E-01 -0.29953282876E+02  0.29956115279E+02  0.00000000000E+00 0. -1.
</event>
<event>
 5    1  0.1764318E-003  0.9118800E+02  0.7818608E-02  0.1130116E+00
         25   -1    0    0    0    0  0.00000000000E+00  0.00000000000E+00  0.99999998245E-14  0.12500000000E+03  0.12500000000E+03 0.  0.
        -13    1    3    3    0    0  0.25164675662E+02 -0.28024385336E+02  0.23349181387E+02  0.44315037065E+02  0.10566000000E+00 0. -1.
         23    2    1    0    0    0  0.14345290164E+02 -0.11209857890E+02 -0.23511838525E+02  0.95263577643E+02  0.90503560210E+02 0.  0.
         13    1    3    3    0    0 -0.10819385498E+02  0.16814527446E+02 -0.46861019912E+02  0.50948540578E+02  0.10566000000E+00 0.  1.
         22    1    1    0    0    0 -0.14345290164E+02  0.11209857890E+02  0.23511838525E+02  0.29736422357E+02  0.00000000000E+00 0.  1.
</event>
<event>
 5    1  0.1764318E-003  0.9118800E+02  0.7818608E-02  0.1130116E+00
         25   -1    0    0    0    0  0.00000000000E+00  0.00000000000E+00  0.99999998245E-14  0.12500000000E+03  0.12500000000E+03 0.  0.
        -13    1    3    3    0    0  0.11601321889E+02  0.10571701804E+02 -0.32870411131E+02  0.36425631643E+02  0.10566000000E+00 0. -1.
         23    2    1    0    0    0  0.10369246113E+01 -0.19689959945E+02  0.19140763765E+02  0.97520215198E+02  0.93568444464E+02 0.  0.
         13    1    3    3    0    0 -0.10564397278E+02 -0.30261661749E+02  0.52011174896E+02  0.61094583555E+02  0.10566000000E+00 0.  1.
         22    1    1    0    0    0 -0.10369246113E+01  0.19689959945E+02 -0.19140763765E+02  0.27479784802E+02  0.00000000000E+00 0.  1.
</event>
<event>
 5    1  0.1764318E-003  0.9118800E+02  0.7818608E-02  0.1130116E+00
         25   -1    0    0    0    0  0.00000000000E+00  0.00000000000E+00  0.99999998245E-14  0.12500000000E+03  0.12500000000E+03 0.  0.
        -13    1    3    3    0    0 -0.24464182602E+02 -0.40668076030E+02 -0.23406090891E+02  0.52917340194E+02  0.10566000000E+00 0. -1.
         23    2    1    0    0    0 -0.79622003414E+00 -0.73136736420E+01 -0.29793370632E+02  0.94311749446E+02  0.89179242885E+02 0.  0.
         13    1    3    3    0    0  0.23667962568E+02  0.33354402388E+02 -0.63872797401E+01  0.41394409252E+02  0.10566000000E+00 0.  1.
         22    1    1    0    0    0  0.79622003414E+00  0.73136736420E+01  0.29793370632E+02  0.30688250554E+02  0.00000000000E+00 0.  1.
</event>
<event>
 5    1  0.1764318E-003  0.9118800E+02  0.7818608E-02  0.1130116E+00
         25   -1    0    0    0    0  0.00000000000E+00  0.00000000000E+00  0.99999998245E-14  0.12500000000E+03  0.12500000000E+03 0.  0.
        -13    1    3    3    0    0 -0.18797451797E+02  0.48917637773E+02 -0.13337019247E+02  0.54075564961E+02  0.10566000000E+00 0.  1.
         23    2    1    0    0    0  0.10628868465E+02  0.19600570521E+02 -0.18623273465E+02  0.95948639891E+02  0.91444846617E+02 0.  0.
         13    1    3    3    0    0  0.29426320263E+02 -0.29317067252E+02 -0.52862542179E+01  0.41873074931E+02  0.10566000000E+00 0. -1.
         22    1    1    0    0    0 -0.10628868465E+02 -0.19600570521E+02  0.18623273465E+02  0.29051360109E+02  0.00000000000E+00 0.  1.
</event>
<event>
 5    1  0.1764318E-003  0.9118800E+02  0.7818608E-02  0.1130116E+00
         25   -1    0    0    0    0  0.00000000000E+00  0.00000000000E+00  0.99999998245E-14  0.12500000000E+03  0.12500000000E+03 0.  0.
        -13    1    3    3    0    0  0.18226624620E+02 -0.38921914456E+02 -0.25999514962E+01  0.43056894707E+02  0.10566000000E+00 0.  1.
         23    2    1    0    0    0  0.38265654472E+01  0.42737827206E+01 -0.28830177968E+02  0.95604643504E+02  0.90973407521E+02 0.  0.
         13    1    3    3    0    0 -0.14400059173E+02  0.43195697177E+02 -0.26230226472E+02  0.52547748797E+02  0.10566000000E+00 0. -1.
         22    1    1    0    0    0 -0.38265654472E+01 -0.42737827206E+01  0.28830177968E+02  0.29395356496E+02  0.00000000000E+00 0. -1.
</event>
<event>
 5    1  0.1764318E-003  0.9118800E+02  0.7818608E-02  0.1130116E+00
         25   -1    0    0    0    0  0.00000000000E+00  0.00000000000E+00  0.99999998245E-14  0.12500000000E+03  0.12500000000E+03 0.  0.
        -13    1    3    3    0    0  0.16622855917E+01  0.23829821918E+02  0.33444643235E+02  0.41099622033E+02  0.10566000000E+00 0.  1.
         23    2    1    0    0    0 -0.18407932909E+02  0.14060541674E+02 -0.17003490590E+02  0.96265534312E+02  0.91877002444E+02 0.  0.
         13    1    3    3    0    0 -0.20070218501E+02 -0.97692802447E+01 -0.50448133825E+02  0.55165912280E+02  0.10566000000E+00 0. -1.
         22    1    1    0    0    0  0.18407932909E+02 -0.14060541674E+02  0.17003490590E+02  0.28734465688E+02  0.00000000000E+00 0.  1.
</event>
<event>
 5    1  0.1764318E-003  0.9118800E+02  0.7818608E-02  0.1130116E+00
         25   -1    0    0    0    0  0.00000000000E+00  0.00000000000E+00  0.99999998245E-14  0.12500000000E+03  0.12500000000E+03 0.  0.
        -13    1    3    3    0    0  0.25024698675E+02 -0.78811433595E+01 -0.24959940630E+02  0.36212674089E+02  0.10566000000E+00 0.  1.
         23    2    1    0    0    0 -0.17740381944E+02 -0.17291225593E+02  0.15455158441E+02  0.95801206249E+02  0.91243090491E+02 0.  0.
         13    1    3    3    0    0 -0.42765080619E+02 -0.94100822336E+01  0.40415099072E+02  0.59588532160E+02  0.10566000000E+00 0. -1.
         22    1    1    0    0    0  0.17740381944E+02  0.17291225593E+02 -0.15455158441E+02  0.29198793751E+02  0.00000000000E+00 0. -1.
</event>
<event>
 5    1  0.1764318E-003  0.9118800E+02  0.7818608E-02  0.1130116E+00
         25   -1    0    0    0    0  0.00000000000E+00  0.00000000000E+00  0.99999998245E-14  0.12500000000E+03  0.12500000000E+03 0.  0.
        -13    1    3    3    0    0  0.20159098403E+02 -0.42592305004E+02 -0.90397464771E+01  0.47981474283E+02  0.10566000000E+00 0.  1.
         23    2    1    0    0    0  0.22519477362E+02 -0.63979589222E+00  0.16429652009E+02  0.97116856981E+02  0.93028029353E+02 0.  0.
         13    1    3    3    0    0  0.23603789591E+01  0.41952509112E+02  0.25469398486E+02  0.49135382698E+02  0.10566000000E+00 0. -1.
         22    1    1    0    0    0 -0.22519477362E+02  0.63979589222E+00 -0.16429652009E+02  0.27883143019E+02  0.00000000000E+00 0. -1.
</event>
<event>
 5    1  0.1764318E-003  0.9118800E+02  0.7818608E-02  0.1130116E+00
         25   -1    0    0    0    0  0.00000000000E+00  0.00000000000E+00  0.99999998245E-14  0.12500000000E+03  0.12500000000E+03 0.  0.
        -13    1    3    3    0    0 -0.21481854053E+02 -0.22341139562E+02  0.24837862658E+02  0.39718096076E+02  0.10566000000E+00 0. -1.
         23    2    1    0    0    0  0.19785163362E+02  0.14924426973E+02  0.10528436375E+01  0.10019476488E+03  0.97075698398E+02 0.  0.
         13    1    3    3    0    0  0.41267017415E+02  0.37265566535E+02 -0.23785019020E+02  0.60476668802E+02  0.10566000000E+00 0.  1.
         22    1    1    0    0    0 -0.19785163362E+02 -0.14924426973E+02 -0.10528436375E+01  0.24805235122E+02  0.00000000000E+00 0.  1.
</event>
<event>
 5    1  0.1764318E-003  0.9118800E+02  0.7818608E-02  0.1130116E+00
         25   -1    0    0    0    0  0.00000000000E+00  0.00000000000E+00  0.99999998245E-14  0.12500000000E+03  0.12500000000E+03 0.  0.
        -13    1    3    3    0    0 -0.38052760465E+02 -0.35382431466E+02  0.15658986195E+02  0.54269181385E+02  0.10566000000E+00 0. -1.
         23    2    1    0    0    0 -0.28360457247E+02 -0.38126789425E+01 -0.84562898487E+01  0.95161084236E+02  0.90361889417E+02 0.  0.
         13    1    3    3    0    0  0.96923032186E+01  0.31569752524E+02 -0.24115276043E+02  0.40891902851E+02  0.10566000000E+00 0.  1.
         22    1    1    0    0    0  0.28360457247E+02  0.38126789425E+01  0.84562898487E+01  0.29838915764E+02  0.00000000000E+00 0. -1.
</event>
<event>
 5    1  0.1764318E-003  0.9118800E+02  0.7818608E-02  0.1130116E+00
         25   -1    0    0    0    0  0.00000000000E+00  0.00000000000E+00  0.99999998245E-14  0.12500000000E+03  0.12500000000E+03 0.  0.
        -13    1    3    3    0    0 -0.19082097516E+02 -0.22028144060E+02  0.30852684366E+02  0.42441310924E+02  0.10566000000E+00 0.  1.
         23    2    1    0    0    0  0.26806982417E+02 -0.10772114272E+02  0.74727664999E+01  0.95158837299E+02  0.90358781116E+02 0.  0.
         13    1    3    3    0    0  0.45889079932E+02  0.11256029788E+02 -0.23379917866E+02  0.52717526375E+02  0.10566000000E+00 0. -1.
         22    1    1    0    0    0 -0.26806982417E+02  0.10772114272E+02 -0.74727664999E+01  0.29841162701E+02  0.00000000000E+00 0. -1.
</event>
<event>
 5    1  0.1764318E-003  0.9118800E+02  0.7818608E-02  0.1130116E+00
         25   -1    0    0    0    0  0.00000000000E+00  0.00000000000E+00  0.99999998245E-14  0.12500000000E+03  0.12500000000E+03 0.  0.
        -13    1    3    3    0    0 -0.57773991189E+01  0.27017800735E+02  0.35838373760E+02  0.45251962333E+02  0.10566000000E+00 0. -1.
         23    2    1    0    0    0 -0.52985157881E+01 -0.20136323175E+02  0.51407180322E+00  0.10417189278E+03  0.10206847307E+03 0.  0.
         13    1    3    3    0    0  0.47888333084E+00 -0.47154123911E+02 -0.35324301957E+02  0.58919930446E+02  0.10566000000E+00 0.  1.
         22    1    1    0    0    0  0.52985157881E+01  0.20136323175E+02 -0.51407180322E+00  0.20828107221E+02  0.00000000000E+00 0.  1.
</event>
<event>
 5    1  0.1764318E-003  0.9118800E+02  0.7818608E-02  0.1130116E+00
         25   -1    0    0    0    0  0.00000000000E+00  0.00000000000E+00  0.99999998245E-14  0.12500000000E+03  0.12500000000E+03 0.  0.
        -13    1    3    3    0    0 -0.30180928263E+02  0.17327332184E+02 -0.50756916705E+02  0.61541860785E+02  0.10566000000E+00 0.  1.
         23    2    1    0    0    0 -0.10296685744E+02  0.18993995386E+01 -0.26543101528E+02  0.96466411116E+02  0.92149892994E+02 0.  0.
         13    1    3    3    0    0  0.19884242520E+02 -0.15427932646E+02  0.24213815177E+02  0.34924550330E+02  0.10566000000E+00 0. -1.
         22    1    1    0    0    0  0.10296685744E+02 -0.18993995386E+01  0.26543101528E+02  0.28533588884E+02  0.00000000000E+00 0.  1.
</event>
<event>
 5    1  0.1764318E-003  0.9118800E+02  0.7818608E-02  0.1130116E+00
         25   -1    0    0    0    0  0.00000000000E+00  0.00000000000E+00  0.99999998245E-14  0.12500000000E+03  0.12500000000E+03 0.  0.
        -13    1    3    3    0    0  0.16392873174E+02 -0.13450379869E+02 -0.41731464131E+02  0.46809884341E+02  0.10566000000E+00 0.  1.
         23    2    1    0    0    0 -0.22699913047E+02  0.32584599978E+01 -0.20074996519E+02  0.94521989908E+02  0.89473445653E+02 0.  0.
         13    1    3    3    0    0 -0.39092786221E+02  0.16708839867E+02  0.21656467611E+02  0.47712105567E+02  0.10566000000E+00 0. -1.
         22    1    1    0    0    0  0.22699913047E+02 -0.32584599978E+01  0.20074996519E+02  0.30478010092E+02  0.00000000000E+00 0. -1.
</event>
<event>
 5    1  0.1764318E-003  0.9118800E+02  0.7818608E-02  0.1130116E+00
         25   -1    0    0    0    0  0.00000000000E+00  0.00000000000E+00  0.99999998245E-14  0.12500000000E+03  0.12500000000E+03 0.  0.
        -13    1    3    3    0    0  0.30556743434E+02  0.81425851147E+01 -0.47338947857E+02  0.56929811258E+02  0.10566000000E+00 0. -1.
         23    2    1    0    0    0  0.11536887717E+02 -0.14351040291E+02 -0.25250913441E+02  0.93748427796E+02  0.88386124188E+02 0.  0.
         13    1    3    3    0    0 -0.19019855717E+02 -0.22493625406E+02  0.22088034415E+02  0.36818616538E+02  0.10566000000E+00 0.  1.
         22    1    1    0    0    0 -0.11536887717E+02  0.14351040291E+02  0.25250913441E+02  0.31251572204E+02  0.00000000000E+00 0. -1.
</event>
<event>
 5    1  0.1764318E-003  0.9118800E+02  0.7818608E-02  0.1130116E+00
         25   -1    0    0    0    0  0.00000000000E+00  0.00000000000E+00  0.99999998245E-14  0.12500000000E+03  0.12500000000E+03 0.  0.
        -13    1    3    3    0    0  0.68384880139E+01  0.23363574519E+02  0.56407537672E+02  0.61436495692E+02  0.10566000000E+00 0. -1.
         23    2    1    0    0    0  0.10220930434E+02  0.68178167525E+01  0.26699034752E+02  0.95609720980E+02  0.90980383847E+02 0.  0.
         13    1    3    3    0    0  0.33824424199E+01 -0.16545757766E+02 -0.29708502920E+02  0.34173225288E+02  0.10566000000E+00 0.  1.
         22    1    1    0    0    0 -0.10220930434E+02 -0.68178167525E+01 -0.26699034752E+02  0.29390279020E+02  0.00000000000E+00 0. -1.
</event>
<event>
 5    1  0.1764318E-003  0.9118800E+02  0.7818608E-02  0.1130116E+00
         25   -1    0    0    0    0  0.00000000000E+00  0.00000000000E+00  0.99999998245E-14  0.12500000000E+03  0.12500000000E+03 0.  0.
        -13    1    3    3    0    0  0.25950791980E+02 -0.53890525442E+01 -0.18247450011E+02  0.32178658886E+02  0.10566000000E+00 0. -1.
         23    2    1    0    0    0 -0.25788180652E+02 -0.36102177754E+00 -0.29963638936E+02  0.85465454899E+02  0.75771787129E+02 0.  0.
         13    1    3    3    0    0 -0.51738972632E+02  0.50280307666E+01 -0.11716188925E+02  0.53286796013E+02  0.10566000000E+00 0.  1.
         22    1    1    0    0    0  0.25788180652E+02  0.36102177754E+00  0.29963638936E+02  0.39534545101E+02  0.00000000000E+00 0.  1.
</event>
<event>
 5    1  0.1764318E-003  0.9118800E+02  0.7818608E-02  0.1130116E+00
         25   -1    0    0    0    0  0.00000000000E+00  0.00000000000E+00  0.99999998245E-14  0.12500000000E+03  0.12500000000E+03 0.  0.
        -13    1    3    3    0    0 -0.34451750979E+02  0.11576387678E+02 -0.19086316047E+01  0.36394916346E+02  0.10566000000E+00 0. -1.
         23    2    1    0    0    0  0.16004180545E+02  0.98439841932E+00 -0.26896157706E+02  0.93686965421E+02  0.88299158293E+02 0.  0.
         13    1    3    3    0    0  0.50455931525E+02 -0.10591989259E+02 -0.24987526102E+02  0.57292049075E+02  0.10566000000E+00 0.  1.
         22    1    1    0    0    0 -0.16004180545E+02 -0.98439841932E+00  0.26896157706E+02  0.31313034579E+02  0.00000000000E+00 0.  1.
</event>
<event>
 5    1  0.1764318E-003  0.9118800E+02  0.7818608E-02  0.1130116E+00
         25   -1    0    0    0    0  0.00000000000E+00  0.00000000000E+00  0.99999998245E-14  0.12500000000E+03  0.12500000000E+03 0.  0.
        -13    1    3    3    0    0 -0.46161434140E+02 -0.29530413763E+02  0.15938164873E+02  0.57069778363E+02  0.10566000000E+00 0. -1.
         23    2    1    0    0    0 -0.25057085192E+02  0.31942104509E+01  0.14141636209E+02  0.96050969388E+02  0.91584618506E+02 0.  0.
         13    1    3    3    0    0  0.21104348948E+02  0.32724624214E+02 -0.17965286634E+01  0.38981191025E+02  0.10566000000E+00 0.  1.
         22    1    1    0    0    0  0.25057085192E+02 -0.31942104509E+01 -0.14141636209E+02  0.28949030612E+02  0.00000000000E+00 0. -1.
</event>
<event>
 5    1  0.1764318E-003  0.9118800E+02  0.7818608E-02  0.1130116E+00
         25   -1    0    0    0    0  0.00000000000E+00  0.00000000000E+00  0.99999998245E-14  0.12500000000E+03  0.12500000000E+03 0.  0.
        -13    1    3    3    0    0  0.50752397532E+02  0.25950403234E+02 -0.31705386751E+00  0.57002990890E+02  0.10566000000E+00 0.  1.
         23    2    1    0    0    0  0.16922120432E+02  0.15090138478E+02  0.17127083924E+02  0.96585084147E+02  0.92310730886E+02 0.  0.
         13    1    3    3    0    0 -0.33830277100E+02 -0.10860264756E+02  0.17444137792E+02  0.39582093256E+02  0.10566000000E+00 0. -1.
         22    1    1    0    0    0 -0.16922120432E+02 -0.15090138478E+02 -0.17127083924E+02  0.28414915853E+02  0.00000000000E+00 0.  1.
</event>
<event>
 5    1  0.1764318E-003  0.9118800E+02  0.7818608E-02  0.1130116E+00
         25   -1    0    0    0    0  0.00000000000E+00  0.00000000000E+00  0.99999998245E-14  0.12500000000E+03  0.12500000000E+03 0.  0.
        -13    1    3    3    0    0 -0.57651591465E+01  0.34796048332E+02 -0.31175089794E+02  0.47073340940E+02  0.10566000000E+00 0. -1.
         23    2    1    0    0    0 -0.24818235398E+02  0.13805445302E+02  0.80606104218E+01  0.95478676035E+02  0.90800159739E+02 0.  0.
         13    1    3    3    0    0 -0.19053076252E+02 -0.20990603030E+02  0.39235700216E+02  0.48405335095E+02  0.10566000000E+00 0.  1.
         22    1    1    0    0    0  0.24818235398E+02 -0.13805445302E+02 -0.80606104218E+01  0.29521323965E+02  0.00000000000E+00 0. -1.
</event>
<event>
 5    1  0.1764318E-003  0.9118800E+02  0.7818608E-02  0.1130116E+00
         25   -1    0    0    0    0  0.00000000000E+00  0.00000000000E+00  0.99999998245E-14  0.12500000000E+03  0.12500000000E+03 0.  0.
        -13    1    3    3    0    0 -0.54518757281E+01 -0.38429053884E+02 -0.45359078116E+02  0.59699013919E+02  0.10566000000E+00 0.  1.
         23    2    1    0    0    0  0.70477346705E+00 -0.27130695475E+02 -0.12244136349E+02  0.95226014416E+02  0.90451664462E+02 0.  0.
         13    1    3    3    0    0  0.61566491952E+01  0.11298358409E+02  0.33114941767E+02  0.35527000497E+02  0.10566000000E+00 0. -1.
         22    1    1    0    0    0 -0.70477346705E+00  0.27130695475E+02  0.12244136349E+02  0.29773985584E+02  0.00000000000E+00 0.  1.
</event>
<event>
 5    1  0.1764318E-003  0.9118800E+02  0.7818608E-02  0.1130116E+00
         25   -1    0    0    0    0  0.00000000000E+00  0.00000000000E+00  0.99999998245E-14  0.12500000000E+03  0.12500000000E+03 0.  0.
        -13    1    3    3    0    0 -0.34037872260E+02  0.16417104410E+02  0.38870595651E+02  0.54212843824E+02  0.10566000000E+00 0. -1.
         23    2    1    0    0    0  0.11453137892E+01 -0.29233679058E+01  0.29359910111E+02  0.95472688146E+02  0.90791916140E+02 0.  0.
         13    1    3    3    0    0  0.35183186049E+02 -0.19340472316E+02 -0.95106855397E+01  0.41259844322E+02  0.10566000000E+00 0.  1.
         22    1    1    0    0    0 -0.11453137892E+01  0.29233679058E+01 -0.29359910111E+02  0.29527311854E+02  0.00000000000E+00 0. -1.
</event>
<event>
 5    1  0.1764318E-003  0.9118800E+02  0.7818608E-02  0.1130116E+00
         25   -1    0    0    0    0  0.00000000000E+00  0.00000000000E+00  0.99999998245E-14  0.12500000000E+03  0.12500000000E+03 0.  0.
        -13    1    3    3    0    0  0.52938826980E+02  0.16945563062E+02 -0.15859553193E+02  0.57803184177E+02  0.10566000000E+00 0.  1.
         23    2    1    0    0    0  0.18173488966E+02  0.22050094557E+02  0.17086429896E+00  0.96425333497E+02  0.92094154941E+02 0.  0.
         13    1    3    3    0    0 -0.34765338014E+02  0.51045314948E+01  0.16030417492E+02  0.38622149319E+02  0.10566000000E+00 0. -1.
         22    1    1    0    0    0 -0.18173488966E+02 -0.22050094557E+02 -0.17086429896E+00  0.28574666503E+02  0.00000000000E+00 0.  1.
</event>
<event>
 5    1  0.1764318E-003  0.9118800E+02  0.7818608E-02  0.1130116E+00
         25   -1    0    0    0    0  0.00000000000E+00  0.00000000000E+00  0.99999998245E-14  0.12500000000E+03  0.12500000000E+03 0.  0.
        -13    1    3    3    0    0 -0.99104562241E+01  0.43868892433E+02 -0.55874976311E+01  0.45320284197E+02  0.10566000000E+00 0. -1.
         23    2    1    0    0    0  0.14995320175E+02  0.10285170371E+02  0.22784579780E+02  0.95848989169E+02  0.91308528037E+02 0.  0.
         13    1    3    3    0    0  0.24905776399E+02 -0.33583722062E+02  0.28372077411E+02  0.50528704972E+02  0.10566000000E+00 0.  1.
         22    1    1    0    0    0 -0.14995320175E+02 -0.10285170371E+02 -0.22784579780E+02  0.29151010831E+02  0.00000000000E+00 0.  1.
</event>
<event>
 5    1  0.1764318E-003  0.9118800E+02  0.7818608E-02  0.1130116E+00
         25   -1    0    0    0    0  0.00000000000E+00  0.00000000000E+00  0.99999998245E-14  0.12500000000E+03  0.12500000000E+03 0.  0.
        -13    1    3    3    0    0 -0.58338717659E+01 -0.73332673350E+01  0.51861618424E+02  0.52701513253E+02  0.10566000000E+00 0.  1.
         23    2    1    0    0    0  0.14926719350E+02  0.13407916662E+02  0.14332270653E+02  0.10034248265E+03  0.97265721931E+02 0.  0.
         13    1    3    3    0    0  0.20760591116E+02  0.20741183997E+02 -0.37529347771E+02  0.47640969398E+02  0.10566000000E+00 0. -1.
         22    1    1    0    0    0 -0.14926719350E+02 -0.13407916662E+02 -0.14332270653E+02  0.24657517349E+02  0.00000000000E+00 0.  1.
</event>
<event>
 5    1  0.1764318E-003  0.9118800E+02  0.7818608E-02  0.1130116E+00
         25   -1    0    0    0    0  0.00000000000E+00  0.00000000000E+00  0.99999998245E-14  0.12500000000E+03  0.12500000000E+03 0.  0.
        -13    1    3    3    0    0  0.93466472643E+01  0.13285685959E+02  0.55730439495E+02  0.58049653891E+02  0.10566000000E+00 0. -1.
         23    2    1    0    0    0  0.19068221243E+02 -0.10928646508E+01  0.22946510665E+02  0.95144786616E+02  0.90339341673E+02 0.  0.
         13    1    3    3    0    0  0.97215739790E+01 -0.14378550610E+02 -0.32783928831E+02  0.37095132725E+02  0.10566000000E+00 0.  1.
         22    1    1    0    0    0 -0.19068221243E+02  0.10928646508E+01 -0.22946510665E+02  0.29855213384E+02  0.00000000000E+00 0. -1.
</event>
<event>
 5    1  0.1764318E-003  0.9118800E+02  0.7818608E-02  0.1130116E+00
         25   -1    0    0    0    0  0.00000000000E+00  0.00000000000E+00  0.99999998245E-14  0.12500000000E+03  0.12500000000E+03 0.  0.
        -13    1    3    3    0    0 -0.26408381255E+02 -0.12378030189E+02  0.35350660474E+02  0.45829014738E+02  0.10566000000E+00 0.  1.
         23    2    1    0    0    0 -0.24791039950E+02  0.12272887417E+02 -0.84151329968E+01  0.96085749350E+02  0.91632075920E+02 0.  0.
         13    1    3    3    0    0  0.16173413056E+01  0.24650917605E+02 -0.43765793471E+02  0.50256734612E+02  0.10566000000E+00 0. -1.
         22    1    1    0    0    0  0.24791039950E+02 -0.12272887417E+02  0.84151329968E+01  0.28914250650E+02  0.00000000000E+00 0. -1.
</event>
<event>
 5    1  0.1764318E-003  0.9118800E+02  0.7818608E-02  0.1130116E+00
         25   -1    0    0    0    0  0.00000000000E+00  0.00000000000E+00  0.99999998245E-14  0.12500000000E+03  0.12500000000E+03 0.  0.
        -13    1    3    3    0    0 -0.52213923240E+01 -0.20558297300E+02 -0.35659988012E+02  0.41491594748E+02  0.10566000000E+00 0.  1.
         23    2    1    0    0    0  0.27603394394E+02  0.83610826681E+01 -0.31688664434E+01  0.95984542051E+02  0.91493909702E+02 0.  0.
         13    1    3    3    0    0  0.32824786718E+02  0.28919379968E+02  0.32491121569E+02  0.54492947302E+02  0.10566000000E+00 0. -1.
         22    1    1    0    0    0 -0.27603394394E+02 -0.83610826681E+01  0.31688664434E+01  0.29015457949E+02  0.00000000000E+00 0. -1.
</event>
<event>
 5    1  0.1764318E-003  0.9118800E+02  0.7818608E-02  0.1130116E+00
         25   -1    0    0    0    0  0.00000000000E+00  0.00000000000E+00  0.99999998245E-14  0.12500000000E+03  0.12500000000E+03 0.  0.
        -13    1    3    3    0    0  0.31002073459E+02 -0.33278692423E+02 -0.14574133275E+02  0.47759987991E+02  0.10566000000E+00 0. -1.
         23    2    1    0    0    0  0.21160140833E+01  0.97684705346E+01 -0.22665540099E+02  0.10022849944E+03  0.97119127154E+02 0.  0.
         13    1    3    3    0    0 -0.28886059375E+02  0.43047162957E+02 -0.80914068238E+01  0.52468511446E+02  0.10566000000E+00 0.  1.
         22    1    1    0    0    0 -0.21160140833E+01 -0.97684705346E+01  0.22665540099E+02  0.24771500563E+02  0.00000000000E+00 0. -1.
</event>
<event>
 5    1  0.1764318E-003  0.9118800E+02  0.7818608E-02  0.1130116E+00
         25   -1    0    0    0    0  0.00000000000E+00  0.00000000000E+00  0.99999998245E-14  0.12500000000E+03  0.12500000000E+03 0.  0.
        -13    1    3    3    0    0 -0.30186302661E+00 -0.62246121869E+02  0.29524310110E+01  0.62316922436E+02  0.10566000000E+00 0.  1.
         23    2    1    0    0    0 -0.32756356800E+01 -0.29290141082E+02  0.13177916580E+00  0.95526969625E+02  0.90866618768E+02 0.  0.
         13    1    3    3    0    0 -0.29737726534E+01  0.32955980787E+02 -0.28206518452E+01  0.33210047189E+02  0.10566000000E+00 0. -1.
         22    1    1    0    0    0  0.32756356800E+01  0.29290141082E+02 -0.13177916580E+00  0.29473030375E+02  0.00000000000E+00 0.  1.
</event>
<event>
 5    1  0.1764318E-003  0.9118800E+02  0.7818608E-02  0.1130116E+00
         25   -1    0    0    0    0  0.00000000000E+00  0.00000000000E+00  0.99999998245E-14  0.12500000000E+03  0.12500000000E+03 0.  0.
        -13    1    3    3    0    0 -0.28294927410E+02  0.18445897559E+02 -0.12569922764E+02  0.36039813765E+02  0.10566000000E+00 0.  1.
         23    2    1    0    0    0  0.18470943308E+02  0.66009149308E+01  0.22101865018E+02  0.95449361058E+02  0.90759794317E+02 0.  0.
         13    1    3    3    0    0  0.46765870718E+02 -0.11844982628E+02  0.34671787783E+02  0.59409547293E+02  0.10566000000E+00 0. -1.
         22    1    1    0    0    0 -0.18470943308E+02 -0.66009149308E+01 -0.22101865018E+02  0.29550638942E+02  0.00000000000E+00 0. -1.
</event>
<event>
 5    1  0.1764318E-003  0.9118800E+02  0.7818608E-02  0.1130116E+00
         25   -1    0    0    0    0  0.00000000000E+00  0.00000000000E+00  0.99999998245E-14  0.12500000000E+03  0.12500000000E+03 0.  0.
        -13    1    3    3    0    0  0.89538199751E+01 -0.32988953933E+02 -0.11682570652E+02  0.36123892298E+02  0.10566000000E+00 0.  1.
         23    2    1    0    0    0 -0.65584634259E+01  0.87390399622E+01  0.27487104758E+02  0.95420865632E+02  0.90720540166E+02 0.  0.
         13    1    3    3    0    0 -0.15512283401E+02  0.41727993895E+02  0.39169675410E+02  0.59296973334E+02  0.10566000000E+00 0. -1.
         22    1    1    0    0    0  0.65584634259E+01 -0.87390399622E+01 -0.27487104758E+02  0.29579134368E+02  0.00000000000E+00 0. -1.
</event>
<event>
 5    1  0.1764318E-003  0.9118800E+02  0.7818608E-02  0.1130116E+00
         25   -1    0    0    0    0  0.00000000000E+00  0.00000000000E+00  0.99999998245E-14  0.12500000000E+03  0.12500000000E+03 0.  0.
        -13    1    3    3    0    0 -0.12163661149E+02  0.47959305868E+02  0.30242048955E+02  0.57988295034E+02  0.10566000000E+00 0.  1.
         23    2    1    0    0    0 -0.11973009903E+02  0.88647468889E+01  0.22767577607E+02  0.97791558413E+02  0.93930237960E+02 0.  0.
         13    1    3    3    0    0  0.19065124688E+00 -0.39094558979E+02 -0.74744713479E+01  0.39803263379E+02  0.10566000000E+00 0. -1.
         22    1    1    0    0    0  0.11973009903E+02 -0.88647468889E+01 -0.22767577607E+02  0.27208441587E+02  0.00000000000E+00 0.  1.
</event>
<event>
 5    1  0.1764318E-003  0.9118800E+02  0.7818608E-02  0.1130116E+00
         25   -1    0    0    0    0  0.00000000000E+00  0.00000000000E+00  0.99999998245E-14  0.12500000000E+03  0.12500000000E+03 0.  0.
        -13    1    3    3    0    0  0.34210707940E+02 -0.39231643148E+02  0.32310582735E+02  0.61265645207E+02  0.10566000000E+00 0. -1.
         23    2    1    0    0    0  0.11680906906E+02 -0.23970430739E+02  0.97684094502E+01  0.96601990226E+02  0.92333620943E+02 0.  0.
         13    1    3    3    0    0 -0.22529801034E+02  0.15261212410E+02 -0.22542173285E+02  0.35336345019E+02  0.10566000000E+00 0.  1.
         22    1    1    0    0    0 -0.11680906906E+02  0.23970430739E+02 -0.97684094502E+01  0.28398009774E+02  0.00000000000E+00 0. -1.
</event>
<event>
 5    1  0.1764318E-003  0.9118800E+02  0.7818608E-02  0.1130116E+00
         25   -1    0    0    0    0  0.00000000000E+00  0.00000000000E+00  0.99999998245E-14  0.12500000000E+03  0.12500000000E+03 0.  0.
        -13    1    3    3    0    0 -0.27464306076E+02  0.51548019552E+02  0.29847347749E+01  0.58484239190E+02  0.10566000000E+00 0.  1.
         23    2    1    0    0    0 -0.22715970070E+02  0.14838481175E+02  0.98566076680E+01  0.96132223249E+02  0.91695451427E+02 0.  0.
         13    1    3    3    0    0  0.47483360057E+01 -0.36709538377E+02  0.68718728931E+01  0.37647984059E+02  0.10566000000E+00 0. -1.
         22    1    1    0    0    0  0.22715970070E+02 -0.14838481175E+02 -0.98566076680E+01  0.28867776751E+02  0.00000000000E+00 0.  1.
</event>
<event>
 5    1  0.1764318E-003  0.9118800E+02  0.7818608E-02  0.1130116E+00
         25   -1    0    0    0    0  0.00000000000E+00  0.00000000000E+00  0.99999998245E-14  0.12500000000E+03  0.12500000000E+03 0.  0.
        -13    1    3    3    0    0 -0.35148896571E+02 -0.44203612472E+02 -0.23805820451E+01  0.56525061881E+02  0.10566000000E+00 0. -1.
         23    2    1    0    0    0 -0.79269083004E+01 -0.13056088948E+02  0.16948039423E+02  0.10218479950E+03  0.99605220113E+02 0.  0.
         13    1    3    3    0    0  0.27221988271E+02  0.31147523524E+02  0.19328621468E+02  0.45659737614E+02  0.10566000000E+00 0.  1.
         22    1    1    0    0    0  0.79269083004E+01  0.13056088948E+02 -0.16948039423E+02  0.22815200505E+02  0.00000000000E+00 0. -1.
</event>
<event>
 5    1  0.1764318E-003  0.9118800E+02  0.7818608E-02  0.1130116E+00
         25   -1    0    0    0    0  0.00000000000E+00  0.00000000000E+00  0.99999998245E-14  0.12500000000E+03  0.12500000000E+03 0.  0.
        -13    1    3    3    0    0 -0.37531131136E+02 -0.23673733121E+02  0.19404757336E+02  0.48431262791E+02  0.10566000000E+00 0.  1.
         23    2    1    0    0    0 -0.19150090775E+02  0.19330529219E+02  0.53146042951E+01  0.97275636069E+02  0.93241133719E+02 0.  0.
         13    1    3    3    0    0  0.18381040361E+02  0.43004262340E+02 -0.14090153041E+02  0.48844373278E+02  0.10566000000E+00 0. -1.
         22    1    1    0    0    0  0.19150090775E+02 -0.19330529219E+02 -0.53146042951E+01  0.27724363931E+02  0.00000000000E+00 0. -1.
</event>
<event>
 5    1  0.1764318E-003  0.9118800E+02  0.7818608E-02  0.1130116E+00
         25   -1    0    0    0    0  0.00000000000E+00  0.00000000000E+00  0.99999998245E-14  0.12500000000E+03  0.12500000000E+03 0.  0.
        -13    1    3    3    0    0  0.84926353942E+01 -0.74210629848E+01 -0.32817701930E+02  0.34701725545E+02  0.10566000000E+00 0. -1.
         23    2    1    0    0    0  0.47614652193E+01 -0.13730674646E+02  0.26663584693E+02  0.94633081717E+02  0.89628513484E+02 0.  0.
         13    1    3    3    0    0 -0.37311701748E+01 -0.63096116617E+01  0.59481286624E+02  0.59931356172E+02  0.10566000000E+00 0.  1.
         22    1    1    0    0    0 -0.47614652193E+01  0.13730674646E+02 -0.26663584693E+02  0.30366918283E+02  0.00000000000E+00 0.  1.
</event>
<event>
 5    1  0.1764318E-003  0.9118800E+02  0.7818608E-02  0.1130116E+00
         25   -1    0    0    0    0  0.00000000000E+00  0.00000000000E+00  0.99999998245E-14  0.12500000000E+03  0.12500000000E+03 0.  0.
        -13    1    3    3    0    0  0.38616133370E+02  0.92161895145E+01  0.21643875501E+02  0.45217390641E+02  0.10566000000E+00 0.  1.
         23    2    1    0    0    0 -0.11329848116E+02  0.17495205630E+01  0.26672391072E+02  0.95968246246E+02  0.91471643484E+02 0.  0.
         13    1    3    3    0    0 -0.49945981486E+02 -0.74666689515E+01  0.50285155707E+01  0.50750855606E+02  0.10566000000E+00 0. -1.
         22    1    1    0    0    0  0.11329848116E+02 -0.17495205630E+01 -0.26672391072E+02  0.29031753754E+02  0.00000000000E+00 0.  1.
</event>
<event>
 5    1  0.1764318E-003  0.9118800E+02  0.7818608E-02  0.1130116E+00
         25   -1    0    0    0    0  0.00000000000E+00  0.00000000000E+00  0.99999998245E-14  0.12500000000E+03  0.12500000000E+03 0.  0.
        -13    1    3    3    0    0  0.25891917239E+00 -0.32482301829E+02 -0.22777636928E+02  0.39673654726E+02  0.10566000000E+00 0. -1.
         23    2    1    0    0    0 -0.26336615003E+02 -0.20747297925E+01  0.14690587435E+02  0.94771947586E+02  0.89821973351E+02 0.  0.
         13    1    3    3    0    0 -0.26595534175E+02  0.30407572036E+02  0.37468224363E+02  0.55098292861E+02  0.10566000000E+00 0.  1.
         22    1    1    0    0    0  0.26336615003E+02  0.20747297925E+01 -0.14690587435E+02  0.30228052414E+02  0.00000000000E+00 0.  1.
</event>
<event>
 5    1  0.1764318E-003  0.9118800E+02  0.7818608E-02  0.1130116E+00
         25   -1    0    0    0    0  0.00000000000E+00  0.00000000000E+00  0.99999998245E-14  0.12500000000E+03  0.12500000000E+03 0.  0.
        -13    1    3    3    0    0 -0.10669638545E+02 -0.25976071788E+02 -0.34283669720E+02  0.44316798911E+02  0.10566000000E+00 0. -1.
         23    2    1    0    0    0 -0.25989208427E+02  0.13709855964E+02 -0.71995045898E+01  0.94747198947E+02  0.89787525507E+02 0.  0.
         13    1    3    3    0    0 -0.15319569883E+02  0.39685927751E+02  0.27084165131E+02  0.50430400036E+02  0.10566000000E+00 0.  1.
         22    1    1    0    0    0  0.25989208427E+02 -0.13709855964E+02  0.71995045898E+01  0.30252801053E+02  0.00000000000E+00 0.  1.
</event>
<event>
 5    1  0.1764318E-003  0.9118800E+02  0.7818608E-02  0.1130116E+00
         25   -1    0    0    0    0  0.00000000000E+00  0.00000000000E+00  0.99999998245E-14  0.12500000000E+03  0.12500000000E+03 0.  0.
        -13    1    3    3    0    0  0.42070536025E+02  0.19190098757E+02  0.29156944158E+02  0.54665605717E+02  0.10566000000E+00 0.  1.
         23    2    1    0    0    0  0.90693467561E+01  0.28192277192E+02  0.10878217510E+02  0.93450148019E+02  0.87963270771E+02 0.  0.
         13    1    3    3    0    0 -0.33001189268E+02  0.90021784350E+01 -0.18278726648E+02  0.38784542302E+02  0.10566000000E+00 0. -1.
         22    1    1    0    0    0 -0.90693467561E+01 -0.28192277192E+02 -0.10878217510E+02  0.31549851981E+02  0.00000000000E+00 0.  1.
</event>
<event>
 5    1  0.1764318E-003  0.9118800E+02  0.7818608E-02  0.1130116E+00
         25   -1    0    0    0    0  0.00000000000E+00  0.00000000000E+00  0.99999998245E-14  0.12500000000E+03  0.12500000000E+03 0.  0.
        -13    1    3    3    0    0 -0.13809780829E+01  0.33395823332E+02 -0.24237085044E+02  0.41287232554E+02  0.10566000000E+00 0.  1.
         23    2    1    0    0    0 -0.23688733284E+02 -0.14151040241E+02 -0.76134145441E+01  0.96375323486E+02  0.92026250992E+02 0.  0.
         13    1    3    3    0    0 -0.22307755201E+02 -0.47546863573E+02  0.16623670500E+02  0.55088090933E+02  0.10566000000E+00 0. -1.
         22    1    1    0    0    0  0.23688733284E+02  0.14151040241E+02  0.76134145441E+01  0.28624676514E+02  0.00000000000E+00 0. -1.
</event>
<event>
 5    1  0.1764318E-003  0.9118800E+02  0.7818608E-02  0.1130116E+00
         25   -1    0    0    0    0  0.00000000000E+00  0.00000000000E+00  0.99999998245E-14  0.12500000000E+03  0.12500000000E+03 0.  0.
        -13    1    3    3    0    0 -0.30624274060E+02  0.55054453615E+01 -0.37468172596E+02  0.48703503078E+02  0.10566000000E+00 0.  1.
         23    2    1    0    0    0 -0.28752104848E+02 -0.16082683615E+02  0.79515335790E-01  0.92055462241E+02  0.85958510692E+02 0.  0.
         13    1    3    3    0    0  0.18721692118E+01 -0.21588128977E+02  0.37547687932E+02  0.43351959164E+02  0.10566000000E+00 0. -1.
         22    1    1    0    0    0  0.28752104848E+02  0.16082683615E+02 -0.79515335790E-01  0.32944537759E+02  0.00000000000E+00 0.  1.
</event>
<event>
 5    1  0.1764318E-003  0.9118800E+02  0.7818608E-02  0.1130116E+00
         25   -1    0    0    0    0  0.00000000000E+00  0.00000000000E+00  0.99999998245E-14  0.12500000000E+03  0.12500000000E+03 0.  0.
        -13    1    3    3    0    0 -0.10599731504E+02 -0.15620053414E+02  0.39783028901E+02  0.44034542454E+02  0.10566000000E+00 0.  1.
         23    2    1    0    0    0 -0.23780742465E+02 -0.17335597420E+02 -0.87044044638E+01  0.94311023034E+02  0.89178224689E+02 0.  0.
         13    1    3    3    0    0 -0.13181010961E+02 -0.17155440061E+01 -0.48487433365E+02  0.50276480580E+02  0.10566000000E+00 0. -1.
         22    1    1    0    0    0  0.23780742465E+02  0.17335597420E+02  0.87044044638E+01  0.30688976966E+02  0.00000000000E+00 0. -1.
</event>
<event>
 5    1  0.1764318E-003  0.9118800E+02  0.7818608E-02  0.1130116E+00
         25   -1    0    0    0    0  0.00000000000E+00  0.00000000000E+00  0.99999998245E-14  0.12500000000E+03  0.12500000000E+03 0.  0.
        -13    1    3    3    0    0  0.32499658484E+02 -0.84725352361E+01 -0.35762367592E+01  0.33775912842E+02  0.10566000000E+00 0.  1.
         23    2    1    0    0    0 -0.18953833109E+02  0.23572586395E+02  0.22328000248E+01  0.94670146476E+02  0.89680190783E+02 0.  0.
         13    1    3    3    0    0 -0.51453491593E+02  0.32045121631E+02  0.58090367839E+01  0.60894233634E+02  0.10566000000E+00 0. -1.
         22    1    1    0    0    0  0.18953833109E+02 -0.23572586395E+02 -0.22328000248E+01  0.30329853524E+02  0.00000000000E+00 0. -1.
</event>
<event>
 5    1  0.1764318E-003  0.9118800E+02  0.7818608E-02  0.1130116E+00
         25   -1    0    0    0    0  0.00000000000E+00  0.00000000000E+00  0.99999998245E-14  0.12500000000E+03  0.12500000000E+03 0.  0.
        -13    1    3    3    0    0 -0.37563572287E+02 -0.89961427132E+01 -0.43958745103E+02  0.58517817643E+02  0.10566000000E+00 0.  1.
         23    2    1    0    0    0 -0.85178274485E+01 -0.17549700279E+02 -0.19169843833E+02  0.97649894389E+02  0.93741525469E+02 0.  0.
         13    1    3    3    0    0  0.29045744838E+02 -0.85535575661E+01  0.24788901270E+02  0.39132076746E+02  0.10566000000E+00 0. -1.
         22    1    1    0    0    0  0.85178274485E+01  0.17549700279E+02  0.19169843833E+02  0.27350105611E+02  0.00000000000E+00 0.  1.
</event>
<event>
 5    1  0.1764318E-003  0.9118800E+02  0.7818608E-02  0.1130116E+00
         25   -1    0    0    0    0  0.00000000000E+00  0.00000000000E+00  0.99999998245E-14  0.12500000000E+03  0.12500000000E+03 0.  0.
        -13    1    3    3    0    0  0.11614616312E+02 -0.36285439126E+02 -0.46136061019E+01  0.38377453406E+02  0.10566000000E+00 0. -1.
         23    2    1    0    0    0 -0.12355491293E+02  0.10403995616E+01  0.28622662580E+02  0.93807093602E+02  0.88469053350E+02 0.  0.
         13    1    3    3    0    0 -0.23970107605E+02  0.37325838688E+02  0.33236268682E+02  0.55429640196E+02  0.10566000000E+00 0.  1.
         22    1    1    0    0    0  0.12355491293E+02 -0.10403995616E+01 -0.28622662580E+02  0.31192906398E+02  0.00000000000E+00 0.  1.
</event>
<event>
 5    1  0.1764318E-003  0.9118800E+02  0.7818608E-02  0.1130116E+00
         25   -1    0    0    0    0  0.00000000000E+00  0.00000000000E+00  0.99999998245E-14  0.12500000000E+03  0.12500000000E+03 0.  0.
        -13    1    3    3    0    0 -0.10739479099E+02 -0.16219402844E+02 -0.28417995158E+02  0.34438336964E+02  0.10566000000E+00 0.  1.
         23    2    1    0    0    0  0.10963061544E+02 -0.20927270040E+02  0.23973342184E+02  0.91342007113E+02  0.84914673515E+02 0.  0.
         13    1    3    3    0    0  0.21702540643E+02 -0.47078671956E+01  0.52391337342E+02  0.56903670149E+02  0.10566000000E+00 0. -1.
         22    1    1    0    0    0 -0.10963061544E+02  0.20927270040E+02 -0.23973342184E+02  0.33657992887E+02  0.00000000000E+00 0. -1.
</event>
<event>
 5    1  0.1764318E-003  0.9118800E+02  0.7818608E-02  0.1130116E+00
         25   -1    0    0    0    0  0.00000000000E+00  0.00000000000E+00  0.99999998245E-14  0.12500000000E+03  0.12500000000E+03 0.  0.
        -13    1    3    3    0    0 -0.11851324718E+02  0.47020427971E+02 -0.33940850047E+02  0.59189247419E+02  0.10566000000E+00 0.  1.
         23    2    1    0    0    0 -0.41194656290E+01  0.11916509049E+02 -0.26149587063E+02  0.95969428380E+02  0.91473258907E+02 0.  0.
         13    1    3    3    0    0  0.77318590887E+01 -0.35103918921E+02  0.77912629836E+01  0.36780180961E+02  0.10566000000E+00 0. -1.
         22    1    1    0    0    0  0.41194656290E+01 -0.11916509049E+02  0.26149587063E+02  0.29030571620E+02  0.00000000000E+00 0.  1.
</event>
<event>
 5    1  0.1764318E-003  0.9118800E+02  0.7818608E-02  0.1130116E+00
         25   -1    0    0    0    0  0.00000000000E+00  0.00000000000E+00  0.99999998245E-14  0.12500000000E+03  0.12500000000E+03 0.  0.
        -13    1    3    3    0    0  0.17050449027E+02  0.21648791962E+02 -0.53009004135E+02  0.59744068232E+02  0.10566000000E+00 0.  1.
         23    2    1    0    0    0  0.72507453634E+01 -0.23292072959E+01 -0.28838352409E+02  0.95173014155E+02  0.90378390884E+02 0.  0.
         13    1    3    3    0    0 -0.97997036635E+01 -0.23977999258E+02  0.24170651726E+02  0.35428945923E+02  0.10566000000E+00 0. -1.
         22    1    1    0    0    0 -0.72507453634E+01  0.23292072959E+01  0.28838352409E+02  0.29826985845E+02  0.00000000000E+00 0.  1.
</event>
<event>
 5    1  0.1764318E-003  0.9118800E+02  0.7818608E-02  0.1130116E+00
         25   -1    0    0    0    0  0.00000000000E+00  0.00000000000E+00  0.99999998245E-14  0.12500000000E+03  0.12500000000E+03 0.  0.
        -13    1    3    3    0    0 -0.33188774201E+02  0.44736455134E+01  0.52575293677E+02  0.62335230058E+02  0.10566000000E+00 0.  1.
         23    2    1    0    0    0 -0.13330317785E+02  0.52410612729E+00  0.26330713232E+02  0.95482572626E+02  0.90805523821E+02 0.  0.
         13    1    3    3    0    0  0.19858456416E+02 -0.39495393861E+01 -0.26244580445E+02  0.33147342568E+02  0.10566000000E+00 0. -1.
         22    1    1    0    0    0  0.13330317785E+02 -0.52410612729E+00 -0.26330713232E+02  0.29517427374E+02  0.00000000000E+00 0.  1.
</event>
<event>
 5    1  0.1764318E-003  0.9118800E+02  0.7818608E-02  0.1130116E+00
         25   -1    0    0    0    0  0.00000000000E+00  0.00000000000E+00  0.99999998245E-14  0.12500000000E+03  0.12500000000E+03 0.  0.
        -13    1    3    3    0    0 -0.10508027805E+02 -0.37644751698E+02  0.46534171905E+00  0.39086745652E+02  0.10566000000E+00 0. -1.
         23    2    1    0    0    0  0.14098784902E+01  0.92052805654E+01 -0.28209090384E+02  0.95293473310E+02  0.90544841529E+02 0.  0.
         13    1    3    3    0    0  0.11917906296E+02  0.46850032263E+02 -0.28674432103E+02  0.56206727658E+02  0.10566000000E+00 0.  1.
         22    1    1    0    0    0 -0.14098784902E+01 -0.92052805654E+01  0.28209090384E+02  0.29706526690E+02  0.00000000000E+00 0.  1.
</event>
<event>
 5    1  0.1764318E-003  0.9118800E+02  0.7818608E-02  0.1130116E+00
         25   -1    0    0    0    0  0.00000000000E+00  0.00000000000E+00  0.99999998245E-14  0.12500000000E+03  0.12500000000E+03 0.  0.
        -13    1    3    3    0    0  0.36114062134E+02  0.99237771880E+01 -0.60324730777E+01  0.37935586630E+02  0.10566000000E+00 0.  1.
         23    2    1    0    0    0 -0.19701605450E+02  0.22207311702E+02 -0.12515765801E+01  0.95286629369E+02  0.90535392760E+02 0.  0.
         13    1    3    3    0    0 -0.55815667583E+02  0.12283534514E+02  0.47808964977E+01  0.57351042739E+02  0.10566000000E+00 0. -1.
         22    1    1    0    0    0  0.19701605450E+02 -0.22207311702E+02  0.12515765801E+01  0.29713370631E+02  0.00000000000E+00 0. -1.
</event>
<event>
 5    1  0.1764318E-003  0.9118800E+02  0.7818608E-02  0.1130116E+00
         25   -1    0    0    0    0  0.00000000000E+00  0.00000000000E+00  0.99999998245E-14  0.12500000000E+03  0.12500000000E+03 0.  0.
        -13    1    3    3    0    0 -0.15098919911E+02 -0.33250474369E+02 -0.15440965498E+02  0.39648530966E+02  0.10566000000E+00 0.  1.
         23    2    1    0    0    0  0.98544575594E+01  0.17783155390E+02 -0.19796606702E+02  0.96622956702E+02  0.92362000712E+02 0.  0.
         13    1    3    3    0    0  0.24953377471E+02  0.51033629759E+02 -0.43556412041E+01  0.56974425736E+02  0.10566000000E+00 0. -1.
         22    1    1    0    0    0 -0.98544575594E+01 -0.17783155390E+02  0.19796606702E+02  0.28377043298E+02  0.00000000000E+00 0. -1.
</event>
<event>
 5    1  0.1764318E-003  0.9118800E+02  0.7818608E-02  0.1130116E+00
         25   -1    0    0    0    0  0.00000000000E+00  0.00000000000E+00  0.99999998245E-14  0.12500000000E+03  0.12500000000E+03 0.  0.
        -13    1    3    3    0    0 -0.26526339181E+02 -0.56548898843E+01  0.27516850452E+02  0.38636934050E+02  0.10566000000E+00 0. -1.
         23    2    1    0    0    0  0.67711907643E+01 -0.24250627668E+02 -0.14951809361E+02  0.95716923491E+02  0.91127552764E+02 0.  0.
         13    1    3    3    0    0  0.33297529946E+02 -0.18595737784E+02 -0.42468659813E+02  0.57079989441E+02  0.10566000000E+00 0.  1.
         22    1    1    0    0    0 -0.67711907643E+01  0.24250627668E+02  0.14951809361E+02  0.29283076509E+02  0.00000000000E+00 0.  1.
</event>
<event>
 5    1  0.1764318E-003  0.9118800E+02  0.7818608E-02  0.1130116E+00
         25   -1    0    0    0    0  0.00000000000E+00  0.00000000000E+00  0.99999998245E-14  0.12500000000E+03  0.12500000000E+03 0.  0.
        -13    1    3    3    0    0 -0.14026004803E+01  0.57156473286E+02  0.13409997805E+01  0.57189502280E+02  0.10566000000E+00 0.  1.
         23    2    1    0    0    0 -0.71148784211E+01  0.24084188840E+02 -0.16255630553E+02  0.95084867179E+02  0.90256394758E+02 0.  0.
         13    1    3    3    0    0 -0.57122779408E+01 -0.33072284446E+02 -0.17596630333E+02  0.37895364899E+02  0.10566000000E+00 0. -1.
         22    1    1    0    0    0  0.71148784211E+01 -0.24084188840E+02  0.16255630553E+02  0.29915132821E+02  0.00000000000E+00 0.  1.
</event>
<event>
 5    1  0.1764318E-003  0.9118800E+02  0.7818608E-02  0.1130116E+00
         25   -1    0    0    0    0  0.00000000000E+00  0.00000000000E+00  0.99999998245E-14  0.12500000000E+03  0.12500000000E+03 0.  0.
        -13    1    3    3    0    0  0.21510493326E+02 -0.15098768123E+02  0.53261882210E+02  0.59392873163E+02  0.10566000000E+00 0. -1.
         23    2    1    0    0    0  0.22727282176E+02 -0.74321215995E+01  0.19183651268E+02  0.94344196919E+02  0.89224711990E+02 0.  0.
         13    1    3    3    0    0  0.12167888501E+01  0.76666465235E+01 -0.34078230943E+02  0.34951323755E+02  0.10566000000E+00 0.  1.
         22    1    1    0    0    0 -0.22727282176E+02  0.74321215995E+01 -0.19183651268E+02  0.30655803081E+02  0.00000000000E+00 0. -1.
</event>
<event>
 5    1  0.1764318E-003  0.9118800E+02  0.7818608E-02  0.1130116E+00
         25   -1    0    0    0    0  0.00000000000E+00  0.00000000000E+00  0.99999998245E-14  0.12500000000E+03  0.12500000000E+03 0.  0.
        -13    1    3    3    0    0  0.50111532905E+02  0.30377962771E+02  0.12167816856E+02  0.59850257169E+02  0.10566000000E+00 0. -1.
         23    2    1    0    0    0  0.24940821656E+02  0.54368681864E+01  0.14990293747E+02  0.95397415195E+02  0.90688223043E+02 0.  0.
         13    1    3    3    0    0 -0.25170711249E+02 -0.24941094585E+02  0.28224768907E+01  0.35547158025E+02  0.10566000000E+00 0.  1.
         22    1    1    0    0    0 -0.24940821656E+02 -0.54368681864E+01 -0.14990293747E+02  0.29602584805E+02  0.00000000000E+00 0. -1.
</event>
<event>
 5    1  0.1764318E-003  0.9118800E+02  0.7818608E-02  0.1130116E+00
         25   -1    0    0    0    0  0.00000000000E+00  0.00000000000E+00  0.99999998245E-14  0.12500000000E+03  0.12500000000E+03 0.  0.
        -13    1    3    3    0    0  0.56463125590E+02  0.12649280744E+02  0.75567633109E+01  0.58354131734E+02  0.10566000000E+00 0.  1.
         23    2    1    0    0    0  0.37363402481E+02 -0.50673111319E+01  0.13274925117E+02  0.85025944365E+02  0.75043228150E+02 0.  0.
         13    1    3    3    0    0 -0.19099723109E+02 -0.17716591876E+02  0.57181618064E+01  0.26671812631E+02  0.10566000000E+00 0. -1.
         22    1    1    0    0    0 -0.37363402481E+02  0.50673111319E+01 -0.13274925117E+02  0.39974055635E+02  0.00000000000E+00 0.  1.
</event>
<event>
 5    1  0.1764318E-003  0.9118800E+02  0.7818608E-02  0.1130116E+00
         25   -1    0    0    0    0  0.00000000000E+00  0.00000000000E+00  0.99999998245E-14  0.12500000000E+03  0.12500000000E+03 0.  0.
        -13    1    3    3    0    0 -0.32873242969E+02  0.60177356543E+01  0.14056292172E+02  0.36255396279E+02  0.10566000000E+00 0.  1.
         23    2    1    0    0    0  0.22851664282E+02 -0.14908470205E+02  0.10080232970E+02  0.95912680752E+02  0.91395679263E+02 0.  0.
         13    1    3    3    0    0  0.55724907251E+02 -0.20926205859E+02 -0.39760592026E+01  0.59657284473E+02  0.10566000000E+00 0. -1.
         22    1    1    0    0    0 -0.22851664282E+02  0.14908470205E+02 -0.10080232970E+02  0.29087319248E+02  0.00000000000E+00 0. -1.
</event>
<event>
 5    1  0.1764318E-003  0.9118800E+02  0.7818608E-02  0.1130116E+00
         25   -1    0    0    0    0  0.00000000000E+00  0.00000000000E+00  0.99999998245E-14  0.12500000000E+03  0.12500000000E+03 0.  0.
        -13    1    3    3    0    0  0.28452409943E+02 -0.22483484060E+01 -0.24112879358E+02  0.37363576074E+02  0.10566000000E+00 0. -1.
         23    2    1    0    0    0 -0.60213992140E+01 -0.28122473558E+02  0.12233802157E+02  0.93746253301E+02  0.88383048858E+02 0.  0.
         13    1    3    3    0    0 -0.34473809157E+02 -0.25874125152E+02  0.36346681514E+02  0.56382677227E+02  0.10566000000E+00 0.  1.
         22    1    1    0    0    0  0.60213992140E+01  0.28122473558E+02 -0.12233802157E+02  0.31253746699E+02  0.00000000000E+00 0.  1.
</event>
<event>
 5    1  0.1764318E-003  0.9118800E+02  0.7818608E-02  0.1130116E+00
         25   -1    0    0    0    0  0.00000000000E+00  0.00000000000E+00  0.99999998245E-14  0.12500000000E+03  0.12500000000E+03 0.  0.
        -13    1    3    3    0    0 -0.78421808837E+01  0.37948141714E+02  0.36964198933E+02  0.53553005774E+02  0.10566000000E+00 0. -1.
         23    2    1    0    0    0  0.11689074715E+02  0.27036973405E+02  0.14725897233E+01  0.95507612523E+02  0.90839986409E+02 0.  0.
         13    1    3    3    0    0  0.19531255599E+02 -0.10911168309E+02 -0.35491609210E+02  0.41954606749E+02  0.10566000000E+00 0.  1.
         22    1    1    0    0    0 -0.11689074715E+02 -0.27036973405E+02 -0.14725897233E+01  0.29492387477E+02  0.00000000000E+00 0.  1.
</event>
<event>
 5    1  0.1764318E-003  0.9118800E+02  0.7818608E-02  0.1130116E+00
         25   -1    0    0    0    0  0.00000000000E+00  0.00000000000E+00  0.99999998245E-14  0.12500000000E+03  0.12500000000E+03 0.  0.
        -13    1    3    3    0    0  0.46109886115E+01 -0.34540734447E+02 -0.35085804868E+02  0.49450464299E+02  0.10566000000E+00 0.  1.
         23    2    1    0    0    0 -0.30866298935E+01  0.11270725495E+02 -0.25594549768E+02  0.96863946348E+02  0.92687575149E+02 0.  0.
         13    1    3    3    0    0 -0.76976185050E+01  0.45811459942E+02  0.94912550998E+01  0.47413482049E+02  0.10566000000E+00 0. -1.
         22    1    1    0    0    0  0.30866298935E+01 -0.11270725495E+02  0.25594549768E+02  0.28136053652E+02  0.00000000000E+00 0. -1.
</event>
<event>
 5    1  0.1764318E-003  0.9118800E+02  0.7818608E-02  0.1130116E+00
         25   -1    0    0    0    0  0.00000000000E+00  0.00000000000E+00  0.99999998245E-14  0.12500000000E+03  0.12500000000E+03 0.  0.
        -13    1    3    3    0    0  0.18112195179E+02 -0.29919527753E+02 -0.35901780625E+01  0.35158644708E+02  0.10566000000E+00 0.  1.
         23    2    1    0    0    0 -0.70897454344E+01  0.20666459810E+02  0.19022325347E+02  0.96030776451E+02  0.91557053866E+02 0.  0.
         13    1    3    3    0    0 -0.25201940613E+02  0.50585987563E+02  0.22612503410E+02  0.60872131743E+02  0.10566000000E+00 0. -1.
         22    1    1    0    0    0  0.70897454344E+01 -0.20666459810E+02 -0.19022325347E+02  0.28969223549E+02  0.00000000000E+00 0. -1.
</event>
<event>
 5    1  0.1764318E-003  0.9118800E+02  0.7818608E-02  0.1130116E+00
         25   -1    0    0    0    0  0.00000000000E+00  0.00000000000E+00  0.99999998245E-14  0.12500000000E+03  0.12500000000E+03 0.  0.
        -13    1    3    3    0    0  0.11518781053E+02 -0.16997704074E+02  0.35875798177E+02  0.41336283331E+02  0.10566000000E+00 0. -1.
         23    2    1    0    0    0 -0.59213586219E+01  0.26939034137E+02  0.77193314184E+01  0.96358035583E+02  0.92002765696E+02 0.  0.
         13    1    3    3    0    0 -0.17440139675E+02  0.43936738211E+02 -0.28156466759E+02  0.55021752252E+02  0.10566000000E+00 0.  1.
         22    1    1    0    0    0  0.59213586219E+01 -0.26939034137E+02 -0.77193314184E+01  0.28641964417E+02  0.00000000000E+00 0.  1.
</event>
<event>
 5    1  0.1764318E-003  0.9118800E+02  0.7818608E-02  0.1130116E+00
         25   -1    0    0    0    0  0.00000000000E+00  0.00000000000E+00  0.99999998245E-14  0.12500000000E+03  0.12500000000E+03 0.  0.
        -13    1    3    3    0    0 -0.48969902657E+02  0.18051930623E+02  0.26847513827E+02  0.58691768828E+02  0.10566000000E+00 0. -1.
         23    2    1    0    0    0 -0.13558927694E+02  0.36089640284E+01  0.24200082739E+02  0.97026563562E+02  0.92906624578E+02 0.  0.
         13    1    3    3    0    0  0.35410974963E+02 -0.14442966595E+02 -0.26474310875E+01  0.38334794734E+02  0.10566000000E+00 0.  1.
         22    1    1    0    0    0  0.13558927694E+02 -0.36089640284E+01 -0.24200082739E+02  0.27973436438E+02  0.00000000000E+00 0. -1.
</event>
<event>
 5    1  0.1764318E-003  0.9118800E+02  0.7818608E-02  0.1130116E+00
         25   -1    0    0    0    0  0.00000000000E+00  0.00000000000E+00  0.99999998245E-14  0.12500000000E+03  0.12500000000E+03 0.  0.
        -13    1    3    3    0    0 -0.25644521949E+02  0.27869164777E+02 -0.37713773424E+02  0.53447841129E+02  0.10566000000E+00 0. -1.
         23    2    1    0    0    0 -0.12120274287E+02 -0.37136413439E+01 -0.34841033355E+02  0.87924539301E+02  0.79725371277E+02 0.  0.
         13    1    3    3    0    0  0.13524247663E+02 -0.31582806121E+02  0.28727400693E+01  0.34476698172E+02  0.10566000000E+00 0.  1.
         22    1    1    0    0    0  0.12120274287E+02  0.37136413439E+01  0.34841033355E+02  0.37075460699E+02  0.00000000000E+00 0. -1.
</event>
<event>
 5    1  0.1764318E-003  0.9118800E+02  0.7818608E-02  0.1130116E+00
         25   -1    0    0    0    0  0.00000000000E+00  0.00000000000E+00  0.99999998245E-14  0.12500000000E+03  0.12500000000E+03 0.  0.
        -13    1    3    3    0    0 -0.23433973950E+02  0.31486959210E+02 -0.47607007881E+02  0.61701038069E+02  0.10566000000E+00 0.  1.
         23    2    1    0    0    0 -0.74698060917E+01  0.20222485018E+02 -0.19505464308E+02  0.95927503698E+02  0.91415950056E+02 0.  0.
         13    1    3    3    0    0  0.15964167858E+02 -0.11264474193E+02  0.28101543573E+02  0.34226465629E+02  0.10566000000E+00 0. -1.
         22    1    1    0    0    0  0.74698060917E+01 -0.20222485018E+02  0.19505464308E+02  0.29072496302E+02  0.00000000000E+00 0.  1.
</event>
<event>
 5    1  0.1764318E-003  0.9118800E+02  0.7818608E-02  0.1130116E+00
         25   -1    0    0    0    0  0.00000000000E+00  0.00000000000E+00  0.99999998245E-14  0.12500000000E+03  0.12500000000E+03 0.  0.
        -13    1    3    3    0    0 -0.89876704556E+01  0.42880093478E+01  0.60683882837E+02  0.61495609962E+02  0.10566000000E+00 0.  1.
         23    2    1    0    0    0 -0.59152698262E+01 -0.56855022302E+01  0.29547102504E+02  0.94334928353E+02  0.89211726181E+02 0.  0.
         13    1    3    3    0    0  0.30724006293E+01 -0.99735115781E+01 -0.31136780333E+02  0.32839318391E+02  0.10566000000E+00 0. -1.
         22    1    1    0    0    0  0.59152698262E+01  0.56855022302E+01 -0.29547102504E+02  0.30665071647E+02  0.00000000000E+00 0.  1.
</event>
<event>
 5    1  0.1764318E-003  0.9118800E+02  0.7818608E-02  0.1130116E+00
         25   -1    0    0    0    0  0.00000000000E+00  0.00000000000E+00  0.99999998245E-14  0.12500000000E+03  0.12500000000E+03 0.  0.
        -13    1    3    3    0    0  0.38129371719E+02  0.45614685705E+02  0.57605579890E+00  0.59454953906E+02  0.10566000000E+00 0.  1.
         23    2    1    0    0    0  0.25225613805E+02  0.11861448806E+02  0.72395942131E+01  0.96200047153E+02  0.91787862968E+02 0.  0.
         13    1    3    3    0    0 -0.12903757914E+02 -0.33753236900E+02  0.66635384142E+01  0.36745093247E+02  0.10566000000E+00 0. -1.
         22    1    1    0    0    0 -0.25225613805E+02 -0.11861448806E+02 -0.72395942131E+01  0.28799952847E+02  0.00000000000E+00 0.  1.
</event>
<event>
 5    1  0.1764318E-003  0.9118800E+02  0.7818608E-02  0.1130116E+00
         25   -1    0    0    0    0  0.00000000000E+00  0.00000000000E+00  0.99999998245E-14  0.12500000000E+03  0.12500000000E+03 0.  0.
        -13    1    3    3    0    0 -0.24504371891E+02  0.38882312096E+02  0.38248538320E+02  0.59793480275E+02  0.10566000000E+00 0. -1.
         23    2    1    0    0    0 -0.31691626777E+00  0.19632354865E+02  0.24438434827E+02  0.93650886930E+02  0.88248069285E+02 0.  0.
         13    1    3    3    0    0  0.24187455623E+02 -0.19249957232E+02 -0.13810103493E+02  0.33857406656E+02  0.10566000000E+00 0.  1.
         22    1    1    0    0    0  0.31691626777E+00 -0.19632354865E+02 -0.24438434827E+02  0.31349113070E+02  0.00000000000E+00 0. -1.
</event>
<event>
 5    1  0.1764318E-003  0.9118800E+02  0.7818608E-02  0.1130116E+00
         25   -1    0    0    0    0  0.00000000000E+00  0.00000000000E+00  0.99999998245E-14  0.12500000000E+03  0.12500000000E+03 0.  0.
        -13    1    3    3    0    0  0.25452167259E+02  0.10160754445E+02 -0.55851137900E+02  0.62212655608E+02  0.10566000000E+00 0.  1.
         23    2    1    0    0    0  0.13586154914E+02  0.86981040303E+00 -0.26210945429E+02  0.95464363292E+02  0.90780453970E+02 0.  0.
         13    1    3    3    0    0 -0.11866012345E+02 -0.92909440417E+01  0.29640192471E+02  0.33251707684E+02  0.10566000000E+00 0. -1.
         22    1    1    0    0    0 -0.13586154914E+02 -0.86981040303E+00  0.26210945429E+02  0.29535636708E+02  0.00000000000E+00 0.  1.
</event>
<event>
 5    1  0.1764318E-003  0.9118800E+02  0.7818608E-02  0.1130116E+00
         25   -1    0    0    0    0  0.00000000000E+00  0.00000000000E+00  0.99999998245E-14  0.12500000000E+03  0.12500000000E+03 0.  0.
        -13    1    3    3    0    0 -0.18574836911E+02  0.13012303811E+01 -0.30988057467E+02  0.36152297802E+02  0.10566000000E+00 0.  1.
         23    2    1    0    0    0  0.54893376451E+01 -0.25182970095E+02  0.15581096151E+02  0.94882142044E+02  0.89975193864E+02 0.  0.
         13    1    3    3    0    0  0.24064174556E+02 -0.26484200476E+02  0.46569153618E+02  0.58729844242E+02  0.10566000000E+00 0. -1.
         22    1    1    0    0    0 -0.54893376451E+01  0.25182970095E+02 -0.15581096151E+02  0.30117857956E+02  0.00000000000E+00 0. -1.
</event>
<event>
 5    1  0.1764318E-003  0.9118800E+02  0.7818608E-02  0.1130116E+00
         25   -1    0    0    0    0  0.00000000000E+00  0.00000000000E+00  0.99999998245E-14  0.12500000000E+03  0.12500000000E+03 0.  0.
        -13    1    3    3    0    0 -0.17859144966E+02  0.39094702903E+02  0.39794575185E+02  0.58574433264E+02  0.10566000000E+00 0. -1.
         23    2    1    0    0    0 -0.18579561346E+02  0.21028336889E+02  0.69112311525E+01  0.96100931362E+02  0.91652784139E+02 0.  0.
         13    1    3    3    0    0 -0.72041638043E+00 -0.18066366014E+02 -0.32883344032E+02  0.37526498098E+02  0.10566000000E+00 0.  1.
         22    1    1    0    0    0  0.18579561346E+02 -0.21028336889E+02 -0.69112311525E+01  0.28899068638E+02  0.00000000000E+00 0. -1.
</event>
<event>
 5    1  0.1764318E-003  0.9118800E+02  0.7818608E-02  0.1130116E+00
         25   -1    0    0    0    0  0.00000000000E+00  0.00000000000E+00  0.99999998245E-14  0.12500000000E+03  0.12500000000E+03 0.  0.
        -13    1    3    3    0    0  0.27620661624E+02  0.44484168738E+02 -0.15270182806E+02  0.54542935966E+02  0.10566000000E+00 0.  1.
         23    2    1    0    0    0 -0.89774402113E+01  0.25912833399E+02 -0.94470971598E+01  0.95994534786E+02  0.91507560871E+02 0.  0.
         13    1    3    3    0    0 -0.36598101835E+02 -0.18571335339E+02  0.58230856464E+01  0.41451598820E+02  0.10566000000E+00 0. -1.
         22    1    1    0    0    0  0.89774402113E+01 -0.25912833399E+02  0.94470971598E+01  0.29005465214E+02  0.00000000000E+00 0.  1.
</event>
<event>
 5    1  0.1764318E-003  0.9118800E+02  0.7818608E-02  0.1130116E+00
         25   -1    0    0    0    0  0.00000000000E+00  0.00000000000E+00  0.99999998245E-14  0.12500000000E+03  0.12500000000E+03 0.  0.
        -13    1    3    3    0    0  0.20852478595E+02  0.56934129343E+02  0.49030124063E+01  0.60830680107E+02  0.10566000000E+00 0.  1.
         23    2    1    0    0    0  0.15969953223E+02  0.21847478034E+02  0.89743413807E+01  0.96488765274E+02  0.92180211100E+02 0.  0.
         13    1    3    3    0    0 -0.48825253720E+01 -0.35086651309E+02  0.40713289744E+01  0.35658085167E+02  0.10566000000E+00 0. -1.
         22    1    1    0    0    0 -0.15969953223E+02 -0.21847478034E+02 -0.89743413807E+01  0.28511234726E+02  0.00000000000E+00 0.  1.
</event>
<event>
 5    1  0.1764318E-003  0.9118800E+02  0.7818608E-02  0.1130116E+00
         25   -1    0    0    0    0  0.00000000000E+00  0.00000000000E+00  0.99999998245E-14  0.12500000000E+03  0.12500000000E+03 0.  0.
        -13    1    3    3    0    0 -0.31343364131E+02 -0.48927213999E+01 -0.14157902194E+02  0.34739063837E+02  0.10566000000E+00 0. -1.
         23    2    1    0    0    0  0.19556180169E+02  0.22321749815E+02 -0.13339445352E+02  0.92463167027E+02  0.86549360233E+02 0.  0.
         13    1    3    3    0    0  0.50899544299E+02  0.27214471215E+02  0.81845684199E+00  0.57724103190E+02  0.10566000000E+00 0.  1.
         22    1    1    0    0    0 -0.19556180169E+02 -0.22321749815E+02  0.13339445352E+02  0.32536832973E+02  0.00000000000E+00 0.  1.
</event>
<event>
 5    1  0.1764318E-003  0.9118800E+02  0.7818608E-02  0.1130116E+00
         25   -1    0    0    0    0  0.00000000000E+00  0.00000000000E+00  0.99999998245E-14  0.12500000000E+03  0.12500000000E+03 0.  0.
        -13    1    3    3    0    0 -0.30512320275E+02 -0.27541266221E+02 -0.42000680721E+02  0.58767264516E+02  0.10566000000E+00 0.  1.
         23    2    1    0    0    0 -0.17549241568E+00 -0.17664989995E+02 -0.23340676834E+02  0.95727660425E+02  0.91142279466E+02 0.  0.
         13    1    3    3    0    0  0.30336827860E+02  0.98762762256E+01  0.18660003886E+02  0.36960395909E+02  0.10566000000E+00 0. -1.
         22    1    1    0    0    0  0.17549241568E+00  0.17664989995E+02  0.23340676834E+02  0.29272339575E+02  0.00000000000E+00 0.  1.
</event>
<event>
 5    1  0.1764318E-003  0.9118800E+02  0.7818608E-02  0.1130116E+00
         25   -1    0    0    0    0  0.00000000000E+00  0.00000000000E+00  0.99999998245E-14  0.12500000000E+03  0.12500000000E+03 0.  0.
        -13    1    3    3    0    0 -0.36700845954E+02 -0.31125065781E+02  0.50041935461E+01  0.48381555687E+02  0.10566000000E+00 0.  1.
         23    2    1    0    0    0 -0.15007209706E+02  0.98378918390E+01  0.20963845648E+02  0.97405013438E+02  0.93414417300E+02 0.  0.
         13    1    3    3    0    0  0.21693636248E+02  0.40962957620E+02  0.15959652102E+02  0.49023457751E+02  0.10566000000E+00 0. -1.
         22    1    1    0    0    0  0.15007209706E+02 -0.98378918390E+01 -0.20963845648E+02  0.27594986562E+02  0.00000000000E+00 0. -1.
</event>
<event>
 5    1  0.1764318E-003  0.9118800E+02  0.7818608E-02  0.1130116E+00
         25   -1    0    0    0    0  0.00000000000E+00  0.00000000000E+00  0.99999998245E-14  0.12500000000E+03  0.12500000000E+03 0.  0.
        -13    1    3    3    0    0 -0.27984514220E+02 -0.27609040677E+02  0.17787187652E+01  0.39351838175E+02  0.10566000000E+00 0.  1.
         23    2    1    0    0    0 -0.15947258698E+02  0.25884170847E+02 -0.33078194486E+01  0.94418191193E+02  0.89328314650E+02 0.  0.
         13    1    3    3    0    0  0.12037255522E+02  0.53493211524E+02 -0.50865382138E+01  0.55066353018E+02  0.10566000000E+00 0. -1.
         22    1    1    0    0    0  0.15947258698E+02 -0.25884170847E+02  0.33078194486E+01  0.30581808807E+02  0.00000000000E+00 0.  1.
</event>
<event>
 5    1  0.1764318E-003  0.9118800E+02  0.7818608E-02  0.1130116E+00
         25   -1    0    0    0    0  0.00000000000E+00  0.00000000000E+00  0.99999998245E-14  0.12500000000E+03  0.12500000000E+03 0.  0.
        -13    1    3    3    0    0  0.21232559812E+02 -0.10715992123E+02 -0.32988928627E+02  0.40668595493E+02  0.10566000000E+00 0. -1.
         23    2    1    0    0    0 -0.11566795923E+02  0.25586025308E+02 -0.70276204328E+01  0.96054829282E+02  0.91589886562E+02 0.  0.
         13    1    3    3    0    0 -0.32799355735E+02  0.36302017431E+02  0.25961308194E+02  0.55386233789E+02  0.10566000000E+00 0.  1.
         22    1    1    0    0    0  0.11566795923E+02 -0.25586025308E+02  0.70276204328E+01  0.28945170718E+02  0.00000000000E+00 0.  1.
</event>
<event>
 5    1  0.1764318E-003  0.9118800E+02  0.7818608E-02  0.1130116E+00
         25   -1    0    0    0    0  0.00000000000E+00  0.00000000000E+00  0.99999998245E-14  0.12500000000E+03  0.12500000000E+03 0.  0.
        -13    1    3    3    0    0  0.17746815577E+02  0.39186298346E+02 -0.39409464602E+02  0.58340659111E+02  0.10566000000E+00 0.  1.
         23    2    1    0    0    0 -0.33014964633E+01  0.26357292729E+02 -0.10238549334E+02  0.96531866037E+02  0.92238638917E+02 0.  0.
         13    1    3    3    0    0 -0.21048312040E+02 -0.12829005618E+02  0.29170915268E+02  0.38191206927E+02  0.10566000000E+00 0. -1.
         22    1    1    0    0    0  0.33014964633E+01 -0.26357292729E+02  0.10238549334E+02  0.28468133963E+02  0.00000000000E+00 0.  1.
</event>
<event>
 5    1  0.1764318E-003  0.9118800E+02  0.7818608E-02  0.1130116E+00
         25   -1    0    0    0    0  0.00000000000E+00  0.00000000000E+00  0.99999998245E-14  0.12500000000E+03  0.12500000000E+03 0.  0.
        -13    1    3    3    0    0  0.83667075769E+01  0.13746171320E+02  0.29768891718E+02  0.33840169914E+02  0.10566000000E+00 0. -1.
         23    2    1    0    0    0 -0.12354632802E+02 -0.17008523496E+02 -0.20052240377E+02  0.95947992026E+02  0.91443961018E+02 0.  0.
         13    1    3    3    0    0 -0.20721340379E+02 -0.30754694816E+02 -0.49821132095E+02  0.62107822112E+02  0.10566000000E+00 0.  1.
         22    1    1    0    0    0  0.12354632802E+02  0.17008523496E+02  0.20052240377E+02  0.29052007974E+02  0.00000000000E+00 0.  1.
</event>
<event>
 5    1  0.1764318E-003  0.9118800E+02  0.7818608E-02  0.1130116E+00
         25   -1    0    0    0    0  0.00000000000E+00  0.00000000000E+00  0.99999998245E-14  0.12500000000E+03  0.12500000000E+03 0.  0.
        -13    1    3    3    0    0 -0.13117428908E+02  0.34471910349E+02  0.10348344486E+02  0.38307687765E+02  0.10566000000E+00 0.  1.
         23    2    1    0    0    0 -0.73139262846E+01 -0.10101939885E+02 -0.26031489254E+02  0.96135122728E+02  0.91699403935E+02 0.  0.
         13    1    3    3    0    0  0.58035026238E+01 -0.44573850234E+02 -0.36379833741E+02  0.57827434963E+02  0.10566000000E+00 0. -1.
         22    1    1    0    0    0  0.73139262846E+01  0.10101939885E+02  0.26031489254E+02  0.28864877272E+02  0.00000000000E+00 0. -1.
</event>
<event>
 5    1  0.1764318E-003  0.9118800E+02  0.7818608E-02  0.1130116E+00
         25   -1    0    0    0    0  0.00000000000E+00  0.00000000000E+00  0.99999998245E-14  0.12500000000E+03  0.12500000000E+03 0.  0.
        -13    1    3    3    0    0  0.27588625783E+02 -0.60187768922E+01 -0.29556797474E+02  0.40877541374E+02  0.10566000000E+00 0.  1.
         23    2    1    0    0    0 -0.42670439464E+01  0.30213873267E+02 -0.11522766501E+02  0.92383133969E+02  0.86433694196E+02 0.  0.
         13    1    3    3    0    0 -0.31855669729E+02  0.36232650159E+02  0.18034030973E+02  0.51505592595E+02  0.10566000000E+00 0. -1.
         22    1    1    0    0    0  0.42670439464E+01 -0.30213873267E+02  0.11522766501E+02  0.32616866031E+02  0.00000000000E+00 0. -1.
</event>
<event>
 5    1  0.1764318E-003  0.9118800E+02  0.7818608E-02  0.1130116E+00
         25   -1    0    0    0    0  0.00000000000E+00  0.00000000000E+00  0.99999998245E-14  0.12500000000E+03  0.12500000000E+03 0.  0.
        -13    1    3    3    0    0 -0.77552222744E+01  0.17356174728E+02  0.55397519460E+02  0.58568563241E+02  0.10566000000E+00 0. -1.
         23    2    1    0    0    0 -0.10093031822E+02 -0.48105000089E+01  0.32957735671E+02  0.90197377365E+02  0.83212645321E+02 0.  0.
         13    1    3    3    0    0 -0.23378095479E+01 -0.22166674737E+02 -0.22439783789E+02  0.31628814125E+02  0.10566000000E+00 0.  1.
         22    1    1    0    0    0  0.10093031822E+02  0.48105000089E+01 -0.32957735671E+02  0.34802622635E+02  0.00000000000E+00 0. -1.
</event>
<event>
 5    1  0.1764318E-003  0.9118800E+02  0.7818608E-02  0.1130116E+00
         25   -1    0    0    0    0  0.00000000000E+00  0.00000000000E+00  0.99999998245E-14  0.12500000000E+03  0.12500000000E+03 0.  0.
        -13    1    3    3    0    0  0.23716509760E+02 -0.35001606898E+02 -0.25590637793E+02  0.49421424781E+02  0.10566000000E+00 0. -1.
         23    2    1    0    0    0 -0.56916525509E+01 -0.33031587298E+02  0.40689367797E+01  0.91235567312E+02  0.84757842280E+02 0.  0.
         13    1    3    3    0    0 -0.29408162311E+02  0.19700195997E+01  0.29659574573E+02  0.41814142531E+02  0.10566000000E+00 0.  1.
         22    1    1    0    0    0  0.56916525509E+01  0.33031587298E+02 -0.40689367797E+01  0.33764432688E+02  0.00000000000E+00 0. -1.
</event>
<event>
 5    1  0.1764318E-003  0.9118800E+02  0.7818608E-02  0.1130116E+00
         25   -1    0    0    0    0  0.00000000000E+00  0.00000000000E+00  0.99999998245E-14  0.12500000000E+03  0.12500000000E+03 0.  0.
        -13    1    3    3    0    0  0.28775780558E+02  0.21647067954E+02 -0.19903337232E+02  0.41143591174E+02  0.10566000000E+00 0.  1.
         23    2    1    0    0    0 -0.38819549713E+01  0.15961903548E+02  0.23852331312E+02  0.96038203642E+02  0.91567193418E+02 0.  0.
         13    1    3    3    0    0 -0.32657735529E+02 -0.56851644056E+01  0.43755668544E+02  0.54894612468E+02  0.10566000000E+00 0. -1.
         22    1    1    0    0    0  0.38819549713E+01 -0.15961903548E+02 -0.23852331312E+02  0.28961796358E+02  0.00000000000E+00 0. -1.
</event>
<event>
 5    1  0.1764318E-003  0.9118800E+02  0.7818608E-02  0.1130116E+00
         25   -1    0    0    0    0  0.00000000000E+00  0.00000000000E+00  0.99999998245E-14  0.12500000000E+03  0.12500000000E+03 0.  0.
        -13    1    3    3    0    0  0.43383395659E+02  0.25985375328E+02  0.36682174356E+02  0.62473609063E+02  0.10566000000E+00 0.  1.
         23    2    1    0    0    0  0.22845545976E+02  0.14619772163E+02  0.18431619397E+02  0.92206993083E+02  0.86178583597E+02 0.  0.
         13    1    3    3    0    0 -0.20537849684E+02 -0.11365603165E+02 -0.18250554959E+02  0.29733384020E+02  0.10566000000E+00 0. -1.
         22    1    1    0    0    0 -0.22845545976E+02 -0.14619772163E+02 -0.18431619397E+02  0.32793006917E+02  0.00000000000E+00 0.  1.
</event>
<event>
 5    1  0.1764318E-003  0.9118800E+02  0.7818608E-02  0.1130116E+00
         25   -1    0    0    0    0  0.00000000000E+00  0.00000000000E+00  0.99999998245E-14  0.12500000000E+03  0.12500000000E+03 0.  0.
        -13    1    3    3    0    0 -0.17508073225E+02 -0.22557531486E+02  0.34656101562E+02  0.44904692342E+02  0.10566000000E+00 0.  1.
         23    2    1    0    0    0 -0.22873011241E+02  0.18325454421E+02  0.60939708354E+01  0.95064512639E+02  0.90228200469E+02 0.  0.
         13    1    3    3    0    0 -0.53649380163E+01  0.40882985907E+02 -0.28562130727E+02  0.50159820297E+02  0.10566000000E+00 0. -1.
         22    1    1    0    0    0  0.22873011241E+02 -0.18325454421E+02 -0.60939708354E+01  0.29935487361E+02  0.00000000000E+00 0. -1.
</event>
<event>
 5    1  0.1764318E-003  0.9118800E+02  0.7818608E-02  0.1130116E+00
         25   -1    0    0    0    0  0.00000000000E+00  0.00000000000E+00  0.99999998245E-14  0.12500000000E+03  0.12500000000E+03 0.  0.
        -13    1    3    3    0    0  0.33684098375E+02  0.20312110318E+02 -0.92908018026E+01  0.40416957717E+02  0.10566000000E+00 0. -1.
         23    2    1    0    0    0  0.82012503646E+01 -0.19776780896E+02  0.19564879847E+02  0.95997136459E+02  0.91511114706E+02 0.  0.
         13    1    3    3    0    0 -0.25482848010E+02 -0.40088891214E+02  0.28855681650E+02  0.55580178742E+02  0.10566000000E+00 0.  1.
         22    1    1    0    0    0 -0.82012503646E+01  0.19776780896E+02 -0.19564879847E+02  0.29002863541E+02  0.00000000000E+00 0.  1.
</event>
<event>
 5    1  0.1764318E-003  0.9118800E+02  0.7818608E-02  0.1130116E+00
         25   -1    0    0    0    0  0.00000000000E+00  0.00000000000E+00  0.99999998245E-14  0.12500000000E+03  0.12500000000E+03 0.  0.
        -13    1    3    3    0    0 -0.14832866367E+02 -0.21084320189E+02 -0.55214469668E+02  0.60936124813E+02  0.10566000000E+00 0.  1.
         23    2    1    0    0    0 -0.12796188280E+02 -0.17980849340E+02 -0.23903808112E+02  0.92466241845E+02  0.86553800963E+02 0.  0.
         13    1    3    3    0    0  0.20366780878E+01  0.31034708492E+01  0.31310661556E+02  0.31530117032E+02  0.10566000000E+00 0. -1.
         22    1    1    0    0    0  0.12796188280E+02  0.17980849340E+02  0.23903808112E+02  0.32533758155E+02  0.00000000000E+00 0.  1.
</event>
<event>
 5    1  0.1764318E-003  0.9118800E+02  0.7818608E-02  0.1130116E+00
         25   -1    0    0    0    0  0.00000000000E+00  0.00000000000E+00  0.99999998245E-14  0.12500000000E+03  0.12500000000E+03 0.  0.
        -13    1    3    3    0    0 -0.44720582949E+02 -0.12813257068E+02  0.11458818359E+02  0.47910601940E+02  0.10566000000E+00 0.  1.
         23    2    1    0    0    0 -0.17092718446E+02  0.23584582467E+02 -0.26952905482E+01  0.95748365086E+02  0.91170671114E+02 0.  0.
         13    1    3    3    0    0  0.27627864503E+02  0.36397839535E+02 -0.14154108907E+02  0.47837763146E+02  0.10566000000E+00 0. -1.
         22    1    1    0    0    0  0.17092718446E+02 -0.23584582467E+02  0.26952905482E+01  0.29251634914E+02  0.00000000000E+00 0. -1.
</event>
<event>
 5    1  0.1764318E-003  0.9118800E+02  0.7818608E-02  0.1130116E+00
         25   -1    0    0    0    0  0.00000000000E+00  0.00000000000E+00  0.99999998245E-14  0.12500000000E+03  0.12500000000E+03 0.  0.
        -13    1    3    3    0    0 -0.12744644914E+01 -0.40309173462E+02 -0.28398263664E+02  0.49324702413E+02  0.10566000000E+00 0.  1.
         23    2    1    0    0    0 -0.24851792621E+02 -0.15745975742E+02  0.27248812835E+01  0.95453894900E+02  0.90766038390E+02 0.  0.
         13    1    3    3    0    0 -0.23577328130E+02  0.24563197721E+02  0.31123144948E+02  0.46129192487E+02  0.10566000000E+00 0. -1.
         22    1    1    0    0    0  0.24851792621E+02  0.15745975742E+02 -0.27248812835E+01  0.29546105100E+02  0.00000000000E+00 0. -1.
</event>
<event>
 5    1  0.1764318E-003  0.9118800E+02  0.7818608E-02  0.1130116E+00
         25   -1    0    0    0    0  0.00000000000E+00  0.00000000000E+00  0.99999998245E-14  0.12500000000E+03  0.12500000000E+03 0.  0.
        -13    1    3    3    0    0  0.24210914355E+02 -0.10697437870E+02 -0.23793191174E+02  0.35591159874E+02  0.10566000000E+00 0.  1.
         23    2    1    0    0    0 -0.20022648765E+02 -0.46769787359E+01  0.18687678422E+02  0.97214933535E+02  0.93159719749E+02 0.  0.
         13    1    3    3    0    0 -0.44233563120E+02  0.60204591343E+01  0.42480869597E+02  0.61623773661E+02  0.10566000000E+00 0. -1.
         22    1    1    0    0    0  0.20022648765E+02  0.46769787359E+01 -0.18687678422E+02  0.27785066465E+02  0.00000000000E+00 0. -1.
</event>
<event>
 5    1  0.1764318E-003  0.9118800E+02  0.7818608E-02  0.1130116E+00
         25   -1    0    0    0    0  0.00000000000E+00  0.00000000000E+00  0.99999998245E-14  0.12500000000E+03  0.12500000000E+03 0.  0.
        -13    1    3    3    0    0 -0.12901656436E+02  0.21809087336E+02  0.29956474737E+02  0.39236342489E+02  0.10566000000E+00 0.  1.
         23    2    1    0    0    0  0.31092339991E+02 -0.30606025877E-01  0.14199822662E+02  0.90818579513E+02  0.84140625612E+02 0.  0.
         13    1    3    3    0    0  0.43993996427E+02 -0.21839693362E+02 -0.15756652074E+02  0.51582237024E+02  0.10566000000E+00 0. -1.
         22    1    1    0    0    0 -0.31092339991E+02  0.30606025877E-01 -0.14199822662E+02  0.34181420487E+02  0.00000000000E+00 0.  1.
</event>
<event>
 5    1  0.1764318E-003  0.9118800E+02  0.7818608E-02  0.1130116E+00
         25   -1    0    0    0    0  0.00000000000E+00  0.00000000000E+00  0.99999998245E-14  0.12500000000E+03  0.12500000000E+03 0.  0.
        -13    1    3    3    0    0  0.55146310161E+01 -0.10729929773E+02  0.42729307024E+02  0.44399858006E+02  0.10566000000E+00 0.  1.
         23    2    1    0    0    0 -0.86483574571E-01  0.28348683918E+02  0.13040521135E+02  0.93795664551E+02  0.88452903501E+02 0.  0.
         13    1    3    3    0    0 -0.56011145906E+01  0.39078613692E+02 -0.29688785888E+02  0.49395806545E+02  0.10566000000E+00 0. -1.
         22    1    1    0    0    0  0.86483574571E-01 -0.28348683918E+02 -0.13040521135E+02  0.31204335449E+02  0.00000000000E+00 0. -1.
</event>
<event>
 5    1  0.1764318E-003  0.9118800E+02  0.7818608E-02  0.1130116E+00
         25   -1    0    0    0    0  0.00000000000E+00  0.00000000000E+00  0.99999998245E-14  0.12500000000E+03  0.12500000000E+03 0.  0.
        -13    1    3    3    0    0  0.30283943133E+02 -0.89362388761E+01  0.27665991914E+02  0.41980850987E+02  0.10566000000E+00 0.  1.
         23    2    1    0    0    0 -0.18864262368E+02  0.10834886878E+02  0.19888036967E+02  0.95524770014E+02  0.90863592838E+02 0.  0.
         13    1    3    3    0    0 -0.49148205501E+02  0.19771125754E+02 -0.77779549469E+01  0.53543919027E+02  0.10566000000E+00 0. -1.
         22    1    1    0    0    0  0.18864262368E+02 -0.10834886878E+02 -0.19888036967E+02  0.29475229986E+02  0.00000000000E+00 0. -1.
</event>
<event>
 5    1  0.1764318E-003  0.9118800E+02  0.7818608E-02  0.1130116E+00
         25   -1    0    0    0    0  0.00000000000E+00  0.00000000000E+00  0.99999998245E-14  0.12500000000E+03  0.12500000000E+03 0.  0.
        -13    1    3    3    0    0 -0.32762178846E+02  0.13373385891E+00 -0.33262550634E+02  0.46688185724E+02  0.10566000000E+00 0.  1.
         23    2    1    0    0    0 -0.94751502033E+01 -0.26919880940E+02  0.13765101068E+01  0.96428103996E+02  0.92097915281E+02 0.  0.
         13    1    3    3    0    0  0.23287028643E+02 -0.27053614799E+02  0.34639060741E+02  0.49739918272E+02  0.10566000000E+00 0. -1.
         22    1    1    0    0    0  0.94751502033E+01  0.26919880940E+02 -0.13765101068E+01  0.28571896004E+02  0.00000000000E+00 0.  1.
</event>
<event>
 5    1  0.1764318E-003  0.9118800E+02  0.7818608E-02  0.1130116E+00
         25   -1    0    0    0    0  0.00000000000E+00  0.00000000000E+00  0.99999998245E-14  0.12500000000E+03  0.12500000000E+03 0.  0.
        -13    1    3    3    0    0 -0.36724539111E+02  0.21917019332E+02 -0.17321891367E+02  0.46142243052E+02  0.10566000000E+00 0.  1.
         23    2    1    0    0    0 -0.99549186883E+01 -0.22695671219E+02 -0.76641640813E+01  0.99059041860E+02  0.95602094459E+02 0.  0.
         13    1    3    3    0    0  0.26769620422E+02 -0.44612690551E+02  0.96577272860E+01  0.52916798808E+02  0.10566000000E+00 0. -1.
         22    1    1    0    0    0  0.99549186883E+01  0.22695671219E+02  0.76641640813E+01  0.25940958140E+02  0.00000000000E+00 0. -1.
</event>
<event>
 5    1  0.1764318E-003  0.9118800E+02  0.7818608E-02  0.1130116E+00
         25   -1    0    0    0    0  0.00000000000E+00  0.00000000000E+00  0.99999998245E-14  0.12500000000E+03  0.12500000000E+03 0.  0.
        -13    1    3    3    0    0 -0.33096664108E+02 -0.14235183666E+02 -0.40593692504E+02  0.54276041346E+02  0.10566000000E+00 0.  1.
         23    2    1    0    0    0 -0.12576624546E+02 -0.26877909249E+02 -0.90462188730E+01  0.93976983279E+02  0.88708769689E+02 0.  0.
         13    1    3    3    0    0  0.20520039562E+02 -0.12642725583E+02  0.31547473631E+02  0.39700941933E+02  0.10566000000E+00 0. -1.
         22    1    1    0    0    0  0.12576624546E+02  0.26877909249E+02  0.90462188730E+01  0.31023016721E+02  0.00000000000E+00 0.  1.
</event>
<event>
 5    1  0.1764318E-003  0.9118800E+02  0.7818608E-02  0.1130116E+00
         25   -1    0    0    0    0  0.00000000000E+00  0.00000000000E+00  0.99999998245E-14  0.12500000000E+03  0.12500000000E+03 0.  0.
        -13    1    3    3    0    0 -0.45606580736E+02  0.25342320182E+02 -0.30351790567E+02  0.60360879328E+02  0.10566000000E+00 0.  1.
         23    2    1    0    0    0 -0.22893179347E+02  0.20158834698E+01 -0.20025947329E+02  0.94517217758E+02  0.89466778413E+02 0.  0.
         13    1    3    3    0    0  0.22713401389E+02 -0.23326436712E+02  0.10325843238E+02  0.34156338430E+02  0.10566000000E+00 0. -1.
         22    1    1    0    0    0  0.22893179347E+02 -0.20158834698E+01  0.20025947329E+02  0.30482782242E+02  0.00000000000E+00 0.  1.
</event>
<event>
 5    1  0.1764318E-003  0.9118800E+02  0.7818608E-02  0.1130116E+00
         25   -1    0    0    0    0  0.00000000000E+00  0.00000000000E+00  0.99999998245E-14  0.12500000000E+03  0.12500000000E+03 0.  0.
        -13    1    3    3    0    0 -0.37414989122E+02  0.41472596043E+01  0.16740945098E+02  0.41198926929E+02  0.10566000000E+00 0.  1.
         23    2    1    0    0    0  0.12711525608E+02  0.24533620434E+02  0.94291246801E+01  0.95804284439E+02  0.91247307410E+02 0.  0.
         13    1    3    3    0    0  0.50126514731E+02  0.20386360830E+02 -0.73118204180E+01  0.54605357510E+02  0.10566000000E+00 0. -1.
         22    1    1    0    0    0 -0.12711525608E+02 -0.24533620434E+02 -0.94291246801E+01  0.29195715561E+02  0.00000000000E+00 0. -1.
</event>
<event>
 5    1  0.1764318E-003  0.9118800E+02  0.7818608E-02  0.1130116E+00
         25   -1    0    0    0    0  0.00000000000E+00  0.00000000000E+00  0.99999998245E-14  0.12500000000E+03  0.12500000000E+03 0.  0.
        -13    1    3    3    0    0 -0.98392867472E+01 -0.35041763820E+02 -0.10407971783E+02  0.37855961432E+02  0.10566000000E+00 0.  1.
         23    2    1    0    0    0  0.31226288369E+02 -0.58455804554E+00  0.43738496620E+01  0.93463460015E+02  0.87982185718E+02 0.  0.
         13    1    3    3    0    0  0.41065575116E+02  0.34457205774E+02  0.14781821445E+02  0.55607498583E+02  0.10566000000E+00 0. -1.
         22    1    1    0    0    0 -0.31226288369E+02  0.58455804554E+00 -0.43738496620E+01  0.31536539985E+02  0.00000000000E+00 0. -1.
</event>
<event>
 5    1  0.1764318E-003  0.9118800E+02  0.7818608E-02  0.1130116E+00
         25   -1    0    0    0    0  0.00000000000E+00  0.00000000000E+00  0.99999998245E-14  0.12500000000E+03  0.12500000000E+03 0.  0.
        -13    1    3    3    0    0 -0.26988408028E+02  0.20390554263E+02  0.17292686568E+01  0.33869608872E+02  0.10566000000E+00 0.  1.
         23    2    1    0    0    0  0.29524077808E+02 -0.24500580579E+01  0.51973656366E+01  0.94921992013E+02  0.90030539281E+02 0.  0.
         13    1    3    3    0    0  0.56512485835E+02 -0.22840612321E+02  0.34680969798E+01  0.61052383141E+02  0.10566000000E+00 0. -1.
         22    1    1    0    0    0 -0.29524077808E+02  0.24500580579E+01 -0.51973656366E+01  0.30078007987E+02  0.00000000000E+00 0. -1.
</event>
<event>
 5    1  0.1764318E-003  0.9118800E+02  0.7818608E-02  0.1130116E+00
         25   -1    0    0    0    0  0.00000000000E+00  0.00000000000E+00  0.99999998245E-14  0.12500000000E+03  0.12500000000E+03 0.  0.
        -13    1    3    3    0    0 -0.47726308926E+01  0.74497357727E+00  0.53698614012E+02  0.53915538596E+02  0.10566000000E+00 0. -1.
         23    2    1    0    0    0  0.88060741429E+01  0.20024244583E+02  0.18143729459E+02  0.96579721472E+02  0.92303468884E+02 0.  0.
         13    1    3    3    0    0  0.13578705035E+02  0.19279271005E+02 -0.35554884553E+02  0.42664182877E+02  0.10566000000E+00 0.  1.
         22    1    1    0    0    0 -0.88060741429E+01 -0.20024244583E+02 -0.18143729459E+02  0.28420278528E+02  0.00000000000E+00 0. -1.
</event>
<event>
 5    1  0.1764318E-003  0.9118800E+02  0.7818608E-02  0.1130116E+00
         25   -1    0    0    0    0  0.00000000000E+00  0.00000000000E+00  0.99999998245E-14  0.12500000000E+03  0.12500000000E+03 0.  0.
        -13    1    3    3    0    0  0.33476697891E+01  0.42613244286E+00 -0.36349416797E+02  0.36505886476E+02  0.10566000000E+00 0.  1.
         23    2    1    0    0    0  0.16345505661E+02 -0.46952806345E+00  0.22726753212E+02  0.97001762137E+02  0.92873249831E+02 0.  0.
         13    1    3    3    0    0  0.12997835872E+02 -0.89566050631E+00  0.59076170008E+02  0.60495875661E+02  0.10566000000E+00 0. -1.
         22    1    1    0    0    0 -0.16345505661E+02  0.46952806345E+00 -0.22726753212E+02  0.27998237863E+02  0.00000000000E+00 0. -1.
</event>
<event>
 5    1  0.1764318E-003  0.9118800E+02  0.7818608E-02  0.1130116E+00
         25   -1    0    0    0    0  0.00000000000E+00  0.00000000000E+00  0.99999998245E-14  0.12500000000E+03  0.12500000000E+03 0.  0.
        -13    1    3    3    0    0  0.27070303390E+00  0.44137689547E+02 -0.31469602745E+02  0.54208449338E+02  0.10566000000E+00 0.  1.
         23    2    1    0    0    0 -0.80541886954E+01  0.61157191201E+01 -0.30199753141E+02  0.93151969203E+02  0.87538518954E+02 0.  0.
         13    1    3    3    0    0 -0.83248917293E+01 -0.38021970427E+02  0.12698496038E+01  0.38943519865E+02  0.10566000000E+00 0. -1.
         22    1    1    0    0    0  0.80541886954E+01 -0.61157191201E+01  0.30199753141E+02  0.31848030797E+02  0.00000000000E+00 0.  1.
</event>
<event>
 5    1  0.1764318E-003  0.9118800E+02  0.7818608E-02  0.1130116E+00
         25   -1    0    0    0    0  0.00000000000E+00  0.00000000000E+00  0.99999998245E-14  0.12500000000E+03  0.12500000000E+03 0.  0.
        -13    1    3    3    0    0  0.14526555609E+02  0.16373459458E+02 -0.29848669098E+02  0.37014391842E+02  0.10566000000E+00 0. -1.
         23    2    1    0    0    0 -0.18095963000E+02 -0.22841114331E+02 -0.52028694904E+00  0.95854655959E+02  0.91316285457E+02 0.  0.
         13    1    3    3    0    0 -0.32622518609E+02 -0.39214573789E+02  0.29328382149E+02  0.58840264117E+02  0.10566000000E+00 0.  1.
         22    1    1    0    0    0  0.18095963000E+02  0.22841114331E+02  0.52028694904E+00  0.29145344041E+02  0.00000000000E+00 0.  1.
</event>
<event>
 5    1  0.1764318E-003  0.9118800E+02  0.7818608E-02  0.1130116E+00
         25   -1    0    0    0    0  0.00000000000E+00  0.00000000000E+00  0.99999998245E-14  0.12500000000E+03  0.12500000000E+03 0.  0.
        -13    1    3    3    0    0  0.22587789665E+02  0.45287529237E+02 -0.24453044983E+02  0.56206148412E+02  0.10566000000E+00 0.  1.
         23    2    1    0    0    0 -0.98524302356E+00  0.27729532533E+02  0.38211400838E+01  0.96991094455E+02  0.92858890870E+02 0.  0.
         13    1    3    3    0    0 -0.23573032689E+02 -0.17557996704E+02  0.28274185067E+02  0.40784946042E+02  0.10566000000E+00 0. -1.
         22    1    1    0    0    0  0.98524302356E+00 -0.27729532533E+02 -0.38211400838E+01  0.28008905545E+02  0.00000000000E+00 0.  1.
</event>
<event>
 5    1  0.1764318E-003  0.9118800E+02  0.7818608E-02  0.1130116E+00
         25   -1    0    0    0    0  0.00000000000E+00  0.00000000000E+00  0.99999998245E-14  0.12500000000E+03  0.12500000000E+03 0.  0.
        -13    1    3    3    0    0  0.49989792936E+02  0.71757316568E+01 -0.16972406242E+02  0.53277990393E+02  0.10566000000E+00 0. -1.
         23    2    1    0    0    0  0.11242784855E+02  0.49289363933E+00 -0.28587756227E+02  0.94276996216E+02  0.89130516963E+02 0.  0.
         13    1    3    3    0    0 -0.38747008081E+02 -0.66828380175E+01 -0.11615349984E+02  0.40999005824E+02  0.10566000000E+00 0.  1.
         22    1    1    0    0    0 -0.11242784855E+02 -0.49289363933E+00  0.28587756227E+02  0.30723003784E+02  0.00000000000E+00 0. -1.
</event>
<event>
 5    1  0.1764318E-003  0.9118800E+02  0.7818608E-02  0.1130116E+00
         25   -1    0    0    0    0  0.00000000000E+00  0.00000000000E+00  0.99999998245E-14  0.12500000000E+03  0.12500000000E+03 0.  0.
        -13    1    3    3    0    0  0.27089778082E+02 -0.37572016090E+02 -0.11665043503E+01  0.46334483552E+02  0.10566000000E+00 0. -1.
         23    2    1    0    0    0 -0.13171473046E+02 -0.16555978114E+02  0.19496215535E+02  0.96230388712E+02  0.91829173893E+02 0.  0.
         13    1    3    3    0    0 -0.40261251128E+02  0.21016037976E+02  0.20662719885E+02  0.49895905159E+02  0.10566000000E+00 0.  1.
         22    1    1    0    0    0  0.13171473046E+02  0.16555978114E+02 -0.19496215535E+02  0.28769611288E+02  0.00000000000E+00 0.  1.
</event>
<event>
 5    1  0.1764318E-003  0.9118800E+02  0.7818608E-02  0.1130116E+00
         25   -1    0    0    0    0  0.00000000000E+00  0.00000000000E+00  0.99999998245E-14  0.12500000000E+03  0.12500000000E+03 0.  0.
        -13    1    3    3    0    0 -0.27702302405E+02 -0.32968798832E+02  0.46340620764E+00  0.43064894802E+02  0.10566000000E+00 0. -1.
         23    2    1    0    0    0  0.14025291482E+02  0.12753067308E+02  0.57492241850E+01  0.10519083279E+03  0.10330880019E+03 0.  0.
         13    1    3    3    0    0  0.41727593887E+02  0.45721866140E+02  0.52858179773E+01  0.62125937986E+02  0.10566000000E+00 0.  1.
         22    1    1    0    0    0 -0.14025291482E+02 -0.12753067308E+02 -0.57492241850E+01  0.19809167212E+02  0.00000000000E+00 0.  1.
</event>
<event>
 5    1  0.1764318E-003  0.9118800E+02  0.7818608E-02  0.1130116E+00
         25   -1    0    0    0    0  0.00000000000E+00  0.00000000000E+00  0.99999998245E-14  0.12500000000E+03  0.12500000000E+03 0.  0.
        -13    1    3    3    0    0  0.19368792724E+02 -0.22353039508E+02  0.89856658846E+01  0.30912163662E+02  0.10566000000E+00 0.  1.
         23    2    1    0    0    0 -0.13439521340E+02  0.26459435585E+02 -0.11472832141E+02  0.93182578001E+02  0.87582215662E+02 0.  0.
         13    1    3    3    0    0 -0.32808314064E+02  0.48812475093E+02 -0.20458498025E+02  0.62270414339E+02  0.10566000000E+00 0. -1.
         22    1    1    0    0    0  0.13439521340E+02 -0.26459435585E+02  0.11472832141E+02  0.31817421999E+02  0.00000000000E+00 0. -1.
</event>
<event>
 5    1  0.1764318E-003  0.9118800E+02  0.7818608E-02  0.1130116E+00
         25   -1    0    0    0    0  0.00000000000E+00  0.00000000000E+00  0.99999998245E-14  0.12500000000E+03  0.12500000000E+03 0.  0.
        -13    1    3    3    0    0 -0.40065912081E+02 -0.12577608050E+02 -0.45312719416E+02  0.61779666882E+02  0.10566000000E+00 0.  1.
         23    2    1    0    0    0 -0.17945833633E+02 -0.12623902469E+02 -0.21513959517E+02  0.94271083449E+02  0.89122224289E+02 0.  0.
         13    1    3    3    0    0  0.22120078448E+02 -0.46294418053E-01  0.23798759899E+02  0.32491416566E+02  0.10566000000E+00 0. -1.
         22    1    1    0    0    0  0.17945833633E+02  0.12623902469E+02  0.21513959517E+02  0.30728916551E+02  0.00000000000E+00 0.  1.
</event>
<event>
 5    1  0.1764318E-003  0.9118800E+02  0.7818608E-02  0.1130116E+00
         25   -1    0    0    0    0  0.00000000000E+00  0.00000000000E+00  0.99999998245E-14  0.12500000000E+03  0.12500000000E+03 0.  0.
        -13    1    3    3    0    0  0.23912461228E+01  0.58159451115E+02 -0.81498201821E+01  0.58776445495E+02  0.10566000000E+00 0. -1.
         23    2    1    0    0    0  0.52735192115E+00  0.23947190201E+02 -0.18683279967E+02  0.94622196114E+02  0.89613330641E+02 0.  0.
         13    1    3    3    0    0 -0.18638942016E+01 -0.34212260913E+02 -0.10533459785E+02  0.35845750619E+02  0.10566000000E+00 0.  1.
         22    1    1    0    0    0 -0.52735192115E+00 -0.23947190201E+02  0.18683279967E+02  0.30377803886E+02  0.00000000000E+00 0. -1.
</event>
<event>
 5    1  0.1764318E-003  0.9118800E+02  0.7818608E-02  0.1130116E+00
         25   -1    0    0    0    0  0.00000000000E+00  0.00000000000E+00  0.99999998245E-14  0.12500000000E+03  0.12500000000E+03 0.  0.
        -13    1    3    3    0    0  0.29721420486E+02  0.27877492697E+02 -0.13236318386E+02  0.42845404925E+02  0.10566000000E+00 0. -1.
         23    2    1    0    0    0  0.52165612484E+01 -0.14674595483E+02 -0.26989910790E+02  0.93838941798E+02  0.88514040973E+02 0.  0.
         13    1    3    3    0    0 -0.24504859237E+02 -0.42552088180E+02 -0.13753592404E+02  0.50993536873E+02  0.10566000000E+00 0.  1.
         22    1    1    0    0    0 -0.52165612484E+01  0.14674595483E+02  0.26989910790E+02  0.31161058202E+02  0.00000000000E+00 0. -1.
</event>
<event>
 5    1  0.1764318E-003  0.9118800E+02  0.7818608E-02  0.1130116E+00
         25   -1    0    0    0    0  0.00000000000E+00  0.00000000000E+00  0.99999998245E-14  0.12500000000E+03  0.12500000000E+03 0.  0.
        -13    1    3    3    0    0  0.26234474803E+02 -0.22043118271E+02 -0.21593543807E+02  0.40502333630E+02  0.10566000000E+00 0. -1.
         23    2    1    0    0    0 -0.10057613425E+02 -0.21250727332E+02  0.18863086301E+02  0.94857587609E+02  0.89941074611E+02 0.  0.
         13    1    3    3    0    0 -0.36292088229E+02  0.79239093848E+00  0.40456630108E+02  0.54355253979E+02  0.10566000000E+00 0.  1.
         22    1    1    0    0    0  0.10057613425E+02  0.21250727332E+02 -0.18863086301E+02  0.30142412391E+02  0.00000000000E+00 0.  1.
</event>
<event>
 5    1  0.1764318E-003  0.9118800E+02  0.7818608E-02  0.1130116E+00
         25   -1    0    0    0    0  0.00000000000E+00  0.00000000000E+00  0.99999998245E-14  0.12500000000E+03  0.12500000000E+03 0.  0.
        -13    1    3    3    0    0  0.34648794296E+02  0.40693730859E+01 -0.15666575496E+02  0.38243319617E+02  0.10566000000E+00 0. -1.
         23    2    1    0    0    0 -0.64960626490E+01  0.31763457481E+02  0.54060926789E+01  0.92131445132E+02  0.86068933321E+02 0.  0.
         13    1    3    3    0    0 -0.41144856945E+02  0.27694084395E+02  0.21072668175E+02  0.53888125515E+02  0.10566000000E+00 0.  1.
         22    1    1    0    0    0  0.64960626490E+01 -0.31763457481E+02 -0.54060926789E+01  0.32868554868E+02  0.00000000000E+00 0.  1.
</event>
<event>
 5    1  0.1764318E-003  0.9118800E+02  0.7818608E-02  0.1130116E+00
         25   -1    0    0    0    0  0.00000000000E+00  0.00000000000E+00  0.99999998245E-14  0.12500000000E+03  0.12500000000E+03 0.  0.
        -13    1    3    3    0    0  0.27867315133E+02 -0.48223793389E+02 -0.12598709462E+01  0.55711039663E+02  0.10566000000E+00 0.  1.
         23    2    1    0    0    0  0.25942854943E+02 -0.95554073986E+01  0.92816928959E+01  0.95836883635E+02  0.91291954238E+02 0.  0.
         13    1    3    3    0    0 -0.19244601904E+01  0.38668385990E+02  0.10541563842E+02  0.40125843971E+02  0.10566000000E+00 0. -1.
         22    1    1    0    0    0 -0.25942854943E+02  0.95554073986E+01 -0.92816928959E+01  0.29163116365E+02  0.00000000000E+00 0.  1.
</event>
<event>
 5    1  0.1764318E-003  0.9118800E+02  0.7818608E-02  0.1130116E+00
         25   -1    0    0    0    0  0.00000000000E+00  0.00000000000E+00  0.99999998245E-14  0.12500000000E+03  0.12500000000E+03 0.  0.
        -13    1    3    3    0    0  0.12080893574E+02 -0.93518402739E+01 -0.48207201733E+02  0.50570251819E+02  0.10566000000E+00 0.  1.
         23    2    1    0    0    0 -0.15848544615E+02 -0.20318591405E+02 -0.15623649626E+02  0.94864971367E+02  0.89951335964E+02 0.  0.
         13    1    3    3    0    0 -0.27929438189E+02 -0.10966751131E+02  0.32583552107E+02  0.44294719548E+02  0.10566000000E+00 0. -1.
         22    1    1    0    0    0  0.15848544615E+02  0.20318591405E+02  0.15623649626E+02  0.30135028633E+02  0.00000000000E+00 0.  1.
</event>
<event>
 5    1  0.1764318E-003  0.9118800E+02  0.7818608E-02  0.1130116E+00
         25   -1    0    0    0    0  0.00000000000E+00  0.00000000000E+00  0.99999998245E-14  0.12500000000E+03  0.12500000000E+03 0.  0.
        -13    1    3    3    0    0 -0.18415134493E+02  0.30004526921E+02 -0.47385974357E+02  0.59032453312E+02  0.10566000000E+00 0. -1.
         23    2    1    0    0    0  0.56298968674E+01  0.14521690827E+02 -0.25800486683E+02  0.94862973666E+02  0.89948559835E+02 0.  0.
         13    1    3    3    0    0  0.24045031361E+02 -0.15482836094E+02  0.21585487674E+02  0.35830520354E+02  0.10566000000E+00 0.  1.
         22    1    1    0    0    0 -0.56298968674E+01 -0.14521690827E+02  0.25800486683E+02  0.30137026334E+02  0.00000000000E+00 0. -1.
</event>
<event>
 5    1  0.1764318E-003  0.9118800E+02  0.7818608E-02  0.1130116E+00
         25   -1    0    0    0    0  0.00000000000E+00  0.00000000000E+00  0.99999998245E-14  0.12500000000E+03  0.12500000000E+03 0.  0.
        -13    1    3    3    0    0  0.14072795793E+02  0.44290871577E+02  0.14343409089E+02  0.48636091895E+02  0.10566000000E+00 0.  1.
         23    2    1    0    0    0 -0.79628259045E+01  0.24991121637E+01  0.26330507140E+02  0.97378490913E+02  0.93378920150E+02 0.  0.
         13    1    3    3    0    0 -0.22035621697E+02 -0.41791759413E+02  0.11987098051E+02  0.48742399019E+02  0.10566000000E+00 0. -1.
         22    1    1    0    0    0  0.79628259045E+01 -0.24991121637E+01 -0.26330507140E+02  0.27621509087E+02  0.00000000000E+00 0.  1.
</event>
<event>
 5    1  0.1764318E-003  0.9118800E+02  0.7818608E-02  0.1130116E+00
         25   -1    0    0    0    0  0.00000000000E+00  0.00000000000E+00  0.99999998245E-14  0.12500000000E+03  0.12500000000E+03 0.  0.
        -13    1    3    3    0    0 -0.45201593838E+02  0.16565451749E+02  0.19606400646E+02  0.51980961779E+02  0.10566000000E+00 0. -1.
         23    2    1    0    0    0 -0.16406483502E+02  0.27284903641E+02 -0.67411013220E+01  0.92456473537E+02  0.86539692537E+02 0.  0.
         13    1    3    3    0    0  0.28795110335E+02  0.10719451891E+02 -0.26347501968E+02  0.40475511758E+02  0.10566000000E+00 0.  1.
         22    1    1    0    0    0  0.16406483502E+02 -0.27284903641E+02  0.67411013220E+01  0.32543526463E+02  0.00000000000E+00 0. -1.
</event>
<event>
 5    1  0.1764318E-003  0.9118800E+02  0.7818608E-02  0.1130116E+00
         25   -1    0    0    0    0  0.00000000000E+00  0.00000000000E+00  0.99999998245E-14  0.12500000000E+03  0.12500000000E+03 0.  0.
        -13    1    3    3    0    0  0.94805353577E+01 -0.14482481615E+01  0.58399137109E+02  0.59181486569E+02  0.10566000000E+00 0.  1.
         23    2    1    0    0    0  0.87482039785E+01  0.12805090474E+02  0.23982136597E+02  0.96440513123E+02  0.92114756043E+02 0.  0.
         13    1    3    3    0    0 -0.73233137921E+00  0.14253338636E+02 -0.34417000512E+02  0.37259026555E+02  0.10566000000E+00 0. -1.
         22    1    1    0    0    0 -0.87482039785E+01 -0.12805090474E+02 -0.23982136597E+02  0.28559486877E+02  0.00000000000E+00 0.  1.
</event>
<event>
 5    1  0.1764318E-003  0.9118800E+02  0.7818608E-02  0.1130116E+00
         25   -1    0    0    0    0  0.00000000000E+00  0.00000000000E+00  0.99999998245E-14  0.12500000000E+03  0.12500000000E+03 0.  0.
        -13    1    3    3    0    0 -0.47700050361E+02  0.32804855038E+01  0.25785141680E+02  0.54322565155E+02  0.10566000000E+00 0.  1.
         23    2    1    0    0    0 -0.27501435790E+02  0.18554154772E+02  0.30329305176E+02  0.80050557487E+02  0.66239258538E+02 0.  0.
         13    1    3    3    0    0  0.20198614571E+02  0.15273669268E+02  0.45441634952E+01  0.25727992331E+02  0.10566000000E+00 0. -1.
         22    1    1    0    0    0  0.27501435790E+02 -0.18554154772E+02 -0.30329305176E+02  0.44949442513E+02  0.00000000000E+00 0.  1.
</event>
<event>
 5    1  0.1764318E-003  0.9118800E+02  0.7818608E-02  0.1130116E+00
         25   -1    0    0    0    0  0.00000000000E+00  0.00000000000E+00  0.99999998245E-14  0.12500000000E+03  0.12500000000E+03 0.  0.
        -13    1    3    3    0    0  0.71489665813E+01 -0.43568391148E+02  0.25448528852E+02  0.50960290572E+02  0.10566000000E+00 0. -1.
         23    2    1    0    0    0 -0.22967642821E+02 -0.13515639803E+02  0.13352761712E+02  0.95192595192E+02  0.90405468850E+02 0.  0.
         13    1    3    3    0    0 -0.30116609402E+02  0.30052751345E+02 -0.12095767141E+02  0.44232304620E+02  0.10566000000E+00 0.  1.
         22    1    1    0    0    0  0.22967642821E+02  0.13515639803E+02 -0.13352761712E+02  0.29807404808E+02  0.00000000000E+00 0. -1.
</event>
<event>
 5    1  0.1764318E-003  0.9118800E+02  0.7818608E-02  0.1130116E+00
         25   -1    0    0    0    0  0.00000000000E+00  0.00000000000E+00  0.99999998245E-14  0.12500000000E+03  0.12500000000E+03 0.  0.
        -13    1    3    3    0    0  0.39606027644E+02  0.11818434429E+02 -0.57500563335E+01  0.41729930864E+02  0.10566000000E+00 0.  1.
         23    2    1    0    0    0 -0.62826535111E+01  0.23704459345E+02  0.17836089950E+02  0.94676754253E+02  0.89689400506E+02 0.  0.
         13    1    3    3    0    0 -0.45888681155E+02  0.11886024915E+02  0.23586146283E+02  0.52946823389E+02  0.10566000000E+00 0. -1.
         22    1    1    0    0    0  0.62826535111E+01 -0.23704459345E+02 -0.17836089950E+02  0.30323245747E+02  0.00000000000E+00 0. -1.
</event>
<event>
 5    1  0.1764318E-003  0.9118800E+02  0.7818608E-02  0.1130116E+00
         25   -1    0    0    0    0  0.00000000000E+00  0.00000000000E+00  0.99999998245E-14  0.12500000000E+03  0.12500000000E+03 0.  0.
        -13    1    3    3    0    0  0.28771833620E+02 -0.21365537414E+02  0.23207403750E+01  0.35912415663E+02  0.10566000000E+00 0.  1.
         23    2    1    0    0    0 -0.25500321899E+02  0.63867134681E+01 -0.75192908847E+01  0.97657793409E+02  0.93752057855E+02 0.  0.
         13    1    3    3    0    0 -0.54272155519E+02  0.27752250882E+02 -0.98400312597E+01  0.61745377745E+02  0.10566000000E+00 0. -1.
         22    1    1    0    0    0  0.25500321899E+02 -0.63867134681E+01  0.75192908847E+01  0.27342206591E+02  0.00000000000E+00 0. -1.
</event>
<event>
 5    1  0.1764318E-003  0.9118800E+02  0.7818608E-02  0.1130116E+00
         25   -1    0    0    0    0  0.00000000000E+00  0.00000000000E+00  0.99999998245E-14  0.12500000000E+03  0.12500000000E+03 0.  0.
        -13    1    3    3    0    0  0.13303994671E+02  0.11348324428E+02 -0.36037009045E+02  0.40055685321E+02  0.10566000000E+00 0. -1.
         23    2    1    0    0    0  0.20470509150E+02  0.82166944939E+01  0.19146877661E+02  0.95791118860E+02  0.91229270057E+02 0.  0.
         13    1    3    3    0    0  0.71665144787E+01 -0.31316299336E+01  0.55183886706E+02  0.55735433540E+02  0.10566000000E+00 0.  1.
         22    1    1    0    0    0 -0.20470509150E+02 -0.82166944939E+01 -0.19146877661E+02  0.29208881140E+02  0.00000000000E+00 0.  1.
</event>
<event>
 5    1  0.1764318E-003  0.9118800E+02  0.7818608E-02  0.1130116E+00
         25   -1    0    0    0    0  0.00000000000E+00  0.00000000000E+00  0.99999998245E-14  0.12500000000E+03  0.12500000000E+03 0.  0.
        -13    1    3    3    0    0 -0.18899365843E+02 -0.57678462633E+02  0.13745715943E+02  0.62233005325E+02  0.10566000000E+00 0.  1.
         23    2    1    0    0    0 -0.12053810452E+02 -0.31966413459E+02  0.38554240445E+01  0.90619624341E+02  0.83844535215E+02 0.  0.
         13    1    3    3    0    0  0.68455553914E+01  0.25712049174E+02 -0.98902918983E+01  0.28386619016E+02  0.10566000000E+00 0. -1.
         22    1    1    0    0    0  0.12053810452E+02  0.31966413459E+02 -0.38554240445E+01  0.34380375659E+02  0.00000000000E+00 0.  1.
</event>
<event>
 5    1  0.1764318E-003  0.9118800E+02  0.7818608E-02  0.1130116E+00
         25   -1    0    0    0    0  0.00000000000E+00  0.00000000000E+00  0.99999998245E-14  0.12500000000E+03  0.12500000000E+03 0.  0.
        -13    1    3    3    0    0 -0.49650925308E+02 -0.35539106132E+01  0.28135308176E+01  0.49857514822E+02  0.10566000000E+00 0.  1.
         23    2    1    0    0    0 -0.10901940884E+02  0.97915376936E+00  0.27072702424E+02  0.95798248791E+02  0.91239038781E+02 0.  0.
         13    1    3    3    0    0  0.38748984423E+02  0.45330643826E+01  0.24259171606E+02  0.45940733969E+02  0.10566000000E+00 0. -1.
         22    1    1    0    0    0  0.10901940884E+02 -0.97915376936E+00 -0.27072702424E+02  0.29201751209E+02  0.00000000000E+00 0.  1.
</event>
<event>
 5    1  0.1764318E-003  0.9118800E+02  0.7818608E-02  0.1130116E+00
         25   -1    0    0    0    0  0.00000000000E+00  0.00000000000E+00  0.99999998245E-14  0.12500000000E+03  0.12500000000E+03 0.  0.
        -13    1    3    3    0    0  0.28003251467E+02 -0.20599696107E+02 -0.14752216072E+01  0.34795359105E+02  0.10566000000E+00 0.  1.
         23    2    1    0    0    0 -0.29003339438E+02 -0.72778002528E+00  0.51682955926E+01  0.95530784848E+02  0.90871866999E+02 0.  0.
         13    1    3    3    0    0 -0.57006590905E+02  0.19871916081E+02  0.66435171997E+01  0.60735425743E+02  0.10566000000E+00 0. -1.
         22    1    1    0    0    0  0.29003339438E+02  0.72778002528E+00 -0.51682955926E+01  0.29469215152E+02  0.00000000000E+00 0. -1.
</event>
<event>
 5    1  0.1764318E-003  0.9118800E+02  0.7818608E-02  0.1130116E+00
         25   -1    0    0    0    0  0.00000000000E+00  0.00000000000E+00  0.99999998245E-14  0.12500000000E+03  0.12500000000E+03 0.  0.
        -13    1    3    3    0    0 -0.32181093028E+02 -0.51548367686E+02 -0.89305552596E+00  0.60775535142E+02  0.10566000000E+00 0. -1.
         23    2    1    0    0    0 -0.87833098413E+01 -0.28396211666E+02 -0.74916953487E+01  0.94346829398E+02  0.89228399905E+02 0.  0.
         13    1    3    3    0    0  0.23397783187E+02  0.23152156020E+02 -0.65986398227E+01  0.33571294256E+02  0.10566000000E+00 0.  1.
         22    1    1    0    0    0  0.87833098413E+01  0.28396211666E+02  0.74916953487E+01  0.30653170602E+02  0.00000000000E+00 0. -1.
</event>
<event>
 5    1  0.1764318E-003  0.9118800E+02  0.7818608E-02  0.1130116E+00
         25   -1    0    0    0    0  0.00000000000E+00  0.00000000000E+00  0.99999998245E-14  0.12500000000E+03  0.12500000000E+03 0.  0.
        -13    1    3    3    0    0  0.73149507115E+00  0.38275903791E+02  0.23175967994E+02  0.44751721225E+02  0.10566000000E+00 0. -1.
         23    2    1    0    0    0  0.17763308491E+02  0.18711799009E+02 -0.18087387739E+02  0.93490951365E+02  0.88021235172E+02 0.  0.
         13    1    3    3    0    0  0.17031813420E+02 -0.19564104782E+02 -0.41263355733E+02  0.48739230140E+02  0.10566000000E+00 0.  1.
         22    1    1    0    0    0 -0.17763308491E+02 -0.18711799009E+02  0.18087387739E+02  0.31509048635E+02  0.00000000000E+00 0.  1.
</event>
<event>
 5    1  0.1764318E-003  0.9118800E+02  0.7818608E-02  0.1130116E+00
         25   -1    0    0    0    0  0.00000000000E+00  0.00000000000E+00  0.99999998245E-14  0.12500000000E+03  0.12500000000E+03 0.  0.
        -13    1    3    3    0    0 -0.38302326471E+02 -0.23483580141E+02 -0.10893916303E+02  0.46230242545E+02  0.10566000000E+00 0.  1.
         23    2    1    0    0    0 -0.18203274671E+02  0.11166700936E+02  0.19160334937E+02  0.96309010936E+02  0.91936133996E+02 0.  0.
         13    1    3    3    0    0  0.20099051800E+02  0.34650281077E+02  0.30054251240E+02  0.50078768391E+02  0.10566000000E+00 0. -1.
         22    1    1    0    0    0  0.18203274671E+02 -0.11166700936E+02 -0.19160334937E+02  0.28690989064E+02  0.00000000000E+00 0. -1.
</event>
<event>
 5    1  0.1764318E-003  0.9118800E+02  0.7818608E-02  0.1130116E+00
         25   -1    0    0    0    0  0.00000000000E+00  0.00000000000E+00  0.99999998245E-14  0.12500000000E+03  0.12500000000E+03 0.  0.
        -13    1    3    3    0    0 -0.25787257459E+02  0.98776786771E+01  0.21901734783E+02  0.35245543461E+02  0.10566000000E+00 0. -1.
         23    2    1    0    0    0  0.12643815997E+02 -0.29359852909E+02  0.10620797301E+02  0.91315160960E+02  0.84875145008E+02 0.  0.
         13    1    3    3    0    0  0.38431073456E+02 -0.39237531587E+02 -0.11280937482E+02  0.56069617499E+02  0.10566000000E+00 0.  1.
         22    1    1    0    0    0 -0.12643815997E+02  0.29359852909E+02 -0.10620797301E+02  0.33684839040E+02  0.00000000000E+00 0.  1.
</event>
<event>
 5    1  0.1764318E-003  0.9118800E+02  0.7818608E-02  0.1130116E+00
         25   -1    0    0    0    0  0.00000000000E+00  0.00000000000E+00  0.99999998245E-14  0.12500000000E+03  0.12500000000E+03 0.  0.
        -13    1    3    3    0    0 -0.31963172465E+02  0.60198698942E+01 -0.64119788332E+01  0.33151287519E+02  0.10566000000E+00 0. -1.
         23    2    1    0    0    0  0.26973225880E+02 -0.10589101578E+02  0.54310144329E+01  0.95518142793E+02  0.90854475390E+02 0.  0.
         13    1    3    3    0    0  0.58936398345E+02 -0.16608971472E+02  0.11842993266E+02  0.62366855274E+02  0.10566000000E+00 0.  1.
         22    1    1    0    0    0 -0.26973225880E+02  0.10589101578E+02 -0.54310144329E+01  0.29481857207E+02  0.00000000000E+00 0.  1.
</event>
<event>
 5    1  0.1764318E-003  0.9118800E+02  0.7818608E-02  0.1130116E+00
         25   -1    0    0    0    0  0.00000000000E+00  0.00000000000E+00  0.99999998245E-14  0.12500000000E+03  0.12500000000E+03 0.  0.
        -13    1    3    3    0    0  0.18478005592E+02 -0.57065496125E+02 -0.26676918484E+00  0.59983246565E+02  0.10566000000E+00 0.  1.
         23    2    1    0    0    0  0.16829765167E+02 -0.22221449200E+02  0.83234146493E+01  0.95908540230E+02  0.91390016181E+02 0.  0.
         13    1    3    3    0    0 -0.16482404254E+01  0.34844046925E+02  0.85901838341E+01  0.35925293665E+02  0.10566000000E+00 0. -1.
         22    1    1    0    0    0 -0.16829765167E+02  0.22221449200E+02 -0.83234146493E+01  0.29091459770E+02  0.00000000000E+00 0.  1.
</event>
<event>
 5    1  0.1764318E-003  0.9118800E+02  0.7818608E-02  0.1130116E+00
         25   -1    0    0    0    0  0.00000000000E+00  0.00000000000E+00  0.99999998245E-14  0.12500000000E+03  0.12500000000E+03 0.  0.
        -13    1    3    3    0    0  0.31740350649E+02  0.44082555078E+02 -0.22479328189E+02  0.58788203590E+02  0.10566000000E+00 0. -1.
         23    2    1    0    0    0  0.13631957855E+01  0.27609383296E+02 -0.11656502603E+02  0.94999826640E+02  0.90138541479E+02 0.  0.
         13    1    3    3    0    0 -0.30377154863E+02 -0.16473171782E+02  0.10822825586E+02  0.36211623049E+02  0.10566000000E+00 0.  1.
         22    1    1    0    0    0 -0.13631957855E+01 -0.27609383296E+02  0.11656502603E+02  0.30000173360E+02  0.00000000000E+00 0. -1.
</event>
<event>
 5    1  0.1764318E-003  0.9118800E+02  0.7818608E-02  0.1130116E+00
         25   -1    0    0    0    0  0.00000000000E+00  0.00000000000E+00  0.99999998245E-14  0.12500000000E+03  0.12500000000E+03 0.  0.
        -13    1    3    3    0    0  0.18083561450E+02  0.16538796838E+02 -0.22513928559E+02  0.33278148067E+02  0.10566000000E+00 0. -1.
         23    2    1    0    0    0 -0.17678841218E+02 -0.11823454584E+02  0.20110147516E+02  0.95729647453E+02  0.91145004599E+02 0.  0.
         13    1    3    3    0    0 -0.35762402668E+02 -0.28362251422E+02  0.42624076075E+02  0.62451499386E+02  0.10566000000E+00 0.  1.
         22    1    1    0    0    0  0.17678841218E+02  0.11823454584E+02 -0.20110147516E+02  0.29270352547E+02  0.00000000000E+00 0.  1.
</event>
<event>
 5    1  0.1764318E-003  0.9118800E+02  0.7818608E-02  0.1130116E+00
         25   -1    0    0    0    0  0.00000000000E+00  0.00000000000E+00  0.99999998245E-14  0.12500000000E+03  0.12500000000E+03 0.  0.
        -13    1    3    3    0    0 -0.10177989364E+02 -0.12326805995E+01 -0.38594726784E+02  0.39933382883E+02  0.10566000000E+00 0. -1.
         23    2    1    0    0    0 -0.38737961353E+01  0.28190977836E+02  0.80366129941E+01  0.95431018342E+02  0.90734528078E+02 0.  0.
         13    1    3    3    0    0  0.63041932288E+01  0.29423658436E+02  0.46631339778E+02  0.55497635459E+02  0.10566000000E+00 0.  1.
         22    1    1    0    0    0  0.38737961353E+01 -0.28190977836E+02 -0.80366129941E+01  0.29568981658E+02  0.00000000000E+00 0.  1.
</event>
<event>
 5    1  0.1764318E-003  0.9118800E+02  0.7818608E-02  0.1130116E+00
         25   -1    0    0    0    0  0.00000000000E+00  0.00000000000E+00  0.99999998245E-14  0.12500000000E+03  0.12500000000E+03 0.  0.
        -13    1    3    3    0    0 -0.43696587683E+02 -0.29818096123E+02 -0.19753758342E+02  0.56468865442E+02  0.10566000000E+00 0. -1.
         23    2    1    0    0    0 -0.65058324039E+01 -0.25317875734E+02 -0.16534825375E+02  0.94069090910E+02  0.88838464235E+02 0.  0.
         13    1    3    3    0    0  0.37190755280E+02  0.45002203897E+01  0.32189329668E+01  0.37600225469E+02  0.10566000000E+00 0.  1.
         22    1    1    0    0    0  0.65058324039E+01  0.25317875734E+02  0.16534825375E+02  0.30930909090E+02  0.00000000000E+00 0. -1.
</event>
<event>
 5    1  0.1764318E-003  0.9118800E+02  0.7818608E-02  0.1130116E+00
         25   -1    0    0    0    0  0.00000000000E+00  0.00000000000E+00  0.99999998245E-14  0.12500000000E+03  0.12500000000E+03 0.  0.
        -13    1    3    3    0    0 -0.53622677877E+02 -0.19974026678E+01 -0.18186823162E+02  0.56658211240E+02  0.10566000000E+00 0.  1.
         23    2    1    0    0    0 -0.23223760506E+02  0.17693352207E+02 -0.41122390253E+01  0.95515965775E+02  0.90851480141E+02 0.  0.
         13    1    3    3    0    0  0.30398917371E+02  0.19690754875E+02  0.14074584136E+02  0.38857754535E+02  0.10566000000E+00 0. -1.
         22    1    1    0    0    0  0.23223760506E+02 -0.17693352207E+02  0.41122390253E+01  0.29484034225E+02  0.00000000000E+00 0.  1.
</event>
<event>
 5    1  0.1764318E-003  0.9118800E+02  0.7818608E-02  0.1130116E+00
         25   -1    0    0    0    0  0.00000000000E+00  0.00000000000E+00  0.99999998245E-14  0.12500000000E+03  0.12500000000E+03 0.  0.
        -13    1    3    3    0    0 -0.12237208910E+02 -0.18248971691E+02  0.29756248732E+02  0.36989454610E+02  0.10566000000E+00 0. -1.
         23    2    1    0    0    0  0.26421397182E+02  0.12198169530E+02 -0.24420655413E+01  0.95796417120E+02  0.91236529307E+02 0.  0.
         13    1    3    3    0    0  0.38658606092E+02  0.30447141222E+02 -0.32198314273E+02  0.58806962510E+02  0.10566000000E+00 0.  1.
         22    1    1    0    0    0 -0.26421397182E+02 -0.12198169530E+02  0.24420655413E+01  0.29203582880E+02  0.00000000000E+00 0.  1.
</event>
<event>
 5    1  0.1764318E-003  0.9118800E+02  0.7818608E-02  0.1130116E+00
         25   -1    0    0    0    0  0.00000000000E+00  0.00000000000E+00  0.99999998245E-14  0.12500000000E+03  0.12500000000E+03 0.  0.
        -13    1    3    3    0    0  0.68035476326E+01 -0.41974058608E+02 -0.44536328688E+02  0.61576014758E+02  0.10566000000E+00 0.  1.
         23    2    1    0    0    0  0.57476200378E+01 -0.24281725319E+02 -0.15406486322E+02  0.95674292142E+02  0.91069056411E+02 0.  0.
         13    1    3    3    0    0 -0.10559275948E+01  0.17692333289E+02  0.29129842366E+02  0.34098277385E+02  0.10566000000E+00 0. -1.
         22    1    1    0    0    0 -0.57476200378E+01  0.24281725319E+02  0.15406486322E+02  0.29325707858E+02  0.00000000000E+00 0.  1.
</event>
<event>
 5    1  0.1764318E-003  0.9118800E+02  0.7818608E-02  0.1130116E+00
         25   -1    0    0    0    0  0.00000000000E+00  0.00000000000E+00  0.99999998245E-14  0.12500000000E+03  0.12500000000E+03 0.  0.
        -13    1    3    3    0    0  0.13446085669E+02  0.24246128316E+02  0.44569789877E+02  0.52489516019E+02  0.10566000000E+00 0. -1.
         23    2    1    0    0    0 -0.15146025626E+02  0.30152167508E+00  0.27713544183E+02  0.93416245651E+02  0.87915080690E+02 0.  0.
         13    1    3    3    0    0 -0.28592111294E+02 -0.23944606641E+02 -0.16856245694E+02  0.40926729632E+02  0.10566000000E+00 0.  1.
         22    1    1    0    0    0  0.15146025626E+02 -0.30152167508E+00 -0.27713544183E+02  0.31583754349E+02  0.00000000000E+00 0. -1.
</event>
<event>
 5    1  0.1764318E-003  0.9118800E+02  0.7818608E-02  0.1130116E+00
         25   -1    0    0    0    0  0.00000000000E+00  0.00000000000E+00  0.99999998245E-14  0.12500000000E+03  0.12500000000E+03 0.  0.
        -13    1    3    3    0    0  0.45699709738E+02 -0.10743006002E+02 -0.10322454847E+02  0.48067035339E+02  0.10566000000E+00 0. -1.
         23    2    1    0    0    0  0.61659122562E+01 -0.24476542217E+02  0.13656549250E+02  0.96301203330E+02  0.91925517853E+02 0.  0.
         13    1    3    3    0    0 -0.39533797482E+02 -0.13733536215E+02  0.23979004097E+02  0.48234167992E+02  0.10566000000E+00 0.  1.
         22    1    1    0    0    0 -0.61659122562E+01  0.24476542217E+02 -0.13656549250E+02  0.28698796670E+02  0.00000000000E+00 0.  1.
</event>
<event>
 5    1  0.1764318E-003  0.9118800E+02  0.7818608E-02  0.1130116E+00
         25   -1    0    0    0    0  0.00000000000E+00  0.00000000000E+00  0.99999998245E-14  0.12500000000E+03  0.12500000000E+03 0.  0.
        -13    1    3    3    0    0 -0.18432766546E+02  0.39595815203E+02  0.65414519376E+00  0.43681054636E+02  0.10566000000E+00 0. -1.
         23    2    1    0    0    0  0.24019198073E+02  0.96083165692E+01  0.11357463611E+02  0.96746971790E+02  0.92529686845E+02 0.  0.
         13    1    3    3    0    0  0.42451964619E+02 -0.29987498634E+02  0.10703318417E+02  0.53065917155E+02  0.10566000000E+00 0.  1.
         22    1    1    0    0    0 -0.24019198073E+02 -0.96083165692E+01 -0.11357463611E+02  0.28253028210E+02  0.00000000000E+00 0.  1.
</event>
<event>
 5    1  0.1764318E-003  0.9118800E+02  0.7818608E-02  0.1130116E+00
         25   -1    0    0    0    0  0.00000000000E+00  0.00000000000E+00  0.99999998245E-14  0.12500000000E+03  0.12500000000E+03 0.  0.
        -13    1    3    3    0    0 -0.22424629825E+02  0.34063925007E+02 -0.38787406525E+02  0.56282227023E+02  0.10566000000E+00 0.  1.
         23    2    1    0    0    0  0.78967535257E+01  0.17698351555E+02 -0.24936257258E+02  0.93418244348E+02  0.87917922445E+02 0.  0.
         13    1    3    3    0    0  0.30321383351E+02 -0.16365573452E+02  0.13851149268E+02  0.37136017325E+02  0.10566000000E+00 0. -1.
         22    1    1    0    0    0 -0.78967535257E+01 -0.17698351555E+02  0.24936257258E+02  0.31581755652E+02  0.00000000000E+00 0.  1.
</event>
<event>
 5    1  0.1764318E-003  0.9118800E+02  0.7818608E-02  0.1130116E+00
         25   -1    0    0    0    0  0.00000000000E+00  0.00000000000E+00  0.99999998245E-14  0.12500000000E+03  0.12500000000E+03 0.  0.
        -13    1    3    3    0    0 -0.26716159767E+02 -0.20610155368E+02 -0.20778916322E+02  0.39627089529E+02  0.10566000000E+00 0. -1.
         23    2    1    0    0    0 -0.11035727052E+02  0.28453746270E+02 -0.21337677255E+01  0.94406603440E+02  0.89312098061E+02 0.  0.
         13    1    3    3    0    0  0.15680432716E+02  0.49063901638E+02  0.18645148596E+02  0.54779513911E+02  0.10566000000E+00 0.  1.
         22    1    1    0    0    0  0.11035727052E+02 -0.28453746270E+02  0.21337677255E+01  0.30593396560E+02  0.00000000000E+00 0.  1.
</event>
<event>
 5    1  0.1764318E-003  0.9118800E+02  0.7818608E-02  0.1130116E+00
         25   -1    0    0    0    0  0.00000000000E+00  0.00000000000E+00  0.99999998245E-14  0.12500000000E+03  0.12500000000E+03 0.  0.
        -13    1    3    3    0    0  0.35063906095E+02 -0.20889855583E+02 -0.33750300690E+02  0.52961849831E+02  0.10566000000E+00 0.  1.
         23    2    1    0    0    0  0.22317263808E+02  0.13971904943E+02 -0.11256341466E+02  0.96364713817E+02  0.92011838663E+02 0.  0.
         13    1    3    3    0    0 -0.12746642287E+02  0.34861760526E+02  0.22493959223E+02  0.43402863985E+02  0.10566000000E+00 0. -1.
         22    1    1    0    0    0 -0.22317263808E+02 -0.13971904943E+02  0.11256341466E+02  0.28635286183E+02  0.00000000000E+00 0. -1.
</event>
<event>
 5    1  0.1764318E-003  0.9118800E+02  0.7818608E-02  0.1130116E+00
         25   -1    0    0    0    0  0.00000000000E+00  0.00000000000E+00  0.99999998245E-14  0.12500000000E+03  0.12500000000E+03 0.  0.
        -13    1    3    3    0    0  0.38771404547E+02  0.27374868283E+02  0.30241953897E+01  0.47557987193E+02  0.10566000000E+00 0. -1.
         23    2    1    0    0    0 -0.44772545564E+01  0.14084563602E+01  0.22785827000E+02  0.10173578994E+03  0.99040130678E+02 0.  0.
         13    1    3    3    0    0 -0.43248659103E+02 -0.25966411923E+02  0.19761631611E+02  0.54177802746E+02  0.10566000000E+00 0.  1.
         22    1    1    0    0    0  0.44772545564E+01 -0.14084563602E+01 -0.22785827000E+02  0.23264210061E+02  0.00000000000E+00 0.  1.
</event>
<event>
 5    1  0.1764318E-003  0.9118800E+02  0.7818608E-02  0.1130116E+00
         25   -1    0    0    0    0  0.00000000000E+00  0.00000000000E+00  0.99999998245E-14  0.12500000000E+03  0.12500000000E+03 0.  0.
        -13    1    3    3    0    0 -0.31009805390E+02  0.37563755740E+02 -0.40883749323E+01  0.48881179909E+02  0.10566000000E+00 0.  1.
         23    2    1    0    0    0 -0.20125566651E+02 -0.23362295532E+00  0.21298691683E+02  0.95695951131E+02  0.91098780358E+02 0.  0.
         13    1    3    3    0    0  0.10884238739E+02 -0.37797378696E+02  0.25387066615E+02  0.46814771222E+02  0.10566000000E+00 0. -1.
         22    1    1    0    0    0  0.20125566651E+02  0.23362295532E+00 -0.21298691683E+02  0.29304048869E+02  0.00000000000E+00 0. -1.
</event>
<event>
 5    1  0.1764318E-003  0.9118800E+02  0.7818608E-02  0.1130116E+00
         25   -1    0    0    0    0  0.00000000000E+00  0.00000000000E+00  0.99999998245E-14  0.12500000000E+03  0.12500000000E+03 0.  0.
        -13    1    3    3    0    0 -0.15379853968E+02  0.40382766696E+01 -0.32013687632E+02  0.35745418537E+02  0.10566000000E+00 0. -1.
         23    2    1    0    0    0 -0.93296251464E+01 -0.11417736267E+02  0.25465863578E+02  0.95573535472E+02  0.90930654172E+02 0.  0.
         13    1    3    3    0    0  0.60502288217E+01 -0.15456012936E+02  0.57479551210E+02  0.59828116935E+02  0.10566000000E+00 0.  1.
         22    1    1    0    0    0  0.93296251464E+01  0.11417736267E+02 -0.25465863578E+02  0.29426464528E+02  0.00000000000E+00 0.  1.
</event>
<event>
 5    1  0.1764318E-003  0.9118800E+02  0.7818608E-02  0.1130116E+00
         25   -1    0    0    0    0  0.00000000000E+00  0.00000000000E+00  0.99999998245E-14  0.12500000000E+03  0.12500000000E+03 0.  0.
        -13    1    3    3    0    0  0.27750284172E+02  0.14423270984E+02 -0.35324753301E+02  0.47180063346E+02  0.10566000000E+00 0. -1.
         23    2    1    0    0    0  0.14524945909E+02  0.30139026323E+02  0.37594403452E+01  0.91332978256E+02  0.84901381403E+02 0.  0.
         13    1    3    3    0    0 -0.13225338263E+02  0.15715755339E+02  0.39084193646E+02  0.44152914910E+02  0.10566000000E+00 0.  1.
         22    1    1    0    0    0 -0.14524945909E+02 -0.30139026323E+02 -0.37594403452E+01  0.33667021744E+02  0.00000000000E+00 0. -1.
</event>
<event>
 5    1  0.1764318E-003  0.9118800E+02  0.7818608E-02  0.1130116E+00
         25   -1    0    0    0    0  0.00000000000E+00  0.00000000000E+00  0.99999998245E-14  0.12500000000E+03  0.12500000000E+03 0.  0.
        -13    1    3    3    0    0 -0.41824088658E+02 -0.10618590613E+01 -0.82553575398E+00  0.41845843403E+02  0.10566000000E+00 0.  1.
         23    2    1    0    0    0  0.48713472249E+01 -0.27394555541E+02  0.77041304510E+01  0.96128815004E+02  0.91690805160E+02 0.  0.
         13    1    3    3    0    0  0.46695435883E+02 -0.26332696480E+02  0.85296662050E+01  0.54282971601E+02  0.10566000000E+00 0. -1.
         22    1    1    0    0    0 -0.48713472249E+01  0.27394555541E+02 -0.77041304510E+01  0.28871184996E+02  0.00000000000E+00 0.  1.
</event>
<event>
 5    1  0.1764318E-003  0.9118800E+02  0.7818608E-02  0.1130116E+00
         25   -1    0    0    0    0  0.00000000000E+00  0.00000000000E+00  0.99999998245E-14  0.12500000000E+03  0.12500000000E+03 0.  0.
        -13    1    3    3    0    0 -0.33389010946E+02  0.16014959010E+02  0.20993658865E+02  0.42568178733E+02  0.10566000000E+00 0.  1.
         23    2    1    0    0    0  0.18531009889E+02  0.14163166750E+02  0.19590877392E+02  0.94540254484E+02  0.89498958771E+02 0.  0.
         13    1    3    3    0    0  0.51920020835E+02 -0.18517922602E+01 -0.14027814734E+01  0.51972075752E+02  0.10566000000E+00 0. -1.
         22    1    1    0    0    0 -0.18531009889E+02 -0.14163166750E+02 -0.19590877392E+02  0.30459745516E+02  0.00000000000E+00 0. -1.
</event>
<event>
 5    1  0.1764318E-003  0.9118800E+02  0.7818608E-02  0.1130116E+00
         25   -1    0    0    0    0  0.00000000000E+00  0.00000000000E+00  0.99999998245E-14  0.12500000000E+03  0.12500000000E+03 0.  0.
        -13    1    3    3    0    0 -0.14778754597E+02 -0.24957177802E+02 -0.27310788213E+02  0.39839209683E+02  0.10566000000E+00 0.  1.
         23    2    1    0    0    0  0.25360809474E+02  0.10109808587E+02 -0.76883690010E+01  0.96636468754E+02  0.92380285713E+02 0.  0.
         13    1    3    3    0    0  0.40139564071E+02  0.35066986389E+02  0.19622419212E+02  0.56797259071E+02  0.10566000000E+00 0. -1.
         22    1    1    0    0    0 -0.25360809474E+02 -0.10109808587E+02  0.76883690010E+01  0.28363531246E+02  0.00000000000E+00 0. -1.
</event>
<event>
 5    1  0.1764318E-003  0.9118800E+02  0.7818608E-02  0.1130116E+00
         25   -1    0    0    0    0  0.00000000000E+00  0.00000000000E+00  0.99999998245E-14  0.12500000000E+03  0.12500000000E+03 0.  0.
        -13    1    3    3    0    0  0.35744160461E+02 -0.11236563318E+02 -0.15523767929E+02  0.40557414822E+02  0.10566000000E+00 0. -1.
         23    2    1    0    0    0 -0.20985510001E+02 -0.59208230520E+01 -0.16679245674E+02  0.97547404278E+02  0.93604759866E+02 0.  0.
         13    1    3    3    0    0 -0.56729670462E+02  0.53157402659E+01 -0.11554777444E+01  0.56989989456E+02  0.10566000000E+00 0.  1.
         22    1    1    0    0    0  0.20985510001E+02  0.59208230520E+01  0.16679245674E+02  0.27452595722E+02  0.00000000000E+00 0.  1.
</event>
<event>
 5    1  0.1764318E-003  0.9118800E+02  0.7818608E-02  0.1130116E+00
         25   -1    0    0    0    0  0.00000000000E+00  0.00000000000E+00  0.99999998245E-14  0.12500000000E+03  0.12500000000E+03 0.  0.
        -13    1    3    3    0    0 -0.10509849381E+01  0.12340052943E+02 -0.43877008684E+02  0.45591496258E+02  0.10566000000E+00 0.  1.
         23    2    1    0    0    0 -0.23911483200E+02 -0.15128404526E+02 -0.95708132048E+01  0.95129812225E+02  0.90318619654E+02 0.  0.
         13    1    3    3    0    0 -0.22860498262E+02 -0.27468457468E+02  0.34306195479E+02  0.49538315966E+02  0.10566000000E+00 0. -1.
         22    1    1    0    0    0  0.23911483200E+02  0.15128404526E+02  0.95708132048E+01  0.29870187775E+02  0.00000000000E+00 0.  1.
</event>
<event>
 5    1  0.1764318E-003  0.9118800E+02  0.7818608E-02  0.1130116E+00
         25   -1    0    0    0    0  0.00000000000E+00  0.00000000000E+00  0.99999998245E-14  0.12500000000E+03  0.12500000000E+03 0.  0.
        -13    1    3    3    0    0 -0.72795895273E+01  0.35030510815E+02  0.23453525849E+02  0.42780932089E+02  0.10566000000E+00 0. -1.
         23    2    1    0    0    0 -0.17588922541E+02  0.11562384013E+02 -0.21741278339E+02  0.94738768961E+02  0.89775788720E+02 0.  0.
         13    1    3    3    0    0 -0.10309333013E+02 -0.23468126802E+02 -0.45194804188E+02  0.51957836872E+02  0.10566000000E+00 0.  1.
         22    1    1    0    0    0  0.17588922541E+02 -0.11562384013E+02  0.21741278339E+02  0.30261231039E+02  0.00000000000E+00 0.  1.
</event>
<event>
 5    1  0.1764318E-003  0.9118800E+02  0.7818608E-02  0.1130116E+00
         25   -1    0    0    0    0  0.00000000000E+00  0.00000000000E+00  0.99999998245E-14  0.12500000000E+03  0.12500000000E+03 0.  0.
        -13    1    3    3    0    0  0.12333886444E+02  0.25772107710E+02 -0.42022935554E+02  0.50815987319E+02  0.10566000000E+00 0.  1.
         23    2    1    0    0    0 -0.69125756419E+01  0.28748208380E+02 -0.19532088215E+01  0.95367952961E+02  0.90647604713E+02 0.  0.
         13    1    3    3    0    0 -0.19246462086E+02  0.29761006698E+01  0.40069726733E+02  0.44551965641E+02  0.10566000000E+00 0. -1.
         22    1    1    0    0    0  0.69125756419E+01 -0.28748208380E+02  0.19532088215E+01  0.29632047039E+02  0.00000000000E+00 0.  1.
</event>
<event>
 5    1  0.1764318E-003  0.9118800E+02  0.7818608E-02  0.1130116E+00
         25   -1    0    0    0    0  0.00000000000E+00  0.00000000000E+00  0.99999998245E-14  0.12500000000E+03  0.12500000000E+03 0.  0.
        -13    1    3    3    0    0 -0.90505331206E+01 -0.23499886656E+02 -0.53623107556E+02  0.59241924772E+02  0.10566000000E+00 0. -1.
         23    2    1    0    0    0 -0.14417392071E+02 -0.18781436167E+02 -0.18867263259E+02  0.94724974624E+02  0.89756580015E+02 0.  0.
         13    1    3    3    0    0 -0.53668589508E+01  0.47184504897E+01  0.34755844297E+02  0.35483049852E+02  0.10566000000E+00 0.  1.
         22    1    1    0    0    0  0.14417392071E+02  0.18781436167E+02  0.18867263259E+02  0.30275025376E+02  0.00000000000E+00 0. -1.
</event>
<event>
 5    1  0.1764318E-003  0.9118800E+02  0.7818608E-02  0.1130116E+00
         25   -1    0    0    0    0  0.00000000000E+00  0.00000000000E+00  0.99999998245E-14  0.12500000000E+03  0.12500000000E+03 0.  0.
        -13    1    3    3    0    0  0.48539275647E+02  0.12497464676E+01  0.34697646133E+02  0.59678814983E+02  0.10566000000E+00 0. -1.
         23    2    1    0    0    0  0.22346014313E+02  0.13829638434E+02  0.15970955962E+02  0.94248175839E+02  0.89090089009E+02 0.  0.
         13    1    3    3    0    0 -0.26193261334E+02  0.12579891966E+02 -0.18726690171E+02  0.34569360856E+02  0.10566000000E+00 0.  1.
         22    1    1    0    0    0 -0.22346014313E+02 -0.13829638434E+02 -0.15970955962E+02  0.30751824161E+02  0.00000000000E+00 0. -1.
</event>
<event>
 5    1  0.1764318E-003  0.9118800E+02  0.7818608E-02  0.1130116E+00
         25   -1    0    0    0    0  0.00000000000E+00  0.00000000000E+00  0.99999998245E-14  0.12500000000E+03  0.12500000000E+03 0.  0.
        -13    1    3    3    0    0  0.35575494793E+02 -0.55573489362E+01 -0.32003328446E+01  0.36149042191E+02  0.10566000000E+00 0.  1.
         23    2    1    0    0    0 -0.21827549766E+02 -0.19815940641E+02 -0.36184910348E+01  0.95298031890E+02  0.90551134573E+02 0.  0.
         13    1    3    3    0    0 -0.57403044559E+02 -0.14258591704E+02 -0.41815819023E+00  0.59148989699E+02  0.10566000000E+00 0. -1.
         22    1    1    0    0    0  0.21827549766E+02  0.19815940641E+02  0.36184910348E+01  0.29701968110E+02  0.00000000000E+00 0. -1.
</event>
<event>
 5    1  0.1764318E-003  0.9118800E+02  0.7818608E-02  0.1130116E+00
         25   -1    0    0    0    0  0.00000000000E+00  0.00000000000E+00  0.99999998245E-14  0.12500000000E+03  0.12500000000E+03 0.  0.
        -13    1    3    3    0    0  0.47228596582E+02  0.29344051576E+02  0.23012753061E+02  0.60176504264E+02  0.10566000000E+00 0. -1.
         23    2    1    0    0    0  0.27218976796E+02  0.13794131272E+02 -0.11468284184E+00  0.94485021587E+02  0.89421783682E+02 0.  0.
         13    1    3    3    0    0 -0.20009619786E+02 -0.15549920303E+02 -0.23127435903E+02  0.34308517323E+02  0.10566000000E+00 0.  1.
         22    1    1    0    0    0 -0.27218976796E+02 -0.13794131272E+02  0.11468284184E+00  0.30514978413E+02  0.00000000000E+00 0. -1.
</event>
<event>
 5    1  0.1764318E-003  0.9118800E+02  0.7818608E-02  0.1130116E+00
         25   -1    0    0    0    0  0.00000000000E+00  0.00000000000E+00  0.99999998245E-14  0.12500000000E+03  0.12500000000E+03 0.  0.
        -13    1    3    3    0    0 -0.26971596456E+02 -0.19963546974E+02  0.43588331691E+01  0.33838156182E+02  0.10566000000E+00 0. -1.
         23    2    1    0    0    0  0.27114032905E+02  0.86781036575E+01 -0.59883270676E+01  0.95908071144E+02  0.91389374580E+02 0.  0.
         13    1    3    3    0    0  0.54085629362E+02  0.28641650632E+02 -0.10347160237E+02  0.62069914962E+02  0.10566000000E+00 0.  1.
         22    1    1    0    0    0 -0.27114032905E+02 -0.86781036575E+01  0.59883270676E+01  0.29091928856E+02  0.00000000000E+00 0.  1.
</event>
<event>
 5    1  0.1764318E-003  0.9118800E+02  0.7818608E-02  0.1130116E+00
         25   -1    0    0    0    0  0.00000000000E+00  0.00000000000E+00  0.99999998245E-14  0.12500000000E+03  0.12500000000E+03 0.  0.
        -13    1    3    3    0    0  0.83642500034E+01  0.44233538339E+02 -0.62489075368E+01  0.45449165026E+02  0.10566000000E+00 0. -1.
         23    2    1    0    0    0  0.29730614220E+02  0.11270618488E+01  0.49304295787E+01  0.94842267557E+02  0.89919780300E+02 0.  0.
         13    1    3    3    0    0  0.21366364216E+02 -0.43106476490E+02  0.11179337116E+02  0.49393102531E+02  0.10566000000E+00 0.  1.
         22    1    1    0    0    0 -0.29730614220E+02 -0.11270618488E+01 -0.49304295787E+01  0.30157732443E+02  0.00000000000E+00 0. -1.
</event>
<event>
 5    1  0.1764318E-003  0.9118800E+02  0.7818608E-02  0.1130116E+00
         25   -1    0    0    0    0  0.00000000000E+00  0.00000000000E+00  0.99999998245E-14  0.12500000000E+03  0.12500000000E+03 0.  0.
        -13    1    3    3    0    0 -0.48395709167E+02  0.99610259596E+00  0.91227728935E+01  0.49258228099E+02  0.10566000000E+00 0.  1.
         23    2    1    0    0    0 -0.60592978795E+01 -0.17256987854E+02  0.21282131810E+02  0.96938498705E+02  0.92788063220E+02 0.  0.
         13    1    3    3    0    0  0.42336411288E+02 -0.18253090450E+02  0.12159358917E+02  0.47680270605E+02  0.10566000000E+00 0. -1.
         22    1    1    0    0    0  0.60592978795E+01  0.17256987854E+02 -0.21282131810E+02  0.28061501295E+02  0.00000000000E+00 0. -1.
</event>
<event>
 5    1  0.1764318E-003  0.9118800E+02  0.7818608E-02  0.1130116E+00
         25   -1    0    0    0    0  0.00000000000E+00  0.00000000000E+00  0.99999998245E-14  0.12500000000E+03  0.12500000000E+03 0.  0.
        -13    1    3    3    0    0 -0.15793564696E+02  0.10119843864E+02 -0.39077161373E+02  0.43346091296E+02  0.10566000000E+00 0.  1.
         23    2    1    0    0    0 -0.12062141801E+02  0.27797841052E+02  0.79059663831E+01  0.93683558049E+02  0.88294334542E+02 0.  0.
         13    1    3    3    0    0  0.37314228950E+01  0.17677997188E+02  0.46983127756E+02  0.50337466753E+02  0.10566000000E+00 0. -1.
         22    1    1    0    0    0  0.12062141801E+02 -0.27797841052E+02 -0.79059663831E+01  0.31316441951E+02  0.00000000000E+00 0.  1.
</event>
<event>
 5    1  0.1764318E-003  0.9118800E+02  0.7818608E-02  0.1130116E+00
         25   -1    0    0    0    0  0.00000000000E+00  0.00000000000E+00  0.99999998245E-14  0.12500000000E+03  0.12500000000E+03 0.  0.
        -13    1    3    3    0    0 -0.87124375616E+01 -0.34815934545E+02  0.66029554607E+01  0.36491999827E+02  0.10566000000E+00 0.  1.
         23    2    1    0    0    0 -0.21915683684E+02  0.21050981797E+02 -0.20327604437E+01  0.94543914549E+02  0.89504070507E+02 0.  0.
         13    1    3    3    0    0 -0.13203246122E+02  0.55866916342E+02 -0.86357159044E+01  0.58051914723E+02  0.10566000000E+00 0. -1.
         22    1    1    0    0    0  0.21915683684E+02 -0.21050981797E+02  0.20327604437E+01  0.30456085451E+02  0.00000000000E+00 0. -1.
</event>
<event>
 5    1  0.1764318E-003  0.9118800E+02  0.7818608E-02  0.1130116E+00
         25   -1    0    0    0    0  0.00000000000E+00  0.00000000000E+00  0.99999998245E-14  0.12500000000E+03  0.12500000000E+03 0.  0.
        -13    1    3    3    0    0 -0.34952751553E+02 -0.33127885244E+02 -0.23938190505E+02  0.53779175807E+02  0.10566000000E+00 0.  1.
         23    2    1    0    0    0 -0.20868274739E+02  0.72067802355E+01 -0.17162284407E+02  0.97036334682E+02  0.92919770074E+02 0.  0.
         13    1    3    3    0    0  0.14084476814E+02  0.40334665479E+02  0.67759060985E+01  0.43257158875E+02  0.10566000000E+00 0. -1.
         22    1    1    0    0    0  0.20868274739E+02 -0.72067802355E+01  0.17162284407E+02  0.27963665318E+02  0.00000000000E+00 0.  1.
</event>
<event>
 5    1  0.1764318E-003  0.9118800E+02  0.7818608E-02  0.1130116E+00
         25   -1    0    0    0    0  0.00000000000E+00  0.00000000000E+00  0.99999998245E-14  0.12500000000E+03  0.12500000000E+03 0.  0.
        -13    1    3    3    0    0  0.43106422764E+02 -0.25120723613E+02 -0.25135092325E+01  0.49955413431E+02  0.10566000000E+00 0. -1.
         23    2    1    0    0    0  0.23595916230E+02  0.96375097489E+01  0.17027360472E+02  0.94347433035E+02  0.89229245535E+02 0.  0.
         13    1    3    3    0    0 -0.19510506534E+02  0.34758233362E+02  0.19540869704E+02  0.44392019604E+02  0.10566000000E+00 0.  1.
         22    1    1    0    0    0 -0.23595916230E+02 -0.96375097489E+01 -0.17027360472E+02  0.30652566965E+02  0.00000000000E+00 0. -1.
</event>
<event>
 5    1  0.1764318E-003  0.9118800E+02  0.7818608E-02  0.1130116E+00
         25   -1    0    0    0    0  0.00000000000E+00  0.00000000000E+00  0.99999998245E-14  0.12500000000E+03  0.12500000000E+03 0.  0.
        -13    1    3    3    0    0  0.43105816788E-01 -0.19603285683E+02 -0.27911334271E+02  0.34107835061E+02  0.10566000000E+00 0. -1.
         23    2    1    0    0    0 -0.36537312299E+00  0.24670703296E+02  0.15293898871E+02  0.95971041332E+02  0.91475463011E+02 0.  0.
         13    1    3    3    0    0 -0.40847893978E+00  0.44273988980E+02  0.43205233143E+02  0.61863206271E+02  0.10566000000E+00 0.  1.
         22    1    1    0    0    0  0.36537312299E+00 -0.24670703296E+02 -0.15293898871E+02  0.29028958668E+02  0.00000000000E+00 0.  1.
</event>
<event>
 5    1  0.1764318E-003  0.9118800E+02  0.7818608E-02  0.1130116E+00
         25   -1    0    0    0    0  0.00000000000E+00  0.00000000000E+00  0.99999998245E-14  0.12500000000E+03  0.12500000000E+03 0.  0.
        -13    1    3    3    0    0  0.31670728812E+02  0.19544943347E+02  0.11229494555E+02  0.38873546094E+02  0.10566000000E+00 0.  1.
         23    2    1    0    0    0  0.39210682199E+01 -0.27686893797E+02 -0.61957208132E+01  0.96358669366E+02  0.92003626784E+02 0.  0.
         13    1    3    3    0    0 -0.27749660592E+02 -0.47231837144E+02 -0.17425215368E+02  0.57485123272E+02  0.10566000000E+00 0. -1.
         22    1    1    0    0    0 -0.39210682199E+01  0.27686893797E+02  0.61957208132E+01  0.28641330634E+02  0.00000000000E+00 0. -1.
</event>
<event>
 5    1  0.1764318E-003  0.9118800E+02  0.7818608E-02  0.1130116E+00
         25   -1    0    0    0    0  0.00000000000E+00  0.00000000000E+00  0.99999998245E-14  0.12500000000E+03  0.12500000000E+03 0.  0.
        -13    1    3    3    0    0  0.39845576062E+02 -0.11427034980E+02  0.46302695607E+01  0.41709682574E+02  0.10566000000E+00 0.  1.
         23    2    1    0    0    0 -0.61880259446E+01 -0.13431504035E+01  0.29384571079E+02  0.94940912595E+02  0.90056805122E+02 0.  0.
         13    1    3    3    0    0 -0.46033602007E+02  0.10083884577E+02  0.24754301519E+02  0.53231230021E+02  0.10566000000E+00 0. -1.
         22    1    1    0    0    0  0.61880259446E+01  0.13431504035E+01 -0.29384571079E+02  0.30059087405E+02  0.00000000000E+00 0. -1.
</event>
<event>
 5    1  0.1764318E-003  0.9118800E+02  0.7818608E-02  0.1130116E+00
         25   -1    0    0    0    0  0.00000000000E+00  0.00000000000E+00  0.99999998245E-14  0.12500000000E+03  0.12500000000E+03 0.  0.
        -13    1    3    3    0    0  0.53315563042E+02  0.27849592410E+02 -0.15401787159E+02  0.62091668295E+02  0.10566000000E+00 0.  1.
         23    2    1    0    0    0  0.23823677387E+02  0.15648215347E+02 -0.29750323819E+01  0.96341928442E+02  0.91980879048E+02 0.  0.
         13    1    3    3    0    0 -0.29491885656E+02 -0.12201377063E+02  0.12426754777E+02  0.34250260147E+02  0.10566000000E+00 0. -1.
         22    1    1    0    0    0 -0.23823677387E+02 -0.15648215347E+02  0.29750323819E+01  0.28658071558E+02  0.00000000000E+00 0.  1.
</event>
<event>
 5    1  0.1764318E-003  0.9118800E+02  0.7818608E-02  0.1130116E+00
         25   -1    0    0    0    0  0.00000000000E+00  0.00000000000E+00  0.99999998245E-14  0.12500000000E+03  0.12500000000E+03 0.  0.
        -13    1    3    3    0    0 -0.16676291491E+02  0.15432044892E+02 -0.16853143393E+02  0.28289332154E+02  0.10566000000E+00 0. -1.
         23    2    1    0    0    0 -0.34942711242E+02 -0.69969104901E+01  0.26628531744E+02  0.80513726519E+02  0.67107612308E+02 0.  0.
         13    1    3    3    0    0 -0.18266419751E+02 -0.22428955382E+02  0.43481675137E+02  0.52224394365E+02  0.10566000000E+00 0.  1.
         22    1    1    0    0    0  0.34942711242E+02  0.69969104901E+01 -0.26628531744E+02  0.44486273481E+02  0.00000000000E+00 0.  1.
</event>
<event>
 5    1  0.1764318E-003  0.9118800E+02  0.7818608E-02  0.1130116E+00
         25   -1    0    0    0    0  0.00000000000E+00  0.00000000000E+00  0.99999998245E-14  0.12500000000E+03  0.12500000000E+03 0.  0.
        -13    1    3    3    0    0 -0.10755094596E+02 -0.29537910429E+02 -0.12462442055E+02  0.33815437869E+02  0.10566000000E+00 0.  1.
         23    2    1    0    0    0 -0.46883334223E+01  0.28853836774E+02  0.55973682299E+01  0.95236685367E+02  0.90466410019E+02 0.  0.
         13    1    3    3    0    0  0.60667611738E+01  0.58391747203E+02  0.18059810285E+02  0.61421247497E+02  0.10566000000E+00 0. -1.
         22    1    1    0    0    0  0.46883334223E+01 -0.28853836774E+02 -0.55973682299E+01  0.29763314633E+02  0.00000000000E+00 0. -1.
</event>
<event>
 5    1  0.1764318E-003  0.9118800E+02  0.7818608E-02  0.1130116E+00
         25   -1    0    0    0    0  0.00000000000E+00  0.00000000000E+00  0.99999998245E-14  0.12500000000E+03  0.12500000000E+03 0.  0.
        -13    1    3    3    0    0 -0.33162868926E+02 -0.29451839255E+02 -0.22923867142E+02  0.49926962252E+02  0.10566000000E+00 0. -1.
         23    2    1    0    0    0 -0.25519498526E+02  0.16436102826E+01  0.11516943036E+02  0.96953855226E+02  0.92808748546E+02 0.  0.
         13    1    3    3    0    0  0.76433704007E+01  0.31095449538E+02  0.34440810178E+02  0.47026892974E+02  0.10566000000E+00 0.  1.
         22    1    1    0    0    0  0.25519498526E+02 -0.16436102826E+01 -0.11516943036E+02  0.28046144774E+02  0.00000000000E+00 0.  1.
</event>
<event>
 5    1  0.1764318E-003  0.9118800E+02  0.7818608E-02  0.1130116E+00
         25   -1    0    0    0    0  0.00000000000E+00  0.00000000000E+00  0.99999998245E-14  0.12500000000E+03  0.12500000000E+03 0.  0.
        -13    1    3    3    0    0  0.21984979313E+02 -0.40688698943E+02  0.36785126354E+02  0.59093707127E+02  0.10566000000E+00 0.  1.
         23    2    1    0    0    0 -0.32776439846E+01 -0.23964126498E+02  0.19149759378E+02  0.94149787794E+02  0.88951936171E+02 0.  0.
         13    1    3    3    0    0 -0.25262623298E+02  0.16724572445E+02 -0.17635366976E+02  0.35056080668E+02  0.10566000000E+00 0. -1.
         22    1    1    0    0    0  0.32776439846E+01  0.23964126498E+02 -0.19149759378E+02  0.30850212206E+02  0.00000000000E+00 0.  1.
</event>
<event>
 5    1  0.1764318E-003  0.9118800E+02  0.7818608E-02  0.1130116E+00
         25   -1    0    0    0    0  0.00000000000E+00  0.00000000000E+00  0.99999998245E-14  0.12500000000E+03  0.12500000000E+03 0.  0.
        -13    1    3    3    0    0 -0.11266180845E+02  0.27733347463E+02 -0.24731879059E+02  0.38829658744E+02  0.10566000000E+00 0. -1.
         23    2    1    0    0    0  0.24737910659E+02  0.66460390028E+01  0.14041360404E+02  0.95788805909E+02  0.91226100855E+02 0.  0.
         13    1    3    3    0    0  0.36004091505E+02 -0.21087308461E+02  0.38773239463E+02  0.56959147165E+02  0.10566000000E+00 0.  1.
         22    1    1    0    0    0 -0.24737910659E+02 -0.66460390028E+01 -0.14041360404E+02  0.29211194091E+02  0.00000000000E+00 0.  1.
</event>
<event>
 5    1  0.1764318E-003  0.9118800E+02  0.7818608E-02  0.1130116E+00
         25   -1    0    0    0    0  0.00000000000E+00  0.00000000000E+00  0.99999998245E-14  0.12500000000E+03  0.12500000000E+03 0.  0.
        -13    1    3    3    0    0  0.95246857579E+01 -0.46167736697E+01 -0.33594076224E+02  0.35222256590E+02  0.10566000000E+00 0.  1.
         23    2    1    0    0    0 -0.31795360651E+01  0.21560229977E+02  0.19493188874E+02  0.95760687786E+02  0.91187564649E+02 0.  0.
         13    1    3    3    0    0 -0.12704221823E+02  0.26177003647E+02  0.53087265098E+02  0.60538431196E+02  0.10566000000E+00 0. -1.
         22    1    1    0    0    0  0.31795360651E+01 -0.21560229977E+02 -0.19493188874E+02  0.29239312214E+02  0.00000000000E+00 0. -1.
</event>
<event>
 5    1  0.1764318E-003  0.9118800E+02  0.7818608E-02  0.1130116E+00
         25   -1    0    0    0    0  0.00000000000E+00  0.00000000000E+00  0.99999998245E-14  0.12500000000E+03  0.12500000000E+03 0.  0.
        -13    1    3    3    0    0 -0.39397142535E+02 -0.10358424672E+02 -0.18941465854E+02  0.44924626814E+02  0.10566000000E+00 0.  1.
         23    2    1    0    0    0  0.14070648888E+02 -0.89498159634E+01 -0.20673612916E+02  0.98439114531E+02  0.94788072207E+02 0.  0.
         13    1    3    3    0    0  0.53467791423E+02  0.14086087091E+01 -0.17321470624E+01  0.53514487717E+02  0.10566000000E+00 0. -1.
         22    1    1    0    0    0 -0.14070648888E+02  0.89498159634E+01  0.20673612916E+02  0.26560885469E+02  0.00000000000E+00 0.  1.
</event>
<event>
 5    1  0.1764318E-003  0.9118800E+02  0.7818608E-02  0.1130116E+00
         25   -1    0    0    0    0  0.00000000000E+00  0.00000000000E+00  0.99999998245E-14  0.12500000000E+03  0.12500000000E+03 0.  0.
        -13    1    3    3    0    0  0.29549384185E+02 -0.38306345850E+02  0.12622329466E+02  0.49998766018E+02  0.10566000000E+00 0. -1.
         23    2    1    0    0    0 -0.14579182741E+02 -0.20875760829E+02  0.10394044244E+02  0.97497525287E+02  0.93538127637E+02 0.  0.
         13    1    3    3    0    0 -0.44128566926E+02  0.17430585021E+02 -0.22282852217E+01  0.47498759270E+02  0.10566000000E+00 0.  1.
         22    1    1    0    0    0  0.14579182741E+02  0.20875760829E+02 -0.10394044244E+02  0.27502474713E+02  0.00000000000E+00 0.  1.
</event>
<event>
 5    1  0.1764318E-003  0.9118800E+02  0.7818608E-02  0.1130116E+00
         25   -1    0    0    0    0  0.00000000000E+00  0.00000000000E+00  0.99999998245E-14  0.12500000000E+03  0.12500000000E+03 0.  0.
        -13    1    3    3    0    0 -0.45402644648E+02  0.66539602402E+01 -0.24143535806E+02  0.51851680910E+02  0.10566000000E+00 0. -1.
         23    2    1    0    0    0 -0.26644763902E+02 -0.28814691608E+01  0.13510815681E+02  0.94986862072E+02  0.90120561017E+02 0.  0.
         13    1    3    3    0    0  0.18757880747E+02 -0.95354294010E+01  0.37654351487E+02  0.43135181162E+02  0.10566000000E+00 0.  1.
         22    1    1    0    0    0  0.26644763902E+02  0.28814691608E+01 -0.13510815681E+02  0.30013137928E+02  0.00000000000E+00 0.  1.
</event>
<event>
 5    1  0.1764318E-003  0.9118800E+02  0.7818608E-02  0.1130116E+00
         25   -1    0    0    0    0  0.00000000000E+00  0.00000000000E+00  0.99999998245E-14  0.12500000000E+03  0.12500000000E+03 0.  0.
        -13    1    3    3    0    0  0.49636155402E+02  0.41108882105E+01 -0.34866357656E+02  0.60797379756E+02  0.10566000000E+00 0.  1.
         23    2    1    0    0    0  0.16980454924E+02  0.32892611398E+01 -0.24384713856E+02  0.95104024382E+02  0.90282922502E+02 0.  0.
         13    1    3    3    0    0 -0.32655700478E+02 -0.82162707065E+00  0.10481643799E+02  0.34306644626E+02  0.10566000000E+00 0. -1.
         22    1    1    0    0    0 -0.16980454924E+02 -0.32892611398E+01  0.24384713856E+02  0.29895975618E+02  0.00000000000E+00 0.  1.
</event>
<event>
 5    1  0.1764318E-003  0.9118800E+02  0.7818608E-02  0.1130116E+00
         25   -1    0    0    0    0  0.00000000000E+00  0.00000000000E+00  0.99999998245E-14  0.12500000000E+03  0.12500000000E+03 0.  0.
        -13    1    3    3    0    0  0.84714410280E+00 -0.23404885498E+02  0.31624283066E+02  0.39352417483E+02  0.10566000000E+00 0.  1.
         23    2    1    0    0    0  0.29565702910E+02  0.82706790673E+01 -0.26985136001E+01  0.94180900460E+02  0.88995646607E+02 0.  0.
         13    1    3    3    0    0  0.28718558808E+02  0.31675564565E+02 -0.34322796666E+02  0.54828482977E+02  0.10566000000E+00 0. -1.
         22    1    1    0    0    0 -0.29565702910E+02 -0.82706790673E+01  0.26985136001E+01  0.30819099540E+02  0.00000000000E+00 0. -1.
</event>
<event>
 5    1  0.1764318E-003  0.9118800E+02  0.7818608E-02  0.1130116E+00
         25   -1    0    0    0    0  0.00000000000E+00  0.00000000000E+00  0.99999998245E-14  0.12500000000E+03  0.12500000000E+03 0.  0.
        -13    1    3    3    0    0  0.17795923227E+02  0.83950932585E+01  0.41147302081E+02  0.45610131626E+02  0.10566000000E+00 0. -1.
         23    2    1    0    0    0 -0.18016452330E+02  0.16385559902E+00  0.38549176209E+02  0.82448168199E+02  0.70618992132E+02 0.  0.
         13    1    3    3    0    0 -0.35812375558E+02 -0.82312376595E+01 -0.25981258719E+01  0.36838036573E+02  0.10566000000E+00 0.  1.
         22    1    1    0    0    0  0.18016452330E+02 -0.16385559902E+00 -0.38549176209E+02  0.42551831801E+02  0.00000000000E+00 0.  1.
</event>
<event>
 5    1  0.1764318E-003  0.9118800E+02  0.7818608E-02  0.1130116E+00
         25   -1    0    0    0    0  0.00000000000E+00  0.00000000000E+00  0.99999998245E-14  0.12500000000E+03  0.12500000000E+03 0.  0.
        -13    1    3    3    0    0 -0.96159268166E+01 -0.54833187837E+02 -0.15114427339E+02  0.57685367423E+02  0.10566000000E+00 0.  1.
         23    2    1    0    0    0  0.11457069480E+02 -0.22356786681E+02 -0.13609383996E+02  0.96428936238E+02  0.92099044835E+02 0.  0.
         13    1    3    3    0    0  0.21072996296E+02  0.32476401157E+02  0.15050433427E+01  0.38743568815E+02  0.10566000000E+00 0. -1.
         22    1    1    0    0    0 -0.11457069480E+02  0.22356786681E+02  0.13609383996E+02  0.28571063762E+02  0.00000000000E+00 0.  1.
</event>
<event>
 5    1  0.1764318E-003  0.9118800E+02  0.7818608E-02  0.1130116E+00
         25   -1    0    0    0    0  0.00000000000E+00  0.00000000000E+00  0.99999998245E-14  0.12500000000E+03  0.12500000000E+03 0.  0.
        -13    1    3    3    0    0  0.21230573957E+02  0.25895963798E+02 -0.47120280663E+01  0.33816454339E+02  0.10566000000E+00 0. -1.
         23    2    1    0    0    0 -0.75919061837E+01 -0.27712438422E+02 -0.91532797856E+01  0.94843759956E+02  0.89921854902E+02 0.  0.
         13    1    3    3    0    0 -0.28822480141E+02 -0.53608402219E+02 -0.44412517193E+01  0.61027305617E+02  0.10566000000E+00 0.  1.
         22    1    1    0    0    0  0.75919061837E+01  0.27712438422E+02  0.91532797856E+01  0.30156240044E+02  0.00000000000E+00 0.  1.
</event>
<event>
 5    1  0.1764318E-003  0.9118800E+02  0.7818608E-02  0.1130116E+00
         25   -1    0    0    0    0  0.00000000000E+00  0.00000000000E+00  0.99999998245E-14  0.12500000000E+03  0.12500000000E+03 0.  0.
        -13    1    3    3    0    0  0.11779279895E+02 -0.28368553438E+02 -0.38075717886E+02  0.48921342128E+02  0.10566000000E+00 0.  1.
         23    2    1    0    0    0 -0.19699944122E+02  0.26776586599E+01 -0.20334859026E+02  0.96561221089E+02  0.92278411735E+02 0.  0.
         13    1    3    3    0    0 -0.31479224017E+02  0.31046212098E+02  0.17740858860E+02  0.47639878961E+02  0.10566000000E+00 0. -1.
         22    1    1    0    0    0  0.19699944122E+02 -0.26776586599E+01  0.20334859026E+02  0.28438778911E+02  0.00000000000E+00 0.  1.
</event>
<event>
 5    1  0.1764318E-003  0.9118800E+02  0.7818608E-02  0.1130116E+00
         25   -1    0    0    0    0  0.00000000000E+00  0.00000000000E+00  0.99999998245E-14  0.12500000000E+03  0.12500000000E+03 0.  0.
        -13    1    3    3    0    0  0.27788612264E+02 -0.25267598135E+02  0.64091003987E+01  0.38101787609E+02  0.10566000000E+00 0. -1.
         23    2    1    0    0    0 -0.42957333035E+01  0.23723990218E+02 -0.99672989105E+01  0.98911150197E+02  0.95408529750E+02 0.  0.
         13    1    3    3    0    0 -0.32084345568E+02  0.48991588353E+02 -0.16376399309E+02  0.60809362587E+02  0.10566000000E+00 0.  1.
         22    1    1    0    0    0  0.42957333035E+01 -0.23723990218E+02  0.99672989105E+01  0.26088849803E+02  0.00000000000E+00 0.  1.
</event>
<event>
 5    1  0.1764318E-003  0.9118800E+02  0.7818608E-02  0.1130116E+00
         25   -1    0    0    0    0  0.00000000000E+00  0.00000000000E+00  0.99999998245E-14  0.12500000000E+03  0.12500000000E+03 0.  0.
        -13    1    3    3    0    0 -0.43358974317E+02  0.34801489888E+02  0.48496217587E+01  0.55809267577E+02  0.10566000000E+00 0. -1.
         23    2    1    0    0    0 -0.28853260796E+02  0.70998148795E+01 -0.13820934135E+02  0.92229033426E+02  0.86210546666E+02 0.  0.
         13    1    3    3    0    0  0.14505713521E+02 -0.27701675009E+02 -0.18670555894E+02  0.36419765849E+02  0.10566000000E+00 0.  1.
         22    1    1    0    0    0  0.28853260796E+02 -0.70998148795E+01  0.13820934135E+02  0.32770966574E+02  0.00000000000E+00 0. -1.
</event>
<event>
 5    1  0.1764318E-003  0.9118800E+02  0.7818608E-02  0.1130116E+00
         25   -1    0    0    0    0  0.00000000000E+00  0.00000000000E+00  0.99999998245E-14  0.12500000000E+03  0.12500000000E+03 0.  0.
        -13    1    3    3    0    0  0.40197818986E+02 -0.44555104674E+01 -0.17676317943E+02  0.44138187603E+02  0.10566000000E+00 0.  1.
         23    2    1    0    0    0  0.10316120673E+02 -0.16178529372E+02  0.22413467596E+02  0.95495242959E+02  0.90822963725E+02 0.  0.
         13    1    3    3    0    0 -0.29881698314E+02 -0.11723018904E+02  0.40089785539E+02  0.51357055357E+02  0.10566000000E+00 0. -1.
         22    1    1    0    0    0 -0.10316120673E+02  0.16178529372E+02 -0.22413467596E+02  0.29504757041E+02  0.00000000000E+00 0. -1.
</event>
<event>
 5    1  0.1764318E-003  0.9118800E+02  0.7818608E-02  0.1130116E+00
         25   -1    0    0    0    0  0.00000000000E+00  0.00000000000E+00  0.99999998245E-14  0.12500000000E+03  0.12500000000E+03 0.  0.
        -13    1    3    3    0    0  0.29955650067E+02  0.60089223672E+01 -0.48881367252E+02  0.57644144086E+02  0.10566000000E+00 0.  1.
         23    2    1    0    0    0  0.25095225155E+02 -0.10555816776E+02 -0.20279191553E+02  0.91052375585E+02  0.84487241027E+02 0.  0.
         13    1    3    3    0    0 -0.48604249126E+01 -0.16564739143E+02  0.28602175698E+02  0.33408231500E+02  0.10566000000E+00 0. -1.
         22    1    1    0    0    0 -0.25095225155E+02  0.10555816776E+02  0.20279191553E+02  0.33947624415E+02  0.00000000000E+00 0.  1.
</event>
<event>
 5    1  0.1764318E-003  0.9118800E+02  0.7818608E-02  0.1130116E+00
         25   -1    0    0    0    0  0.00000000000E+00  0.00000000000E+00  0.99999998245E-14  0.12500000000E+03  0.12500000000E+03 0.  0.
        -13    1    3    3    0    0  0.20626040425E+02  0.22050523070E+02 -0.15527975316E+02  0.33952736160E+02  0.10566000000E+00 0.  1.
         23    2    1    0    0    0  0.38235120124E+02  0.68240592881E+01  0.23651134757E+02  0.79526179274E+02  0.65242201209E+02 0.  0.
         13    1    3    3    0    0  0.17609079700E+02 -0.15226463782E+02  0.39179110073E+02  0.45573443115E+02  0.10566000000E+00 0. -1.
         22    1    1    0    0    0 -0.38235120124E+02 -0.68240592881E+01 -0.23651134757E+02  0.45473820726E+02  0.00000000000E+00 0. -1.
</event>
<event>
 5    1  0.1764318E-003  0.9118800E+02  0.7818608E-02  0.1130116E+00
         25   -1    0    0    0    0  0.00000000000E+00  0.00000000000E+00  0.99999998245E-14  0.12500000000E+03  0.12500000000E+03 0.  0.
        -13    1    3    3    0    0  0.38455437870E+02 -0.28310095698E+02  0.33498554896E+02  0.58330494292E+02  0.10566000000E+00 0.  1.
         23    2    1    0    0    0  0.11006041250E+02 -0.21515385937E+01  0.25585012923E+02  0.97065166037E+02  0.92958547263E+02 0.  0.
         13    1    3    3    0    0 -0.27449396620E+02  0.26158557104E+02 -0.79135419732E+01  0.38734671745E+02  0.10566000000E+00 0. -1.
         22    1    1    0    0    0 -0.11006041250E+02  0.21515385937E+01 -0.25585012923E+02  0.27934833963E+02  0.00000000000E+00 0.  1.
</event>
<event>
 5    1  0.1764318E-003  0.9118800E+02  0.7818608E-02  0.1130116E+00
         25   -1    0    0    0    0  0.00000000000E+00  0.00000000000E+00  0.99999998245E-14  0.12500000000E+03  0.12500000000E+03 0.  0.
        -13    1    3    3    0    0 -0.52647921589E+02 -0.63490877743E+01  0.22179701831E+02  0.57480995995E+02  0.10566000000E+00 0.  1.
         23    2    1    0    0    0 -0.23643702644E+02 -0.60778275893E+01  0.28813058251E+02  0.87235506244E+02  0.78637628149E+02 0.  0.
         13    1    3    3    0    0  0.29004218945E+02  0.27126018495E+00  0.66333564192E+01  0.29754510249E+02  0.10566000000E+00 0. -1.
         22    1    1    0    0    0  0.23643702644E+02  0.60778275893E+01 -0.28813058251E+02  0.37764493756E+02  0.00000000000E+00 0.  1.
</event>
<event>
 5    1  0.1764318E-003  0.9118800E+02  0.7818608E-02  0.1130116E+00
         25   -1    0    0    0    0  0.00000000000E+00  0.00000000000E+00  0.99999998245E-14  0.12500000000E+03  0.12500000000E+03 0.  0.
        -13    1    3    3    0    0 -0.18149659166E+02 -0.36983348222E+02  0.17552500580E+02  0.44780348527E+02  0.10566000000E+00 0.  1.
         23    2    1    0    0    0 -0.21469133458E+02  0.12972229884E+02 -0.45479675813E+01  0.99507129453E+02  0.96186185927E+02 0.  0.
         13    1    3    3    0    0 -0.33194742919E+01  0.49955578106E+02 -0.22100468161E+02  0.54726780926E+02  0.10566000000E+00 0. -1.
         22    1    1    0    0    0  0.21469133458E+02 -0.12972229884E+02  0.45479675813E+01  0.25492870547E+02  0.00000000000E+00 0. -1.
</event>
<event>
 5    1  0.1764318E-003  0.9118800E+02  0.7818608E-02  0.1130116E+00
         25   -1    0    0    0    0  0.00000000000E+00  0.00000000000E+00  0.99999998245E-14  0.12500000000E+03  0.12500000000E+03 0.  0.
        -13    1    3    3    0    0 -0.14514769671E+02 -0.25470795240E+02 -0.40559880204E+02  0.50045529220E+02  0.10566000000E+00 0. -1.
         23    2    1    0    0    0 -0.29209660408E+02 -0.30060508631E+01 -0.40559272255E+01  0.95357274947E+02  0.90632878894E+02 0.  0.
         13    1    3    3    0    0 -0.14694890736E+02  0.22464744377E+02  0.36503952978E+02  0.45311745726E+02  0.10566000000E+00 0.  1.
         22    1    1    0    0    0  0.29209660408E+02  0.30060508631E+01  0.40559272255E+01  0.29642725053E+02  0.00000000000E+00 0.  1.
</event>
<event>
 5    1  0.1764318E-003  0.9118800E+02  0.7818608E-02  0.1130116E+00
         25   -1    0    0    0    0  0.00000000000E+00  0.00000000000E+00  0.99999998245E-14  0.12500000000E+03  0.12500000000E+03 0.  0.
        -13    1    3    3    0    0 -0.16852993543E+02  0.46883461876E+01  0.56471892620E+02  0.59119284514E+02  0.10566000000E+00 0. -1.
         23    2    1    0    0    0 -0.17873776026E+02 -0.77762685381E+01  0.23000660493E+02  0.94850827459E+02  0.89931678872E+02 0.  0.
         13    1    3    3    0    0 -0.10207824822E+01 -0.12464614726E+02 -0.33471232127E+02  0.35731542945E+02  0.10566000000E+00 0.  1.
         22    1    1    0    0    0  0.17873776026E+02  0.77762685381E+01 -0.23000660493E+02  0.30149172541E+02  0.00000000000E+00 0. -1.
</event>
<event>
 5    1  0.1764318E-003  0.9118800E+02  0.7818608E-02  0.1130116E+00
         25   -1    0    0    0    0  0.00000000000E+00  0.00000000000E+00  0.99999998245E-14  0.12500000000E+03  0.12500000000E+03 0.  0.
        -13    1    3    3    0    0  0.27827233994E+02 -0.15697418391E+02  0.13677441955E+02  0.34754100167E+02  0.10566000000E+00 0.  1.
         23    2    1    0    0    0 -0.62392203730E+01 -0.24668048687E+01 -0.31460659686E+02  0.92831908589E+02  0.87080291383E+02 0.  0.
         13    1    3    3    0    0 -0.34066454367E+02  0.13230613522E+02 -0.45138101642E+02  0.58077808423E+02  0.10566000000E+00 0. -1.
         22    1    1    0    0    0  0.62392203730E+01  0.24668048687E+01  0.31460659686E+02  0.32168091411E+02  0.00000000000E+00 0. -1.
</event>
<event>
 5    1  0.1764318E-003  0.9118800E+02  0.7818608E-02  0.1130116E+00
         25   -1    0    0    0    0  0.00000000000E+00  0.00000000000E+00  0.99999998245E-14  0.12500000000E+03  0.12500000000E+03 0.  0.
        -13    1    3    3    0    0 -0.20836006780E+02 -0.27208335843E+02 -0.19889821975E+02  0.39623842571E+02  0.10566000000E+00 0.  1.
         23    2    1    0    0    0  0.18176131704E+02  0.15022592027E+02 -0.14381401758E+02  0.97379812610E+02  0.93380689399E+02 0.  0.
         13    1    3    3    0    0  0.39012138484E+02  0.42230927870E+02  0.55084202166E+01  0.57755970039E+02  0.10566000000E+00 0. -1.
         22    1    1    0    0    0 -0.18176131704E+02 -0.15022592027E+02  0.14381401758E+02  0.27620187390E+02  0.00000000000E+00 0. -1.
</event>
<event>
 5    1  0.1764318E-003  0.9118800E+02  0.7818608E-02  0.1130116E+00
         25   -1    0    0    0    0  0.00000000000E+00  0.00000000000E+00  0.99999998245E-14  0.12500000000E+03  0.12500000000E+03 0.  0.
        -13    1    3    3    0    0  0.21828893103E+02  0.19613000667E+02  0.13827710598E+02  0.32440516545E+02  0.10566000000E+00 0. -1.
         23    2    1    0    0    0  0.85268995283E+01 -0.42014321539E+01 -0.35196360521E+02  0.88542574945E+02  0.80688560133E+02 0.  0.
         13    1    3    3    0    0 -0.13301993575E+02 -0.23814432821E+02 -0.49024071119E+02  0.56102058400E+02  0.10566000000E+00 0.  1.
         22    1    1    0    0    0 -0.85268995283E+01  0.42014321539E+01  0.35196360521E+02  0.36457425055E+02  0.00000000000E+00 0.  1.
</event>
<event>
 5    1  0.1764318E-003  0.9118800E+02  0.7818608E-02  0.1130116E+00
         25   -1    0    0    0    0  0.00000000000E+00  0.00000000000E+00  0.99999998245E-14  0.12500000000E+03  0.12500000000E+03 0.  0.
        -13    1    3    3    0    0  0.15713517898E+02 -0.35601642110E+02  0.51479907944E+01  0.39254356942E+02  0.10566000000E+00 0. -1.
         23    2    1    0    0    0 -0.16014675196E+02 -0.17343131608E+02 -0.27817098899E+02  0.88516510217E+02  0.80648171425E+02 0.  0.
         13    1    3    3    0    0 -0.31728193095E+02  0.18258510502E+02 -0.32965089693E+02  0.49262153275E+02  0.10566000000E+00 0.  1.
         22    1    1    0    0    0  0.16014675196E+02  0.17343131608E+02  0.27817098899E+02  0.36483489783E+02  0.00000000000E+00 0. -1.
</event>
<event>
 5    1  0.1764318E-003  0.9118800E+02  0.7818608E-02  0.1130116E+00
         25   -1    0    0    0    0  0.00000000000E+00  0.00000000000E+00  0.99999998245E-14  0.12500000000E+03  0.12500000000E+03 0.  0.
        -13    1    3    3    0    0 -0.21111561191E+02 -0.35722122840E+02  0.37653890789E+02  0.56032086626E+02  0.10566000000E+00 0.  1.
         23    2    1    0    0    0 -0.76948568858E+01 -0.64756927420E+00  0.29560500130E+02  0.94447531419E+02  0.89369361947E+02 0.  0.
         13    1    3    3    0    0  0.13416704305E+02  0.35074553566E+02 -0.80933906595E+01  0.38415444793E+02  0.10566000000E+00 0. -1.
         22    1    1    0    0    0  0.76948568858E+01  0.64756927420E+00 -0.29560500130E+02  0.30552468581E+02  0.00000000000E+00 0.  1.
</event>
<event>
 5    1  0.1764318E-003  0.9118800E+02  0.7818608E-02  0.1130116E+00
         25   -1    0    0    0    0  0.00000000000E+00  0.00000000000E+00  0.99999998245E-14  0.12500000000E+03  0.12500000000E+03 0.  0.
        -13    1    3    3    0    0 -0.16535133171E+02 -0.20668795014E+02 -0.43554207828E+02  0.50966556681E+02  0.10566000000E+00 0.  1.
         23    2    1    0    0    0 -0.20167062549E+02 -0.20915147341E+02  0.12502590129E+01  0.95918787031E+02  0.91404030314E+02 0.  0.
         13    1    3    3    0    0 -0.36319293778E+01 -0.24635232755E+00  0.44804466841E+02  0.44952230350E+02  0.10566000000E+00 0. -1.
         22    1    1    0    0    0  0.20167062549E+02  0.20915147341E+02 -0.12502590129E+01  0.29081212969E+02  0.00000000000E+00 0. -1.
</event>
<event>
 5    1  0.1764318E-003  0.9118800E+02  0.7818608E-02  0.1130116E+00
         25   -1    0    0    0    0  0.00000000000E+00  0.00000000000E+00  0.99999998245E-14  0.12500000000E+03  0.12500000000E+03 0.  0.
        -13    1    3    3    0    0 -0.28239919560E+02 -0.43965795470E+01 -0.24395152764E+02  0.37576024415E+02  0.10566000000E+00 0. -1.
         23    2    1    0    0    0 -0.18264654005E+01  0.18055117813E+02  0.22626484301E+02  0.95995154768E+02  0.91508407767E+02 0.  0.
         13    1    3    3    0    0  0.26413454159E+02  0.22451697360E+02  0.47021637065E+02  0.58419130353E+02  0.10566000000E+00 0.  1.
         22    1    1    0    0    0  0.18264654005E+01 -0.18055117813E+02 -0.22626484301E+02  0.29004845232E+02  0.00000000000E+00 0.  1.
</event>
<event>
 5    1  0.1764318E-003  0.9118800E+02  0.7818608E-02  0.1130116E+00
         25   -1    0    0    0    0  0.00000000000E+00  0.00000000000E+00  0.99999998245E-14  0.12500000000E+03  0.12500000000E+03 0.  0.
        -13    1    3    3    0    0 -0.62642577217E+01 -0.50423398431E+02 -0.26258540661E+02  0.57195123532E+02  0.10566000000E+00 0. -1.
         23    2    1    0    0    0 -0.27523425943E+01 -0.13535229677E+02 -0.27451582680E+02  0.94269441532E+02  0.89119921358E+02 0.  0.
         13    1    3    3    0    0  0.35119151274E+01  0.36888168754E+02 -0.11930420186E+01  0.37074318000E+02  0.10566000000E+00 0.  1.
         22    1    1    0    0    0  0.27523425943E+01  0.13535229677E+02  0.27451582680E+02  0.30730558468E+02  0.00000000000E+00 0. -1.
</event>
<event>
 5    1  0.1764318E-003  0.9118800E+02  0.7818608E-02  0.1130116E+00
         25   -1    0    0    0    0  0.00000000000E+00  0.00000000000E+00  0.99999998245E-14  0.12500000000E+03  0.12500000000E+03 0.  0.
        -13    1    3    3    0    0 -0.28041656874E+02 -0.25436443597E+02  0.13879068495E+02  0.40323527740E+02  0.10566000000E+00 0.  1.
         23    2    1    0    0    0 -0.18518713562E+01  0.23193314560E+02  0.17812773315E+02  0.95697198753E+02  0.91100492250E+02 0.  0.
         13    1    3    3    0    0  0.26189785518E+02  0.48629758156E+02  0.39337048199E+01  0.55373671013E+02  0.10566000000E+00 0. -1.
         22    1    1    0    0    0  0.18518713562E+01 -0.23193314560E+02 -0.17812773315E+02  0.29302801247E+02  0.00000000000E+00 0. -1.
</event>
<event>
 5    1  0.1764318E-003  0.9118800E+02  0.7818608E-02  0.1130116E+00
         25   -1    0    0    0    0  0.00000000000E+00  0.00000000000E+00  0.99999998245E-14  0.12500000000E+03  0.12500000000E+03 0.  0.
        -13    1    3    3    0    0  0.60331236535E+01  0.41543641069E+02  0.43197845995E+02  0.60235685079E+02  0.10566000000E+00 0.  1.
         23    2    1    0    0    0  0.13955220231E+02  0.21576568267E+02  0.16671074462E+02  0.94369603437E+02  0.89260298337E+02 0.  0.
         13    1    3    3    0    0  0.79220965780E+01 -0.19967072802E+02 -0.26526771533E+02  0.34133918358E+02  0.10566000000E+00 0. -1.
         22    1    1    0    0    0 -0.13955220231E+02 -0.21576568267E+02 -0.16671074462E+02  0.30630396563E+02  0.00000000000E+00 0.  1.
</event>
<event>
 5    1  0.1764318E-003  0.9118800E+02  0.7818608E-02  0.1130116E+00
         25   -1    0    0    0    0  0.00000000000E+00  0.00000000000E+00  0.99999998245E-14  0.12500000000E+03  0.12500000000E+03 0.  0.
        -13    1    3    3    0    0  0.24025345538E+02  0.37548150868E+02  0.32402351594E+02  0.55109022988E+02  0.10566000000E+00 0.  1.
         23    2    1    0    0    0  0.11157699388E+02  0.27857745732E+02 -0.38170219040E+01  0.94749084160E+02  0.89790150017E+02 0.  0.
         13    1    3    3    0    0 -0.12867646150E+02 -0.96904051353E+01 -0.36219373498E+02  0.39640061172E+02  0.10566000000E+00 0. -1.
         22    1    1    0    0    0 -0.11157699388E+02 -0.27857745732E+02  0.38170219040E+01  0.30250915840E+02  0.00000000000E+00 0.  1.
</event>
<event>
 5    1  0.1764318E-003  0.9118800E+02  0.7818608E-02  0.1130116E+00
         25   -1    0    0    0    0  0.00000000000E+00  0.00000000000E+00  0.99999998245E-14  0.12500000000E+03  0.12500000000E+03 0.  0.
        -13    1    3    3    0    0  0.75480421094E+01  0.22125567419E+02 -0.47816427207E+02  0.53225328070E+02  0.10566000000E+00 0. -1.
         23    2    1    0    0    0  0.12246422921E+02 -0.11990620363E+02 -0.25546170738E+02  0.94237089045E+02  0.89074532058E+02 0.  0.
         13    1    3    3    0    0  0.46983808119E+01 -0.34116187782E+02  0.22270256469E+02  0.41011760975E+02  0.10566000000E+00 0.  1.
         22    1    1    0    0    0 -0.12246422921E+02  0.11990620363E+02  0.25546170738E+02  0.30762910955E+02  0.00000000000E+00 0. -1.
</event>
<event>
 5    1  0.1764318E-003  0.9118800E+02  0.7818608E-02  0.1130116E+00
         25   -1    0    0    0    0  0.00000000000E+00  0.00000000000E+00  0.99999998245E-14  0.12500000000E+03  0.12500000000E+03 0.  0.
        -13    1    3    3    0    0  0.21665085780E+02 -0.88530779115E+01 -0.28852572167E+02  0.37151514304E+02  0.10566000000E+00 0.  1.
         23    2    1    0    0    0 -0.25962619812E+02  0.12977218203E+01  0.75267459114E+01  0.97937228275E+02  0.94123892125E+02 0.  0.
         13    1    3    3    0    0 -0.47627705592E+02  0.10150799732E+02  0.36379318079E+02  0.60785713971E+02  0.10566000000E+00 0. -1.
         22    1    1    0    0    0  0.25962619812E+02 -0.12977218203E+01 -0.75267459114E+01  0.27062771725E+02  0.00000000000E+00 0. -1.
</event>
<event>
 5    1  0.1764318E-003  0.9118800E+02  0.7818608E-02  0.1130116E+00
         25   -1    0    0    0    0  0.00000000000E+00  0.00000000000E+00  0.99999998245E-14  0.12500000000E+03  0.12500000000E+03 0.  0.
        -13    1    3    3    0    0 -0.21560377871E+01 -0.44242160242E+02 -0.10140472869E+02  0.45440704175E+02  0.10566000000E+00 0. -1.
         23    2    1    0    0    0  0.60633552892E+01 -0.29584571628E+01 -0.31599004357E+02  0.92688797260E+02  0.86874618359E+02 0.  0.
         13    1    3    3    0    0  0.82193930763E+01  0.41283703080E+02 -0.21458531488E+02  0.47248093085E+02  0.10566000000E+00 0.  1.
         22    1    1    0    0    0 -0.60633552892E+01  0.29584571628E+01  0.31599004357E+02  0.32311202740E+02  0.00000000000E+00 0.  1.
</event>
<event>
 5    1  0.1764318E-003  0.9118800E+02  0.7818608E-02  0.1130116E+00
         25   -1    0    0    0    0  0.00000000000E+00  0.00000000000E+00  0.99999998245E-14  0.12500000000E+03  0.12500000000E+03 0.  0.
        -13    1    3    3    0    0  0.40398722301E+01  0.23640222601E+01 -0.54646667198E+02  0.54846864713E+02  0.10566000000E+00 0. -1.
         23    2    1    0    0    0 -0.41786134719E+01 -0.19680085981E+02 -0.20848297597E+02  0.96027286847E+02  0.91552289494E+02 0.  0.
         13    1    3    3    0    0 -0.82184857020E+01 -0.22044108241E+02  0.33798369601E+02  0.41180422134E+02  0.10566000000E+00 0.  1.
         22    1    1    0    0    0  0.41786134719E+01  0.19680085981E+02  0.20848297597E+02  0.28972713153E+02  0.00000000000E+00 0. -1.
</event>
<event>
 5    1  0.1764318E-003  0.9118800E+02  0.7818608E-02  0.1130116E+00
         25   -1    0    0    0    0  0.00000000000E+00  0.00000000000E+00  0.99999998245E-14  0.12500000000E+03  0.12500000000E+03 0.  0.
        -13    1    3    3    0    0 -0.27796920273E+02 -0.17039323360E+02 -0.18721722522E+02  0.37596826668E+02  0.10566000000E+00 0.  1.
         23    2    1    0    0    0 -0.14137578990E+01  0.30540251277E+02 -0.27195742505E+01  0.94306324046E+02  0.89171637932E+02 0.  0.
         13    1    3    3    0    0  0.26383162374E+02  0.47579574637E+02  0.16002148272E+02  0.56709497378E+02  0.10566000000E+00 0. -1.
         22    1    1    0    0    0  0.14137578990E+01 -0.30540251277E+02  0.27195742505E+01  0.30693675954E+02  0.00000000000E+00 0. -1.
</event>
<event>
 5    1  0.1764318E-003  0.9118800E+02  0.7818608E-02  0.1130116E+00
         25   -1    0    0    0    0  0.00000000000E+00  0.00000000000E+00  0.99999998245E-14  0.12500000000E+03  0.12500000000E+03 0.  0.
        -13    1    3    3    0    0  0.43081196413E+02  0.11124919097E+02  0.20417201956E+02  0.48955353221E+02  0.10566000000E+00 0. -1.
         23    2    1    0    0    0 -0.31412898033E+01  0.11466715051E+02  0.26860240475E+02  0.95626103867E+02  0.91002889881E+02 0.  0.
         13    1    3    3    0    0 -0.46222486216E+02  0.34179595478E+00  0.64430385185E+01  0.46670750646E+02  0.10566000000E+00 0.  1.
         22    1    1    0    0    0  0.31412898033E+01 -0.11466715051E+02 -0.26860240475E+02  0.29373896133E+02  0.00000000000E+00 0. -1.
</event>
<event>
 5    1  0.1764318E-003  0.9118800E+02  0.7818608E-02  0.1130116E+00
         25   -1    0    0    0    0  0.00000000000E+00  0.00000000000E+00  0.99999998245E-14  0.12500000000E+03  0.12500000000E+03 0.  0.
        -13    1    3    3    0    0  0.12149055899E+02 -0.23206878148E+02  0.23387465200E+02  0.35116142230E+02  0.10566000000E+00 0.  1.
         23    2    1    0    0    0 -0.24566266530E+02  0.50013954172E+01 -0.15452433102E+02  0.95550159659E+02  0.90898514371E+02 0.  0.
         13    1    3    3    0    0 -0.36715322429E+02  0.28208273565E+02 -0.38839898301E+02  0.60434017429E+02  0.10566000000E+00 0. -1.
         22    1    1    0    0    0  0.24566266530E+02 -0.50013954172E+01  0.15452433102E+02  0.29449840341E+02  0.00000000000E+00 0. -1.
</event>
<event>
 5    1  0.1764318E-003  0.9118800E+02  0.7818608E-02  0.1130116E+00
         25   -1    0    0    0    0  0.00000000000E+00  0.00000000000E+00  0.99999998245E-14  0.12500000000E+03  0.12500000000E+03 0.  0.
        -13    1    3    3    0    0 -0.19941948132E+02  0.46159112571E+02  0.18466181472E+02  0.53566369961E+02  0.10566000000E+00 0.  1.
         23    2    1    0    0    0  0.12438044596E+02  0.18695399339E+02  0.18311596473E+02  0.96025226917E+02  0.91549476947E+02 0.  0.
         13    1    3    3    0    0  0.32379992727E+02 -0.27463713231E+02 -0.15458499895E+00  0.42458856956E+02  0.10566000000E+00 0. -1.
         22    1    1    0    0    0 -0.12438044596E+02 -0.18695399339E+02 -0.18311596473E+02  0.28974773083E+02  0.00000000000E+00 0.  1.
</event>
<event>
 5    1  0.1764318E-003  0.9118800E+02  0.7818608E-02  0.1130116E+00
         25   -1    0    0    0    0  0.00000000000E+00  0.00000000000E+00  0.99999998245E-14  0.12500000000E+03  0.12500000000E+03 0.  0.
        -13    1    3    3    0    0  0.29632388650E+02  0.39865729875E+02 -0.29811793188E+02  0.57931934654E+02  0.10566000000E+00 0.  1.
         23    2    1    0    0    0  0.91600789686E+01  0.27509087805E+02 -0.18460965545E+00  0.96005327398E+02  0.91522302471E+02 0.  0.
         13    1    3    3    0    0 -0.20472309682E+02 -0.12356642071E+02  0.29627183533E+02  0.38073392744E+02  0.10566000000E+00 0. -1.
         22    1    1    0    0    0 -0.91600789686E+01 -0.27509087805E+02  0.18460965545E+00  0.28994672602E+02  0.00000000000E+00 0.  1.
</event>
<event>
 5    1  0.1764318E-003  0.9118800E+02  0.7818608E-02  0.1130116E+00
         25   -1    0    0    0    0  0.00000000000E+00  0.00000000000E+00  0.99999998245E-14  0.12500000000E+03  0.12500000000E+03 0.  0.
        -13    1    3    3    0    0 -0.47253288791E+02 -0.84275064467E+01  0.33456901701E+01  0.48115496186E+02  0.10566000000E+00 0. -1.
         23    2    1    0    0    0 -0.73228546317E+01 -0.30349057989E+02  0.25708623024E+01  0.93674310004E+02  0.88281240934E+02 0.  0.
         13    1    3    3    0    0  0.39930434160E+02 -0.21921551542E+02 -0.77482786770E+00  0.45558813817E+02  0.10566000000E+00 0.  1.
         22    1    1    0    0    0  0.73228546317E+01  0.30349057989E+02 -0.25708623024E+01  0.31325689996E+02  0.00000000000E+00 0. -1.
</event>
<event>
 5    1  0.1764318E-003  0.9118800E+02  0.7818608E-02  0.1130116E+00
         25   -1    0    0    0    0  0.00000000000E+00  0.00000000000E+00  0.99999998245E-14  0.12500000000E+03  0.12500000000E+03 0.  0.
        -13    1    3    3    0    0 -0.31964475609E+02 -0.45526127444E+02 -0.11318384162E+02  0.56766829796E+02  0.10566000000E+00 0.  1.
         23    2    1    0    0    0 -0.21959589906E+02 -0.16614066793E+02  0.11727885073E+02  0.95070180546E+02  0.90236052311E+02 0.  0.
         13    1    3    3    0    0  0.10004885703E+02  0.28912060651E+02  0.23046269234E+02  0.38303350750E+02  0.10566000000E+00 0. -1.
         22    1    1    0    0    0  0.21959589906E+02  0.16614066793E+02 -0.11727885073E+02  0.29929819454E+02  0.00000000000E+00 0. -1.
</event>
<event>
 5    1  0.1764318E-003  0.9118800E+02  0.7818608E-02  0.1130116E+00
         25   -1    0    0    0    0  0.00000000000E+00  0.00000000000E+00  0.99999998245E-14  0.12500000000E+03  0.12500000000E+03 0.  0.
        -13    1    3    3    0    0  0.17985411372E+02  0.61695538485E+01 -0.26537358287E+02  0.32646300951E+02  0.10566000000E+00 0.  1.
         23    2    1    0    0    0 -0.18998777049E+02 -0.15680614471E-01  0.23249769046E+02  0.94974918220E+02  0.90103993002E+02 0.  0.
         13    1    3    3    0    0 -0.36984188421E+02 -0.61852344630E+01  0.49787127333E+02  0.62328617268E+02  0.10566000000E+00 0. -1.
         22    1    1    0    0    0  0.18998777049E+02  0.15680614471E-01 -0.23249769046E+02  0.30025081780E+02  0.00000000000E+00 0. -1.
</event>
<event>
 5    1  0.1764318E-003  0.9118800E+02  0.7818608E-02  0.1130116E+00
         25   -1    0    0    0    0  0.00000000000E+00  0.00000000000E+00  0.99999998245E-14  0.12500000000E+03  0.12500000000E+03 0.  0.
        -13    1    3    3    0    0 -0.12716949943E+02 -0.54586964728E+02  0.39725024104E+01  0.56189407129E+02  0.10566000000E+00 0.  1.
         23    2    1    0    0    0 -0.22514820892E+02 -0.14640852020E+02  0.64006143171E+01  0.97391313481E+02  0.93396083271E+02 0.  0.
         13    1    3    3    0    0 -0.97978709483E+01  0.39946112708E+02  0.24281119067E+01  0.41201906352E+02  0.10566000000E+00 0. -1.
         22    1    1    0    0    0  0.22514820892E+02  0.14640852020E+02 -0.64006143171E+01  0.27608686519E+02  0.00000000000E+00 0.  1.
</event>
<event>
 5    1  0.1764318E-003  0.9118800E+02  0.7818608E-02  0.1130116E+00
         25   -1    0    0    0    0  0.00000000000E+00  0.00000000000E+00  0.99999998245E-14  0.12500000000E+03  0.12500000000E+03 0.  0.
        -13    1    3    3    0    0  0.19327711024E+00  0.26506590716E+02  0.54035878279E+02  0.60187407427E+02  0.10566000000E+00 0. -1.
         23    2    1    0    0    0 -0.75533304368E+01  0.24951588275E+02  0.31255237042E+02  0.84299577389E+02  0.73823399727E+02 0.  0.
         13    1    3    3    0    0 -0.77466075470E+01 -0.15550024406E+01 -0.22780641237E+02  0.24112169962E+02  0.10566000000E+00 0.  1.
         22    1    1    0    0    0  0.75533304368E+01 -0.24951588275E+02 -0.31255237042E+02  0.40700422611E+02  0.00000000000E+00 0. -1.
</event>
<event>
 5    1  0.1764318E-003  0.9118800E+02  0.7818608E-02  0.1130116E+00
         25   -1    0    0    0    0  0.00000000000E+00  0.00000000000E+00  0.99999998245E-14  0.12500000000E+03  0.12500000000E+03 0.  0.
        -13    1    3    3    0    0 -0.21003611915E+02  0.24570142710E+02 -0.30566951908E+02  0.44488125823E+02  0.10566000000E+00 0.  1.
         23    2    1    0    0    0 -0.50756033814E+01  0.30907021741E+02  0.12833707369E+02  0.91151664924E+02  0.84634013440E+02 0.  0.
         13    1    3    3    0    0  0.15928008533E+02  0.63368790309E+01  0.43400659277E+02  0.46663539101E+02  0.10566000000E+00 0. -1.
         22    1    1    0    0    0  0.50756033814E+01 -0.30907021741E+02 -0.12833707369E+02  0.33848335076E+02  0.00000000000E+00 0.  1.
</event>
<event>
 5    1  0.1764318E-003  0.9118800E+02  0.7818608E-02  0.1130116E+00
         25   -1    0    0    0    0  0.00000000000E+00  0.00000000000E+00  0.99999998245E-14  0.12500000000E+03  0.12500000000E+03 0.  0.
        -13    1    3    3    0    0  0.29225448259E+02 -0.16932658093E+02  0.19381831700E+02  0.38942371526E+02  0.10566000000E+00 0.  1.
         23    2    1    0    0    0 -0.20489102732E+02 -0.17155145751E+02 -0.97383270332E+01  0.96558175692E+02  0.92274286359E+02 0.  0.
         13    1    3    3    0    0 -0.49714550991E+02 -0.22248765821E+00 -0.29120158733E+02  0.57615804166E+02  0.10566000000E+00 0. -1.
         22    1    1    0    0    0  0.20489102732E+02  0.17155145751E+02  0.97383270332E+01  0.28441824308E+02  0.00000000000E+00 0. -1.
</event>
<event>
 5    1  0.1764318E-003  0.9118800E+02  0.7818608E-02  0.1130116E+00
         25   -1    0    0    0    0  0.00000000000E+00  0.00000000000E+00  0.99999998245E-14  0.12500000000E+03  0.12500000000E+03 0.  0.
        -13    1    3    3    0    0  0.34923833035E+02  0.29019620543E+02 -0.32018082523E+02  0.55560608913E+02  0.10566000000E+00 0.  1.
         23    2    1    0    0    0  0.17391070045E+00  0.25306495201E+02 -0.20730203027E+02  0.92286237425E+02  0.86293449092E+02 0.  0.
         13    1    3    3    0    0 -0.34749922334E+02 -0.37131253421E+01  0.11287879496E+02  0.36725628512E+02  0.10566000000E+00 0. -1.
         22    1    1    0    0    0 -0.17391070045E+00 -0.25306495201E+02  0.20730203027E+02  0.32713762575E+02  0.00000000000E+00 0.  1.
</event>
<event>
 5    1  0.1764318E-003  0.9118800E+02  0.7818608E-02  0.1130116E+00
         25   -1    0    0    0    0  0.00000000000E+00  0.00000000000E+00  0.99999998245E-14  0.12500000000E+03  0.12500000000E+03 0.  0.
        -13    1    3    3    0    0 -0.17004304168E+02 -0.28160726662E+02  0.29835773867E+02  0.44411231155E+02  0.10566000000E+00 0.  1.
         23    2    1    0    0    0 -0.76041535558E+01  0.19828406233E+02  0.22843815028E+02  0.93809797531E+02  0.88472873711E+02 0.  0.
         13    1    3    3    0    0  0.94001506125E+01  0.47989132895E+02 -0.69919588392E+01  0.49398566376E+02  0.10566000000E+00 0. -1.
         22    1    1    0    0    0  0.76041535558E+01 -0.19828406233E+02 -0.22843815028E+02  0.31190202469E+02  0.00000000000E+00 0. -1.
</event>
<event>
 5    1  0.1764318E-003  0.9118800E+02  0.7818608E-02  0.1130116E+00
         25   -1    0    0    0    0  0.00000000000E+00  0.00000000000E+00  0.99999998245E-14  0.12500000000E+03  0.12500000000E+03 0.  0.
        -13    1    3    3    0    0 -0.20621012272E+02 -0.14295862010E+02 -0.39274800724E+02  0.46605996971E+02  0.10566000000E+00 0.  1.
         23    2    1    0    0    0  0.10145480282E+02 -0.28011887348E+02 -0.47688309663E+01  0.94828186138E+02  0.89900203195E+02 0.  0.
         13    1    3    3    0    0  0.30766492554E+02 -0.13716025338E+02  0.34505969758E+02  0.48222189167E+02  0.10566000000E+00 0. -1.
         22    1    1    0    0    0 -0.10145480282E+02  0.28011887348E+02  0.47688309663E+01  0.30171813862E+02  0.00000000000E+00 0. -1.
</event>
<event>
 5    1  0.1764318E-003  0.9118800E+02  0.7818608E-02  0.1130116E+00
         25   -1    0    0    0    0  0.00000000000E+00  0.00000000000E+00  0.99999998245E-14  0.12500000000E+03  0.12500000000E+03 0.  0.
        -13    1    3    3    0    0  0.19623125058E+02  0.21479102013E+01  0.85201520188E+01  0.21500807188E+02  0.10566000000E+00 0.  1.
         23    2    1    0    0    0 -0.33518874805E+02 -0.14671970662E+01 -0.23854921349E+02  0.83832963333E+02  0.73029041026E+02 0.  0.
         13    1    3    3    0    0 -0.53141999863E+02 -0.36151072675E+01 -0.32375073368E+02  0.62332156144E+02  0.10566000000E+00 0. -1.
         22    1    1    0    0    0  0.33518874805E+02  0.14671970662E+01  0.23854921349E+02  0.41167036667E+02  0.00000000000E+00 0. -1.
</event>
<event>
 5    1  0.1764318E-003  0.9118800E+02  0.7818608E-02  0.1130116E+00
         25   -1    0    0    0    0  0.00000000000E+00  0.00000000000E+00  0.99999998245E-14  0.12500000000E+03  0.12500000000E+03 0.  0.
        -13    1    3    3    0    0 -0.29354206784E+02  0.88663081869E+01 -0.12703406435E+02  0.33191393099E+02  0.10566000000E+00 0.  1.
         23    2    1    0    0    0  0.23112796046E+02 -0.11319838911E+02  0.14301172001E+02  0.95557452307E+02  0.90908542376E+02 0.  0.
         13    1    3    3    0    0  0.52467002830E+02 -0.20186147098E+02  0.27004578435E+02  0.62366059208E+02  0.10566000000E+00 0. -1.
         22    1    1    0    0    0 -0.23112796046E+02  0.11319838911E+02 -0.14301172001E+02  0.29442547693E+02  0.00000000000E+00 0. -1.
</event>
<event>
 5    1  0.1764318E-003  0.9118800E+02  0.7818608E-02  0.1130116E+00
         25   -1    0    0    0    0  0.00000000000E+00  0.00000000000E+00  0.99999998245E-14  0.12500000000E+03  0.12500000000E+03 0.  0.
        -13    1    3    3    0    0 -0.33505359568E+02 -0.23841402154E+02  0.12382697519E+02  0.42946058473E+02  0.10566000000E+00 0.  1.
         23    2    1    0    0    0 -0.50502283469E+01  0.18964780117E+02  0.22298571137E+02  0.95294883168E+02  0.90546787862E+02 0.  0.
         13    1    3    3    0    0  0.28455131221E+02  0.42806182270E+02  0.99158736176E+01  0.52348824696E+02  0.10566000000E+00 0. -1.
         22    1    1    0    0    0  0.50502283469E+01 -0.18964780117E+02 -0.22298571137E+02  0.29705116832E+02  0.00000000000E+00 0. -1.
</event>
<event>
 5    1  0.1764318E-003  0.9118800E+02  0.7818608E-02  0.1130116E+00
         25   -1    0    0    0    0  0.00000000000E+00  0.00000000000E+00  0.99999998245E-14  0.12500000000E+03  0.12500000000E+03 0.  0.
        -13    1    3    3    0    0 -0.28156603616E+02 -0.46268944765E+02  0.27191327386E+02  0.60605189760E+02  0.10566000000E+00 0. -1.
         23    2    1    0    0    0 -0.35180138305E+01 -0.22715160333E+02  0.17702826555E+02  0.95987158045E+02  0.91497483634E+02 0.  0.
         13    1    3    3    0    0  0.24638589786E+02  0.23553784432E+02 -0.94885008312E+01  0.35381968285E+02  0.10566000000E+00 0.  1.
         22    1    1    0    0    0  0.35180138305E+01  0.22715160333E+02 -0.17702826555E+02  0.29012841955E+02  0.00000000000E+00 0. -1.
</event>
<event>
 5    1  0.1764318E-003  0.9118800E+02  0.7818608E-02  0.1130116E+00
         25   -1    0    0    0    0  0.00000000000E+00  0.00000000000E+00  0.99999998245E-14  0.12500000000E+03  0.12500000000E+03 0.  0.
        -13    1    3    3    0    0  0.40683144012E+02 -0.96287048078E+01  0.32308484214E+02  0.52836346195E+02  0.10566000000E+00 0.  1.
         23    2    1    0    0    0  0.23203272732E+01  0.71587433632E+01  0.29221320563E+02  0.94825224099E+02  0.89896084591E+02 0.  0.
         13    1    3    3    0    0 -0.38362816739E+02  0.16787448171E+02 -0.30871636508E+01  0.41988877905E+02  0.10566000000E+00 0. -1.
         22    1    1    0    0    0 -0.23203272732E+01 -0.71587433632E+01 -0.29221320563E+02  0.30174775901E+02  0.00000000000E+00 0.  1.
</event>
<event>
 5    1  0.1764318E-003  0.9118800E+02  0.7818608E-02  0.1130116E+00
         25   -1    0    0    0    0  0.00000000000E+00  0.00000000000E+00  0.99999998245E-14  0.12500000000E+03  0.12500000000E+03 0.  0.
        -13    1    3    3    0    0  0.31080310269E+02  0.16428527782E+02  0.23846560537E+01  0.35236060507E+02  0.10566000000E+00 0.  1.
         23    2    1    0    0    0 -0.20357479973E+02 -0.67659394956E+01 -0.19743138958E+02  0.95845301168E+02  0.91303479079E+02 0.  0.
         13    1    3    3    0    0 -0.51437790242E+02 -0.23194467278E+02 -0.22127795011E+02  0.60609240660E+02  0.10566000000E+00 0. -1.
         22    1    1    0    0    0  0.20357479973E+02  0.67659394956E+01  0.19743138958E+02  0.29154698832E+02  0.00000000000E+00 0. -1.
</event>
<event>
 5    1  0.1764318E-003  0.9118800E+02  0.7818608E-02  0.1130116E+00
         25   -1    0    0    0    0  0.00000000000E+00  0.00000000000E+00  0.99999998245E-14  0.12500000000E+03  0.12500000000E+03 0.  0.
        -13    1    3    3    0    0  0.27935168497E+02  0.23468769413E+02 -0.64979025201E+01  0.37059285988E+02  0.10566000000E+00 0. -1.
         23    2    1    0    0    0 -0.76005670888E+01 -0.74496809776E+01  0.27738057140E+02  0.95290301573E+02  0.90540462741E+02 0.  0.
         13    1    3    3    0    0 -0.35535735586E+02 -0.30918450391E+02  0.34235959660E+02  0.58231015585E+02  0.10566000000E+00 0.  1.
         22    1    1    0    0    0  0.76005670888E+01  0.74496809776E+01 -0.27738057140E+02  0.29709698427E+02  0.00000000000E+00 0.  1.
</event>
<event>
 5    1  0.1764318E-003  0.9118800E+02  0.7818608E-02  0.1130116E+00
         25   -1    0    0    0    0  0.00000000000E+00  0.00000000000E+00  0.99999998245E-14  0.12500000000E+03  0.12500000000E+03 0.  0.
        -13    1    3    3    0    0 -0.78408316742E+01  0.12616688064E+01  0.56308172956E+02  0.56865560361E+02  0.10566000000E+00 0.  1.
         23    2    1    0    0    0  0.57624786040E+01 -0.15635344114E+02  0.25088517265E+02  0.94881835319E+02  0.89974767739E+02 0.  0.
         13    1    3    3    0    0  0.13603310278E+02 -0.16897012920E+02 -0.31219655691E+02  0.38016274958E+02  0.10566000000E+00 0. -1.
         22    1    1    0    0    0 -0.57624786040E+01  0.15635344114E+02 -0.25088517265E+02  0.30118164681E+02  0.00000000000E+00 0.  1.
</event>
<event>
 5    1  0.1764318E-003  0.9118800E+02  0.7818608E-02  0.1130116E+00
         25   -1    0    0    0    0  0.00000000000E+00  0.00000000000E+00  0.99999998245E-14  0.12500000000E+03  0.12500000000E+03 0.  0.
        -13    1    3    3    0    0  0.14343862276E+02  0.12436886815E+02  0.29033835195E+02  0.34690017135E+02  0.10566000000E+00 0.  1.
         23    2    1    0    0    0 -0.18802057427E+02 -0.17299213927E+02 -0.13356029009E+02  0.96170090585E+02  0.91747057971E+02 0.  0.
         13    1    3    3    0    0 -0.33145919703E+02 -0.29736100741E+02 -0.42389864204E+02  0.61480073451E+02  0.10566000000E+00 0. -1.
         22    1    1    0    0    0  0.18802057427E+02  0.17299213927E+02  0.13356029009E+02  0.28829909415E+02  0.00000000000E+00 0. -1.
</event>
<event>
 5    1  0.1764318E-003  0.9118800E+02  0.7818608E-02  0.1130116E+00
         25   -1    0    0    0    0  0.00000000000E+00  0.00000000000E+00  0.99999998245E-14  0.12500000000E+03  0.12500000000E+03 0.  0.
        -13    1    3    3    0    0  0.83940928159E+01  0.39782309971E+02 -0.31889706498E+02  0.51672599368E+02  0.10566000000E+00 0. -1.
         23    2    1    0    0    0  0.25852070258E+02  0.14787394883E+02 -0.81477803425E+00  0.95206369015E+02  0.90424511355E+02 0.  0.
         13    1    3    3    0    0  0.17457977442E+02 -0.24994915088E+02  0.31074928464E+02  0.43533769647E+02  0.10566000000E+00 0.  1.
         22    1    1    0    0    0 -0.25852070258E+02 -0.14787394883E+02  0.81477803425E+00  0.29793630985E+02  0.00000000000E+00 0. -1.
</event>
<event>
 5    1  0.1764318E-003  0.9118800E+02  0.7818608E-02  0.1130116E+00
         25   -1    0    0    0    0  0.00000000000E+00  0.00000000000E+00  0.99999998245E-14  0.12500000000E+03  0.12500000000E+03 0.  0.
        -13    1    3    3    0    0 -0.27212180425E+02 -0.31328117504E+02 -0.57115429290E+01  0.41887785768E+02  0.10566000000E+00 0.  1.
         23    2    1    0    0    0 -0.19484030193E+02  0.21697178822E+02 -0.45474058809E+01  0.95486038869E+02  0.90810295217E+02 0.  0.
         13    1    3    3    0    0  0.77281502326E+01  0.53025296326E+02  0.11641370482E+01  0.53598253102E+02  0.10566000000E+00 0. -1.
         22    1    1    0    0    0  0.19484030193E+02 -0.21697178822E+02  0.45474058809E+01  0.29513961131E+02  0.00000000000E+00 0. -1.
</event>
<event>
 5    1  0.1764318E-003  0.9118800E+02  0.7818608E-02  0.1130116E+00
         25   -1    0    0    0    0  0.00000000000E+00  0.00000000000E+00  0.99999998245E-14  0.12500000000E+03  0.12500000000E+03 0.  0.
        -13    1    3    3    0    0 -0.32275950928E+02  0.10375510765E+02 -0.21658749831E+02  0.40230595822E+02  0.10566000000E+00 0.  1.
         23    2    1    0    0    0  0.67429818317E+01  0.26310745674E+02  0.13083973186E+02  0.94851807746E+02  0.89933041405E+02 0.  0.
         13    1    3    3    0    0  0.39018932760E+02  0.15935234909E+02  0.34742723017E+02  0.54621211923E+02  0.10566000000E+00 0. -1.
         22    1    1    0    0    0 -0.67429818317E+01 -0.26310745674E+02 -0.13083973186E+02  0.30148192254E+02  0.00000000000E+00 0. -1.
</event>
<event>
 5    1  0.1764318E-003  0.9118800E+02  0.7818608E-02  0.1130116E+00
         25   -1    0    0    0    0  0.00000000000E+00  0.00000000000E+00  0.99999998245E-14  0.12500000000E+03  0.12500000000E+03 0.  0.
        -13    1    3    3    0    0  0.38752260621E+02 -0.53567531716E+01  0.40776463880E+01  0.39332821814E+02  0.10566000000E+00 0. -1.
         23    2    1    0    0    0 -0.12199101996E+02 -0.26288649826E+02 -0.61898821186E+01  0.95365124603E+02  0.90643704418E+02 0.  0.
         13    1    3    3    0    0 -0.50951362617E+02 -0.20931896654E+02 -0.10267528507E+02  0.56032302788E+02  0.10566000000E+00 0.  1.
         22    1    1    0    0    0  0.12199101996E+02  0.26288649826E+02  0.61898821186E+01  0.29634875397E+02  0.00000000000E+00 0.  1.
</event>
<event>
 5    1  0.1764318E-003  0.9118800E+02  0.7818608E-02  0.1130116E+00
         25   -1    0    0    0    0  0.00000000000E+00  0.00000000000E+00  0.99999998245E-14  0.12500000000E+03  0.12500000000E+03 0.  0.
        -13    1    3    3    0    0  0.82644401704E+01 -0.31045914148E+02 -0.15456672444E+02  0.35652063667E+02  0.10566000000E+00 0. -1.
         23    2    1    0    0    0 -0.20362219508E+02  0.19447112805E+02  0.32988575118E+01  0.96650526625E+02  0.92399305496E+02 0.  0.
         13    1    3    3    0    0 -0.28626659678E+02  0.50493026954E+02  0.18755529956E+02  0.60998462958E+02  0.10566000000E+00 0.  1.
         22    1    1    0    0    0  0.20362219508E+02 -0.19447112805E+02 -0.32988575118E+01  0.28349473375E+02  0.00000000000E+00 0.  1.
</event>
<event>
 5    1  0.1764318E-003  0.9118800E+02  0.7818608E-02  0.1130116E+00
         25   -1    0    0    0    0  0.00000000000E+00  0.00000000000E+00  0.99999998245E-14  0.12500000000E+03  0.12500000000E+03 0.  0.
        -13    1    3    3    0    0 -0.14356192917E+02  0.74931854096E+00 -0.44964883294E+02  0.47207135552E+02  0.10566000000E+00 0.  1.
         23    2    1    0    0    0 -0.26196763217E+02  0.81558272516E+01  0.32194123830E+01  0.97374784393E+02  0.93373958352E+02 0.  0.
         13    1    3    3    0    0 -0.11840570300E+02  0.74065087107E+01  0.48184295677E+02  0.50167648841E+02  0.10566000000E+00 0. -1.
         22    1    1    0    0    0  0.26196763217E+02 -0.81558272516E+01 -0.32194123830E+01  0.27625215607E+02  0.00000000000E+00 0. -1.
</event>
<event>
 5    1  0.1764318E-003  0.9118800E+02  0.7818608E-02  0.1130116E+00
         25   -1    0    0    0    0  0.00000000000E+00  0.00000000000E+00  0.99999998245E-14  0.12500000000E+03  0.12500000000E+03 0.  0.
        -13    1    3    3    0    0  0.23713782491E+02  0.43994459150E+02  0.30872519932E+02  0.58745038658E+02  0.10566000000E+00 0.  1.
         23    2    1    0    0    0 -0.33019635761E+01  0.23466678246E+02  0.18770887496E+02  0.94768655856E+02  0.89817392324E+02 0.  0.
         13    1    3    3    0    0 -0.27015746067E+02 -0.20527780904E+02 -0.12101632436E+02  0.36023617198E+02  0.10566000000E+00 0. -1.
         22    1    1    0    0    0  0.33019635761E+01 -0.23466678246E+02 -0.18770887496E+02  0.30231344144E+02  0.00000000000E+00 0.  1.
</event>
<event>
 5    1  0.1764318E-003  0.9118800E+02  0.7818608E-02  0.1130116E+00
         25   -1    0    0    0    0  0.00000000000E+00  0.00000000000E+00  0.99999998245E-14  0.12500000000E+03  0.12500000000E+03 0.  0.
        -13    1    3    3    0    0 -0.16443453540E+02  0.16084133985E+01 -0.28055231050E+02  0.32558889896E+02  0.10566000000E+00 0. -1.
         23    2    1    0    0    0  0.22473133513E+02 -0.33500347165E+01  0.20094496625E+02  0.94667620319E+02  0.89676669652E+02 0.  0.
         13    1    3    3    0    0  0.38916587053E+02 -0.49584481150E+01  0.48149727675E+02  0.62108730423E+02  0.10566000000E+00 0.  1.
         22    1    1    0    0    0 -0.22473133513E+02  0.33500347165E+01 -0.20094496625E+02  0.30332379681E+02  0.00000000000E+00 0.  1.
</event>
<event>
 5    1  0.1764318E-003  0.9118800E+02  0.7818608E-02  0.1130116E+00
         25   -1    0    0    0    0  0.00000000000E+00  0.00000000000E+00  0.99999998245E-14  0.12500000000E+03  0.12500000000E+03 0.  0.
        -13    1    3    3    0    0 -0.19136981868E+02  0.31213034570E+02 -0.39109877540E+02  0.53573046276E+02  0.10566000000E+00 0. -1.
         23    2    1    0    0    0  0.14087311766E+02  0.20396256560E+02 -0.17504951052E+02  0.94653946784E+02  0.89657608133E+02 0.  0.
         13    1    3    3    0    0  0.33224293634E+02 -0.10816778009E+02  0.21604926488E+02  0.41080900508E+02  0.10566000000E+00 0.  1.
         22    1    1    0    0    0 -0.14087311766E+02 -0.20396256560E+02  0.17504951052E+02  0.30346053216E+02  0.00000000000E+00 0. -1.
</event>
<event>
 5    1  0.1764318E-003  0.9118800E+02  0.7818608E-02  0.1130116E+00
         25   -1    0    0    0    0  0.00000000000E+00  0.00000000000E+00  0.99999998245E-14  0.12500000000E+03  0.12500000000E+03 0.  0.
        -13    1    3    3    0    0  0.23253029404E+02  0.42211955459E+02  0.22716663702E+02  0.53278612350E+02  0.10566000000E+00 0.  1.
         23    2    1    0    0    0 -0.11632606091E+02  0.18544955576E+02  0.19711775275E+02  0.95541775575E+02  0.90886984182E+02 0.  0.
         13    1    3    3    0    0 -0.34885635495E+02 -0.23666999883E+02 -0.30048884267E+01  0.42263163225E+02  0.10566000000E+00 0. -1.
         22    1    1    0    0    0  0.11632606091E+02 -0.18544955576E+02 -0.19711775275E+02  0.29458224425E+02  0.00000000000E+00 0.  1.
</event>
<event>
 5    1  0.1764318E-003  0.9118800E+02  0.7818608E-02  0.1130116E+00
         25   -1    0    0    0    0  0.00000000000E+00  0.00000000000E+00  0.99999998245E-14  0.12500000000E+03  0.12500000000E+03 0.  0.
        -13    1    3    3    0    0 -0.11798503484E+02 -0.40841766947E+01  0.31241785178E+02  0.33644397585E+02  0.10566000000E+00 0. -1.
         23    2    1    0    0    0  0.15167291715E+02 -0.16370577395E+01 -0.24799444327E+02  0.95884039859E+02  0.91356499302E+02 0.  0.
         13    1    3    3    0    0  0.26965795198E+02  0.24471189553E+01 -0.56041229505E+02  0.62239642274E+02  0.10566000000E+00 0.  1.
         22    1    1    0    0    0 -0.15167291715E+02  0.16370577395E+01  0.24799444327E+02  0.29115960141E+02  0.00000000000E+00 0.  1.
</event>
<event>
 5    1  0.1764318E-003  0.9118800E+02  0.7818608E-02  0.1130116E+00
         25   -1    0    0    0    0  0.00000000000E+00  0.00000000000E+00  0.99999998245E-14  0.12500000000E+03  0.12500000000E+03 0.  0.
        -13    1    3    3    0    0 -0.20585518673E+02  0.86167167543E+01 -0.51295209274E+02  0.55939440873E+02  0.10566000000E+00 0.  1.
         23    2    1    0    0    0 -0.23551128119E+02 -0.57846701836E+01 -0.11905547335E+02  0.97984076877E+02  0.94186088247E+02 0.  0.
         13    1    3    3    0    0 -0.29656094461E+01 -0.14401386938E+02  0.39389661938E+02  0.42044636005E+02  0.10566000000E+00 0. -1.
         22    1    1    0    0    0  0.23551128119E+02  0.57846701836E+01  0.11905547335E+02  0.27015923123E+02  0.00000000000E+00 0.  1.
</event>
<event>
 5    1  0.1764318E-003  0.9118800E+02  0.7818608E-02  0.1130116E+00
         25   -1    0    0    0    0  0.00000000000E+00  0.00000000000E+00  0.99999998245E-14  0.12500000000E+03  0.12500000000E+03 0.  0.
        -13    1    3    3    0    0 -0.15518284792E+02  0.21372861188E+02 -0.25046949605E+02  0.36400236357E+02  0.10566000000E+00 0.  1.
         23    2    1    0    0    0 -0.78854418379E+01 -0.51218288864E+01  0.27606490367E+02  0.95836124494E+02  0.91290914792E+02 0.  0.
         13    1    3    3    0    0  0.76328429546E+01 -0.26494690075E+02  0.52653439972E+02  0.59435888137E+02  0.10566000000E+00 0. -1.
         22    1    1    0    0    0  0.78854418379E+01  0.51218288864E+01 -0.27606490367E+02  0.29163875506E+02  0.00000000000E+00 0. -1.
</event>
<event>
 5    1  0.1764318E-003  0.9118800E+02  0.7818608E-02  0.1130116E+00
         25   -1    0    0    0    0  0.00000000000E+00  0.00000000000E+00  0.99999998245E-14  0.12500000000E+03  0.12500000000E+03 0.  0.
        -13    1    3    3    0    0  0.11347076118E+01 -0.27367550408E+01  0.31424372621E+02  0.31563899445E+02  0.10566000000E+00 0. -1.
         23    2    1    0    0    0 -0.18383079875E+02  0.21040676633E+02 -0.19408561890E+02  0.90980300215E+02  0.84380537173E+02 0.  0.
         13    1    3    3    0    0 -0.19517787486E+02  0.23777431673E+02 -0.50832934511E+02  0.59416400770E+02  0.10566000000E+00 0.  1.
         22    1    1    0    0    0  0.18383079875E+02 -0.21040676633E+02  0.19408561890E+02  0.34019699785E+02  0.00000000000E+00 0.  1.
</event>
<event>
 5    1  0.1764318E-003  0.9118800E+02  0.7818608E-02  0.1130116E+00
         25   -1    0    0    0    0  0.00000000000E+00  0.00000000000E+00  0.99999998245E-14  0.12500000000E+03  0.12500000000E+03 0.  0.
        -13    1    3    3    0    0 -0.32860567853E+01  0.16116987106E+02  0.44176749121E+02  0.47139704809E+02  0.10566000000E+00 0. -1.
         23    2    1    0    0    0 -0.69150453718E+01  0.27655743740E+02 -0.34557274381E+01  0.96284149561E+02  0.91902325271E+02 0.  0.
         13    1    3    3    0    0 -0.36289885865E+01  0.11538756634E+02 -0.47632476559E+02  0.49144444752E+02  0.10566000000E+00 0.  1.
         22    1    1    0    0    0  0.69150453718E+01 -0.27655743740E+02  0.34557274381E+01  0.28715850439E+02  0.00000000000E+00 0. -1.
</event>
<event>
 5    1  0.1764318E-003  0.9118800E+02  0.7818608E-02  0.1130116E+00
         25   -1    0    0    0    0  0.00000000000E+00  0.00000000000E+00  0.99999998245E-14  0.12500000000E+03  0.12500000000E+03 0.  0.
        -13    1    3    3    0    0  0.50838340638E+01 -0.35146864103E+02  0.11411470236E+02  0.37301209659E+02  0.10566000000E+00 0. -1.
         23    2    1    0    0    0 -0.11321426882E+01  0.14986320457E+02 -0.22353810628E+02  0.98063697405E+02  0.94291698209E+02 0.  0.
         13    1    3    3    0    0 -0.62159767520E+01  0.50133184561E+02 -0.33765280864E+02  0.60762487745E+02  0.10566000000E+00 0.  1.
         22    1    1    0    0    0  0.11321426882E+01 -0.14986320457E+02  0.22353810628E+02  0.26936302595E+02  0.00000000000E+00 0.  1.
</event>
<event>
 5    1  0.1764318E-003  0.9118800E+02  0.7818608E-02  0.1130116E+00
         25   -1    0    0    0    0  0.00000000000E+00  0.00000000000E+00  0.99999998245E-14  0.12500000000E+03  0.12500000000E+03 0.  0.
        -13    1    3    3    0    0 -0.23663967347E+02  0.37215684372E+02 -0.11974533009E+02  0.45698918135E+02  0.10566000000E+00 0. -1.
         23    2    1    0    0    0 -0.16791431704E+02 -0.13431941425E+02 -0.17725231836E+02  0.97133298136E+02  0.93050118399E+02 0.  0.
         13    1    3    3    0    0  0.68725356422E+01 -0.50647625798E+02 -0.57506988270E+01  0.51434380001E+02  0.10566000000E+00 0.  1.
         22    1    1    0    0    0  0.16791431704E+02  0.13431941425E+02  0.17725231836E+02  0.27866701864E+02  0.00000000000E+00 0. -1.
</event>
<event>
 5    1  0.1764318E-003  0.9118800E+02  0.7818608E-02  0.1130116E+00
         25   -1    0    0    0    0  0.00000000000E+00  0.00000000000E+00  0.99999998245E-14  0.12500000000E+03  0.12500000000E+03 0.  0.
        -13    1    3    3    0    0  0.48470410932E+02 -0.18118714838E+02 -0.67533060767E+01  0.52185121158E+02  0.10566000000E+00 0. -1.
         23    2    1    0    0    0  0.19227745900E+02  0.10786243782E+02  0.14640285630E+02  0.98535169929E+02  0.94914658944E+02 0.  0.
         13    1    3    3    0    0 -0.29242665031E+02  0.28904958620E+02  0.21393591706E+02  0.46350048771E+02  0.10566000000E+00 0.  1.
         22    1    1    0    0    0 -0.19227745900E+02 -0.10786243782E+02 -0.14640285630E+02  0.26464830071E+02  0.00000000000E+00 0. -1.
</event>
<event>
 5    1  0.1764318E-003  0.9118800E+02  0.7818608E-02  0.1130116E+00
         25   -1    0    0    0    0  0.00000000000E+00  0.00000000000E+00  0.99999998245E-14  0.12500000000E+03  0.12500000000E+03 0.  0.
        -13    1    3    3    0    0 -0.38894528182E+02 -0.91809683384E+01 -0.17914042033E+02  0.43794960533E+02  0.10566000000E+00 0.  1.
         23    2    1    0    0    0 -0.17453637409E+02  0.16937123331E+02  0.19219170177E+02  0.94002062846E+02  0.88744102404E+02 0.  0.
         13    1    3    3    0    0  0.21440890773E+02  0.26118091669E+02  0.37133212210E+02  0.50207102313E+02  0.10566000000E+00 0. -1.
         22    1    1    0    0    0  0.17453637409E+02 -0.16937123331E+02 -0.19219170177E+02  0.30997937154E+02  0.00000000000E+00 0. -1.
</event>
<event>
 5    1  0.1764318E-003  0.9118800E+02  0.7818608E-02  0.1130116E+00
         25   -1    0    0    0    0  0.00000000000E+00  0.00000000000E+00  0.99999998245E-14  0.12500000000E+03  0.12500000000E+03 0.  0.
        -13    1    3    3    0    0  0.26115057916E+02 -0.19713025704E+02 -0.95726739366E+01  0.34091742148E+02  0.10566000000E+00 0. -1.
         23    2    1    0    0    0 -0.17058894817E+02  0.67179859380E+01  0.23972939459E+02  0.94819889766E+02  0.89888666925E+02 0.  0.
         13    1    3    3    0    0 -0.43173952733E+02  0.26431011642E+02  0.33545613396E+02  0.60728147618E+02  0.10566000000E+00 0.  1.
         22    1    1    0    0    0  0.17058894817E+02 -0.67179859380E+01 -0.23972939459E+02  0.30180110234E+02  0.00000000000E+00 0.  1.
</event>
<event>
 5    1  0.1764318E-003  0.9118800E+02  0.7818608E-02  0.1130116E+00
         25   -1    0    0    0    0  0.00000000000E+00  0.00000000000E+00  0.99999998245E-14  0.12500000000E+03  0.12500000000E+03 0.  0.
        -13    1    3    3    0    0  0.36631020550E+02 -0.25846791485E+02 -0.71508922691E+01  0.45398620253E+02  0.10566000000E+00 0.  1.
         23    2    1    0    0    0  0.22858334576E+01  0.12594747844E+01 -0.30087557174E+02  0.94799463448E+02  0.89860257412E+02 0.  0.
         13    1    3    3    0    0 -0.34345187092E+02  0.27106266270E+02 -0.22936664904E+02  0.49400843196E+02  0.10566000000E+00 0. -1.
         22    1    1    0    0    0 -0.22858334576E+01 -0.12594747844E+01  0.30087557174E+02  0.30200536552E+02  0.00000000000E+00 0. -1.
</event>
<event>
 5    1  0.1764318E-003  0.9118800E+02  0.7818608E-02  0.1130116E+00
         25   -1    0    0    0    0  0.00000000000E+00  0.00000000000E+00  0.99999998245E-14  0.12500000000E+03  0.12500000000E+03 0.  0.
        -13    1    3    3    0    0 -0.96695960951E+01  0.30802453427E+02 -0.27895359561E+02  0.42666784210E+02  0.10566000000E+00 0. -1.
         23    2    1    0    0    0  0.18246822899E+02  0.86032225209E+01  0.16018558989E+02  0.99240415071E+02  0.95838947029E+02 0.  0.
         13    1    3    3    0    0  0.27916418994E+02 -0.22199230906E+02  0.43913918550E+02  0.56573630861E+02  0.10566000000E+00 0.  1.
         22    1    1    0    0    0 -0.18246822899E+02 -0.86032225209E+01 -0.16018558989E+02  0.25759584929E+02  0.00000000000E+00 0.  1.
</event>
<event>
 5    1  0.1764318E-003  0.9118800E+02  0.7818608E-02  0.1130116E+00
         25   -1    0    0    0    0  0.00000000000E+00  0.00000000000E+00  0.99999998245E-14  0.12500000000E+03  0.12500000000E+03 0.  0.
        -13    1    3    3    0    0 -0.21806017968E+01  0.11724662254E+02 -0.34069083403E+02  0.36096209456E+02  0.10566000000E+00 0.  1.
         23    2    1    0    0    0  0.15045383538E+02  0.66941327649E+01  0.23447594986E+02  0.96347518608E+02  0.91988475648E+02 0.  0.
         13    1    3    3    0    0  0.17225985335E+02 -0.50305294888E+01  0.57516678389E+02  0.60251309152E+02  0.10566000000E+00 0. -1.
         22    1    1    0    0    0 -0.15045383538E+02 -0.66941327649E+01 -0.23447594986E+02  0.28652481392E+02  0.00000000000E+00 0. -1.
</event>
<event>
 5    1  0.1764318E-003  0.9118800E+02  0.7818608E-02  0.1130116E+00
         25   -1    0    0    0    0  0.00000000000E+00  0.00000000000E+00  0.99999998245E-14  0.12500000000E+03  0.12500000000E+03 0.  0.
        -13    1    3    3    0    0  0.10107048680E+02  0.81783536008E+01  0.53816027749E+02  0.55364373991E+02  0.10566000000E+00 0. -1.
         23    2    1    0    0    0  0.16311699803E+02 -0.13324334890E+02  0.19734488122E+02  0.96137230345E+02  0.91702276887E+02 0.  0.
         13    1    3    3    0    0  0.62046511229E+01 -0.21502688491E+02 -0.34081539627E+02  0.40772856354E+02  0.10566000000E+00 0.  1.
         22    1    1    0    0    0 -0.16311699803E+02  0.13324334890E+02 -0.19734488122E+02  0.28862769655E+02  0.00000000000E+00 0. -1.
</event>
<event>
 5    1  0.1764318E-003  0.9118800E+02  0.7818608E-02  0.1130116E+00
         25   -1    0    0    0    0  0.00000000000E+00  0.00000000000E+00  0.99999998245E-14  0.12500000000E+03  0.12500000000E+03 0.  0.
        -13    1    3    3    0    0 -0.23164926998E+02 -0.29819355094E+02  0.15154798932E+02  0.40687674740E+02  0.10566000000E+00 0.  1.
         23    2    1    0    0    0 -0.14533889563E+02  0.37329779015E+01 -0.26304306562E+02  0.94716578570E+02  0.89744886442E+02 0.  0.
         13    1    3    3    0    0  0.86310374355E+01  0.33552332996E+02 -0.41459105494E+02  0.54028903830E+02  0.10566000000E+00 0. -1.
         22    1    1    0    0    0  0.14533889563E+02 -0.37329779015E+01  0.26304306562E+02  0.30283421430E+02  0.00000000000E+00 0. -1.
</event>
<event>
 5    1  0.1764318E-003  0.9118800E+02  0.7818608E-02  0.1130116E+00
         25   -1    0    0    0    0  0.00000000000E+00  0.00000000000E+00  0.99999998245E-14  0.12500000000E+03  0.12500000000E+03 0.  0.
        -13    1    3    3    0    0 -0.40957479677E+01  0.10327617453E+02  0.50336827326E+02  0.51548445010E+02  0.10566000000E+00 0.  1.
         23    2    1    0    0    0 -0.24778754070E+02 -0.24055210110E+01  0.10992651731E+02  0.97785820301E+02  0.93922601515E+02 0.  0.
         13    1    3    3    0    0 -0.20683006102E+02 -0.12733138464E+02 -0.39344175595E+02  0.46237375291E+02  0.10566000000E+00 0. -1.
         22    1    1    0    0    0  0.24778754070E+02  0.24055210110E+01 -0.10992651731E+02  0.27214179699E+02  0.00000000000E+00 0. -1.
</event>
<event>
 5    1  0.1764318E-003  0.9118800E+02  0.7818608E-02  0.1130116E+00
         25   -1    0    0    0    0  0.00000000000E+00  0.00000000000E+00  0.99999998245E-14  0.12500000000E+03  0.12500000000E+03 0.  0.
        -13    1    3    3    0    0  0.33800910099E+02  0.24404257730E+01 -0.24834857856E+02  0.42014741821E+02  0.10566000000E+00 0.  1.
         23    2    1    0    0    0 -0.17456069221E+02  0.16073039730E+02 -0.17406429871E+02  0.95571429534E+02  0.90927759147E+02 0.  0.
         13    1    3    3    0    0 -0.51256979321E+02  0.13632613957E+02  0.74284279849E+01  0.53556687713E+02  0.10566000000E+00 0. -1.
         22    1    1    0    0    0  0.17456069221E+02 -0.16073039730E+02  0.17406429871E+02  0.29428570466E+02  0.00000000000E+00 0. -1.
</event>
<event>
 5    1  0.1764318E-003  0.9118800E+02  0.7818608E-02  0.1130116E+00
         25   -1    0    0    0    0  0.00000000000E+00  0.00000000000E+00  0.99999998245E-14  0.12500000000E+03  0.12500000000E+03 0.  0.
        -13    1    3    3    0    0  0.17800220297E+02 -0.50205308345E+02 -0.64280818019E+01  0.53654004774E+02  0.10566000000E+00 0. -1.
         23    2    1    0    0    0  0.26371499641E+02 -0.96145309185E+01 -0.97808073790E+01  0.95275273070E+02  0.90519712038E+02 0.  0.
         13    1    3    3    0    0  0.85712793438E+01  0.40590777427E+02 -0.33527255771E+01  0.41621268295E+02  0.10566000000E+00 0.  1.
         22    1    1    0    0    0 -0.26371499641E+02  0.96145309185E+01  0.97808073790E+01  0.29724726930E+02  0.00000000000E+00 0. -1.
</event>
<event>
 5    1  0.1764318E-003  0.9118800E+02  0.7818608E-02  0.1130116E+00
         25   -1    0    0    0    0  0.00000000000E+00  0.00000000000E+00  0.99999998245E-14  0.12500000000E+03  0.12500000000E+03 0.  0.
        -13    1    3    3    0    0 -0.38007707443E+01  0.32461153106E+01  0.42424085609E+02  0.42717646549E+02  0.10566000000E+00 0.  1.
         23    2    1    0    0    0 -0.25358043029E+02  0.15456123077E+02 -0.36987022229E+01  0.95073381665E+02  0.90240486569E+02 0.  0.
         13    1    3    3    0    0 -0.21557272285E+02  0.12210007766E+02 -0.46122787832E+02  0.52355735116E+02  0.10566000000E+00 0. -1.
         22    1    1    0    0    0  0.25358043029E+02 -0.15456123077E+02  0.36987022229E+01  0.29926618335E+02  0.00000000000E+00 0. -1.
</event>
<event>
 5    1  0.1764318E-003  0.9118800E+02  0.7818608E-02  0.1130116E+00
         25   -1    0    0    0    0  0.00000000000E+00  0.00000000000E+00  0.99999998245E-14  0.12500000000E+03  0.12500000000E+03 0.  0.
        -13    1    3    3    0    0  0.17651674390E+02 -0.34009447218E+02 -0.12701851428E+02  0.40367961338E+02  0.10566000000E+00 0.  1.
         23    2    1    0    0    0  0.30845019673E+01 -0.22571856059E+01  0.29556902948E+02  0.95196987550E+02  0.90411541782E+02 0.  0.
         13    1    3    3    0    0 -0.14567172423E+02  0.31752261612E+02  0.42258754376E+02  0.54829026212E+02  0.10566000000E+00 0. -1.
         22    1    1    0    0    0 -0.30845019673E+01  0.22571856059E+01 -0.29556902948E+02  0.29803012450E+02  0.00000000000E+00 0. -1.
</event>
<event>
 5    1  0.1764318E-003  0.9118800E+02  0.7818608E-02  0.1130116E+00
         25   -1    0    0    0    0  0.00000000000E+00  0.00000000000E+00  0.99999998245E-14  0.12500000000E+03  0.12500000000E+03 0.  0.
        -13    1    3    3    0    0 -0.46297398496E+02 -0.26171229951E+02 -0.21475320473E+02  0.57354885913E+02  0.10566000000E+00 0. -1.
         23    2    1    0    0    0 -0.99679186896E+01 -0.25916104373E+02 -0.10604758850E+02  0.95276864581E+02  0.90521909753E+02 0.  0.
         13    1    3    3    0    0  0.36329479807E+02  0.25512557815E+00  0.10870561622E+02  0.37921978668E+02  0.10566000000E+00 0.  1.
         22    1    1    0    0    0  0.99679186896E+01  0.25916104373E+02  0.10604758850E+02  0.29723135419E+02  0.00000000000E+00 0. -1.
</event>
<event>
 5    1  0.1764318E-003  0.9118800E+02  0.7818608E-02  0.1130116E+00
         25   -1    0    0    0    0  0.00000000000E+00  0.00000000000E+00  0.99999998245E-14  0.12500000000E+03  0.12500000000E+03 0.  0.
        -13    1    3    3    0    0  0.52786870594E+02  0.46164570462E+01 -0.26318219147E+02  0.59164391368E+02  0.10566000000E+00 0.  1.
         23    2    1    0    0    0  0.17273261103E+02  0.34538762890E+01 -0.24606295668E+02  0.94738397315E+02  0.89775271254E+02 0.  0.
         13    1    3    3    0    0 -0.35513609491E+02 -0.11625807572E+01  0.17119234791E+01  0.35574005948E+02  0.10566000000E+00 0. -1.
         22    1    1    0    0    0 -0.17273261103E+02 -0.34538762890E+01  0.24606295668E+02  0.30261602685E+02  0.00000000000E+00 0.  1.
</event>
<event>
 5    1  0.1764318E-003  0.9118800E+02  0.7818608E-02  0.1130116E+00
         25   -1    0    0    0    0  0.00000000000E+00  0.00000000000E+00  0.99999998245E-14  0.12500000000E+03  0.12500000000E+03 0.  0.
        -13    1    3    3    0    0 -0.42494089936E+02 -0.35998277821E+02  0.73359932367E+01  0.56173406932E+02  0.10566000000E+00 0.  1.
         23    2    1    0    0    0 -0.12750165346E+02 -0.31064148222E+02  0.16363020194E+02  0.87646332831E+02  0.79287976438E+02 0.  0.
         13    1    3    3    0    0  0.29743924590E+02  0.49341295987E+01  0.90270269570E+01  0.31472925899E+02  0.10566000000E+00 0. -1.
         22    1    1    0    0    0  0.12750165346E+02  0.31064148222E+02 -0.16363020194E+02  0.37353667169E+02  0.00000000000E+00 0.  1.
</event>
<event>
 5    1  0.1764318E-003  0.9118800E+02  0.7818608E-02  0.1130116E+00
         25   -1    0    0    0    0  0.00000000000E+00  0.00000000000E+00  0.99999998245E-14  0.12500000000E+03  0.12500000000E+03 0.  0.
        -13    1    3    3    0    0  0.28467225728E+02  0.16755119491E+02 -0.47427965496E+02  0.57797405175E+02  0.10566000000E+00 0.  1.
         23    2    1    0    0    0  0.14540375563E+02 -0.93776528164E+01 -0.23202863795E+02  0.96056334335E+02  0.91591940605E+02 0.  0.
         13    1    3    3    0    0 -0.13926850165E+02 -0.26132772307E+02  0.24225101702E+02  0.38258929160E+02  0.10566000000E+00 0. -1.
         22    1    1    0    0    0 -0.14540375563E+02  0.93776528164E+01  0.23202863795E+02  0.28943665665E+02  0.00000000000E+00 0.  1.
</event>
<event>
 5    1  0.1764318E-003  0.9118800E+02  0.7818608E-02  0.1130116E+00
         25   -1    0    0    0    0  0.00000000000E+00  0.00000000000E+00  0.99999998245E-14  0.12500000000E+03  0.12500000000E+03 0.  0.
        -13    1    3    3    0    0  0.29790097606E+02  0.48217439848E+02 -0.17419360750E+02  0.59294322779E+02  0.10566000000E+00 0. -1.
         23    2    1    0    0    0  0.21022015885E+02  0.19429194536E+02  0.38089209973E+01  0.96122212146E+02  0.91681803192E+02 0.  0.
         13    1    3    3    0    0 -0.87680817215E+01 -0.28788245312E+02  0.21228281747E+02  0.36827889367E+02  0.10566000000E+00 0.  1.
         22    1    1    0    0    0 -0.21022015885E+02 -0.19429194536E+02 -0.38089209973E+01  0.28877787854E+02  0.00000000000E+00 0. -1.
</event>
<event>
 5    1  0.1764318E-003  0.9118800E+02  0.7818608E-02  0.1130116E+00
         25   -1    0    0    0    0  0.00000000000E+00  0.00000000000E+00  0.99999998245E-14  0.12500000000E+03  0.12500000000E+03 0.  0.
        -13    1    3    3    0    0 -0.11379894763E+02 -0.15563388197E+02 -0.28132345729E+02  0.34105147664E+02  0.10566000000E+00 0.  1.
         23    2    1    0    0    0 -0.39222389984E+01  0.21354068507E+02  0.20176535187E+02  0.95360958640E+02  0.90637959267E+02 0.  0.
         13    1    3    3    0    0  0.74576557644E+01  0.36917456704E+02  0.48308880915E+02  0.61255810976E+02  0.10566000000E+00 0. -1.
         22    1    1    0    0    0  0.39222389984E+01 -0.21354068507E+02 -0.20176535187E+02  0.29639041360E+02  0.00000000000E+00 0. -1.
</event>
<event>
 5    1  0.1764318E-003  0.9118800E+02  0.7818608E-02  0.1130116E+00
         25   -1    0    0    0    0  0.00000000000E+00  0.00000000000E+00  0.99999998245E-14  0.12500000000E+03  0.12500000000E+03 0.  0.
        -13    1    3    3    0    0  0.11253682374E+00 -0.38297536852E+02  0.17626590165E+02  0.42159481002E+02  0.10566000000E+00 0.  1.
         23    2    1    0    0    0 -0.23268917942E+02  0.63512528529E+01 -0.91150651820E+01  0.99215016613E+02  0.95805814819E+02 0.  0.
         13    1    3    3    0    0 -0.23381454766E+02  0.44648789705E+02 -0.26741655347E+02  0.57055535611E+02  0.10566000000E+00 0. -1.
         22    1    1    0    0    0  0.23268917942E+02 -0.63512528529E+01  0.91150651820E+01  0.25784983387E+02  0.00000000000E+00 0. -1.
</event>
<event>
 5    1  0.1764318E-003  0.9118800E+02  0.7818608E-02  0.1130116E+00
         25   -1    0    0    0    0  0.00000000000E+00  0.00000000000E+00  0.99999998245E-14  0.12500000000E+03  0.12500000000E+03 0.  0.
        -13    1    3    3    0    0  0.79834803418E+01 -0.14777356731E+02 -0.43971892552E+02  0.47070635528E+02  0.10566000000E+00 0. -1.
         23    2    1    0    0    0 -0.24041306605E+02  0.76636386012E+01 -0.17388806911E+02  0.94355483595E+02  0.89240522739E+02 0.  0.
         13    1    3    3    0    0 -0.32024786947E+02  0.22440995332E+02  0.26583085641E+02  0.47284848067E+02  0.10566000000E+00 0.  1.
         22    1    1    0    0    0  0.24041306605E+02 -0.76636386012E+01  0.17388806911E+02  0.30644516405E+02  0.00000000000E+00 0.  1.
</event>
<event>
 5    1  0.1764318E-003  0.9118800E+02  0.7818608E-02  0.1130116E+00
         25   -1    0    0    0    0  0.00000000000E+00  0.00000000000E+00  0.99999998245E-14  0.12500000000E+03  0.12500000000E+03 0.  0.
        -13    1    3    3    0    0  0.22485812615E+01  0.36493612798E+02 -0.70844974350E+01  0.37243001499E+02  0.10566000000E+00 0. -1.
         23    2    1    0    0    0  0.57952313851E+01 -0.23875876467E+02 -0.11489944708E+02  0.97876928396E+02  0.94043777566E+02 0.  0.
         13    1    3    3    0    0  0.35466501236E+01 -0.60369489265E+02 -0.44054472728E+01  0.60633926896E+02  0.10566000000E+00 0.  1.
         22    1    1    0    0    0 -0.57952313851E+01  0.23875876467E+02  0.11489944708E+02  0.27123071604E+02  0.00000000000E+00 0.  1.
</event>
<event>
 5    1  0.1764318E-003  0.9118800E+02  0.7818608E-02  0.1130116E+00
         25   -1    0    0    0    0  0.00000000000E+00  0.00000000000E+00  0.99999998245E-14  0.12500000000E+03  0.12500000000E+03 0.  0.
        -13    1    3    3    0    0 -0.40217040199E+02  0.32652652274E+02 -0.23059687660E+02  0.56704200743E+02  0.10566000000E+00 0. -1.
         23    2    1    0    0    0 -0.44923197300E+01  0.24946679876E+02 -0.18680667492E+02  0.93512143430E+02  0.88051325132E+02 0.  0.
         13    1    3    3    0    0  0.35724720469E+02 -0.77059723971E+01  0.43790201676E+01  0.36807942687E+02  0.10566000000E+00 0.  1.
         22    1    1    0    0    0  0.44923197300E+01 -0.24946679876E+02  0.18680667492E+02  0.31487856570E+02  0.00000000000E+00 0. -1.
</event>
<event>
 5    1  0.1764318E-003  0.9118800E+02  0.7818608E-02  0.1130116E+00
         25   -1    0    0    0    0  0.00000000000E+00  0.00000000000E+00  0.99999998245E-14  0.12500000000E+03  0.12500000000E+03 0.  0.
        -13    1    3    3    0    0  0.30656334264E+02 -0.17928325264E+02 -0.15886608382E+02  0.38905413084E+02  0.10566000000E+00 0.  1.
         23    2    1    0    0    0 -0.53118755265E+00  0.28579473062E+02 -0.65404060172E+01  0.95676880255E+02  0.91072608746E+02 0.  0.
         13    1    3    3    0    0 -0.31187521817E+02  0.46507798325E+02  0.93462023648E+01  0.56771467172E+02  0.10566000000E+00 0. -1.
         22    1    1    0    0    0  0.53118755265E+00 -0.28579473062E+02  0.65404060172E+01  0.29323119745E+02  0.00000000000E+00 0. -1.
</event>
<event>
 5    1  0.1764318E-003  0.9118800E+02  0.7818608E-02  0.1130116E+00
         25   -1    0    0    0    0  0.00000000000E+00  0.00000000000E+00  0.99999998245E-14  0.12500000000E+03  0.12500000000E+03 0.  0.
        -13    1    3    3    0    0 -0.32430699435E+02  0.20114478710E+02  0.51409013639E+01  0.38506915619E+02  0.10566000000E+00 0.  1.
         23    2    1    0    0    0 -0.19221562806E+01 -0.28703298427E+02  0.21773623985E+01  0.96150131155E+02  0.91719860383E+02 0.  0.
         13    1    3    3    0    0  0.30508543154E+02 -0.48817777138E+02 -0.29635389654E+01  0.57643215536E+02  0.10566000000E+00 0. -1.
         22    1    1    0    0    0  0.19221562806E+01  0.28703298427E+02 -0.21773623985E+01  0.28849868845E+02  0.00000000000E+00 0. -1.
</event>
<event>
 5    1  0.1764318E-003  0.9118800E+02  0.7818608E-02  0.1130116E+00
         25   -1    0    0    0    0  0.00000000000E+00  0.00000000000E+00  0.99999998245E-14  0.12500000000E+03  0.12500000000E+03 0.  0.
        -13    1    3    3    0    0  0.37609470724E+02  0.23236338868E+02  0.41831708467E+02  0.60862983244E+02  0.10566000000E+00 0. -1.
         23    2    1    0    0    0  0.13473273849E+02  0.19769819052E+02  0.17109145263E+02  0.95587456669E+02  0.90949789265E+02 0.  0.
         13    1    3    3    0    0 -0.24136196875E+02 -0.34665198156E+01 -0.24722563204E+02  0.34724473425E+02  0.10566000000E+00 0.  1.
         22    1    1    0    0    0 -0.13473273849E+02 -0.19769819052E+02 -0.17109145263E+02  0.29412543331E+02  0.00000000000E+00 0. -1.
</event>
<event>
 5    1  0.1764318E-003  0.9118800E+02  0.7818608E-02  0.1130116E+00
         25   -1    0    0    0    0  0.00000000000E+00  0.00000000000E+00  0.99999998245E-14  0.12500000000E+03  0.12500000000E+03 0.  0.
        -13    1    3    3    0    0 -0.25282161021E+02  0.18533627228E+02  0.14467769836E+02  0.34525505531E+02  0.10566000000E+00 0.  1.
         23    2    1    0    0    0  0.94623544537E+01 -0.20711475541E+02 -0.17818224296E+02  0.96086499902E+02  0.91633099781E+02 0.  0.
         13    1    3    3    0    0  0.34744515474E+02 -0.39245102769E+02 -0.32285994131E+02  0.61560994371E+02  0.10566000000E+00 0. -1.
         22    1    1    0    0    0 -0.94623544537E+01  0.20711475541E+02  0.17818224296E+02  0.28913500098E+02  0.00000000000E+00 0. -1.
</event>
<event>
 5    1  0.1764318E-003  0.9118800E+02  0.7818608E-02  0.1130116E+00
         25   -1    0    0    0    0  0.00000000000E+00  0.00000000000E+00  0.99999998245E-14  0.12500000000E+03  0.12500000000E+03 0.  0.
        -13    1    3    3    0    0 -0.14138588403E+02 -0.17596572367E+01 -0.52431401663E+02  0.54332854886E+02  0.10566000000E+00 0. -1.
         23    2    1    0    0    0 -0.25377523969E+02  0.45764442099E+01 -0.12410567003E+02  0.96382090612E+02  0.92035442374E+02 0.  0.
         13    1    3    3    0    0 -0.11238935566E+02  0.63361014467E+01  0.40020834661E+02  0.42049235726E+02  0.10566000000E+00 0.  1.
         22    1    1    0    0    0  0.25377523969E+02 -0.45764442099E+01  0.12410567003E+02  0.28617909388E+02  0.00000000000E+00 0. -1.
</event>
<event>
 5    1  0.1764318E-003  0.9118800E+02  0.7818608E-02  0.1130116E+00
         25   -1    0    0    0    0  0.00000000000E+00  0.00000000000E+00  0.99999998245E-14  0.12500000000E+03  0.12500000000E+03 0.  0.
        -13    1    3    3    0    0  0.34786902178E+02  0.20968577891E+02  0.11515198408E+02  0.42218725470E+02  0.10566000000E+00 0. -1.
         23    2    1    0    0    0 -0.16455743558E+02  0.10679791818E+02  0.21998162931E+02  0.95525118802E+02  0.90864072661E+02 0.  0.
         13    1    3    3    0    0 -0.51242645735E+02 -0.10288786073E+02  0.10482964523E+02  0.53306393332E+02  0.10566000000E+00 0.  1.
         22    1    1    0    0    0  0.16455743558E+02 -0.10679791818E+02 -0.21998162931E+02  0.29474881198E+02  0.00000000000E+00 0.  1.
</event>
<event>
 5    1  0.1764318E-003  0.9118800E+02  0.7818608E-02  0.1130116E+00
         25   -1    0    0    0    0  0.00000000000E+00  0.00000000000E+00  0.99999998245E-14  0.12500000000E+03  0.12500000000E+03 0.  0.
        -13    1    3    3    0    0 -0.27770115488E+02 -0.17781674429E+02 -0.16642477160E+02  0.36937115071E+02  0.10566000000E+00 0.  1.
         23    2    1    0    0    0  0.57935594326E+01  0.23985135562E+02  0.11854177283E+02  0.97625311365E+02  0.93708739407E+02 0.  0.
         13    1    3    3    0    0  0.33563674920E+02  0.41766809991E+02  0.28496654442E+02  0.60688196294E+02  0.10566000000E+00 0. -1.
         22    1    1    0    0    0 -0.57935594326E+01 -0.23985135562E+02 -0.11854177283E+02  0.27374688635E+02  0.00000000000E+00 0. -1.
</event>
<event>
 5    1  0.1764318E-003  0.9118800E+02  0.7818608E-02  0.1130116E+00
         25   -1    0    0    0    0  0.00000000000E+00  0.00000000000E+00  0.99999998245E-14  0.12500000000E+03  0.12500000000E+03 0.  0.
        -13    1    3    3    0    0  0.48030511249E+02  0.16789450331E+02 -0.13095358907E+02  0.52538702327E+02  0.10566000000E+00 0.  1.
         23    2    1    0    0    0  0.13347602099E+02  0.30852257270E+02 -0.90825210881E+01  0.90178850540E+02  0.83184810121E+02 0.  0.
         13    1    3    3    0    0 -0.34682909150E+02  0.14062806939E+02  0.40128378193E+01  0.37640148213E+02  0.10566000000E+00 0. -1.
         22    1    1    0    0    0 -0.13347602099E+02 -0.30852257270E+02  0.90825210881E+01  0.34821149460E+02  0.00000000000E+00 0.  1.
</event>
<event>
 5    1  0.1764318E-003  0.9118800E+02  0.7818608E-02  0.1130116E+00
         25   -1    0    0    0    0  0.00000000000E+00  0.00000000000E+00  0.99999998245E-14  0.12500000000E+03  0.12500000000E+03 0.  0.
        -13    1    3    3    0    0 -0.21295074028E+02  0.45299363131E+02 -0.16178146956E+02  0.52604715386E+02  0.10566000000E+00 0.  1.
         23    2    1    0    0    0  0.76147344699E+01  0.26359316344E+02  0.98257669884E+01  0.95856502679E+02  0.91318813340E+02 0.  0.
         13    1    3    3    0    0  0.28909808498E+02 -0.18940046787E+02  0.26003913944E+02  0.43251787294E+02  0.10566000000E+00 0. -1.
         22    1    1    0    0    0 -0.76147344699E+01 -0.26359316344E+02 -0.98257669884E+01  0.29143497321E+02  0.00000000000E+00 0.  1.
</event>
<event>
 5    1  0.1764318E-003  0.9118800E+02  0.7818608E-02  0.1130116E+00
         25   -1    0    0    0    0  0.00000000000E+00  0.00000000000E+00  0.99999998245E-14  0.12500000000E+03  0.12500000000E+03 0.  0.
        -13    1    3    3    0    0  0.32420317495E+02  0.74345336053E+01  0.90114805158E+01  0.34461097219E+02  0.10566000000E+00 0.  1.
         23    2    1    0    0    0 -0.24317941729E+02 -0.14859154194E+02  0.78784419980E+01  0.95432676793E+02  0.90736812807E+02 0.  0.
         13    1    3    3    0    0 -0.56738259224E+02 -0.22293687800E+02 -0.11330385178E+01  0.60971579574E+02  0.10566000000E+00 0. -1.
         22    1    1    0    0    0  0.24317941729E+02  0.14859154194E+02 -0.78784419980E+01  0.29567323207E+02  0.00000000000E+00 0. -1.
</event>
<event>
 5    1  0.1764318E-003  0.9118800E+02  0.7818608E-02  0.1130116E+00
         25   -1    0    0    0    0  0.00000000000E+00  0.00000000000E+00  0.99999998245E-14  0.12500000000E+03  0.12500000000E+03 0.  0.
        -13    1    3    3    0    0 -0.80202377409E+01 -0.21870547487E+02 -0.46080695778E+02  0.51634162608E+02  0.10566000000E+00 0. -1.
         23    2    1    0    0    0  0.16083445930E+02  0.70673045760E+01 -0.23886353695E+02  0.95348997997E+02  0.90621462686E+02 0.  0.
         13    1    3    3    0    0  0.24103683670E+02  0.28937852063E+02  0.22194342084E+02  0.43714835389E+02  0.10566000000E+00 0.  1.
         22    1    1    0    0    0 -0.16083445930E+02 -0.70673045760E+01  0.23886353695E+02  0.29651002003E+02  0.00000000000E+00 0. -1.
</event>
<event>
 5    1  0.1764318E-003  0.9118800E+02  0.7818608E-02  0.1130116E+00
         25   -1    0    0    0    0  0.00000000000E+00  0.00000000000E+00  0.99999998245E-14  0.12500000000E+03  0.12500000000E+03 0.  0.
        -13    1    3    3    0    0  0.43416266769E+02  0.22617271878E+02  0.26625615445E+01  0.49026662189E+02  0.10566000000E+00 0. -1.
         23    2    1    0    0    0 -0.17901258629E+01  0.24809940344E+02  0.15019358156E+02  0.95942835481E+02  0.91436911968E+02 0.  0.
         13    1    3    3    0    0 -0.45206392632E+02  0.21926684660E+01  0.12356796612E+02  0.46916173292E+02  0.10566000000E+00 0.  1.
         22    1    1    0    0    0  0.17901258629E+01 -0.24809940344E+02 -0.15019358156E+02  0.29057164519E+02  0.00000000000E+00 0.  1.
</event>
<event>
 5    1  0.1764318E-003  0.9118800E+02  0.7818608E-02  0.1130116E+00
         25   -1    0    0    0    0  0.00000000000E+00  0.00000000000E+00  0.99999998245E-14  0.12500000000E+03  0.12500000000E+03 0.  0.
        -13    1    3    3    0    0  0.80692659692E+01  0.78657074573E+01  0.45047062500E+02  0.46435238893E+02  0.10566000000E+00 0.  1.
         23    2    1    0    0    0 -0.23689096619E+02 -0.11593354086E+02  0.12878706301E+02  0.95649697897E+02  0.91035292465E+02 0.  0.
         13    1    3    3    0    0 -0.31758362588E+02 -0.19459061543E+02 -0.32168356200E+02  0.49214459004E+02  0.10566000000E+00 0. -1.
         22    1    1    0    0    0  0.23689096619E+02  0.11593354086E+02 -0.12878706301E+02  0.29350302103E+02  0.00000000000E+00 0. -1.
</event>
<event>
 5    1  0.1764318E-003  0.9118800E+02  0.7818608E-02  0.1130116E+00
         25   -1    0    0    0    0  0.00000000000E+00  0.00000000000E+00  0.99999998245E-14  0.12500000000E+03  0.12500000000E+03 0.  0.
        -13    1    3    3    0    0 -0.22715510284E+02  0.16475385549E+02  0.11868956710E+02  0.30468279142E+02  0.10566000000E+00 0.  1.
         23    2    1    0    0    0  0.82900323551E+01 -0.16887810281E+02 -0.28179618949E+02  0.91117649186E+02  0.84583759059E+02 0.  0.
         13    1    3    3    0    0  0.31005542639E+02 -0.33363195830E+02 -0.40048575659E+02  0.60649370044E+02  0.10566000000E+00 0. -1.
         22    1    1    0    0    0 -0.82900323551E+01  0.16887810281E+02  0.28179618949E+02  0.33882350814E+02  0.00000000000E+00 0. -1.
</event>
<event>
 5    1  0.1764318E-003  0.9118800E+02  0.7818608E-02  0.1130116E+00
         25   -1    0    0    0    0  0.00000000000E+00  0.00000000000E+00  0.99999998245E-14  0.12500000000E+03  0.12500000000E+03 0.  0.
        -13    1    3    3    0    0 -0.47361600463E+02  0.36513380654E+01 -0.25468085350E+02  0.53898868295E+02  0.10566000000E+00 0. -1.
         23    2    1    0    0    0 -0.11736542384E+02 -0.18529560142E+02 -0.18219100866E+02  0.96486377597E+02  0.92176973259E+02 0.  0.
         13    1    3    3    0    0  0.35625058079E+02 -0.22180898207E+02  0.72489844845E+01  0.42587509302E+02  0.10566000000E+00 0.  1.
         22    1    1    0    0    0  0.11736542384E+02  0.18529560142E+02  0.18219100866E+02  0.28513622403E+02  0.00000000000E+00 0. -1.
</event>
<event>
 5    1  0.1764318E-003  0.9118800E+02  0.7818608E-02  0.1130116E+00
         25   -1    0    0    0    0  0.00000000000E+00  0.00000000000E+00  0.99999998245E-14  0.12500000000E+03  0.12500000000E+03 0.  0.
        -13    1    3    3    0    0  0.52135739432E+01  0.38465246728E+02  0.10740011263E+02  0.40275495839E+02  0.10566000000E+00 0.  1.
         23    2    1    0    0    0 -0.23947604637E+02 -0.82757084272E+01  0.15040589682E+02  0.95534860329E+02  0.90877472909E+02 0.  0.
         13    1    3    3    0    0 -0.29161178581E+02 -0.46740955155E+02  0.43005784188E+01  0.55259364490E+02  0.10566000000E+00 0. -1.
         22    1    1    0    0    0  0.23947604637E+02  0.82757084272E+01 -0.15040589682E+02  0.29465139671E+02  0.00000000000E+00 0. -1.
</event>
<event>
 5    1  0.1764318E-003  0.9118800E+02  0.7818608E-02  0.1130116E+00
         25   -1    0    0    0    0  0.00000000000E+00  0.00000000000E+00  0.99999998245E-14  0.12500000000E+03  0.12500000000E+03 0.  0.
        -13    1    3    3    0    0 -0.35017586846E+02 -0.28622183296E+02 -0.17269332343E+02  0.48411793695E+02  0.10566000000E+00 0. -1.
         23    2    1    0    0    0 -0.26498714762E+02  0.88027899941E+01  0.98309915642E+01  0.95397307710E+02  0.90688074891E+02 0.  0.
         13    1    3    3    0    0  0.85188720845E+01  0.37424973290E+02  0.27100323907E+02  0.46985514015E+02  0.10566000000E+00 0.  1.
         22    1    1    0    0    0  0.26498714762E+02 -0.88027899941E+01 -0.98309915642E+01  0.29602692290E+02  0.00000000000E+00 0.  1.
</event>
<event>
 5    1  0.1764318E-003  0.9118800E+02  0.7818608E-02  0.1130116E+00
         25   -1    0    0    0    0  0.00000000000E+00  0.00000000000E+00  0.99999998245E-14  0.12500000000E+03  0.12500000000E+03 0.  0.
        -13    1    3    3    0    0 -0.53082237770E+02  0.23919556207E+02  0.47324317414E+01  0.58414691731E+02  0.10566000000E+00 0. -1.
         23    2    1    0    0    0 -0.27760087868E+02 -0.23942305161E+01 -0.60406425310E+01  0.96489577688E+02  0.92181312759E+02 0.  0.
         13    1    3    3    0    0  0.25322149901E+02 -0.26313786723E+02 -0.10773074272E+02  0.38074885957E+02  0.10566000000E+00 0.  1.
         22    1    1    0    0    0  0.27760087868E+02  0.23942305161E+01  0.60406425310E+01  0.28510422312E+02  0.00000000000E+00 0. -1.
</event>
<event>
 5    1  0.1764318E-003  0.9118800E+02  0.7818608E-02  0.1130116E+00
         25   -1    0    0    0    0  0.00000000000E+00  0.00000000000E+00  0.99999998245E-14  0.12500000000E+03  0.12500000000E+03 0.  0.
        -13    1    3    3    0    0  0.72534851498E+01  0.30900359813E+02 -0.25228572004E+02  0.40545496578E+02  0.10566000000E+00 0. -1.
         23    2    1    0    0    0  0.23749656375E+02 -0.19347408182E+01  0.16400882639E+02  0.96072878620E+02  0.91614516617E+02 0.  0.
         13    1    3    3    0    0  0.16496171225E+02 -0.32835100631E+02  0.41629454643E+02  0.55527382042E+02  0.10566000000E+00 0.  1.
         22    1    1    0    0    0 -0.23749656375E+02  0.19347408182E+01 -0.16400882639E+02  0.28927121380E+02  0.00000000000E+00 0.  1.
</event>
<event>
 5    1  0.1764318E-003  0.9118800E+02  0.7818608E-02  0.1130116E+00
         25   -1    0    0    0    0  0.00000000000E+00  0.00000000000E+00  0.99999998245E-14  0.12500000000E+03  0.12500000000E+03 0.  0.
        -13    1    3    3    0    0  0.88610711972E+00  0.65293180954E+01  0.53168954571E+02  0.53575797472E+02  0.10566000000E+00 0. -1.
         23    2    1    0    0    0 -0.84845202710E+01 -0.18803563707E+02  0.21383262406E+02  0.95287965343E+02  0.90537237288E+02 0.  0.
         13    1    3    3    0    0 -0.93706273908E+01 -0.25332881802E+02 -0.31785692164E+02  0.41712167871E+02  0.10566000000E+00 0.  1.
         22    1    1    0    0    0  0.84845202710E+01  0.18803563707E+02 -0.21383262406E+02  0.29712034657E+02  0.00000000000E+00 0.  1.
</event>
<event>
 5    1  0.1764318E-003  0.9118800E+02  0.7818608E-02  0.1130116E+00
         25   -1    0    0    0    0  0.00000000000E+00  0.00000000000E+00  0.99999998245E-14  0.12500000000E+03  0.12500000000E+03 0.  0.
        -13    1    3    3    0    0  0.40535982563E+02 -0.12482492820E+02  0.19155963377E+02  0.46539667020E+02  0.10566000000E+00 0. -1.
         23    2    1    0    0    0 -0.18046297991E+01  0.10331483801E+02  0.27693151093E+02  0.95387386747E+02  0.90674399291E+02 0.  0.
         13    1    3    3    0    0 -0.42340612362E+02  0.22813976620E+02  0.85371877154E+01  0.48847719727E+02  0.10566000000E+00 0.  1.
         22    1    1    0    0    0  0.18046297991E+01 -0.10331483801E+02 -0.27693151093E+02  0.29612613253E+02  0.00000000000E+00 0. -1.
</event>
<event>
 5    1  0.1764318E-003  0.9118800E+02  0.7818608E-02  0.1130116E+00
         25   -1    0    0    0    0  0.00000000000E+00  0.00000000000E+00  0.99999998245E-14  0.12500000000E+03  0.12500000000E+03 0.  0.
        -13    1    3    3    0    0  0.40638082026E+02  0.45269976986E+02 -0.75359617857E+01  0.61299481328E+02  0.10566000000E+00 0.  1.
         23    2    1    0    0    0  0.24185378794E+02  0.16420770394E+02 -0.86015442821E+01  0.94527704193E+02  0.89481428510E+02 0.  0.
         13    1    3    3    0    0 -0.16452703232E+02 -0.28849206592E+02 -0.10655824964E+01  0.33228222864E+02  0.10566000000E+00 0. -1.
         22    1    1    0    0    0 -0.24185378794E+02 -0.16420770394E+02  0.86015442821E+01  0.30472295807E+02  0.00000000000E+00 0.  1.
</event>
<event>
 5    1  0.1764318E-003  0.9118800E+02  0.7818608E-02  0.1130116E+00
         25   -1    0    0    0    0  0.00000000000E+00  0.00000000000E+00  0.99999998245E-14  0.12500000000E+03  0.12500000000E+03 0.  0.
        -13    1    3    3    0    0 -0.10995347208E+02  0.37319797621E+02  0.10597685002E+02  0.40323529683E+02  0.10566000000E+00 0.  1.
         23    2    1    0    0    0 -0.28321539445E+01 -0.17477480779E+02  0.21870688666E+02  0.96860873271E+02  0.92683430653E+02 0.  0.
         13    1    3    3    0    0  0.81631932634E+01 -0.54797278400E+02  0.11273003664E+02  0.56537343588E+02  0.10566000000E+00 0. -1.
         22    1    1    0    0    0  0.28321539445E+01  0.17477480779E+02 -0.21870688666E+02  0.28139126729E+02  0.00000000000E+00 0.  1.
</event>
<event>
 5    1  0.1764318E-003  0.9118800E+02  0.7818608E-02  0.1130116E+00
         25   -1    0    0    0    0  0.00000000000E+00  0.00000000000E+00  0.99999998245E-14  0.12500000000E+03  0.12500000000E+03 0.  0.
        -13    1    3    3    0    0  0.99343651406E+01 -0.18739322693E+02  0.31137803598E+02  0.37675294328E+02  0.10566000000E+00 0.  1.
         23    2    1    0    0    0  0.17700829799E+02 -0.47843162362E+01 -0.23839029629E+02  0.94924954014E+02  0.90034651682E+02 0.  0.
         13    1    3    3    0    0  0.77664646580E+01  0.13955006457E+02 -0.54976833227E+02  0.57249659686E+02  0.10566000000E+00 0. -1.
         22    1    1    0    0    0 -0.17700829799E+02  0.47843162362E+01  0.23839029629E+02  0.30075045986E+02  0.00000000000E+00 0. -1.
</event>
<event>
 5    1  0.1764318E-003  0.9118800E+02  0.7818608E-02  0.1130116E+00
         25   -1    0    0    0    0  0.00000000000E+00  0.00000000000E+00  0.99999998245E-14  0.12500000000E+03  0.12500000000E+03 0.  0.
        -13    1    3    3    0    0 -0.36118105069E+01 -0.41479536692E+02 -0.46074784255E+02  0.62100676707E+02  0.10566000000E+00 0.  1.
         23    2    1    0    0    0 -0.47027244002E+01 -0.16535906116E+02 -0.24324593397E+02  0.95213465260E+02  0.90434320449E+02 0.  0.
         13    1    3    3    0    0 -0.10909138933E+01  0.24943630576E+02  0.21750190858E+02  0.33112788554E+02  0.10566000000E+00 0. -1.
         22    1    1    0    0    0  0.47027244002E+01  0.16535906116E+02  0.24324593397E+02  0.29786534740E+02  0.00000000000E+00 0.  1.
</event>
<event>
 5    1  0.1764318E-003  0.9118800E+02  0.7818608E-02  0.1130116E+00
         25   -1    0    0    0    0  0.00000000000E+00  0.00000000000E+00  0.99999998245E-14  0.12500000000E+03  0.12500000000E+03 0.  0.
        -13    1    3    3    0    0  0.12465251945E+01 -0.12271880145E+02 -0.36286111064E+02  0.38325525274E+02  0.10566000000E+00 0. -1.
         23    2    1    0    0    0  0.16636466110E+02  0.20887218388E+01  0.20282931793E+02  0.98683995636E+02  0.95110456360E+02 0.  0.
         13    1    3    3    0    0  0.15389940915E+02  0.14360601983E+02  0.56569042857E+02  0.60358470362E+02  0.10566000000E+00 0.  1.
         22    1    1    0    0    0 -0.16636466110E+02 -0.20887218388E+01 -0.20282931793E+02  0.26316004364E+02  0.00000000000E+00 0.  1.
</event>
<event>
 5    1  0.1764318E-003  0.9118800E+02  0.7818608E-02  0.1130116E+00
         25   -1    0    0    0    0  0.00000000000E+00  0.00000000000E+00  0.99999998245E-14  0.12500000000E+03  0.12500000000E+03 0.  0.
        -13    1    3    3    0    0 -0.11207231541E+00 -0.33732439598E+02 -0.76340048043E+01  0.34585824189E+02  0.10566000000E+00 0.  1.
         23    2    1    0    0    0 -0.11189765534E+02  0.21886266435E+02  0.15616233989E+02  0.95878079130E+02  0.91348343075E+02 0.  0.
         13    1    3    3    0    0 -0.11077693218E+02  0.55618706033E+02  0.23250238793E+02  0.61292254941E+02  0.10566000000E+00 0. -1.
         22    1    1    0    0    0  0.11189765534E+02 -0.21886266435E+02 -0.15616233989E+02  0.29121920870E+02  0.00000000000E+00 0. -1.
</event>
<event>
 5    1  0.1764318E-003  0.9118800E+02  0.7818608E-02  0.1130116E+00
         25   -1    0    0    0    0  0.00000000000E+00  0.00000000000E+00  0.99999998245E-14  0.12500000000E+03  0.12500000000E+03 0.  0.
        -13    1    3    3    0    0  0.27926014663E+02  0.86804355035E+01 -0.62278763560E+01  0.29899997716E+02  0.10566000000E+00 0.  1.
         23    2    1    0    0    0 -0.16069930055E+02 -0.18067344414E+00 -0.37232072151E+02  0.84447534088E+02  0.74073500809E+02 0.  0.
         13    1    3    3    0    0 -0.43995944717E+02 -0.88611089476E+01 -0.31004195795E+02  0.54547536372E+02  0.10566000000E+00 0. -1.
         22    1    1    0    0    0  0.16069930055E+02  0.18067344414E+00  0.37232072151E+02  0.40552465912E+02  0.00000000000E+00 0. -1.
</event>
<event>
 5    1  0.1764318E-003  0.9118800E+02  0.7818608E-02  0.1130116E+00
         25   -1    0    0    0    0  0.00000000000E+00  0.00000000000E+00  0.99999998245E-14  0.12500000000E+03  0.12500000000E+03 0.  0.
        -13    1    3    3    0    0 -0.39475340229E+02 -0.54213139072E+01  0.17389750527E+02  0.43475369097E+02  0.10566000000E+00 0.  1.
         23    2    1    0    0    0 -0.17151540978E+02  0.23981631592E+02  0.30431012246E+02  0.82628541233E+02  0.70937545124E+02 0.  0.
         13    1    3    3    0    0  0.22323799251E+02  0.29402945499E+02  0.13041261719E+02  0.39153172136E+02  0.10566000000E+00 0. -1.
         22    1    1    0    0    0  0.17151540978E+02 -0.23981631592E+02 -0.30431012246E+02  0.42371458767E+02  0.00000000000E+00 0.  1.
</event>
<event>
 5    1  0.1764318E-003  0.9118800E+02  0.7818608E-02  0.1130116E+00
         25   -1    0    0    0    0  0.00000000000E+00  0.00000000000E+00  0.99999998245E-14  0.12500000000E+03  0.12500000000E+03 0.  0.
        -13    1    3    3    0    0  0.50513932490E+02  0.29846187733E+02  0.18887176850E+02  0.61637560880E+02  0.10566000000E+00 0.  1.
         23    2    1    0    0    0  0.23562293562E+02  0.11565941615E+02  0.15832198759E+02  0.94346921837E+02  0.89228529402E+02 0.  0.
         13    1    3    3    0    0 -0.26951638928E+02 -0.18280246118E+02 -0.30549780909E+01  0.32709360957E+02  0.10566000000E+00 0. -1.
         22    1    1    0    0    0 -0.23562293562E+02 -0.11565941615E+02 -0.15832198759E+02  0.30653078163E+02  0.00000000000E+00 0.  1.
</event>
<event>
 5    1  0.1764318E-003  0.9118800E+02  0.7818608E-02  0.1130116E+00
         25   -1    0    0    0    0  0.00000000000E+00  0.00000000000E+00  0.99999998245E-14  0.12500000000E+03  0.12500000000E+03 0.  0.
        -13    1    3    3    0    0 -0.58796664734E+02 -0.47670272754E+01 -0.10805322275E+02  0.59971147116E+02  0.10566000000E+00 0. -1.
         23    2    1    0    0    0 -0.27205057612E+02 -0.79944505292E+01  0.61720223384E+01  0.95980691623E+02  0.91488649054E+02 0.  0.
         13    1    3    3    0    0  0.31591607123E+02 -0.32274232538E+01  0.16977344613E+02  0.36009544507E+02  0.10566000000E+00 0.  1.
         22    1    1    0    0    0  0.27205057612E+02  0.79944505292E+01 -0.61720223384E+01  0.29019308377E+02  0.00000000000E+00 0. -1.
</event>
<event>
 5    1  0.1764318E-003  0.9118800E+02  0.7818608E-02  0.1130116E+00
         25   -1    0    0    0    0  0.00000000000E+00  0.00000000000E+00  0.99999998245E-14  0.12500000000E+03  0.12500000000E+03 0.  0.
        -13    1    3    3    0    0  0.40353096021E+02 -0.15348075858E+02 -0.81190183033E+01  0.43930233476E+02  0.10566000000E+00 0.  1.
         23    2    1    0    0    0  0.13715942244E+02  0.27032784720E+02 -0.64106799775E+01  0.94016208445E+02  0.88764024870E+02 0.  0.
         13    1    3    3    0    0 -0.26637153777E+02  0.42380860578E+02  0.17083383259E+01  0.50085974969E+02  0.10566000000E+00 0. -1.
         22    1    1    0    0    0 -0.13715942244E+02 -0.27032784720E+02  0.64106799775E+01  0.30983791555E+02  0.00000000000E+00 0. -1.
</event>
<event>
 5    1  0.1764318E-003  0.9118800E+02  0.7818608E-02  0.1130116E+00
         25   -1    0    0    0    0  0.00000000000E+00  0.00000000000E+00  0.99999998245E-14  0.12500000000E+03  0.12500000000E+03 0.  0.
        -13    1    3    3    0    0  0.27639139306E+02  0.20895294890E+02 -0.97355408226E+01  0.35990655582E+02  0.10566000000E+00 0.  1.
         23    2    1    0    0    0 -0.24537251047E+01 -0.15920242069E+02  0.25267538407E+02  0.95034630461E+02  0.90186792910E+02 0.  0.
         13    1    3    3    0    0 -0.30092864410E+02 -0.36815536959E+02  0.35003079230E+02  0.59043974880E+02  0.10566000000E+00 0. -1.
         22    1    1    0    0    0  0.24537251047E+01  0.15920242069E+02 -0.25267538407E+02  0.29965369539E+02  0.00000000000E+00 0. -1.
</event>
<event>
 5    1  0.1764318E-003  0.9118800E+02  0.7818608E-02  0.1130116E+00
         25   -1    0    0    0    0  0.00000000000E+00  0.00000000000E+00  0.99999998245E-14  0.12500000000E+03  0.12500000000E+03 0.  0.
        -13    1    3    3    0    0  0.27864706615E+02 -0.28680043843E+02 -0.33257738972E+02  0.52010337003E+02  0.10566000000E+00 0.  1.
         23    2    1    0    0    0 -0.14982895603E+00  0.59502659062E+01 -0.27428383486E+02  0.96933216541E+02  0.92780947048E+02 0.  0.
         13    1    3    3    0    0 -0.28014535571E+02  0.34630309749E+02  0.58293554854E+01  0.44922879538E+02  0.10566000000E+00 0. -1.
         22    1    1    0    0    0  0.14982895603E+00 -0.59502659062E+01  0.27428383486E+02  0.28066783459E+02  0.00000000000E+00 0.  1.
</event>
<event>
 5    1  0.1764318E-003  0.9118800E+02  0.7818608E-02  0.1130116E+00
         25   -1    0    0    0    0  0.00000000000E+00  0.00000000000E+00  0.99999998245E-14  0.12500000000E+03  0.12500000000E+03 0.  0.
        -13    1    3    3    0    0 -0.26601775599E+02  0.22618945022E+01 -0.54308160379E+02  0.60515767198E+02  0.10566000000E+00 0. -1.
         23    2    1    0    0    0 -0.21701747607E+01  0.10243653618E+01 -0.29660418328E+02  0.95242658077E+02  0.90474662306E+02 0.  0.
         13    1    3    3    0    0  0.24431600838E+02 -0.12375291404E+01  0.24647742051E+02  0.34726890879E+02  0.10566000000E+00 0.  1.
         22    1    1    0    0    0  0.21701747607E+01 -0.10243653618E+01  0.29660418328E+02  0.29757341923E+02  0.00000000000E+00 0. -1.
</event>
<event>
 5    1  0.1764318E-003  0.9118800E+02  0.7818608E-02  0.1130116E+00
         25   -1    0    0    0    0  0.00000000000E+00  0.00000000000E+00  0.99999998245E-14  0.12500000000E+03  0.12500000000E+03 0.  0.
        -13    1    3    3    0    0 -0.67730543135E+00  0.35132080943E+02  0.64819230363E+01  0.35731615473E+02  0.10566000000E+00 0.  1.
         23    2    1    0    0    0 -0.32665384228E+02 -0.94132168293E+01  0.53697966215E+01  0.90583859984E+02  0.83791198798E+02 0.  0.
         13    1    3    3    0    0 -0.31988078797E+02 -0.44545297772E+02 -0.11121264148E+01  0.54852244511E+02  0.10566000000E+00 0. -1.
         22    1    1    0    0    0  0.32665384228E+02  0.94132168293E+01 -0.53697966215E+01  0.34416140016E+02  0.00000000000E+00 0. -1.
</event>
<event>
 5    1  0.1764318E-003  0.9118800E+02  0.7818608E-02  0.1130116E+00
         25   -1    0    0    0    0  0.00000000000E+00  0.00000000000E+00  0.99999998245E-14  0.12500000000E+03  0.12500000000E+03 0.  0.
        -13    1    3    3    0    0 -0.27785810930E+02 -0.25079465570E+02  0.37274500104E+01  0.37615634116E+02  0.10566000000E+00 0. -1.
         23    2    1    0    0    0 -0.85869727284E+01  0.28633730374E+02 -0.25319444296E+01  0.94999377367E+02  0.90137918446E+02 0.  0.
         13    1    3    3    0    0  0.19198838202E+02  0.53713195944E+02 -0.62593944399E+01  0.57383743252E+02  0.10566000000E+00 0.  1.
         22    1    1    0    0    0  0.85869727284E+01 -0.28633730374E+02  0.25319444296E+01  0.30000622633E+02  0.00000000000E+00 0.  1.
</event>
<event>
 5    1  0.1764318E-003  0.9118800E+02  0.7818608E-02  0.1130116E+00
         25   -1    0    0    0    0  0.00000000000E+00  0.00000000000E+00  0.99999998245E-14  0.12500000000E+03  0.12500000000E+03 0.  0.
        -13    1    3    3    0    0 -0.26674396049E+02  0.49825400005E+01 -0.47428457687E+02  0.54642647008E+02  0.10566000000E+00 0.  1.
         23    2    1    0    0    0 -0.27403879231E+02 -0.50118702868E+01 -0.70262685544E+01  0.96269182217E+02  0.91881965337E+02 0.  0.
         13    1    3    3    0    0 -0.72948318228E+00 -0.99944102873E+01  0.40402189133E+02  0.41626535209E+02  0.10566000000E+00 0. -1.
         22    1    1    0    0    0  0.27403879231E+02  0.50118702868E+01  0.70262685544E+01  0.28730817783E+02  0.00000000000E+00 0.  1.
</event>
<event>
 5    1  0.1764318E-003  0.9118800E+02  0.7818608E-02  0.1130116E+00
         25   -1    0    0    0    0  0.00000000000E+00  0.00000000000E+00  0.99999998245E-14  0.12500000000E+03  0.12500000000E+03 0.  0.
        -13    1    3    3    0    0 -0.18609922749E+01  0.43244693085E+02 -0.18316758322E+02  0.47000867776E+02  0.10566000000E+00 0.  1.
         23    2    1    0    0    0 -0.18011113951E+02 -0.22925302216E+01 -0.23173522158E+02  0.95560773621E+02  0.90913109094E+02 0.  0.
         13    1    3    3    0    0 -0.16150121676E+02 -0.45537223306E+02 -0.48567638364E+01  0.48559905844E+02  0.10566000000E+00 0. -1.
         22    1    1    0    0    0  0.18011113951E+02  0.22925302216E+01  0.23173522158E+02  0.29439226379E+02  0.00000000000E+00 0.  1.
</event>
<event>
 5    1  0.1764318E-003  0.9118800E+02  0.7818608E-02  0.1130116E+00
         25   -1    0    0    0    0  0.00000000000E+00  0.00000000000E+00  0.99999998245E-14  0.12500000000E+03  0.12500000000E+03 0.  0.
        -13    1    3    3    0    0  0.29673653141E+02 -0.19587146052E+02 -0.75541596544E+01  0.36349119292E+02  0.10566000000E+00 0.  1.
         23    2    1    0    0    0 -0.15919397819E+02  0.18782865385E+02 -0.14632927401E+02  0.96358320173E+02  0.92003152355E+02 0.  0.
         13    1    3    3    0    0 -0.45593050960E+02  0.38370011437E+02 -0.70787677466E+01  0.60009200881E+02  0.10566000000E+00 0. -1.
         22    1    1    0    0    0  0.15919397819E+02 -0.18782865385E+02  0.14632927401E+02  0.28641679827E+02  0.00000000000E+00 0. -1.
</event>
<event>
 5    1  0.1764318E-003  0.9118800E+02  0.7818608E-02  0.1130116E+00
         25   -1    0    0    0    0  0.00000000000E+00  0.00000000000E+00  0.99999998245E-14  0.12500000000E+03  0.12500000000E+03 0.  0.
        -13    1    3    3    0    0 -0.72558671330E+00 -0.32152560883E+02  0.22216537362E+02  0.39088353046E+02  0.10566000000E+00 0.  1.
         23    2    1    0    0    0 -0.21582086656E+02  0.10476017447E+02 -0.12557101823E+02  0.97922071494E+02  0.94103761208E+02 0.  0.
         13    1    3    3    0    0 -0.20856499943E+02  0.42628578330E+02 -0.34773639185E+02  0.58833718449E+02  0.10566000000E+00 0. -1.
         22    1    1    0    0    0  0.21582086656E+02 -0.10476017447E+02  0.12557101823E+02  0.27077928506E+02  0.00000000000E+00 0. -1.
</event>
<event>
 5    1  0.1764318E-003  0.9118800E+02  0.7818608E-02  0.1130116E+00
         25   -1    0    0    0    0  0.00000000000E+00  0.00000000000E+00  0.99999998245E-14  0.12500000000E+03  0.12500000000E+03 0.  0.
        -13    1    3    3    0    0  0.13898289940E+02  0.11653000888E+02  0.43684379558E+02  0.47300011356E+02  0.10566000000E+00 0.  1.
         23    2    1    0    0    0  0.28969955482E+02  0.18761650244E+01 -0.15058284816E+01  0.95930327913E+02  0.91419811738E+02 0.  0.
         13    1    3    3    0    0  0.15071665542E+02 -0.97768358634E+01 -0.45190208039E+02  0.48630316557E+02  0.10566000000E+00 0. -1.
         22    1    1    0    0    0 -0.28969955482E+02 -0.18761650244E+01  0.15058284816E+01  0.29069672087E+02  0.00000000000E+00 0.  1.
</event>
<event>
 5    1  0.1764318E-003  0.9118800E+02  0.7818608E-02  0.1130116E+00
         25   -1    0    0    0    0  0.00000000000E+00  0.00000000000E+00  0.99999998245E-14  0.12500000000E+03  0.12500000000E+03 0.  0.
        -13    1    3    3    0    0  0.10865030888E+02  0.11447197377E+02 -0.34170939468E+02  0.37639759459E+02  0.10566000000E+00 0. -1.
         23    2    1    0    0    0 -0.41901951406E+01 -0.73305092857E+01  0.23445106695E+02  0.10008078794E+03  0.96928824326E+02 0.  0.
         13    1    3    3    0    0 -0.15055226029E+02 -0.18777706662E+02  0.57616046163E+02  0.62441028481E+02  0.10566000000E+00 0.  1.
         22    1    1    0    0    0  0.41901951406E+01  0.73305092857E+01 -0.23445106695E+02  0.24919212059E+02  0.00000000000E+00 0.  1.
</event>
<event>
 5    1  0.1764318E-003  0.9118800E+02  0.7818608E-02  0.1130116E+00
         25   -1    0    0    0    0  0.00000000000E+00  0.00000000000E+00  0.99999998245E-14  0.12500000000E+03  0.12500000000E+03 0.  0.
        -13    1    3    3    0    0  0.24042368486E+02  0.76899006304E+00  0.18996632444E+01  0.24129788905E+02  0.10566000000E+00 0. -1.
         23    2    1    0    0    0 -0.16894817845E+02  0.37154449147E+02 -0.15105608445E+02  0.81479115726E+02  0.68882355735E+02 0.  0.
         13    1    3    3    0    0 -0.40937186331E+02  0.36385459084E+02 -0.17005271690E+02  0.57349326821E+02  0.10566000000E+00 0.  1.
         22    1    1    0    0    0  0.16894817845E+02 -0.37154449147E+02  0.15105608445E+02  0.43520884274E+02  0.00000000000E+00 0.  1.
</event>
<event>
 5    1  0.1764318E-003  0.9118800E+02  0.7818608E-02  0.1130116E+00
         25   -1    0    0    0    0  0.00000000000E+00  0.00000000000E+00  0.99999998245E-14  0.12500000000E+03  0.12500000000E+03 0.  0.
        -13    1    3    3    0    0  0.62044633480E+01  0.27080620158E+02  0.40176793834E+02  0.48847121516E+02  0.10566000000E+00 0.  1.
         23    2    1    0    0    0 -0.15565703936E+02 -0.12169674509E+02  0.13675951998E+02  0.10097035623E+03  0.98069307418E+02 0.  0.
         13    1    3    3    0    0 -0.21770167284E+02 -0.39250294667E+02 -0.26500841836E+02  0.52123234714E+02  0.10566000000E+00 0. -1.
         22    1    1    0    0    0  0.15565703936E+02  0.12169674509E+02 -0.13675951998E+02  0.24029643770E+02  0.00000000000E+00 0. -1.
</event>
<event>
 5    1  0.1764318E-003  0.9118800E+02  0.7818608E-02  0.1130116E+00
         25   -1    0    0    0    0  0.00000000000E+00  0.00000000000E+00  0.99999998245E-14  0.12500000000E+03  0.12500000000E+03 0.  0.
        -13    1    3    3    0    0  0.26265948309E+02  0.10306584140E+02 -0.20401510747E+02  0.34818939128E+02  0.10566000000E+00 0.  1.
         23    2    1    0    0    0 -0.26345778181E+02  0.13786102406E+02  0.73036063123E+01  0.94381389439E+02  0.89276801913E+02 0.  0.
         13    1    3    3    0    0 -0.52611726491E+02  0.34795182662E+01  0.27705117059E+02  0.59562450310E+02  0.10566000000E+00 0. -1.
         22    1    1    0    0    0  0.26345778181E+02 -0.13786102406E+02 -0.73036063123E+01  0.30618610561E+02  0.00000000000E+00 0. -1.
</event>
<event>
 5    1  0.1764318E-003  0.9118800E+02  0.7818608E-02  0.1130116E+00
         25   -1    0    0    0    0  0.00000000000E+00  0.00000000000E+00  0.99999998245E-14  0.12500000000E+03  0.12500000000E+03 0.  0.
        -13    1    3    3    0    0  0.17545412335E+02  0.11466475881E+02 -0.31477516001E+02  0.37817545410E+02  0.10566000000E+00 0.  1.
         23    2    1    0    0    0 -0.21596863994E+02 -0.21051349348E+02 -0.84043978550E+01  0.93691570671E+02  0.88305677438E+02 0.  0.
         13    1    3    3    0    0 -0.39142276329E+02 -0.32517825230E+02  0.23073118146E+02  0.55874025261E+02  0.10566000000E+00 0. -1.
         22    1    1    0    0    0  0.21596863994E+02  0.21051349348E+02  0.84043978550E+01  0.31308429329E+02  0.00000000000E+00 0.  1.
</event>
<event>
 5    1  0.1764318E-003  0.9118800E+02  0.7818608E-02  0.1130116E+00
         25   -1    0    0    0    0  0.00000000000E+00  0.00000000000E+00  0.99999998245E-14  0.12500000000E+03  0.12500000000E+03 0.  0.
        -13    1    3    3    0    0 -0.12099185302E+02  0.98142446823E+01  0.30649153900E+02  0.34381557302E+02  0.10566000000E+00 0.  1.
         23    2    1    0    0    0 -0.60525764087E+01  0.16791212673E+02 -0.26927665726E+02  0.92693999231E+02  0.86882102920E+02 0.  0.
         13    1    3    3    0    0  0.60466088937E+01  0.69769679907E+01 -0.57576819626E+02  0.58312441929E+02  0.10566000000E+00 0. -1.
         22    1    1    0    0    0  0.60525764087E+01 -0.16791212673E+02  0.26927665726E+02  0.32306000769E+02  0.00000000000E+00 0.  1.
</event>
<event>
 5    1  0.1764318E-003  0.9118800E+02  0.7818608E-02  0.1130116E+00
         25   -1    0    0    0    0  0.00000000000E+00  0.00000000000E+00  0.99999998245E-14  0.12500000000E+03  0.12500000000E+03 0.  0.
        -13    1    3    3    0    0  0.40456068644E+01  0.41660477626E+02 -0.39189342465E+01  0.42039642489E+02  0.10566000000E+00 0. -1.
         23    2    1    0    0    0  0.24166883812E+02 -0.64062178889E+01 -0.15719210279E+02  0.95467450625E+02  0.90784704968E+02 0.  0.
         13    1    3    3    0    0  0.20121276948E+02 -0.48066695515E+02 -0.11800276032E+02  0.53427808136E+02  0.10566000000E+00 0.  1.
         22    1    1    0    0    0 -0.24166883812E+02  0.64062178889E+01  0.15719210279E+02  0.29532549375E+02  0.00000000000E+00 0.  1.
</event>
<event>
 5    1  0.1764318E-003  0.9118800E+02  0.7818608E-02  0.1130116E+00
         25   -1    0    0    0    0  0.00000000000E+00  0.00000000000E+00  0.99999998245E-14  0.12500000000E+03  0.12500000000E+03 0.  0.
        -13    1    3    3    0    0  0.22693893647E+02  0.58153854804E+01  0.26097480067E+02  0.35070231637E+02  0.10566000000E+00 0. -1.
         23    2    1    0    0    0 -0.28858165453E+02 -0.14925181228E+00 -0.52048600495E+01  0.95675836627E+02  0.91071176322E+02 0.  0.
         13    1    3    3    0    0 -0.51552059099E+02 -0.59646372927E+01 -0.31302340117E+02  0.60605604990E+02  0.10566000000E+00 0.  1.
         22    1    1    0    0    0  0.28858165453E+02  0.14925181228E+00  0.52048600495E+01  0.29324163373E+02  0.00000000000E+00 0.  1.
</event>
<event>
 5    1  0.1764318E-003  0.9118800E+02  0.7818608E-02  0.1130116E+00
         25   -1    0    0    0    0  0.00000000000E+00  0.00000000000E+00  0.99999998245E-14  0.12500000000E+03  0.12500000000E+03 0.  0.
        -13    1    3    3    0    0 -0.31173246602E+02  0.77728585693E+01  0.40141498849E+02  0.51415364706E+02  0.10566000000E+00 0. -1.
         23    2    1    0    0    0 -0.22843619610E+02 -0.15011246258E+02  0.77710996086E+00  0.97654573124E+02  0.93747764139E+02 0.  0.
         13    1    3    3    0    0  0.83296269913E+01 -0.22784104827E+02 -0.39364388888E+02  0.46239208418E+02  0.10566000000E+00 0.  1.
         22    1    1    0    0    0  0.22843619610E+02  0.15011246258E+02 -0.77710996086E+00  0.27345426876E+02  0.00000000000E+00 0. -1.
</event>
<event>
 5    1  0.1764318E-003  0.9118800E+02  0.7818608E-02  0.1130116E+00
         25   -1    0    0    0    0  0.00000000000E+00  0.00000000000E+00  0.99999998245E-14  0.12500000000E+03  0.12500000000E+03 0.  0.
        -13    1    3    3    0    0  0.25801786318E+02 -0.31039382665E+02  0.86735372449E+01  0.41284583876E+02  0.10566000000E+00 0.  1.
         23    2    1    0    0    0  0.16617467413E+02  0.22991270207E+02  0.48182761891E+01  0.96225801238E+02  0.91822929106E+02 0.  0.
         13    1    3    3    0    0 -0.91843189051E+01  0.54030652871E+02 -0.38552610558E+01  0.54941217363E+02  0.10566000000E+00 0. -1.
         22    1    1    0    0    0 -0.16617467413E+02 -0.22991270207E+02 -0.48182761891E+01  0.28774198762E+02  0.00000000000E+00 0. -1.
</event>
<event>
 5    1  0.1764318E-003  0.9118800E+02  0.7818608E-02  0.1130116E+00
         25   -1    0    0    0    0  0.00000000000E+00  0.00000000000E+00  0.99999998245E-14  0.12500000000E+03  0.12500000000E+03 0.  0.
        -13    1    3    3    0    0  0.51252920246E+02  0.17420477748E+02  0.24783438297E+02  0.59536248258E+02  0.10566000000E+00 0. -1.
         23    2    1    0    0    0  0.27304173956E+02  0.67769910172E+01 -0.17273443354E+01  0.96814378823E+02  0.92620703440E+02 0.  0.
         13    1    3    3    0    0 -0.23948746290E+02 -0.10643486730E+02 -0.26510782632E+02  0.37278130565E+02  0.10566000000E+00 0.  1.
         22    1    1    0    0    0 -0.27304173956E+02 -0.67769910172E+01  0.17273443354E+01  0.28185621177E+02  0.00000000000E+00 0. -1.
</event>
<event>
 5    1  0.1764318E-003  0.9118800E+02  0.7818608E-02  0.1130116E+00
         25   -1    0    0    0    0  0.00000000000E+00  0.00000000000E+00  0.99999998245E-14  0.12500000000E+03  0.12500000000E+03 0.  0.
        -13    1    3    3    0    0 -0.18401228140E+02  0.16051682890E+02 -0.29053245532E+02  0.37952127222E+02  0.10566000000E+00 0.  1.
         23    2    1    0    0    0  0.27183999209E+02  0.20912554648E+02 -0.32745622974E+01  0.90546734361E+02  0.83735796350E+02 0.  0.
         13    1    3    3    0    0  0.45585227350E+02  0.48608717583E+01  0.25778683235E+02  0.52594607139E+02  0.10566000000E+00 0. -1.
         22    1    1    0    0    0 -0.27183999209E+02 -0.20912554648E+02  0.32745622974E+01  0.34453265639E+02  0.00000000000E+00 0. -1.
</event>
<event>
 5    1  0.1764318E-003  0.9118800E+02  0.7818608E-02  0.1130116E+00
         25   -1    0    0    0    0  0.00000000000E+00  0.00000000000E+00  0.99999998245E-14  0.12500000000E+03  0.12500000000E+03 0.  0.
        -13    1    3    3    0    0  0.20500741074E+02 -0.20282829848E+02 -0.30311231375E+02  0.41838445033E+02  0.10566000000E+00 0. -1.
         23    2    1    0    0    0 -0.15843526857E+02  0.17417449326E+02 -0.17258118600E+02  0.95807063493E+02  0.91251114367E+02 0.  0.
         13    1    3    3    0    0 -0.36344267931E+02  0.37700279174E+02  0.13053112775E+02  0.53968618460E+02  0.10566000000E+00 0.  1.
         22    1    1    0    0    0  0.15843526857E+02 -0.17417449326E+02  0.17258118600E+02  0.29192936507E+02  0.00000000000E+00 0.  1.
</event>
<event>
 5    1  0.1764318E-003  0.9118800E+02  0.7818608E-02  0.1130116E+00
         25   -1    0    0    0    0  0.00000000000E+00  0.00000000000E+00  0.99999998245E-14  0.12500000000E+03  0.12500000000E+03 0.  0.
        -13    1    3    3    0    0  0.30878437444E+02 -0.10851670180E+02  0.96664243678E+01  0.34127519229E+02  0.10566000000E+00 0. -1.
         23    2    1    0    0    0 -0.26876643633E+02 -0.39024267175E+01 -0.10769064164E+02  0.95784325265E+02  0.91219961172E+02 0.  0.
         13    1    3    3    0    0 -0.57755081077E+02  0.69492434630E+01 -0.20435488532E+02  0.61656806035E+02  0.10566000000E+00 0.  1.
         22    1    1    0    0    0  0.26876643633E+02  0.39024267175E+01  0.10769064164E+02  0.29215674735E+02  0.00000000000E+00 0.  1.
</event>
<event>
 5    1  0.1764318E-003  0.9118800E+02  0.7818608E-02  0.1130116E+00
         25   -1    0    0    0    0  0.00000000000E+00  0.00000000000E+00  0.99999998245E-14  0.12500000000E+03  0.12500000000E+03 0.  0.
        -13    1    3    3    0    0  0.20684849186E+02  0.36687627796E+02 -0.38318408929E+02  0.56939938936E+02  0.10566000000E+00 0.  1.
         23    2    1    0    0    0 -0.51139580140E+01  0.26687458773E+02 -0.11433762559E+02  0.95519430999E+02  0.90856247720E+02 0.  0.
         13    1    3    3    0    0 -0.25798807200E+02 -0.10000169022E+02  0.26884646370E+02  0.38579492064E+02  0.10566000000E+00 0. -1.
         22    1    1    0    0    0  0.51139580140E+01 -0.26687458773E+02  0.11433762559E+02  0.29480569001E+02  0.00000000000E+00 0.  1.
</event>
<event>
 5    1  0.1764318E-003  0.9118800E+02  0.7818608E-02  0.1130116E+00
         25   -1    0    0    0    0  0.00000000000E+00  0.00000000000E+00  0.99999998245E-14  0.12500000000E+03  0.12500000000E+03 0.  0.
        -13    1    3    3    0    0  0.33335717886E+02  0.13183273070E+02  0.36010807074E+02  0.50811988408E+02  0.10566000000E+00 0.  1.
         23    2    1    0    0    0  0.10756121861E+01  0.28047610841E+02  0.87107295443E+01  0.95611188784E+02  0.90982400475E+02 0.  0.
         13    1    3    3    0    0 -0.32260105700E+02  0.14864337772E+02 -0.27300077530E+02  0.44799200376E+02  0.10566000000E+00 0. -1.
         22    1    1    0    0    0 -0.10756121861E+01 -0.28047610841E+02 -0.87107295443E+01  0.29388811216E+02  0.00000000000E+00 0.  1.
</event>
<event>
 5    1  0.1764318E-003  0.9118800E+02  0.7818608E-02  0.1130116E+00
         25   -1    0    0    0    0  0.00000000000E+00  0.00000000000E+00  0.99999998245E-14  0.12500000000E+03  0.12500000000E+03 0.  0.
        -13    1    3    3    0    0 -0.47392236038E+02  0.32465420587E+01 -0.36520583945E+02  0.59919348192E+02  0.10566000000E+00 0.  1.
         23    2    1    0    0    0 -0.16673637556E+02 -0.89218543678E+01 -0.21941212922E+02  0.96034045861E+02  0.91561517381E+02 0.  0.
         13    1    3    3    0    0  0.30718598481E+02 -0.12168396426E+02  0.14579371023E+02  0.36114697669E+02  0.10566000000E+00 0. -1.
         22    1    1    0    0    0  0.16673637556E+02  0.89218543678E+01  0.21941212922E+02  0.28965954139E+02  0.00000000000E+00 0.  1.
</event>
<event>
 5    1  0.1764318E-003  0.9118800E+02  0.7818608E-02  0.1130116E+00
         25   -1    0    0    0    0  0.00000000000E+00  0.00000000000E+00  0.99999998245E-14  0.12500000000E+03  0.12500000000E+03 0.  0.
        -13    1    3    3    0    0 -0.13399326513E+02 -0.41371520324E+02 -0.51250708213E+01  0.43788379279E+02  0.10566000000E+00 0.  1.
         23    2    1    0    0    0 -0.29371787383E+02  0.65007393811E+01 -0.62828837083E+01  0.94268320347E+02  0.89118348766E+02 0.  0.
         13    1    3    3    0    0 -0.15972460871E+02  0.47872259705E+02 -0.11578128870E+01  0.50479941068E+02  0.10566000000E+00 0. -1.
         22    1    1    0    0    0  0.29371787383E+02 -0.65007393811E+01  0.62828837083E+01  0.30731679653E+02  0.00000000000E+00 0.  1.
</event>
<event>
 5    1  0.1764318E-003  0.9118800E+02  0.7818608E-02  0.1130116E+00
         25   -1    0    0    0    0  0.00000000000E+00  0.00000000000E+00  0.99999998245E-14  0.12500000000E+03  0.12500000000E+03 0.  0.
        -13    1    3    3    0    0  0.25062855252E+02 -0.13209157282E+02  0.22205511826E+02  0.35996172977E+02  0.10566000000E+00 0. -1.
         23    2    1    0    0    0 -0.11921724662E+02  0.22878808913E+02 -0.10495520044E+02  0.97148189337E+02  0.93070120524E+02 0.  0.
         13    1    3    3    0    0 -0.36984579914E+02  0.36087966195E+02 -0.32701031870E+02  0.61152016360E+02  0.10566000000E+00 0.  1.
         22    1    1    0    0    0  0.11921724662E+02 -0.22878808913E+02  0.10495520044E+02  0.27851810663E+02  0.00000000000E+00 0.  1.
</event>
<event>
 5    1  0.1764318E-003  0.9118800E+02  0.7818608E-02  0.1130116E+00
         25   -1    0    0    0    0  0.00000000000E+00  0.00000000000E+00  0.99999998245E-14  0.12500000000E+03  0.12500000000E+03 0.  0.
        -13    1    3    3    0    0  0.19863129077E+02 -0.37964077144E+02  0.12669041861E+02  0.44680318216E+02  0.10566000000E+00 0.  1.
         23    2    1    0    0    0  0.10325492945E+02  0.14650317123E+02  0.19415667003E+02  0.98576228098E+02  0.94968716030E+02 0.  0.
         13    1    3    3    0    0 -0.95376361319E+01  0.52614394268E+02  0.67466251423E+01  0.53895909882E+02  0.10566000000E+00 0. -1.
         22    1    1    0    0    0 -0.10325492945E+02 -0.14650317123E+02 -0.19415667003E+02  0.26423771902E+02  0.00000000000E+00 0.  1.
</event>
<event>
 5    1  0.1764318E-003  0.9118800E+02  0.7818608E-02  0.1130116E+00
         25   -1    0    0    0    0  0.00000000000E+00  0.00000000000E+00  0.99999998245E-14  0.12500000000E+03  0.12500000000E+03 0.  0.
        -13    1    3    3    0    0 -0.46220971776E+02  0.19393162008E+02 -0.80457570542E+01  0.50766311026E+02  0.10566000000E+00 0.  1.
         23    2    1    0    0    0 -0.95230610288E+01 -0.25297961738E-02 -0.26979612462E+02  0.96389019829E+02  0.92044852964E+02 0.  0.
         13    1    3    3    0    0  0.36697910747E+02 -0.19395691804E+02 -0.18933855408E+02  0.45622708802E+02  0.10566000000E+00 0. -1.
         22    1    1    0    0    0  0.95230610288E+01  0.25297961738E-02  0.26979612462E+02  0.28610980171E+02  0.00000000000E+00 0.  1.
</event>
<event>
 5    1  0.1764318E-003  0.9118800E+02  0.7818608E-02  0.1130116E+00
         25   -1    0    0    0    0  0.00000000000E+00  0.00000000000E+00  0.99999998245E-14  0.12500000000E+03  0.12500000000E+03 0.  0.
        -13    1    3    3    0    0 -0.41229161613E+02 -0.17887646278E+02  0.11523522686E+02  0.46396275668E+02  0.10566000000E+00 0.  1.
         23    2    1    0    0    0 -0.14057124457E+02  0.22253471038E+02  0.14478319453E+02  0.94959336635E+02  0.90082374296E+02 0.  0.
         13    1    3    3    0    0  0.27172037156E+02  0.40141117316E+02  0.29547967674E+01  0.48563060967E+02  0.10566000000E+00 0. -1.
         22    1    1    0    0    0  0.14057124457E+02 -0.22253471038E+02 -0.14478319453E+02  0.30040663365E+02  0.00000000000E+00 0. -1.
</event>
<event>
 5    1  0.1764318E-003  0.9118800E+02  0.7818608E-02  0.1130116E+00
         25   -1    0    0    0    0  0.00000000000E+00  0.00000000000E+00  0.99999998245E-14  0.12500000000E+03  0.12500000000E+03 0.  0.
        -13    1    3    3    0    0  0.36330340896E+02  0.26517103074E+02 -0.14957355340E+02  0.47400253880E+02  0.10566000000E+00 0. -1.
         23    2    1    0    0    0  0.25951956103E+02 -0.93750461165E+01  0.13418659413E+02  0.94316846060E+02  0.89186386377E+02 0.  0.
         13    1    3    3    0    0 -0.10378384793E+02 -0.35892149191E+02  0.28376014753E+02  0.46916592180E+02  0.10566000000E+00 0.  1.
         22    1    1    0    0    0 -0.25951956103E+02  0.93750461165E+01 -0.13418659413E+02  0.30683153940E+02  0.00000000000E+00 0. -1.
</event>
<event>
 5    1  0.1764318E-003  0.9118800E+02  0.7818608E-02  0.1130116E+00
         25   -1    0    0    0    0  0.00000000000E+00  0.00000000000E+00  0.99999998245E-14  0.12500000000E+03  0.12500000000E+03 0.  0.
        -13    1    3    3    0    0 -0.10768599358E+02 -0.39291777539E+02  0.38440719234E+01  0.40921810411E+02  0.10566000000E+00 0. -1.
         23    2    1    0    0    0  0.28941743720E+02 -0.12214595786E+01  0.67341315661E+00  0.96024666036E+02  0.91548711126E+02 0.  0.
         13    1    3    3    0    0  0.39710343078E+02  0.38070317960E+02 -0.31706587668E+01  0.55102855625E+02  0.10566000000E+00 0.  1.
         22    1    1    0    0    0 -0.28941743720E+02  0.12214595786E+01 -0.67341315661E+00  0.28975333964E+02  0.00000000000E+00 0.  1.
</event>
<event>
 5    1  0.1764318E-003  0.9118800E+02  0.7818608E-02  0.1130116E+00
         25   -1    0    0    0    0  0.00000000000E+00  0.00000000000E+00  0.99999998245E-14  0.12500000000E+03  0.12500000000E+03 0.  0.
        -13    1    3    3    0    0  0.17278330716E+02  0.20663195072E+02  0.52363258460E+02  0.58884890621E+02  0.10566000000E+00 0.  1.
         23    2    1    0    0    0  0.50790575168E+00 -0.21567195722E+01  0.29863078749E+02  0.95054835450E+02  0.90214792925E+02 0.  0.
         13    1    3    3    0    0 -0.16770424964E+02 -0.22819914644E+02 -0.22500179711E+02  0.36169944829E+02  0.10566000000E+00 0. -1.
         22    1    1    0    0    0 -0.50790575168E+00  0.21567195722E+01 -0.29863078749E+02  0.29945164550E+02  0.00000000000E+00 0.  1.
</event>
<event>
 5    1  0.1764318E-003  0.9118800E+02  0.7818608E-02  0.1130116E+00
         25   -1    0    0    0    0  0.00000000000E+00  0.00000000000E+00  0.99999998245E-14  0.12500000000E+03  0.12500000000E+03 0.  0.
        -13    1    3    3    0    0  0.38574526262E+01 -0.44404913668E+02 -0.45040106340E+01  0.44799258638E+02  0.10566000000E+00 0.  1.
         23    2    1    0    0    0  0.30796574940E+02 -0.35225887285E+01  0.36131942069E+00  0.94000512728E+02  0.88741918968E+02 0.  0.
         13    1    3    3    0    0  0.26939122314E+02  0.40882324940E+02  0.48653300547E+01  0.49201254091E+02  0.10566000000E+00 0. -1.
         22    1    1    0    0    0 -0.30796574940E+02  0.35225887285E+01 -0.36131942069E+00  0.30999487272E+02  0.00000000000E+00 0. -1.
</event>
<event>
 5    1  0.1764318E-003  0.9118800E+02  0.7818608E-02  0.1130116E+00
         25   -1    0    0    0    0  0.00000000000E+00  0.00000000000E+00  0.99999998245E-14  0.12500000000E+03  0.12500000000E+03 0.  0.
        -13    1    3    3    0    0 -0.16674110387E+02 -0.45330113754E+02 -0.28821455278E+02  0.56245289745E+02  0.10566000000E+00 0.  1.
         23    2    1    0    0    0 -0.22225725972E+02 -0.18290433142E+02  0.86425471607E-01  0.96215797581E+02  0.91809309960E+02 0.  0.
         13    1    3    3    0    0 -0.55516155857E+01  0.27039680612E+02  0.28907880749E+02  0.39970507836E+02  0.10566000000E+00 0. -1.
         22    1    1    0    0    0  0.22225725972E+02  0.18290433142E+02 -0.86425471607E-01  0.28784202419E+02  0.00000000000E+00 0.  1.
</event>
<event>
 5    1  0.1764318E-003  0.9118800E+02  0.7818608E-02  0.1130116E+00
         25   -1    0    0    0    0  0.00000000000E+00  0.00000000000E+00  0.99999998245E-14  0.12500000000E+03  0.12500000000E+03 0.  0.
        -13    1    3    3    0    0  0.41164756958E+02 -0.22177572865E+02 -0.89527291785E+01  0.47608239596E+02  0.10566000000E+00 0.  1.
         23    2    1    0    0    0 -0.38047830958E+01 -0.29830752388E+02 -0.10209480539E+02  0.93241793890E+02  0.87666689640E+02 0.  0.
         13    1    3    3    0    0 -0.44969540054E+02 -0.76531795230E+01 -0.12567513609E+01  0.45633554294E+02  0.10566000000E+00 0. -1.
         22    1    1    0    0    0  0.38047830958E+01  0.29830752388E+02  0.10209480539E+02  0.31758206110E+02  0.00000000000E+00 0.  1.
</event>
<event>
 5    1  0.1764318E-003  0.9118800E+02  0.7818608E-02  0.1130116E+00
         25   -1    0    0    0    0  0.00000000000E+00  0.00000000000E+00  0.99999998245E-14  0.12500000000E+03  0.12500000000E+03 0.  0.
        -13    1    3    3    0    0 -0.45424997974E+02  0.95133982243E+01 -0.12130564771E+02  0.47969750390E+02  0.10566000000E+00 0.  1.
         23    2    1    0    0    0 -0.10181923081E+02  0.18099086490E+02  0.19808644138E+02  0.96301030123E+02  0.91925282326E+02 0.  0.
         13    1    3    3    0    0  0.35243074893E+02  0.85856882657E+01  0.31939208909E+02  0.48331279733E+02  0.10566000000E+00 0. -1.
         22    1    1    0    0    0  0.10181923081E+02 -0.18099086490E+02 -0.19808644138E+02  0.28698969877E+02  0.00000000000E+00 0. -1.
</event>
<event>
 5    1  0.1764318E-003  0.9118800E+02  0.7818608E-02  0.1130116E+00
         25   -1    0    0    0    0  0.00000000000E+00  0.00000000000E+00  0.99999998245E-14  0.12500000000E+03  0.12500000000E+03 0.  0.
        -13    1    3    3    0    0 -0.50523877317E+02 -0.34226242238E+02 -0.71215546223E+01  0.61439608895E+02  0.10566000000E+00 0. -1.
         23    2    1    0    0    0 -0.26898508059E+02 -0.88614394542E+01 -0.84317524358E+00  0.96666878226E+02  0.92421423688E+02 0.  0.
         13    1    3    3    0    0  0.23625369258E+02  0.25364802784E+02  0.62783793787E+01  0.35227269331E+02  0.10566000000E+00 0.  1.
         22    1    1    0    0    0  0.26898508059E+02  0.88614394542E+01  0.84317524358E+00  0.28333121774E+02  0.00000000000E+00 0. -1.
</event>
<event>
 5    1  0.1764318E-003  0.9118800E+02  0.7818608E-02  0.1130116E+00
         25   -1    0    0    0    0  0.00000000000E+00  0.00000000000E+00  0.99999998245E-14  0.12500000000E+03  0.12500000000E+03 0.  0.
        -13    1    3    3    0    0  0.57922118419E+02  0.11694356635E+02  0.90798252666E+01  0.59784481014E+02  0.10566000000E+00 0. -1.
         23    2    1    0    0    0  0.24727123610E+02  0.13419150005E+02 -0.59169033354E+01  0.96250843943E+02  0.91857013809E+02 0.  0.
         13    1    3    3    0    0 -0.33194994808E+02  0.17247933703E+01 -0.14996728602E+02  0.36466362929E+02  0.10566000000E+00 0.  1.
         22    1    1    0    0    0 -0.24727123610E+02 -0.13419150005E+02  0.59169033354E+01  0.28749156057E+02  0.00000000000E+00 0. -1.
</event>
<event>
 5    1  0.1764318E-003  0.9118800E+02  0.7818608E-02  0.1130116E+00
         25   -1    0    0    0    0  0.00000000000E+00  0.00000000000E+00  0.99999998245E-14  0.12500000000E+03  0.12500000000E+03 0.  0.
        -13    1    3    3    0    0 -0.19003714330E+02 -0.13772654597E+02 -0.36653627302E+02  0.43523863930E+02  0.10566000000E+00 0.  1.
         23    2    1    0    0    0  0.24351881916E+02 -0.15594276745E+02 -0.10246514044E+02  0.94321234214E+02  0.89192536423E+02 0.  0.
         13    1    3    3    0    0  0.43355596246E+02 -0.18216221479E+01  0.26407113258E+02  0.50797370284E+02  0.10566000000E+00 0. -1.
         22    1    1    0    0    0 -0.24351881916E+02  0.15594276745E+02  0.10246514044E+02  0.30678765786E+02  0.00000000000E+00 0. -1.
</event>
<event>
 5    1  0.1764318E-003  0.9118800E+02  0.7818608E-02  0.1130116E+00
         25   -1    0    0    0    0  0.00000000000E+00  0.00000000000E+00  0.99999998245E-14  0.12500000000E+03  0.12500000000E+03 0.  0.
        -13    1    3    3    0    0  0.47959675856E+01  0.44560070302E+02  0.18231621647E+02  0.48383926693E+02  0.10566000000E+00 0.  1.
         23    2    1    0    0    0  0.26706981790E+02  0.25558328358E+01  0.38383621225E+01  0.97897819615E+02  0.94071541413E+02 0.  0.
         13    1    3    3    0    0  0.21911014204E+02 -0.42004237466E+02 -0.14393259524E+02  0.49513892922E+02  0.10566000000E+00 0. -1.
         22    1    1    0    0    0 -0.26706981790E+02 -0.25558328358E+01 -0.38383621225E+01  0.27102180385E+02  0.00000000000E+00 0. -1.
</event>
<event>
 5    1  0.1764318E-003  0.9118800E+02  0.7818608E-02  0.1130116E+00
         25   -1    0    0    0    0  0.00000000000E+00  0.00000000000E+00  0.99999998245E-14  0.12500000000E+03  0.12500000000E+03 0.  0.
        -13    1    3    3    0    0 -0.87142406513E+01  0.51425109153E+02 -0.32439724147E+02  0.61423340094E+02  0.10566000000E+00 0. -1.
         23    2    1    0    0    0 -0.48807913579E+01  0.18248166405E+02 -0.21067143571E+02  0.96704377730E+02  0.92472127868E+02 0.  0.
         13    1    3    3    0    0  0.38334492935E+01 -0.33176942748E+02  0.11372580576E+02  0.35281037635E+02  0.10566000000E+00 0.  1.
         22    1    1    0    0    0  0.48807913579E+01 -0.18248166405E+02  0.21067143571E+02  0.28295622270E+02  0.00000000000E+00 0. -1.
</event>
<event>
 5    1  0.1764318E-003  0.9118800E+02  0.7818608E-02  0.1130116E+00
         25   -1    0    0    0    0  0.00000000000E+00  0.00000000000E+00  0.99999998245E-14  0.12500000000E+03  0.12500000000E+03 0.  0.
        -13    1    3    3    0    0  0.29890800955E+02  0.51355797449E+02 -0.83221642690E+01  0.60001229117E+02  0.10566000000E+00 0. -1.
         23    2    1    0    0    0  0.23522277695E+01  0.28587431425E+02 -0.49485315575E+01  0.95892231697E+02  0.91367707229E+02 0.  0.
         13    1    3    3    0    0 -0.27538573186E+02 -0.22768366024E+02  0.33736327115E+01  0.35891002580E+02  0.10566000000E+00 0.  1.
         22    1    1    0    0    0 -0.23522277695E+01 -0.28587431425E+02  0.49485315575E+01  0.29107768303E+02  0.00000000000E+00 0. -1.
</event>
<event>
 5    1  0.1764318E-003  0.9118800E+02  0.7818608E-02  0.1130116E+00
         25   -1    0    0    0    0  0.00000000000E+00  0.00000000000E+00  0.99999998245E-14  0.12500000000E+03  0.12500000000E+03 0.  0.
        -13    1    3    3    0    0  0.16222507065E+02  0.33867938301E+02 -0.83265835379E+01  0.38464920872E+02  0.10566000000E+00 0. -1.
         23    2    1    0    0    0 -0.94088407241E+01 -0.22848681641E+01  0.27749806089E+02  0.95609548417E+02  0.90980146759E+02 0.  0.
         13    1    3    3    0    0 -0.25631347789E+02 -0.36152806465E+02  0.36076389627E+02  0.57144627545E+02  0.10566000000E+00 0.  1.
         22    1    1    0    0    0  0.94088407241E+01  0.22848681641E+01 -0.27749806089E+02  0.29390451583E+02  0.00000000000E+00 0.  1.
</event>
<event>
 5    1  0.1764318E-003  0.9118800E+02  0.7818608E-02  0.1130116E+00
         25   -1    0    0    0    0  0.00000000000E+00  0.00000000000E+00  0.99999998245E-14  0.12500000000E+03  0.12500000000E+03 0.  0.
        -13    1    3    3    0    0 -0.18986647861E+02  0.96099516970E+00 -0.32805638362E+02  0.37916188905E+02  0.10566000000E+00 0. -1.
         23    2    1    0    0    0  0.75016649405E+01 -0.28522229256E+02  0.76294963826E+01  0.94536878793E+02  0.89494243940E+02 0.  0.
         13    1    3    3    0    0  0.26488312801E+02 -0.29483224426E+02  0.40435134745E+02  0.56620689888E+02  0.10566000000E+00 0.  1.
         22    1    1    0    0    0 -0.75016649405E+01  0.28522229256E+02 -0.76294963826E+01  0.30463121207E+02  0.00000000000E+00 0. -1.
</event>
<event>
 5    1  0.1764318E-003  0.9118800E+02  0.7818608E-02  0.1130116E+00
         25   -1    0    0    0    0  0.00000000000E+00  0.00000000000E+00  0.99999998245E-14  0.12500000000E+03  0.12500000000E+03 0.  0.
        -13    1    3    3    0    0 -0.16222360667E+02  0.32009528622E+02 -0.12400735296E+02  0.37967937897E+02  0.10566000000E+00 0.  1.
         23    2    1    0    0    0 -0.40924587235E+01 -0.19273679977E+01  0.30596105522E+02  0.94071297491E+02  0.88841568945E+02 0.  0.
         13    1    3    3    0    0  0.12129901944E+02 -0.33936896620E+02  0.42996840818E+02  0.56103359594E+02  0.10566000000E+00 0. -1.
         22    1    1    0    0    0  0.40924587235E+01  0.19273679977E+01 -0.30596105522E+02  0.30928702509E+02  0.00000000000E+00 0. -1.
</event>
<event>
 5    1  0.1764318E-003  0.9118800E+02  0.7818608E-02  0.1130116E+00
         25   -1    0    0    0    0  0.00000000000E+00  0.00000000000E+00  0.99999998245E-14  0.12500000000E+03  0.12500000000E+03 0.  0.
        -13    1    3    3    0    0  0.82237093223E+01  0.25765889675E+01 -0.32917371632E+02  0.34026941163E+02  0.10566000000E+00 0.  1.
         23    2    1    0    0    0  0.51748272064E+01  0.74616013222E-01  0.28733602966E+02  0.95804035491E+02  0.91246966376E+02 0.  0.
         13    1    3    3    0    0 -0.30488821159E+01 -0.25019729543E+01  0.61650974598E+02  0.61777094329E+02  0.10566000000E+00 0. -1.
         22    1    1    0    0    0 -0.51748272064E+01 -0.74616013222E-01 -0.28733602966E+02  0.29195964509E+02  0.00000000000E+00 0. -1.
</event>
<event>
 5    1  0.1764318E-003  0.9118800E+02  0.7818608E-02  0.1130116E+00
         25   -1    0    0    0    0  0.00000000000E+00  0.00000000000E+00  0.99999998245E-14  0.12500000000E+03  0.12500000000E+03 0.  0.
        -13    1    3    3    0    0  0.22470569312E+02  0.31375283218E+02  0.33598931776E+02  0.51168684395E+02  0.10566000000E+00 0. -1.
         23    2    1    0    0    0  0.50367826402E+01 -0.10535020802E+02  0.25054767092E+02  0.97357691907E+02  0.93351073785E+02 0.  0.
         13    1    3    3    0    0 -0.17433786672E+02 -0.41910304019E+02 -0.85441646842E+01  0.46189007512E+02  0.10566000000E+00 0.  1.
         22    1    1    0    0    0 -0.50367826402E+01  0.10535020802E+02 -0.25054767092E+02  0.27642308093E+02  0.00000000000E+00 0. -1.
</event>
<event>
 5    1  0.1764318E-003  0.9118800E+02  0.7818608E-02  0.1130116E+00
         25   -1    0    0    0    0  0.00000000000E+00  0.00000000000E+00  0.99999998245E-14  0.12500000000E+03  0.12500000000E+03 0.  0.
        -13    1    3    3    0    0 -0.48021087434E+02  0.57465450433E+01 -0.32766395830E+02  0.58418280341E+02  0.10566000000E+00 0. -1.
         23    2    1    0    0    0 -0.22626224132E+02 -0.11140247695E+01 -0.33295067065E+02  0.84729060595E+02  0.74547066668E+02 0.  0.
         13    1    3    3    0    0  0.25394863302E+02 -0.68605698128E+01 -0.52867123534E+00  0.26310780254E+02  0.10566000000E+00 0.  1.
         22    1    1    0    0    0  0.22626224132E+02  0.11140247695E+01  0.33295067065E+02  0.40270939405E+02  0.00000000000E+00 0. -1.
</event>
<event>
 5    1  0.1764318E-003  0.9118800E+02  0.7818608E-02  0.1130116E+00
         25   -1    0    0    0    0  0.00000000000E+00  0.00000000000E+00  0.99999998245E-14  0.12500000000E+03  0.12500000000E+03 0.  0.
        -13    1    3    3    0    0 -0.22492511284E+02  0.35952569332E+01 -0.58124839800E+02  0.62428736189E+02  0.10566000000E+00 0. -1.
         23    2    1    0    0    0 -0.88838860235E+01  0.19127787705E+01 -0.28778969845E+02  0.94820350253E+02  0.89889307280E+02 0.  0.
         13    1    3    3    0    0  0.13608625261E+02 -0.16824781628E+01  0.29345869955E+02  0.32391614065E+02  0.10566000000E+00 0.  1.
         22    1    1    0    0    0  0.88838860235E+01 -0.19127787705E+01  0.28778969845E+02  0.30179649747E+02  0.00000000000E+00 0. -1.
</event>
<event>
 5    1  0.1764318E-003  0.9118800E+02  0.7818608E-02  0.1130116E+00
         25   -1    0    0    0    0  0.00000000000E+00  0.00000000000E+00  0.99999998245E-14  0.12500000000E+03  0.12500000000E+03 0.  0.
        -13    1    3    3    0    0 -0.20364993628E+02 -0.35505685313E+02  0.12963419789E+02  0.42935394160E+02  0.10566000000E+00 0.  1.
         23    2    1    0    0    0  0.17286899286E+02 -0.15183283209E+02 -0.18030977379E+02  0.95768422533E+02  0.91198166831E+02 0.  0.
         13    1    3    3    0    0  0.37651892914E+02  0.20322402104E+02 -0.30994397168E+02  0.52833028374E+02  0.10566000000E+00 0. -1.
         22    1    1    0    0    0 -0.17286899286E+02  0.15183283209E+02  0.18030977379E+02  0.29231577467E+02  0.00000000000E+00 0.  1.
</event>
<event>
 5    1  0.1764318E-003  0.9118800E+02  0.7818608E-02  0.1130116E+00
         25   -1    0    0    0    0  0.00000000000E+00  0.00000000000E+00  0.99999998245E-14  0.12500000000E+03  0.12500000000E+03 0.  0.
        -13    1    3    3    0    0  0.22150550469E+02  0.45790676641E+01  0.33733023317E+02  0.40614563557E+02  0.10566000000E+00 0.  1.
         23    2    1    0    0    0 -0.26812604107E+02 -0.54214197147E+01  0.12863168684E+02  0.94771393692E+02  0.89821202525E+02 0.  0.
         13    1    3    3    0    0 -0.48963154576E+02 -0.10000487379E+02 -0.20869854633E+02  0.54156830135E+02  0.10566000000E+00 0. -1.
         22    1    1    0    0    0  0.26812604107E+02  0.54214197147E+01 -0.12863168684E+02  0.30228606308E+02  0.00000000000E+00 0.  1.
</event>
<event>
 5    1  0.1764318E-003  0.9118800E+02  0.7818608E-02  0.1130116E+00
         25   -1    0    0    0    0  0.00000000000E+00  0.00000000000E+00  0.99999998245E-14  0.12500000000E+03  0.12500000000E+03 0.  0.
        -13    1    3    3    0    0 -0.38648585047E+02 -0.25007259562E+02 -0.33742682124E+02  0.57075878599E+02  0.10566000000E+00 0.  1.
         23    2    1    0    0    0 -0.63055655177E+01 -0.57030540827E+01 -0.28686844685E+02  0.95079772054E+02  0.90249338023E+02 0.  0.
         13    1    3    3    0    0  0.32343019530E+02  0.19304205479E+02  0.50558374389E+01  0.38003893455E+02  0.10566000000E+00 0. -1.
         22    1    1    0    0    0  0.63055655177E+01  0.57030540827E+01  0.28686844685E+02  0.29920227946E+02  0.00000000000E+00 0.  1.
</event>
<event>
 5    1  0.1764318E-003  0.9118800E+02  0.7818608E-02  0.1130116E+00
         25   -1    0    0    0    0  0.00000000000E+00  0.00000000000E+00  0.99999998245E-14  0.12500000000E+03  0.12500000000E+03 0.  0.
        -13    1    3    3    0    0 -0.36537859918E+01 -0.38099372306E+02  0.11120389767E+02  0.39857076597E+02  0.10566000000E+00 0. -1.
         23    2    1    0    0    0 -0.48333091072E+01 -0.17137673843E+01 -0.29877632931E+02  0.94685468416E+02  0.89701544603E+02 0.  0.
         13    1    3    3    0    0 -0.11795231154E+01  0.36385604922E+02 -0.40998022698E+02  0.54828391820E+02  0.10566000000E+00 0.  1.
         22    1    1    0    0    0  0.48333091072E+01  0.17137673843E+01  0.29877632931E+02  0.30314531584E+02  0.00000000000E+00 0.  1.
</event>
<event>
 5    1  0.1764318E-003  0.9118800E+02  0.7818608E-02  0.1130116E+00
         25   -1    0    0    0    0  0.00000000000E+00  0.00000000000E+00  0.99999998245E-14  0.12500000000E+03  0.12500000000E+03 0.  0.
        -13    1    3    3    0    0  0.58274773277E+02 -0.17774506697E+02 -0.70595681775E+01  0.61332951630E+02  0.10566000000E+00 0.  1.
         23    2    1    0    0    0  0.29008102250E+02 -0.54183652869E-01 -0.19431187601E+01  0.95926839825E+02  0.91415042287E+02 0.  0.
         13    1    3    3    0    0 -0.29266671026E+02  0.17720323044E+02  0.51164494174E+01  0.34593888195E+02  0.10566000000E+00 0. -1.
         22    1    1    0    0    0 -0.29008102250E+02  0.54183652869E-01  0.19431187601E+01  0.29073160175E+02  0.00000000000E+00 0.  1.
</event>
<event>
 5    1  0.1764318E-003  0.9118800E+02  0.7818608E-02  0.1130116E+00
         25   -1    0    0    0    0  0.00000000000E+00  0.00000000000E+00  0.99999998245E-14  0.12500000000E+03  0.12500000000E+03 0.  0.
        -13    1    3    3    0    0  0.12269934832E+02 -0.12312698586E+02 -0.30693295423E+02  0.35273834427E+02  0.10566000000E+00 0. -1.
         23    2    1    0    0    0 -0.33416822264E+02 -0.76156899091E+01  0.37756824863E+00  0.90724275343E+02  0.84000409735E+02 0.  0.
         13    1    3    3    0    0 -0.45686757096E+02  0.46970086767E+01  0.31070863671E+02  0.55450440916E+02  0.10566000000E+00 0.  1.
         22    1    1    0    0    0  0.33416822264E+02  0.76156899091E+01 -0.37756824863E+00  0.34275724657E+02  0.00000000000E+00 0.  1.
</event>
<event>
 5    1  0.1764318E-003  0.9118800E+02  0.7818608E-02  0.1130116E+00
         25   -1    0    0    0    0  0.00000000000E+00  0.00000000000E+00  0.99999998245E-14  0.12500000000E+03  0.12500000000E+03 0.  0.
        -13    1    3    3    0    0  0.10807485629E+02 -0.18786183262E+02 -0.32800244418E+02  0.39313987652E+02  0.10566000000E+00 0. -1.
         23    2    1    0    0    0  0.17977252417E+02  0.14306718663E+02  0.14756651960E+02  0.97693909463E+02  0.93800199178E+02 0.  0.
         13    1    3    3    0    0  0.71697667879E+01  0.33092901925E+02  0.47556896377E+02  0.58379921811E+02  0.10566000000E+00 0.  1.
         22    1    1    0    0    0 -0.17977252417E+02 -0.14306718663E+02 -0.14756651960E+02  0.27306090537E+02  0.00000000000E+00 0.  1.
</event>
<event>
 5    1  0.1764318E-003  0.9118800E+02  0.7818608E-02  0.1130116E+00
         25   -1    0    0    0    0  0.00000000000E+00  0.00000000000E+00  0.99999998245E-14  0.12500000000E+03  0.12500000000E+03 0.  0.
        -13    1    3    3    0    0 -0.25467307886E+02  0.26407409543E+02  0.31800698901E+02  0.48551319904E+02  0.10566000000E+00 0.  1.
         23    2    1    0    0    0  0.17733136550E+02  0.10747932745E+02  0.20434340502E+02  0.95887383114E+02  0.91361073651E+02 0.  0.
         13    1    3    3    0    0  0.43200444435E+02 -0.15659476798E+02 -0.11366358400E+02  0.47336063211E+02  0.10566000000E+00 0. -1.
         22    1    1    0    0    0 -0.17733136550E+02 -0.10747932745E+02 -0.20434340502E+02  0.29112616886E+02  0.00000000000E+00 0. -1.
</event>
<event>
 5    1  0.1764318E-003  0.9118800E+02  0.7818608E-02  0.1130116E+00
         25   -1    0    0    0    0  0.00000000000E+00  0.00000000000E+00  0.99999998245E-14  0.12500000000E+03  0.12500000000E+03 0.  0.
        -13    1    3    3    0    0  0.49948934560E+02 -0.27266698019E+02  0.16827438339E+02  0.59342587824E+02  0.10566000000E+00 0.  1.
         23    2    1    0    0    0  0.27287170555E+02 -0.11643783704E+02 -0.55516135209E+01  0.94817425747E+02  0.89885240373E+02 0.  0.
         13    1    3    3    0    0 -0.22661764005E+02  0.15622914315E+02 -0.22379051859E+02  0.35474837923E+02  0.10566000000E+00 0. -1.
         22    1    1    0    0    0 -0.27287170555E+02  0.11643783704E+02  0.55516135209E+01  0.30182574253E+02  0.00000000000E+00 0.  1.
</event>
<event>
 5    1  0.1764318E-003  0.9118800E+02  0.7818608E-02  0.1130116E+00
         25   -1    0    0    0    0  0.00000000000E+00  0.00000000000E+00  0.99999998245E-14  0.12500000000E+03  0.12500000000E+03 0.  0.
        -13    1    3    3    0    0  0.20387094498E+02 -0.29998795464E+02 -0.10644652272E+02  0.37800544142E+02  0.10566000000E+00 0.  1.
         23    2    1    0    0    0 -0.12445338198E+02  0.17577084734E+02 -0.19091114921E+02  0.96219607029E+02  0.91814496444E+02 0.  0.
         13    1    3    3    0    0 -0.32832432696E+02  0.47575880198E+02 -0.84464626486E+01  0.58419062888E+02  0.10566000000E+00 0. -1.
         22    1    1    0    0    0  0.12445338198E+02 -0.17577084734E+02  0.19091114921E+02  0.28780392971E+02  0.00000000000E+00 0. -1.
</event>
<event>
 5    1  0.1764318E-003  0.9118800E+02  0.7818608E-02  0.1130116E+00
         25   -1    0    0    0    0  0.00000000000E+00  0.00000000000E+00  0.99999998245E-14  0.12500000000E+03  0.12500000000E+03 0.  0.
        -13    1    3    3    0    0 -0.23440577507E+02 -0.12039828478E+01 -0.23779423686E+02  0.33412309161E+02  0.10566000000E+00 0. -1.
         23    2    1    0    0    0  0.20108470994E+02  0.31690608243E+01  0.20807015800E+02  0.95891144668E+02  0.91366220055E+02 0.  0.
         13    1    3    3    0    0  0.43549048501E+02  0.43730436721E+01  0.44586439486E+02  0.62478835508E+02  0.10566000000E+00 0.  1.
         22    1    1    0    0    0 -0.20108470994E+02 -0.31690608243E+01 -0.20807015800E+02  0.29108855332E+02  0.00000000000E+00 0.  1.
</event>
<event>
 5    1  0.1764318E-003  0.9118800E+02  0.7818608E-02  0.1130116E+00
         25   -1    0    0    0    0  0.00000000000E+00  0.00000000000E+00  0.99999998245E-14  0.12500000000E+03  0.12500000000E+03 0.  0.
        -13    1    3    3    0    0  0.24219054561E+02 -0.34222539624E+02  0.71099116583E+01  0.42524191115E+02  0.10566000000E+00 0. -1.
         23    2    1    0    0    0 -0.29774071212E+01 -0.36587291451E+01 -0.28103285795E+02  0.96503580495E+02  0.92200298936E+02 0.  0.
         13    1    3    3    0    0 -0.27196461682E+02  0.30563810479E+02 -0.35213197453E+02  0.53979389381E+02  0.10566000000E+00 0.  1.
         22    1    1    0    0    0  0.29774071212E+01  0.36587291451E+01  0.28103285795E+02  0.28496419505E+02  0.00000000000E+00 0.  1.
</event>
<event>
 5    1  0.1764318E-003  0.9118800E+02  0.7818608E-02  0.1130116E+00
         25   -1    0    0    0    0  0.00000000000E+00  0.00000000000E+00  0.99999998245E-14  0.12500000000E+03  0.12500000000E+03 0.  0.
        -13    1    3    3    0    0  0.19267490205E+02 -0.16888989109E+02 -0.22243398476E+02  0.33930135156E+02  0.10566000000E+00 0. -1.
         23    2    1    0    0    0 -0.32390585062E+02  0.29819389892E+01 -0.12627237755E+02  0.90107463633E+02  0.83077469318E+02 0.  0.
         13    1    3    3    0    0 -0.51658075267E+02  0.19870928098E+02  0.96161607206E+01  0.56177328477E+02  0.10566000000E+00 0.  1.
         22    1    1    0    0    0  0.32390585062E+02 -0.29819389892E+01  0.12627237755E+02  0.34892536367E+02  0.00000000000E+00 0.  1.
</event>
<event>
 5    1  0.1764318E-003  0.9118800E+02  0.7818608E-02  0.1130116E+00
         25   -1    0    0    0    0  0.00000000000E+00  0.00000000000E+00  0.99999998245E-14  0.12500000000E+03  0.12500000000E+03 0.  0.
        -13    1    3    3    0    0  0.43912339262E+02  0.19425829774E+02  0.36398001541E+02  0.60253481909E+02  0.10566000000E+00 0.  1.
         23    2    1    0    0    0  0.24555080793E+02 -0.19734746125E+01  0.15273174163E+02  0.96015237731E+02  0.91535836877E+02 0.  0.
         13    1    3    3    0    0 -0.19357258469E+02 -0.21399304387E+02 -0.21124827378E+02  0.35761755822E+02  0.10566000000E+00 0. -1.
         22    1    1    0    0    0 -0.24555080793E+02  0.19734746125E+01 -0.15273174163E+02  0.28984762269E+02  0.00000000000E+00 0.  1.
</event>
<event>
 5    1  0.1764318E-003  0.9118800E+02  0.7818608E-02  0.1130116E+00
         25   -1    0    0    0    0  0.00000000000E+00  0.00000000000E+00  0.99999998245E-14  0.12500000000E+03  0.12500000000E+03 0.  0.
        -13    1    3    3    0    0  0.62353351829E+01  0.29444873130E+02 -0.44275530136E+02  0.53537031029E+02  0.10566000000E+00 0.  1.
         23    2    1    0    0    0 -0.18401817336E+02  0.18323736330E+02 -0.10039451265E+02  0.97158003376E+02  0.93083300564E+02 0.  0.
         13    1    3    3    0    0 -0.24637152518E+02 -0.11121136801E+02  0.34236078871E+02  0.43620972347E+02  0.10566000000E+00 0. -1.
         22    1    1    0    0    0  0.18401817336E+02 -0.18323736330E+02  0.10039451265E+02  0.27841996624E+02  0.00000000000E+00 0.  1.
</event>
<event>
 5    1  0.1764318E-003  0.9118800E+02  0.7818608E-02  0.1130116E+00
         25   -1    0    0    0    0  0.00000000000E+00  0.00000000000E+00  0.99999998245E-14  0.12500000000E+03  0.12500000000E+03 0.  0.
        -13    1    3    3    0    0 -0.40879516564E+01 -0.37852502649E+02 -0.25266991306E+02  0.45694149727E+02  0.10566000000E+00 0.  1.
         23    2    1    0    0    0 -0.30075582758E+02 -0.14709900220E+02  0.41538213571E+01  0.91263134785E+02  0.84798488761E+02 0.  0.
         13    1    3    3    0    0 -0.25987631101E+02  0.23142602428E+02  0.29420812663E+02  0.45568985058E+02  0.10566000000E+00 0. -1.
         22    1    1    0    0    0  0.30075582758E+02  0.14709900220E+02 -0.41538213571E+01  0.33736865215E+02  0.00000000000E+00 0. -1.
</event>
<event>
 5    1  0.1764318E-003  0.9118800E+02  0.7818608E-02  0.1130116E+00
         25   -1    0    0    0    0  0.00000000000E+00  0.00000000000E+00  0.99999998245E-14  0.12500000000E+03  0.12500000000E+03 0.  0.
        -13    1    3    3    0    0  0.56483586916E-02  0.22254734544E+02 -0.33069760907E+02  0.39860926883E+02  0.10566000000E+00 0.  1.
         23    2    1    0    0    0 -0.22368968249E+02 -0.19297223118E+02 -0.42622896010E+01  0.95151705689E+02  0.90348914893E+02 0.  0.
         13    1    3    3    0    0 -0.22374616608E+02 -0.41551957662E+02  0.28807471306E+02  0.55290778806E+02  0.10566000000E+00 0. -1.
         22    1    1    0    0    0  0.22368968249E+02  0.19297223118E+02  0.42622896010E+01  0.29848294311E+02  0.00000000000E+00 0. -1.
</event>
<event>
 5    1  0.1764318E-003  0.9118800E+02  0.7818608E-02  0.1130116E+00
         25   -1    0    0    0    0  0.00000000000E+00  0.00000000000E+00  0.99999998245E-14  0.12500000000E+03  0.12500000000E+03 0.  0.
        -13    1    3    3    0    0 -0.21087910108E+01  0.33468602690E+02  0.24250404489E+02  0.41384630571E+02  0.10566000000E+00 0.  1.
         23    2    1    0    0    0  0.12710924307E+02 -0.16696617568E+02  0.23219305272E+02  0.93703342475E+02  0.88322339296E+02 0.  0.
         13    1    3    3    0    0  0.14819715318E+02 -0.50165220258E+02 -0.10310992166E+01  0.52318711904E+02  0.10566000000E+00 0. -1.
         22    1    1    0    0    0 -0.12710924307E+02  0.16696617568E+02 -0.23219305272E+02  0.31296657525E+02  0.00000000000E+00 0. -1.
</event>
<event>
 5    1  0.1764318E-003  0.9118800E+02  0.7818608E-02  0.1130116E+00
         25   -1    0    0    0    0  0.00000000000E+00  0.00000000000E+00  0.99999998245E-14  0.12500000000E+03  0.12500000000E+03 0.  0.
        -13    1    3    3    0    0 -0.15817501487E+02  0.42553146557E+02 -0.64361374756E+01  0.45851921059E+02  0.10566000000E+00 0. -1.
         23    2    1    0    0    0  0.19624061175E+02  0.83321695952E+01 -0.18721438949E+02  0.96627106184E+02  0.92367616328E+02 0.  0.
         13    1    3    3    0    0  0.35441562662E+02 -0.34220976962E+02 -0.12285301474E+02  0.50775185125E+02  0.10566000000E+00 0.  1.
         22    1    1    0    0    0 -0.19624061175E+02 -0.83321695952E+01  0.18721438949E+02  0.28372893816E+02  0.00000000000E+00 0. -1.
</event>
<event>
 5    1  0.1764318E-003  0.9118800E+02  0.7818608E-02  0.1130116E+00
         25   -1    0    0    0    0  0.00000000000E+00  0.00000000000E+00  0.99999998245E-14  0.12500000000E+03  0.12500000000E+03 0.  0.
        -13    1    3    3    0    0  0.44876436742E+02  0.89972240119E+01  0.24320663596E+02  0.51830015014E+02  0.10566000000E+00 0.  1.
         23    2    1    0    0    0  0.76004503419E+01 -0.41451270550E+01  0.31787914304E+02  0.92054280711E+02  0.85956792505E+02 0.  0.
         13    1    3    3    0    0 -0.37275986400E+02 -0.13142351067E+02  0.74672507075E+01  0.40224265697E+02  0.10566000000E+00 0. -1.
         22    1    1    0    0    0 -0.76004503419E+01  0.41451270550E+01 -0.31787914304E+02  0.32945719289E+02  0.00000000000E+00 0.  1.
</event>
<event>
 5    1  0.1764318E-003  0.9118800E+02  0.7818608E-02  0.1130116E+00
         25   -1    0    0    0    0  0.00000000000E+00  0.00000000000E+00  0.99999998245E-14  0.12500000000E+03  0.12500000000E+03 0.  0.
        -13    1    3    3    0    0  0.48152602573E+02  0.30011635543E+02 -0.29427639437E+00  0.56740366277E+02  0.10566000000E+00 0.  1.
         23    2    1    0    0    0  0.24125257555E+02  0.24426522643E+01 -0.15364036046E+02  0.96293760159E+02  0.91915396098E+02 0.  0.
         13    1    3    3    0    0 -0.24027345019E+02 -0.27568983279E+02 -0.15069759651E+02  0.39553393883E+02  0.10566000000E+00 0. -1.
         22    1    1    0    0    0 -0.24125257555E+02 -0.24426522643E+01  0.15364036046E+02  0.28706239841E+02  0.00000000000E+00 0.  1.
</event>
<event>
 5    1  0.1764318E-003  0.9118800E+02  0.7818608E-02  0.1130116E+00
         25   -1    0    0    0    0  0.00000000000E+00  0.00000000000E+00  0.99999998245E-14  0.12500000000E+03  0.12500000000E+03 0.  0.
        -13    1    3    3    0    0  0.33829214374E+02 -0.14367317763E+02 -0.86638136153E+01  0.37761202249E+02  0.10566000000E+00 0.  1.
         23    2    1    0    0    0 -0.10936828232E+02  0.24930844806E+02 -0.34749788633E+01  0.97554841727E+02  0.93614691324E+02 0.  0.
         13    1    3    3    0    0 -0.44766042606E+02  0.39298162569E+02  0.51888347520E+01  0.59793639478E+02  0.10566000000E+00 0. -1.
         22    1    1    0    0    0  0.10936828232E+02 -0.24930844806E+02  0.34749788633E+01  0.27445158273E+02  0.00000000000E+00 0. -1.
</event>
<event>
 5    1  0.1764318E-003  0.9118800E+02  0.7818608E-02  0.1130116E+00
         25   -1    0    0    0    0  0.00000000000E+00  0.00000000000E+00  0.99999998245E-14  0.12500000000E+03  0.12500000000E+03 0.  0.
        -13    1    3    3    0    0 -0.26819118015E+02  0.24907972596E+02  0.22388804958E+02  0.42906199336E+02  0.10566000000E+00 0.  1.
         23    2    1    0    0    0  0.23305693350E+02  0.13646314989E+02  0.12572227109E+02  0.95210099870E+02  0.90429668624E+02 0.  0.
         13    1    3    3    0    0  0.50124811365E+02 -0.11261657607E+02 -0.98165778490E+01  0.52303900534E+02  0.10566000000E+00 0. -1.
         22    1    1    0    0    0 -0.23305693350E+02 -0.13646314989E+02 -0.12572227109E+02  0.29789900130E+02  0.00000000000E+00 0. -1.
</event>
<event>
 5    1  0.1764318E-003  0.9118800E+02  0.7818608E-02  0.1130116E+00
         25   -1    0    0    0    0  0.00000000000E+00  0.00000000000E+00  0.99999998245E-14  0.12500000000E+03  0.12500000000E+03 0.  0.
        -13    1    3    3    0    0 -0.28459226420E+00 -0.12340880967E+02  0.52218320794E+02  0.53657641826E+02  0.10566000000E+00 0.  1.
         23    2    1    0    0    0  0.82787679059E+01 -0.25016315003E+02  0.13281853687E+02  0.95491329211E+02  0.90817577058E+02 0.  0.
         13    1    3    3    0    0  0.85633601701E+01 -0.12675434036E+02 -0.38936467107E+02  0.41833687385E+02  0.10566000000E+00 0. -1.
         22    1    1    0    0    0 -0.82787679059E+01  0.25016315003E+02 -0.13281853687E+02  0.29508670789E+02  0.00000000000E+00 0.  1.
</event>
<event>
 5    1  0.1764318E-003  0.9118800E+02  0.7818608E-02  0.1130116E+00
         25   -1    0    0    0    0  0.00000000000E+00  0.00000000000E+00  0.99999998245E-14  0.12500000000E+03  0.12500000000E+03 0.  0.
        -13    1    3    3    0    0 -0.43942328045E+02 -0.24342197819E+02 -0.96140545064E+01  0.51145987103E+02  0.10566000000E+00 0. -1.
         23    2    1    0    0    0  0.10446494185E+01 -0.21732755907E+02 -0.17729093684E+02  0.96933565695E+02  0.92781417448E+02 0.  0.
         13    1    3    3    0    0  0.44986977464E+02  0.26094419117E+01 -0.81150391778E+01  0.45787578592E+02  0.10566000000E+00 0.  1.
         22    1    1    0    0    0 -0.10446494185E+01  0.21732755907E+02  0.17729093684E+02  0.28066434305E+02  0.00000000000E+00 0.  1.
</event>
<event>
 5    1  0.1764318E-003  0.9118800E+02  0.7818608E-02  0.1130116E+00
         25   -1    0    0    0    0  0.00000000000E+00  0.00000000000E+00  0.99999998245E-14  0.12500000000E+03  0.12500000000E+03 0.  0.
        -13    1    3    3    0    0  0.22188053592E+02 -0.64200897004E+00 -0.33729294391E+02  0.40378191662E+02  0.10566000000E+00 0.  1.
         23    2    1    0    0    0 -0.99262775091E+01 -0.28543454173E+02  0.17716115700E+00  0.94779292738E+02  0.89832194589E+02 0.  0.
         13    1    3    3    0    0 -0.32114331102E+02 -0.27901445203E+02  0.33906455548E+02  0.54401101077E+02  0.10566000000E+00 0. -1.
         22    1    1    0    0    0  0.99262775091E+01  0.28543454173E+02 -0.17716115700E+00  0.30220707262E+02  0.00000000000E+00 0. -1.
</event>
<event>
 5    1  0.1764318E-003  0.9118800E+02  0.7818608E-02  0.1130116E+00
         25   -1    0    0    0    0  0.00000000000E+00  0.00000000000E+00  0.99999998245E-14  0.12500000000E+03  0.12500000000E+03 0.  0.
        -13    1    3    3    0    0 -0.51177998179E+02  0.57679156208E+01 -0.21909246382E+02  0.55968585736E+02  0.10566000000E+00 0.  1.
         23    2    1    0    0    0 -0.10526195617E+02  0.38579541548E+01 -0.25818345724E+02  0.96852680761E+02  0.92672380947E+02 0.  0.
         13    1    3    3    0    0  0.40651802562E+02 -0.19099614661E+01 -0.39090993418E+01  0.40884095026E+02  0.10566000000E+00 0. -1.
         22    1    1    0    0    0  0.10526195617E+02 -0.38579541548E+01  0.25818345724E+02  0.28147319239E+02  0.00000000000E+00 0.  1.
</event>
<event>
 5    1  0.1764318E-003  0.9118800E+02  0.7818608E-02  0.1130116E+00
         25   -1    0    0    0    0  0.00000000000E+00  0.00000000000E+00  0.99999998245E-14  0.12500000000E+03  0.12500000000E+03 0.  0.
        -13    1    3    3    0    0  0.29495154645E+01 -0.19961002551E+02 -0.32840658641E+02  0.38544276985E+02  0.10566000000E+00 0. -1.
         23    2    1    0    0    0  0.14943777184E+02  0.21752342615E+02  0.72512899609E+01  0.97631001263E+02  0.93716328971E+02 0.  0.
         13    1    3    3    0    0  0.11994261720E+02  0.41713345166E+02  0.40091948601E+02  0.59086724278E+02  0.10566000000E+00 0.  1.
         22    1    1    0    0    0 -0.14943777184E+02 -0.21752342615E+02 -0.72512899609E+01  0.27368998737E+02  0.00000000000E+00 0.  1.
</event>
<event>
 5    1  0.1764318E-003  0.9118800E+02  0.7818608E-02  0.1130116E+00
         25   -1    0    0    0    0  0.00000000000E+00  0.00000000000E+00  0.99999998245E-14  0.12500000000E+03  0.12500000000E+03 0.  0.
        -13    1    3    3    0    0  0.12849381454E+01  0.43634776640E+02  0.32749888533E+02  0.54572989302E+02  0.10566000000E+00 0.  1.
         23    2    1    0    0    0  0.17546290826E+02  0.72122659213E+01  0.22132514074E+02  0.95849746472E+02  0.91309564768E+02 0.  0.
         13    1    3    3    0    0  0.16261352681E+02 -0.36422510718E+02 -0.10617374459E+02  0.41276757170E+02  0.10566000000E+00 0. -1.
         22    1    1    0    0    0 -0.17546290826E+02 -0.72122659213E+01 -0.22132514074E+02  0.29150253528E+02  0.00000000000E+00 0.  1.
</event>
<event>
 5    1  0.1764318E-003  0.9118800E+02  0.7818608E-02  0.1130116E+00
         25   -1    0    0    0    0  0.00000000000E+00  0.00000000000E+00  0.99999998245E-14  0.12500000000E+03  0.12500000000E+03 0.  0.
        -13    1    3    3    0    0 -0.52114184033E+02 -0.59944414228E+00  0.20218135702E+02  0.55901982845E+02  0.10566000000E+00 0. -1.
         23    2    1    0    0    0 -0.19069307163E+02 -0.20077081448E+02  0.75238777715E+01  0.96306160733E+02  0.91932258665E+02 0.  0.
         13    1    3    3    0    0  0.33044876870E+02 -0.19477637306E+02 -0.12694257931E+02  0.40404177888E+02  0.10566000000E+00 0.  1.
         22    1    1    0    0    0  0.19069307163E+02  0.20077081448E+02 -0.75238777715E+01  0.28693839267E+02  0.00000000000E+00 0. -1.
</event>
<event>
 5    1  0.1764318E-003  0.9118800E+02  0.7818608E-02  0.1130116E+00
         25   -1    0    0    0    0  0.00000000000E+00  0.00000000000E+00  0.99999998245E-14  0.12500000000E+03  0.12500000000E+03 0.  0.
        -13    1    3    3    0    0  0.50487144144E+02 -0.33059248298E+02 -0.58688357312E+01  0.60632664618E+02  0.10566000000E+00 0.  1.
         23    2    1    0    0    0  0.16692039838E+02 -0.93299872921E+01 -0.12065674245E+02  0.10238908777E+03  0.99861263476E+02 0.  0.
         13    1    3    3    0    0 -0.33795104307E+02  0.23729261006E+02 -0.61968385138E+01  0.41756423153E+02  0.10566000000E+00 0. -1.
         22    1    1    0    0    0 -0.16692039838E+02  0.93299872921E+01  0.12065674245E+02  0.22610912228E+02  0.00000000000E+00 0.  1.
</event>
<event>
 5    1  0.1764318E-003  0.9118800E+02  0.7818608E-02  0.1130116E+00
         25   -1    0    0    0    0  0.00000000000E+00  0.00000000000E+00  0.99999998245E-14  0.12500000000E+03  0.12500000000E+03 0.  0.
        -13    1    3    3    0    0 -0.26047773038E+01  0.50206941262E+02  0.34456353233E+02  0.60948939759E+02  0.10566000000E+00 0.  1.
         23    2    1    0    0    0  0.29711164174E+01  0.17242825089E+02  0.22593247067E+02  0.96423832258E+02  0.92092117276E+02 0.  0.
         13    1    3    3    0    0  0.55758937212E+01 -0.32964116173E+02 -0.11863106166E+02  0.35474892498E+02  0.10566000000E+00 0. -1.
         22    1    1    0    0    0 -0.29711164174E+01 -0.17242825089E+02 -0.22593247067E+02  0.28576167742E+02  0.00000000000E+00 0.  1.
</event>
<event>
 5    1  0.1764318E-003  0.9118800E+02  0.7818608E-02  0.1130116E+00
         25   -1    0    0    0    0  0.00000000000E+00  0.00000000000E+00  0.99999998245E-14  0.12500000000E+03  0.12500000000E+03 0.  0.
        -13    1    3    3    0    0  0.13568883814E+02 -0.58105723253E+02 -0.47887004724E+01  0.59860943017E+02  0.10566000000E+00 0.  1.
         23    2    1    0    0    0  0.14788019305E+01 -0.27441722673E+02  0.96871199450E+01  0.95861103466E+02  0.91325110821E+02 0.  0.
         13    1    3    3    0    0 -0.12090081884E+02  0.30664000580E+02  0.14475820417E+02  0.36000160448E+02  0.10566000000E+00 0. -1.
         22    1    1    0    0    0 -0.14788019305E+01  0.27441722673E+02 -0.96871199450E+01  0.29138896534E+02  0.00000000000E+00 0.  1.
</event>
<event>
 5    1  0.1764318E-003  0.9118800E+02  0.7818608E-02  0.1130116E+00
         25   -1    0    0    0    0  0.00000000000E+00  0.00000000000E+00  0.99999998245E-14  0.12500000000E+03  0.12500000000E+03 0.  0.
        -13    1    3    3    0    0  0.53635789340E+02 -0.59385718588E+01  0.35484388621E+01  0.54080191533E+02  0.10566000000E+00 0. -1.
         23    2    1    0    0    0  0.23054209220E+02  0.16189753206E+02 -0.11304942530E+02  0.94645323305E+02  0.89645584533E+02 0.  0.
         13    1    3    3    0    0 -0.30581580120E+02  0.22128325065E+02 -0.14853381392E+02  0.40565131772E+02  0.10566000000E+00 0.  1.
         22    1    1    0    0    0 -0.23054209220E+02 -0.16189753206E+02  0.11304942530E+02  0.30354676695E+02  0.00000000000E+00 0. -1.
</event>
<event>
 5    1  0.1764318E-003  0.9118800E+02  0.7818608E-02  0.1130116E+00
         25   -1    0    0    0    0  0.00000000000E+00  0.00000000000E+00  0.99999998245E-14  0.12500000000E+03  0.12500000000E+03 0.  0.
        -13    1    3    3    0    0 -0.37977500653E+02  0.24614284225E+02  0.57560982953E+01  0.45621238205E+02  0.10566000000E+00 0. -1.
         23    2    1    0    0    0  0.13042886220E+02  0.24074713420E+02 -0.32282289658E+01  0.97429541725E+02  0.93447233407E+02 0.  0.
         13    1    3    3    0    0  0.51020386873E+02 -0.53957080463E+00 -0.89843272611E+01  0.51808303521E+02  0.10566000000E+00 0.  1.
         22    1    1    0    0    0 -0.13042886220E+02 -0.24074713420E+02  0.32282289658E+01  0.27570458275E+02  0.00000000000E+00 0.  1.
</event>
<event>
 5    1  0.1764318E-003  0.9118800E+02  0.7818608E-02  0.1130116E+00
         25   -1    0    0    0    0  0.00000000000E+00  0.00000000000E+00  0.99999998245E-14  0.12500000000E+03  0.12500000000E+03 0.  0.
        -13    1    3    3    0    0  0.12411698095E+02 -0.39036371915E+02 -0.30369095785E+02  0.50991977062E+02  0.10566000000E+00 0.  1.
         23    2    1    0    0    0 -0.20987247722E+02 -0.19151231460E+02 -0.99733981834E+01  0.94888492155E+02  0.89984015462E+02 0.  0.
         13    1    3    3    0    0 -0.33398945817E+02  0.19885140455E+02  0.20395697601E+02  0.43896515093E+02  0.10566000000E+00 0. -1.
         22    1    1    0    0    0  0.20987247722E+02  0.19151231460E+02  0.99733981834E+01  0.30111507845E+02  0.00000000000E+00 0.  1.
</event>
<event>
 5    1  0.1764318E-003  0.9118800E+02  0.7818608E-02  0.1130116E+00
         25   -1    0    0    0    0  0.00000000000E+00  0.00000000000E+00  0.99999998245E-14  0.12500000000E+03  0.12500000000E+03 0.  0.
        -13    1    3    3    0    0 -0.18589206962E+02  0.48175585649E+02 -0.20673985969E+02  0.55622572108E+02  0.10566000000E+00 0.  1.
         23    2    1    0    0    0 -0.81324224613E+01  0.92810417981E+01 -0.25972187397E+02  0.96245373413E+02  0.91849569152E+02 0.  0.
         13    1    3    3    0    0  0.10456784501E+02 -0.38894543851E+02 -0.52982014284E+01  0.40622801305E+02  0.10566000000E+00 0. -1.
         22    1    1    0    0    0  0.81324224613E+01 -0.92810417981E+01  0.25972187397E+02  0.28754626587E+02  0.00000000000E+00 0.  1.
</event>
<event>
 5    1  0.1764318E-003  0.9118800E+02  0.7818608E-02  0.1130116E+00
         25   -1    0    0    0    0  0.00000000000E+00  0.00000000000E+00  0.99999998245E-14  0.12500000000E+03  0.12500000000E+03 0.  0.
        -13    1    3    3    0    0 -0.20488424975E+02 -0.28128691422E+02  0.20474038975E+02  0.40375689159E+02  0.10566000000E+00 0.  1.
         23    2    1    0    0    0 -0.10133867722E+02  0.25080839764E+02  0.11500064989E+01  0.97924802620E+02  0.94107388949E+02 0.  0.
         13    1    3    3    0    0  0.10354557253E+02  0.53209531186E+02 -0.19324032476E+02  0.57549113461E+02  0.10566000000E+00 0. -1.
         22    1    1    0    0    0  0.10133867722E+02 -0.25080839764E+02 -0.11500064989E+01  0.27075197380E+02  0.00000000000E+00 0. -1.
</event>
<event>
 5    1  0.1764318E-003  0.9118800E+02  0.7818608E-02  0.1130116E+00
         25   -1    0    0    0    0  0.00000000000E+00  0.00000000000E+00  0.99999998245E-14  0.12500000000E+03  0.12500000000E+03 0.  0.
        -13    1    3    3    0    0 -0.26014452560E+02 -0.11665424462E+02  0.30135862474E+02  0.41485120717E+02  0.10566000000E+00 0. -1.
         23    2    1    0    0    0  0.42505576636E+01 -0.26066902382E+02 -0.12551173675E+02  0.95758204555E+02  0.91184160569E+02 0.  0.
         13    1    3    3    0    0  0.30265010223E+02 -0.14401477920E+02 -0.42687036148E+02  0.54273083838E+02  0.10566000000E+00 0.  1.
         22    1    1    0    0    0 -0.42505576636E+01  0.26066902382E+02  0.12551173675E+02  0.29241795445E+02  0.00000000000E+00 0.  1.
</event>
<event>
 5    1  0.1764318E-003  0.9118800E+02  0.7818608E-02  0.1130116E+00
         25   -1    0    0    0    0  0.00000000000E+00  0.00000000000E+00  0.99999998245E-14  0.12500000000E+03  0.12500000000E+03 0.  0.
        -13    1    3    3    0    0 -0.23134340401E+02  0.22155534581E+02  0.11506265194E+02  0.34036314741E+02  0.10566000000E+00 0.  1.
         23    2    1    0    0    0  0.22065708772E+02 -0.18633119840E+02 -0.60764427125E+00  0.96113015212E+02  0.91669263130E+02 0.  0.
         13    1    3    3    0    0  0.45200049174E+02 -0.40788654421E+02 -0.12113909465E+02  0.62076700471E+02  0.10566000000E+00 0. -1.
         22    1    1    0    0    0 -0.22065708772E+02  0.18633119840E+02  0.60764427125E+00  0.28886984788E+02  0.00000000000E+00 0. -1.
</event>
<event>
 5    1  0.1764318E-003  0.9118800E+02  0.7818608E-02  0.1130116E+00
         25   -1    0    0    0    0  0.00000000000E+00  0.00000000000E+00  0.99999998245E-14  0.12500000000E+03  0.12500000000E+03 0.  0.
        -13    1    3    3    0    0 -0.22823256758E+01  0.21574616475E+02  0.40866518827E+02  0.46268311095E+02  0.10566000000E+00 0.  1.
         23    2    1    0    0    0  0.10793408866E+02 -0.19415697571E+02  0.23488634336E+02  0.92670710956E+02  0.86848590887E+02 0.  0.
         13    1    3    3    0    0  0.13075734542E+02 -0.40990314047E+02 -0.17377884490E+02  0.46402399861E+02  0.10566000000E+00 0. -1.
         22    1    1    0    0    0 -0.10793408866E+02  0.19415697571E+02 -0.23488634336E+02  0.32329289044E+02  0.00000000000E+00 0. -1.
</event>
<event>
 5    1  0.1764318E-003  0.9118800E+02  0.7818608E-02  0.1130116E+00
         25   -1    0    0    0    0  0.00000000000E+00  0.00000000000E+00  0.99999998245E-14  0.12500000000E+03  0.12500000000E+03 0.  0.
        -13    1    3    3    0    0 -0.71291304222E+01 -0.71776512053E+01 -0.35927049921E+02  0.37324352070E+02  0.10566000000E+00 0. -1.
         23    2    1    0    0    0 -0.22035867711E+02  0.10341758846E+02  0.17184462933E+02  0.95203402743E+02  0.90420410781E+02 0.  0.
         13    1    3    3    0    0 -0.14906737289E+02  0.17519410051E+02  0.53111512854E+02  0.57879050673E+02  0.10566000000E+00 0.  1.
         22    1    1    0    0    0  0.22035867711E+02 -0.10341758846E+02 -0.17184462933E+02  0.29796597257E+02  0.00000000000E+00 0.  1.
</event>
<event>
 5    1  0.1764318E-003  0.9118800E+02  0.7818608E-02  0.1130116E+00
         25   -1    0    0    0    0  0.00000000000E+00  0.00000000000E+00  0.99999998245E-14  0.12500000000E+03  0.12500000000E+03 0.  0.
        -13    1    3    3    0    0  0.32806864853E+02 -0.11362127544E+02 -0.47234413050E+01  0.35038698401E+02  0.10566000000E+00 0. -1.
         23    2    1    0    0    0 -0.25556959936E+02  0.85067975874E+00  0.11688548505E+02  0.96884096612E+02  0.92714746146E+02 0.  0.
         13    1    3    3    0    0 -0.58363824789E+02  0.12212807303E+02  0.16411989810E+02  0.61845398210E+02  0.10566000000E+00 0.  1.
         22    1    1    0    0    0  0.25556959936E+02 -0.85067975874E+00 -0.11688548505E+02  0.28115903388E+02  0.00000000000E+00 0.  1.
</event>
<event>
 5    1  0.1764318E-003  0.9118800E+02  0.7818608E-02  0.1130116E+00
         25   -1    0    0    0    0  0.00000000000E+00  0.00000000000E+00  0.99999998245E-14  0.12500000000E+03  0.12500000000E+03 0.  0.
        -13    1    3    3    0    0  0.24285307948E+02  0.30706120489E+02 -0.38107640667E+02  0.54633739199E+02  0.10566000000E+00 0.  1.
         23    2    1    0    0    0  0.53532914982E+01  0.27657524649E+02 -0.52691243125E+00  0.96824229624E+02  0.92633997031E+02 0.  0.
         13    1    3    3    0    0 -0.18932016450E+02 -0.30485958398E+01  0.37580728236E+02  0.42190490425E+02  0.10566000000E+00 0. -1.
         22    1    1    0    0    0 -0.53532914982E+01 -0.27657524649E+02  0.52691243125E+00  0.28175770376E+02  0.00000000000E+00 0.  1.
</event>
<event>
 5    1  0.1764318E-003  0.9118800E+02  0.7818608E-02  0.1130116E+00
         25   -1    0    0    0    0  0.00000000000E+00  0.00000000000E+00  0.99999998245E-14  0.12500000000E+03  0.12500000000E+03 0.  0.
        -13    1    3    3    0    0  0.18818900595E+01  0.25366732544E+02  0.22080673213E+02  0.33683525999E+02  0.10566000000E+00 0. -1.
         23    2    1    0    0    0 -0.85280425599E+01 -0.14334987917E+02 -0.24242137882E+02  0.95573810346E+02  0.90931032032E+02 0.  0.
         13    1    3    3    0    0 -0.10409932619E+02 -0.39701720462E+02 -0.46322811095E+02  0.61890284347E+02  0.10566000000E+00 0.  1.
         22    1    1    0    0    0  0.85280425599E+01  0.14334987917E+02  0.24242137882E+02  0.29426189654E+02  0.00000000000E+00 0.  1.
</event>
<event>
 5    1  0.1764318E-003  0.9118800E+02  0.7818608E-02  0.1130116E+00
         25   -1    0    0    0    0  0.00000000000E+00  0.00000000000E+00  0.99999998245E-14  0.12500000000E+03  0.12500000000E+03 0.  0.
        -13    1    3    3    0    0  0.47253359245E+01  0.17201626795E+02  0.53874263589E+02  0.56750966558E+02  0.10566000000E+00 0.  1.
         23    2    1    0    0    0  0.13502765688E+02  0.20366043275E+02  0.15918942423E+02  0.95836441785E+02  0.91291349241E+02 0.  0.
         13    1    3    3    0    0  0.87774297637E+01  0.31644164796E+01 -0.37955321166E+02  0.39085475228E+02  0.10566000000E+00 0. -1.
         22    1    1    0    0    0 -0.13502765688E+02 -0.20366043275E+02 -0.15918942423E+02  0.29163558215E+02  0.00000000000E+00 0.  1.
</event>
<event>
 5    1  0.1764318E-003  0.9118800E+02  0.7818608E-02  0.1130116E+00
         25   -1    0    0    0    0  0.00000000000E+00  0.00000000000E+00  0.99999998245E-14  0.12500000000E+03  0.12500000000E+03 0.  0.
        -13    1    3    3    0    0 -0.35638162996E+02 -0.78470218595E+01  0.44256698093E+01  0.36759381539E+02  0.10566000000E+00 0.  1.
         23    2    1    0    0    0  0.18442621021E+02 -0.25285583848E+02  0.94191359797E+00  0.93689007970E+02  0.88302049764E+02 0.  0.
         13    1    3    3    0    0  0.54080784018E+02 -0.17438561989E+02 -0.34837562114E+01  0.56929626431E+02  0.10566000000E+00 0. -1.
         22    1    1    0    0    0 -0.18442621021E+02  0.25285583848E+02 -0.94191359797E+00  0.31310992030E+02  0.00000000000E+00 0. -1.
</event>
<event>
 5    1  0.1764318E-003  0.9118800E+02  0.7818608E-02  0.1130116E+00
         25   -1    0    0    0    0  0.00000000000E+00  0.00000000000E+00  0.99999998245E-14  0.12500000000E+03  0.12500000000E+03 0.  0.
        -13    1    3    3    0    0  0.34420231613E+01  0.14450136641E+02 -0.34797409549E+02  0.37835497192E+02  0.10566000000E+00 0. -1.
         23    2    1    0    0    0 -0.20156339233E+02 -0.22906080512E+02  0.64796783638E+00  0.94481376210E+02  0.89416687774E+02 0.  0.
         13    1    3    3    0    0 -0.23598362394E+02 -0.37356217153E+02  0.35445377386E+02  0.56645879018E+02  0.10566000000E+00 0.  1.
         22    1    1    0    0    0  0.20156339233E+02  0.22906080512E+02 -0.64796783638E+00  0.30518623790E+02  0.00000000000E+00 0.  1.
</event>
<event>
 5    1  0.1764318E-003  0.9118800E+02  0.7818608E-02  0.1130116E+00
         25   -1    0    0    0    0  0.00000000000E+00  0.00000000000E+00  0.99999998245E-14  0.12500000000E+03  0.12500000000E+03 0.  0.
        -13    1    3    3    0    0  0.11308946261E+02  0.32197454682E+02 -0.54996050809E+01  0.34566243267E+02  0.10566000000E+00 0.  1.
         23    2    1    0    0    0 -0.23985546870E+02 -0.16186918181E+02 -0.93793333230E+01  0.94581343350E+02  0.89556327735E+02 0.  0.
         13    1    3    3    0    0 -0.35294493131E+02 -0.48384372862E+02 -0.38797282421E+01  0.60015100083E+02  0.10566000000E+00 0. -1.
         22    1    1    0    0    0  0.23985546870E+02  0.16186918181E+02  0.93793333230E+01  0.30418656650E+02  0.00000000000E+00 0. -1.
</event>
<event>
 5    1  0.1764318E-003  0.9118800E+02  0.7818608E-02  0.1130116E+00
         25   -1    0    0    0    0  0.00000000000E+00  0.00000000000E+00  0.99999998245E-14  0.12500000000E+03  0.12500000000E+03 0.  0.
        -13    1    3    3    0    0 -0.14733895637E+02 -0.33860302667E+02 -0.61352243695E+01  0.37433406463E+02  0.10566000000E+00 0.  1.
         23    2    1    0    0    0  0.18982392139E+02  0.92486829998E+01 -0.22091355970E+02  0.94440265755E+02  0.89359198960E+02 0.  0.
         13    1    3    3    0    0  0.33716287775E+02  0.43108985667E+02 -0.15956131601E+02  0.57006859292E+02  0.10566000000E+00 0. -1.
         22    1    1    0    0    0 -0.18982392139E+02 -0.92486829998E+01  0.22091355970E+02  0.30559734245E+02  0.00000000000E+00 0. -1.
</event>
<event>
 5    1  0.1764318E-003  0.9118800E+02  0.7818608E-02  0.1130116E+00
         25   -1    0    0    0    0  0.00000000000E+00  0.00000000000E+00  0.99999998245E-14  0.12500000000E+03  0.12500000000E+03 0.  0.
        -13    1    3    3    0    0 -0.42213943602E+02  0.37345959727E+02  0.25203655856E+02  0.61741178924E+02  0.10566000000E+00 0.  1.
         23    2    1    0    0    0 -0.21839257938E+02  0.17537266802E+02  0.51503470704E+01  0.96521323958E+02  0.92224351391E+02 0.  0.
         13    1    3    3    0    0  0.20374685664E+02 -0.19808692926E+02 -0.20053308785E+02  0.34780145034E+02  0.10566000000E+00 0. -1.
         22    1    1    0    0    0  0.21839257938E+02 -0.17537266802E+02 -0.51503470704E+01  0.28478676042E+02  0.00000000000E+00 0.  1.
</event>
<event>
 5    1  0.1764318E-003  0.9118800E+02  0.7818608E-02  0.1130116E+00
         25   -1    0    0    0    0  0.00000000000E+00  0.00000000000E+00  0.99999998245E-14  0.12500000000E+03  0.12500000000E+03 0.  0.
        -13    1    3    3    0    0  0.46836630469E+02  0.22486711792E+02 -0.15711969425E+02  0.54278902975E+02  0.10566000000E+00 0. -1.
         23    2    1    0    0    0  0.62587243015E+01  0.14979804824E+02 -0.23661769398E+02  0.96304259663E+02  0.91929673750E+02 0.  0.
         13    1    3    3    0    0 -0.40577906167E+02 -0.75069069682E+01 -0.79497999731E+01  0.42025356688E+02  0.10566000000E+00 0.  1.
         22    1    1    0    0    0 -0.62587243015E+01 -0.14979804824E+02  0.23661769398E+02  0.28695740337E+02  0.00000000000E+00 0. -1.
</event>
<event>
 5    1  0.1764318E-003  0.9118800E+02  0.7818608E-02  0.1130116E+00
         25   -1    0    0    0    0  0.00000000000E+00  0.00000000000E+00  0.99999998245E-14  0.12500000000E+03  0.12500000000E+03 0.  0.
        -13    1    3    3    0    0 -0.46028866003E+00 -0.35554430017E+02  0.40640176695E+02  0.53999671159E+02  0.10566000000E+00 0.  1.
         23    2    1    0    0    0  0.31085927985E+00  0.14881289772E+01  0.33169008607E+02  0.91796170502E+02  0.85580620619E+02 0.  0.
         13    1    3    3    0    0  0.77114793987E+00  0.37042558994E+02 -0.74711680879E+01  0.37796499343E+02  0.10566000000E+00 0. -1.
         22    1    1    0    0    0 -0.31085927985E+00 -0.14881289772E+01 -0.33169008607E+02  0.33203829498E+02  0.00000000000E+00 0.  1.
</event>
<event>
 5    1  0.1764318E-003  0.9118800E+02  0.7818608E-02  0.1130116E+00
         25   -1    0    0    0    0  0.00000000000E+00  0.00000000000E+00  0.99999998245E-14  0.12500000000E+03  0.12500000000E+03 0.  0.
        -13    1    3    3    0    0  0.20069713369E+02  0.24618274891E+02 -0.82316381116E+01  0.32811947265E+02  0.10566000000E+00 0. -1.
         23    2    1    0    0    0 -0.23013606191E+02 -0.19474638154E+02 -0.16956580096E+01  0.94804588805E+02  0.89867386750E+02 0.  0.
         13    1    3    3    0    0 -0.43083319560E+02 -0.44092913045E+02  0.65359801020E+01  0.61992641539E+02  0.10566000000E+00 0.  1.
         22    1    1    0    0    0  0.23013606191E+02  0.19474638154E+02  0.16956580096E+01  0.30195411195E+02  0.00000000000E+00 0.  1.
</event>
<event>
 5    1  0.1764318E-003  0.9118800E+02  0.7818608E-02  0.1130116E+00
         25   -1    0    0    0    0  0.00000000000E+00  0.00000000000E+00  0.99999998245E-14  0.12500000000E+03  0.12500000000E+03 0.  0.
        -13    1    3    3    0    0  0.14679899244E+02 -0.32566424236E+01 -0.30749075142E+02  0.34228963581E+02  0.10566000000E+00 0. -1.
         23    2    1    0    0    0  0.41530222198E+02 -0.13345885646E+02  0.61299537982E+01  0.80949479537E+02  0.67914430603E+02 0.  0.
         13    1    3    3    0    0  0.26850322954E+02 -0.10089243222E+02  0.36879028940E+02  0.46720515956E+02  0.10566000000E+00 0.  1.
         22    1    1    0    0    0 -0.41530222198E+02  0.13345885646E+02 -0.61299537982E+01  0.44050520463E+02  0.00000000000E+00 0. -1.
</event>
<event>
 5    1  0.1764318E-003  0.9118800E+02  0.7818608E-02  0.1130116E+00
         25   -1    0    0    0    0  0.00000000000E+00  0.00000000000E+00  0.99999998245E-14  0.12500000000E+03  0.12500000000E+03 0.  0.
        -13    1    3    3    0    0  0.43357675503E+02  0.13865302561E+02  0.28370296384E+01  0.45609149755E+02  0.10566000000E+00 0.  1.
         23    2    1    0    0    0  0.11535783815E+02 -0.18234189513E+02 -0.19401189944E+02  0.95983347080E+02  0.91492277106E+02 0.  0.
         13    1    3    3    0    0 -0.31821891688E+02 -0.32099492073E+02 -0.22238219582E+02  0.50374197326E+02  0.10566000000E+00 0. -1.
         22    1    1    0    0    0 -0.11535783815E+02  0.18234189513E+02  0.19401189944E+02  0.29016652920E+02  0.00000000000E+00 0.  1.
</event>
<event>
 5    1  0.1764318E-003  0.9118800E+02  0.7818608E-02  0.1130116E+00
         25   -1    0    0    0    0  0.00000000000E+00  0.00000000000E+00  0.99999998245E-14  0.12500000000E+03  0.12500000000E+03 0.  0.
        -13    1    3    3    0    0  0.51933574261E+01 -0.54355895884E+02 -0.98459898730E+01  0.55484133402E+02  0.10566000000E+00 0. -1.
         23    2    1    0    0    0  0.97150721696E+01 -0.24586203652E+02  0.15072566630E+02  0.94568991110E+02  0.89539085195E+02 0.  0.
         13    1    3    3    0    0  0.45217147435E+01  0.29769692233E+02  0.24918556503E+02  0.39084857708E+02  0.10566000000E+00 0.  1.
         22    1    1    0    0    0 -0.97150721696E+01  0.24586203652E+02 -0.15072566630E+02  0.30431008890E+02  0.00000000000E+00 0. -1.
</event>
<event>
 5    1  0.1764318E-003  0.9118800E+02  0.7818608E-02  0.1130116E+00
         25   -1    0    0    0    0  0.00000000000E+00  0.00000000000E+00  0.99999998245E-14  0.12500000000E+03  0.12500000000E+03 0.  0.
        -13    1    3    3    0    0 -0.40807186102E+02 -0.30008226986E+02 -0.36603988282E+02  0.62494665746E+02  0.10566000000E+00 0.  1.
         23    2    1    0    0    0 -0.19600029429E+02 -0.13992853617E+02 -0.17974172915E+02  0.94949509190E+02  0.90068736515E+02 0.  0.
         13    1    3    3    0    0  0.21207156674E+02  0.16015373369E+02  0.18629815368E+02  0.32454843444E+02  0.10566000000E+00 0. -1.
         22    1    1    0    0    0  0.19600029429E+02  0.13992853617E+02  0.17974172915E+02  0.30050490810E+02  0.00000000000E+00 0.  1.
</event>
<event>
 5    1  0.1764318E-003  0.9118800E+02  0.7818608E-02  0.1130116E+00
         25   -1    0    0    0    0  0.00000000000E+00  0.00000000000E+00  0.99999998245E-14  0.12500000000E+03  0.12500000000E+03 0.  0.
        -13    1    3    3    0    0  0.17139170289E+02 -0.26395618452E+02 -0.24980485804E+02  0.40181036157E+02  0.10566000000E+00 0.  1.
         23    2    1    0    0    0  0.27605413351E+02 -0.19894480956E+01  0.18909809651E+02  0.91479891840E+02  0.85117406916E+02 0.  0.
         13    1    3    3    0    0  0.10466243062E+02  0.24406170356E+02  0.43890295454E+02  0.51298855683E+02  0.10566000000E+00 0. -1.
         22    1    1    0    0    0 -0.27605413351E+02  0.19894480956E+01 -0.18909809651E+02  0.33520108160E+02  0.00000000000E+00 0. -1.
</event>
<event>
 5    1  0.1764318E-003  0.9118800E+02  0.7818608E-02  0.1130116E+00
         25   -1    0    0    0    0  0.00000000000E+00  0.00000000000E+00  0.99999998245E-14  0.12500000000E+03  0.12500000000E+03 0.  0.
        -13    1    3    3    0    0  0.92817612316E+01 -0.29498311162E+02  0.18288626901E+02  0.35927517182E+02  0.10566000000E+00 0. -1.
         23    2    1    0    0    0  0.13267467758E+02  0.22732546525E+02 -0.11598630308E+02  0.96236783955E+02  0.91837878834E+02 0.  0.
         13    1    3    3    0    0  0.39857065266E+01  0.52230857686E+02 -0.29887257209E+02  0.60309266773E+02  0.10566000000E+00 0.  1.
         22    1    1    0    0    0 -0.13267467758E+02 -0.22732546525E+02  0.11598630308E+02  0.28763216045E+02  0.00000000000E+00 0.  1.
</event>
<event>
 5    1  0.1764318E-003  0.9118800E+02  0.7818608E-02  0.1130116E+00
         25   -1    0    0    0    0  0.00000000000E+00  0.00000000000E+00  0.99999998245E-14  0.12500000000E+03  0.12500000000E+03 0.  0.
        -13    1    3    3    0    0  0.14510275043E+02  0.29263091722E+02  0.17023104125E+02  0.36833053865E+02  0.10566000000E+00 0.  1.
         23    2    1    0    0    0  0.11703623755E+02 -0.26031597785E+02 -0.42471039953E+01  0.96144207088E+02  0.91711786439E+02 0.  0.
         13    1    3    3    0    0 -0.28066512884E+01 -0.55294689507E+02 -0.21270208120E+02  0.59311153223E+02  0.10566000000E+00 0. -1.
         22    1    1    0    0    0 -0.11703623755E+02  0.26031597785E+02  0.42471039953E+01  0.28855792912E+02  0.00000000000E+00 0. -1.
</event>
<event>
 5    1  0.1764318E-003  0.9118800E+02  0.7818608E-02  0.1130116E+00
         25   -1    0    0    0    0  0.00000000000E+00  0.00000000000E+00  0.99999998245E-14  0.12500000000E+03  0.12500000000E+03 0.  0.
        -13    1    3    3    0    0 -0.13373787953E+02 -0.57075396173E+02  0.71664204255E+01  0.59057834351E+02  0.10566000000E+00 0. -1.
         23    2    1    0    0    0  0.76785767843E+01 -0.29054147586E+02 -0.53913602854E+00  0.94943474900E+02  0.90060361564E+02 0.  0.
         13    1    3    3    0    0  0.21052364737E+02  0.28021248586E+02 -0.77055564541E+01  0.35885640550E+02  0.10566000000E+00 0.  1.
         22    1    1    0    0    0 -0.76785767843E+01  0.29054147586E+02  0.53913602854E+00  0.30056525100E+02  0.00000000000E+00 0. -1.
</event>
<event>
 5    1  0.1764318E-003  0.9118800E+02  0.7818608E-02  0.1130116E+00
         25   -1    0    0    0    0  0.00000000000E+00  0.00000000000E+00  0.99999998245E-14  0.12500000000E+03  0.12500000000E+03 0.  0.
        -13    1    3    3    0    0  0.19996547175E+02 -0.27200926558E+02  0.12567516296E+02  0.36023685742E+02  0.10566000000E+00 0.  1.
         23    2    1    0    0    0  0.10737074225E+02  0.25761897992E+02 -0.11351065596E+02  0.94870166924E+02  0.89958555629E+02 0.  0.
         13    1    3    3    0    0 -0.92594729508E+01  0.52962824550E+02 -0.23918581892E+02  0.58846481181E+02  0.10566000000E+00 0. -1.
         22    1    1    0    0    0 -0.10737074225E+02 -0.25761897992E+02  0.11351065596E+02  0.30129833076E+02  0.00000000000E+00 0. -1.
</event>
<event>
 5    1  0.1764318E-003  0.9118800E+02  0.7818608E-02  0.1130116E+00
         25   -1    0    0    0    0  0.00000000000E+00  0.00000000000E+00  0.99999998245E-14  0.12500000000E+03  0.12500000000E+03 0.  0.
        -13    1    3    3    0    0  0.31522415253E+02 -0.97532977165E+01  0.13042232586E+02  0.35480987508E+02  0.10566000000E+00 0.  1.
         23    2    1    0    0    0 -0.25667178429E+02  0.43520537734E+01  0.15972211719E+02  0.94457309095E+02  0.89383036834E+02 0.  0.
         13    1    3    3    0    0 -0.57189593681E+02  0.14105351490E+02  0.29299791332E+01  0.58976321586E+02  0.10566000000E+00 0. -1.
         22    1    1    0    0    0  0.25667178429E+02 -0.43520537734E+01 -0.15972211719E+02  0.30542690905E+02  0.00000000000E+00 0. -1.
</event>
<event>
 5    1  0.1764318E-003  0.9118800E+02  0.7818608E-02  0.1130116E+00
         25   -1    0    0    0    0  0.00000000000E+00  0.00000000000E+00  0.99999998245E-14  0.12500000000E+03  0.12500000000E+03 0.  0.
        -13    1    3    3    0    0  0.24163724654E+02  0.20688391421E+02  0.19602773549E+02  0.37365425510E+02  0.10566000000E+00 0.  1.
         23    2    1    0    0    0 -0.13808274759E+02 -0.21332807617E+02  0.17696062317E+02  0.94033764287E+02  0.88788744061E+02 0.  0.
         13    1    3    3    0    0 -0.37971999413E+02 -0.42021199038E+02 -0.19067112319E+01  0.56668338777E+02  0.10566000000E+00 0. -1.
         22    1    1    0    0    0  0.13808274759E+02  0.21332807617E+02 -0.17696062317E+02  0.30966235713E+02  0.00000000000E+00 0. -1.
</event>
<event>
 5    1  0.1764318E-003  0.9118800E+02  0.7818608E-02  0.1130116E+00
         25   -1    0    0    0    0  0.00000000000E+00  0.00000000000E+00  0.99999998245E-14  0.12500000000E+03  0.12500000000E+03 0.  0.
        -13    1    3    3    0    0 -0.16802469703E+02 -0.45557849411E+02 -0.32659940302E+02  0.58519428361E+02  0.10566000000E+00 0. -1.
         23    2    1    0    0    0 -0.13587403216E+02 -0.25798057115E+02 -0.11891782520E+01  0.95818303305E+02  0.91266509884E+02 0.  0.
         13    1    3    3    0    0  0.32150664876E+01  0.19759792296E+02  0.31470762050E+02  0.37298874945E+02  0.10566000000E+00 0.  1.
         22    1    1    0    0    0  0.13587403216E+02  0.25798057115E+02  0.11891782520E+01  0.29181696695E+02  0.00000000000E+00 0. -1.
</event>
<event>
 5    1  0.1764318E-003  0.9118800E+02  0.7818608E-02  0.1130116E+00
         25   -1    0    0    0    0  0.00000000000E+00  0.00000000000E+00  0.99999998245E-14  0.12500000000E+03  0.12500000000E+03 0.  0.
        -13    1    3    3    0    0 -0.47180729664E+02  0.68213841253E+01 -0.37840035990E+02  0.60864045387E+02  0.10566000000E+00 0. -1.
         23    2    1    0    0    0 -0.26949447324E+02  0.54908831131E+01 -0.91112265961E+01  0.96026961524E+02  0.91551845318E+02 0.  0.
         13    1    3    3    0    0  0.20231282340E+02 -0.13305010122E+01  0.28728809394E+02  0.35162916138E+02  0.10566000000E+00 0.  1.
         22    1    1    0    0    0  0.26949447324E+02 -0.54908831131E+01  0.91112265961E+01  0.28973038476E+02  0.00000000000E+00 0. -1.
</event>
<event>
 5    1  0.1764318E-003  0.9118800E+02  0.7818608E-02  0.1130116E+00
         25   -1    0    0    0    0  0.00000000000E+00  0.00000000000E+00  0.99999998245E-14  0.12500000000E+03  0.12500000000E+03 0.  0.
        -13    1    3    3    0    0  0.44471245462E+02 -0.17996564538E+02  0.23377949510E+02  0.53367665261E+02  0.10566000000E+00 0.  1.
         23    2    1    0    0    0  0.26959344887E+02  0.97479057662E+01 -0.39427986060E+01  0.96062591609E+02  0.91600479815E+02 0.  0.
         13    1    3    3    0    0 -0.17511900575E+02  0.27744470305E+02 -0.27320748116E+02  0.42694926348E+02  0.10566000000E+00 0. -1.
         22    1    1    0    0    0 -0.26959344887E+02 -0.97479057662E+01  0.39427986060E+01  0.28937408391E+02  0.00000000000E+00 0. -1.
</event>
<event>
 5    1  0.1764318E-003  0.9118800E+02  0.7818608E-02  0.1130116E+00
         25   -1    0    0    0    0  0.00000000000E+00  0.00000000000E+00  0.99999998245E-14  0.12500000000E+03  0.12500000000E+03 0.  0.
        -13    1    3    3    0    0 -0.20919547070E+02  0.32684364926E+02 -0.19792162388E+02  0.43561864243E+02  0.10566000000E+00 0. -1.
         23    2    1    0    0    0  0.19344509346E+02 -0.24059556001E+01 -0.20138596802E+02  0.96972125565E+02  0.92833352796E+02 0.  0.
         13    1    3    3    0    0  0.40264056416E+02 -0.35090320526E+02 -0.34643441357E+00  0.53410261323E+02  0.10566000000E+00 0.  1.
         22    1    1    0    0    0 -0.19344509346E+02  0.24059556001E+01  0.20138596802E+02  0.28027874435E+02  0.00000000000E+00 0.  1.
</event>
<event>
 5    1  0.1764318E-003  0.9118800E+02  0.7818608E-02  0.1130116E+00
         25   -1    0    0    0    0  0.00000000000E+00  0.00000000000E+00  0.99999998245E-14  0.12500000000E+03  0.12500000000E+03 0.  0.
        -13    1    3    3    0    0  0.54190446940E+01 -0.12820135843E+02  0.33513180751E+02  0.36288653550E+02  0.10566000000E+00 0.  1.
         23    2    1    0    0    0  0.89100938788E+01  0.28853587138E+02 -0.64366373120E+01  0.94123640702E+02  0.88915185291E+02 0.  0.
         13    1    3    3    0    0  0.34910491847E+01  0.41673722981E+02 -0.39949818063E+02  0.57834987151E+02  0.10566000000E+00 0. -1.
         22    1    1    0    0    0 -0.89100938788E+01 -0.28853587138E+02  0.64366373120E+01  0.30876359298E+02  0.00000000000E+00 0. -1.
</event>
<event>
 5    1  0.1764318E-003  0.9118800E+02  0.7818608E-02  0.1130116E+00
         25   -1    0    0    0    0  0.00000000000E+00  0.00000000000E+00  0.99999998245E-14  0.12500000000E+03  0.12500000000E+03 0.  0.
        -13    1    3    3    0    0 -0.21542313675E+01 -0.26630644604E+02 -0.54413183327E+02  0.60618789402E+02  0.10566000000E+00 0. -1.
         23    2    1    0    0    0 -0.66294495455E+01 -0.17757250508E+02 -0.16317997738E+02  0.99989070447E+02  0.96810472635E+02 0.  0.
         13    1    3    3    0    0 -0.44752181780E+01  0.88733940957E+01  0.38095185589E+02  0.39370281045E+02  0.10566000000E+00 0.  1.
         22    1    1    0    0    0  0.66294495455E+01  0.17757250508E+02  0.16317997738E+02  0.25010929553E+02  0.00000000000E+00 0. -1.
</event>
<event>
 5    1  0.1764318E-003  0.9118800E+02  0.7818608E-02  0.1130116E+00
         25   -1    0    0    0    0  0.00000000000E+00  0.00000000000E+00  0.99999998245E-14  0.12500000000E+03  0.12500000000E+03 0.  0.
        -13    1    3    3    0    0  0.34057566768E+02  0.68012384221E+01 -0.12568371123E+02  0.36934398803E+02  0.10566000000E+00 0. -1.
         23    2    1    0    0    0 -0.13344729554E+02  0.55773523669E+01  0.24111283892E+02  0.96883409218E+02  0.92713819383E+02 0.  0.
         13    1    3    3    0    0 -0.47402296322E+02 -0.12238860552E+01  0.36679655015E+02  0.59949010415E+02  0.10566000000E+00 0.  1.
         22    1    1    0    0    0  0.13344729554E+02 -0.55773523669E+01 -0.24111283892E+02  0.28116590782E+02  0.00000000000E+00 0.  1.
</event>
<event>
 5    1  0.1764318E-003  0.9118800E+02  0.7818608E-02  0.1130116E+00
         25   -1    0    0    0    0  0.00000000000E+00  0.00000000000E+00  0.99999998245E-14  0.12500000000E+03  0.12500000000E+03 0.  0.
        -13    1    3    3    0    0  0.13218790594E+02  0.24134874093E+02  0.51054789557E+02  0.57998545439E+02  0.10566000000E+00 0.  1.
         23    2    1    0    0    0 -0.10447052050E+02  0.81297686319E+01  0.25219200093E+02  0.96517688158E+02  0.92219423331E+02 0.  0.
         13    1    3    3    0    0 -0.23665842643E+02 -0.16005105461E+02 -0.25835589465E+02  0.38519142720E+02  0.10566000000E+00 0. -1.
         22    1    1    0    0    0  0.10447052050E+02 -0.81297686319E+01 -0.25219200093E+02  0.28482311842E+02  0.00000000000E+00 0.  1.
</event>
<event>
 5    1  0.1764318E-003  0.9118800E+02  0.7818608E-02  0.1130116E+00
         25   -1    0    0    0    0  0.00000000000E+00  0.00000000000E+00  0.99999998245E-14  0.12500000000E+03  0.12500000000E+03 0.  0.
        -13    1    3    3    0    0  0.25153095685E+01 -0.28048117514E+02  0.21614623464E+02  0.35499673095E+02  0.10566000000E+00 0.  1.
         23    2    1    0    0    0 -0.27062275995E+02 -0.15120219747E+01 -0.18672353143E+02  0.92086328610E+02  0.86003384541E+02 0.  0.
         13    1    3    3    0    0 -0.29577585564E+02  0.26536095539E+02 -0.40286976607E+02  0.56586655515E+02  0.10566000000E+00 0. -1.
         22    1    1    0    0    0  0.27062275995E+02  0.15120219747E+01  0.18672353143E+02  0.32913671390E+02  0.00000000000E+00 0. -1.
</event>
<event>
 5    1  0.1764318E-003  0.9118800E+02  0.7818608E-02  0.1130116E+00
         25   -1    0    0    0    0  0.00000000000E+00  0.00000000000E+00  0.99999998245E-14  0.12500000000E+03  0.12500000000E+03 0.  0.
        -13    1    3    3    0    0 -0.32235023549E+02  0.20248181576E+02  0.16862196933E+02  0.41634486304E+02  0.10566000000E+00 0.  1.
         23    2    1    0    0    0  0.15966906639E+02  0.23594792542E+02 -0.72031670114E+01  0.95613915577E+02  0.90986146717E+02 0.  0.
         13    1    3    3    0    0  0.48201930188E+02  0.33466109660E+01 -0.24065363945E+02  0.53979429273E+02  0.10566000000E+00 0. -1.
         22    1    1    0    0    0 -0.15966906639E+02 -0.23594792542E+02  0.72031670114E+01  0.29386084423E+02  0.00000000000E+00 0. -1.
</event>
<event>
 5    1  0.1764318E-003  0.9118800E+02  0.7818608E-02  0.1130116E+00
         25   -1    0    0    0    0  0.00000000000E+00  0.00000000000E+00  0.99999998245E-14  0.12500000000E+03  0.12500000000E+03 0.  0.
        -13    1    3    3    0    0 -0.25372361801E+01 -0.35331634754E+02 -0.56500593950E+01  0.35870549439E+02  0.10566000000E+00 0. -1.
         23    2    1    0    0    0  0.17427999327E+02  0.22077093077E+02 -0.30568807942E+01  0.96707285046E+02  0.92476057775E+02 0.  0.
         13    1    3    3    0    0  0.19965235507E+02  0.57408727831E+02  0.25931786009E+01  0.60836735607E+02  0.10566000000E+00 0.  1.
         22    1    1    0    0    0 -0.17427999327E+02 -0.22077093077E+02  0.30568807942E+01  0.28292714954E+02  0.00000000000E+00 0.  1.
</event>
<event>
 5    1  0.1764318E-003  0.9118800E+02  0.7818608E-02  0.1130116E+00
         25   -1    0    0    0    0  0.00000000000E+00  0.00000000000E+00  0.99999998245E-14  0.12500000000E+03  0.12500000000E+03 0.  0.
        -13    1    3    3    0    0  0.24017886563E+02  0.44731081325E+02  0.32774843332E+02  0.60431200807E+02  0.10566000000E+00 0. -1.
         23    2    1    0    0    0  0.19795914559E+01  0.26098156892E+02  0.10883948389E+02  0.96654049530E+02  0.92404071245E+02 0.  0.
         13    1    3    3    0    0 -0.22038295107E+02 -0.18632924433E+02 -0.21890894944E+02  0.36222848723E+02  0.10566000000E+00 0.  1.
         22    1    1    0    0    0 -0.19795914559E+01 -0.26098156892E+02 -0.10883948389E+02  0.28345950470E+02  0.00000000000E+00 0. -1.
</event>
<event>
 5    1  0.1764318E-003  0.9118800E+02  0.7818608E-02  0.1130116E+00
         25   -1    0    0    0    0  0.00000000000E+00  0.00000000000E+00  0.99999998245E-14  0.12500000000E+03  0.12500000000E+03 0.  0.
        -13    1    3    3    0    0 -0.10666181402E+02  0.69470434467E+01  0.14188339518E+02  0.19061715050E+02  0.10566000000E+00 0.  1.
         23    2    1    0    0    0 -0.21376284559E+02 -0.31221475083E+02 -0.28732572034E+02  0.77489088163E+02  0.61214965824E+02 0.  0.
         13    1    3    3    0    0 -0.10710103157E+02 -0.38168518529E+02 -0.42920911552E+02  0.58427373113E+02  0.10566000000E+00 0. -1.
         22    1    1    0    0    0  0.21376284559E+02  0.31221475083E+02  0.28732572034E+02  0.47510911837E+02  0.00000000000E+00 0. -1.
</event>
<event>
 5    1  0.1764318E-003  0.9118800E+02  0.7818608E-02  0.1130116E+00
         25   -1    0    0    0    0  0.00000000000E+00  0.00000000000E+00  0.99999998245E-14  0.12500000000E+03  0.12500000000E+03 0.  0.
        -13    1    3    3    0    0  0.13204151247E+02 -0.31366094529E+02 -0.16872544554E+02  0.37985200012E+02  0.10566000000E+00 0. -1.
         23    2    1    0    0    0  0.33037245181E+01  0.43879880302E+01  0.28147239845E+02  0.96321852474E+02  0.91953592200E+02 0.  0.
         13    1    3    3    0    0 -0.99004267294E+01  0.35754082560E+02  0.45019784399E+02  0.58336652462E+02  0.10566000000E+00 0.  1.
         22    1    1    0    0    0 -0.33037245181E+01 -0.43879880302E+01 -0.28147239845E+02  0.28678147526E+02  0.00000000000E+00 0.  1.
</event>
<event>
 5    1  0.1764318E-003  0.9118800E+02  0.7818608E-02  0.1130116E+00
         25   -1    0    0    0    0  0.00000000000E+00  0.00000000000E+00  0.99999998245E-14  0.12500000000E+03  0.12500000000E+03 0.  0.
        -13    1    3    3    0    0 -0.13466005850E+02  0.21501031372E+02  0.26843182755E+02  0.36935014391E+02  0.10566000000E+00 0. -1.
         23    2    1    0    0    0  0.18349520122E+02  0.37659218766E+01 -0.20865913435E+02  0.96959432963E+02  0.92816260649E+02 0.  0.
         13    1    3    3    0    0  0.31815525972E+02 -0.17735109495E+02 -0.47709096190E+02  0.60024418572E+02  0.10566000000E+00 0.  1.
         22    1    1    0    0    0 -0.18349520122E+02 -0.37659218766E+01  0.20865913435E+02  0.28040567037E+02  0.00000000000E+00 0.  1.
</event>
<event>
 5    1  0.1764318E-003  0.9118800E+02  0.7818608E-02  0.1130116E+00
         25   -1    0    0    0    0  0.00000000000E+00  0.00000000000E+00  0.99999998245E-14  0.12500000000E+03  0.12500000000E+03 0.  0.
        -13    1    3    3    0    0  0.53245952610E+02  0.12930579596E+01 -0.12712935690E+02  0.54757952538E+02  0.10566000000E+00 0.  1.
         23    2    1    0    0    0  0.17080703214E+02  0.99113578352E+01 -0.24288450575E+02  0.93696417653E+02  0.88312538256E+02 0.  0.
         13    1    3    3    0    0 -0.36165249396E+02  0.86182998756E+01 -0.11575514885E+02  0.38938465115E+02  0.10566000000E+00 0. -1.
         22    1    1    0    0    0 -0.17080703214E+02 -0.99113578352E+01  0.24288450575E+02  0.31303582347E+02  0.00000000000E+00 0.  1.
</event>
<event>
 5    1  0.1764318E-003  0.9118800E+02  0.7818608E-02  0.1130116E+00
         25   -1    0    0    0    0  0.00000000000E+00  0.00000000000E+00  0.99999998245E-14  0.12500000000E+03  0.12500000000E+03 0.  0.
        -13    1    3    3    0    0 -0.37435026657E+02  0.18843708453E+02 -0.36789075401E+02  0.55766601133E+02  0.10566000000E+00 0. -1.
         23    2    1    0    0    0 -0.24180088748E+01  0.19692683029E+02 -0.25751023970E+02  0.92492096849E+02  0.86591132411E+02 0.  0.
         13    1    3    3    0    0  0.35017017782E+02  0.84897457599E+00  0.11038051431E+02  0.36725495716E+02  0.10566000000E+00 0.  1.
         22    1    1    0    0    0  0.24180088748E+01 -0.19692683029E+02  0.25751023970E+02  0.32507903151E+02  0.00000000000E+00 0. -1.
</event>
<event>
 5    1  0.1764318E-003  0.9118800E+02  0.7818608E-02  0.1130116E+00
         25   -1    0    0    0    0  0.00000000000E+00  0.00000000000E+00  0.99999998245E-14  0.12500000000E+03  0.12500000000E+03 0.  0.
        -13    1    3    3    0    0 -0.37444468751E+02 -0.87291608892E+01  0.49006839293E+01  0.38759700165E+02  0.10566000000E+00 0.  1.
         23    2    1    0    0    0  0.14250796017E+02 -0.26624803576E+02 -0.51059275469E+01  0.94372629093E+02  0.89264535361E+02 0.  0.
         13    1    3    3    0    0  0.51695264768E+02 -0.17895642687E+02 -0.10006611476E+02  0.55612928928E+02  0.10566000000E+00 0. -1.
         22    1    1    0    0    0 -0.14250796017E+02  0.26624803576E+02  0.51059275469E+01  0.30627370907E+02  0.00000000000E+00 0. -1.
</event>
<event>
 5    1  0.1764318E-003  0.9118800E+02  0.7818608E-02  0.1130116E+00
         25   -1    0    0    0    0  0.00000000000E+00  0.00000000000E+00  0.99999998245E-14  0.12500000000E+03  0.12500000000E+03 0.  0.
        -13    1    3    3    0    0  0.20464387008E+02 -0.12606524601E+02  0.22620888415E+02  0.33006535033E+02  0.10566000000E+00 0. -1.
         23    2    1    0    0    0 -0.13775129167E+02  0.14386861024E+02 -0.21952057204E+02  0.95358327153E+02  0.90634330075E+02 0.  0.
         13    1    3    3    0    0 -0.34239516176E+02  0.26993385625E+02 -0.44572945619E+02  0.62351792120E+02  0.10566000000E+00 0.  1.
         22    1    1    0    0    0  0.13775129167E+02 -0.14386861024E+02  0.21952057204E+02  0.29641672847E+02  0.00000000000E+00 0.  1.
</event>
<event>
 5    1  0.1764318E-003  0.9118800E+02  0.7818608E-02  0.1130116E+00
         25   -1    0    0    0    0  0.00000000000E+00  0.00000000000E+00  0.99999998245E-14  0.12500000000E+03  0.12500000000E+03 0.  0.
        -13    1    3    3    0    0  0.15078129850E+02 -0.27789726353E+02  0.11174480365E+02  0.33533551348E+02  0.10566000000E+00 0.  1.
         23    2    1    0    0    0  0.56177136269E+01  0.23200638835E+02  0.28140215239E+02  0.88098779662E+02  0.79998093199E+02 0.  0.
         13    1    3    3    0    0 -0.94604162229E+01  0.50990365188E+02  0.16965734874E+02  0.54565228314E+02  0.10566000000E+00 0. -1.
         22    1    1    0    0    0 -0.56177136269E+01 -0.23200638835E+02 -0.28140215239E+02  0.36901220338E+02  0.00000000000E+00 0. -1.
</event>
<event>
 5    1  0.1764318E-003  0.9118800E+02  0.7818608E-02  0.1130116E+00
         25   -1    0    0    0    0  0.00000000000E+00  0.00000000000E+00  0.99999998245E-14  0.12500000000E+03  0.12500000000E+03 0.  0.
        -13    1    3    3    0    0 -0.15338440334E+02  0.33825878802E+02  0.16069333193E+02  0.40468413139E+02  0.10566000000E+00 0. -1.
         23    2    1    0    0    0  0.26078266901E+02  0.99433287375E+01 -0.10519237880E+02  0.95173834365E+02  0.90379525287E+02 0.  0.
         13    1    3    3    0    0  0.41416707235E+02 -0.23882550065E+02 -0.26588571073E+02  0.54705421226E+02  0.10566000000E+00 0.  1.
         22    1    1    0    0    0 -0.26078266901E+02 -0.99433287375E+01  0.10519237880E+02  0.29826165635E+02  0.00000000000E+00 0.  1.
</event>
<event>
 5    1  0.1764318E-003  0.9118800E+02  0.7818608E-02  0.1130116E+00
         25   -1    0    0    0    0  0.00000000000E+00  0.00000000000E+00  0.99999998245E-14  0.12500000000E+03  0.12500000000E+03 0.  0.
        -13    1    3    3    0    0  0.81470100801E+01  0.11787506511E+01  0.40964044692E+02  0.41783098831E+02  0.10566000000E+00 0.  1.
         23    2    1    0    0    0 -0.16475563436E+02  0.29845891258E+02  0.14311166436E+02  0.88026619031E+02  0.79885259953E+02 0.  0.
         13    1    3    3    0    0 -0.24622573516E+02  0.28667140607E+02 -0.26652878257E+02  0.46243520200E+02  0.10566000000E+00 0. -1.
         22    1    1    0    0    0  0.16475563436E+02 -0.29845891258E+02 -0.14311166436E+02  0.36973380969E+02  0.00000000000E+00 0. -1.
</event>
<event>
 5    1  0.1764318E-003  0.9118800E+02  0.7818608E-02  0.1130116E+00
         25   -1    0    0    0    0  0.00000000000E+00  0.00000000000E+00  0.99999998245E-14  0.12500000000E+03  0.12500000000E+03 0.  0.
        -13    1    3    3    0    0  0.27859659980E+02  0.10708042562E+02  0.13122119465E+02  0.32604049028E+02  0.10566000000E+00 0. -1.
         23    2    1    0    0    0 -0.17493864987E+02 -0.17559361881E+02 -0.17926530523E+02  0.94410344912E+02  0.89317334420E+02 0.  0.
         13    1    3    3    0    0 -0.45353524967E+02 -0.28267404443E+02 -0.31048649987E+02  0.61806295884E+02  0.10566000000E+00 0.  1.
         22    1    1    0    0    0  0.17493864987E+02  0.17559361881E+02  0.17926530523E+02  0.30589655088E+02  0.00000000000E+00 0.  1.
</event>
<event>
 5    1  0.1764318E-003  0.9118800E+02  0.7818608E-02  0.1130116E+00
         25   -1    0    0    0    0  0.00000000000E+00  0.00000000000E+00  0.99999998245E-14  0.12500000000E+03  0.12500000000E+03 0.  0.
        -13    1    3    3    0    0 -0.17270600283E+02  0.13520005762E+02  0.57994718509E+02  0.62003731572E+02  0.10566000000E+00 0.  1.
         23    2    1    0    0    0 -0.13005607026E+02  0.12458176460E+02  0.32784361144E+02  0.87594568436E+02  0.79206326193E+02 0.  0.
         13    1    3    3    0    0  0.42649932561E+01 -0.10618293017E+01 -0.25210357364E+02  0.25590836864E+02  0.10566000000E+00 0. -1.
         22    1    1    0    0    0  0.13005607026E+02 -0.12458176460E+02 -0.32784361144E+02  0.37405431564E+02  0.00000000000E+00 0.  1.
</event>
<event>
 5    1  0.1764318E-003  0.9118800E+02  0.7818608E-02  0.1130116E+00
         25   -1    0    0    0    0  0.00000000000E+00  0.00000000000E+00  0.99999998245E-14  0.12500000000E+03  0.12500000000E+03 0.  0.
        -13    1    3    3    0    0 -0.11744698829E+02 -0.32193693780E+02 -0.92476215622E+01  0.35495091751E+02  0.10566000000E+00 0.  1.
         23    2    1    0    0    0 -0.70308332447E+01  0.27886009918E+02 -0.26573917314E+01  0.96118796838E+02  0.91677146604E+02 0.  0.
         13    1    3    3    0    0  0.47138655844E+01  0.60079703698E+02  0.65902298308E+01  0.60623705087E+02  0.10566000000E+00 0. -1.
         22    1    1    0    0    0  0.70308332447E+01 -0.27886009918E+02  0.26573917314E+01  0.28881203162E+02  0.00000000000E+00 0. -1.
</event>
<event>
 5    1  0.1764318E-003  0.9118800E+02  0.7818608E-02  0.1130116E+00
         25   -1    0    0    0    0  0.00000000000E+00  0.00000000000E+00  0.99999998245E-14  0.12500000000E+03  0.12500000000E+03 0.  0.
        -13    1    3    3    0    0  0.18615459502E+02 -0.55459567334E+00 -0.45783225645E+02  0.49426286765E+02  0.10566000000E+00 0. -1.
         23    2    1    0    0    0 -0.20682400924E+02 -0.50294217595E+00 -0.18279560462E+02  0.97392809098E+02  0.93398084961E+02 0.  0.
         13    1    3    3    0    0 -0.39297860427E+02  0.51653497382E-01  0.27503665183E+02  0.47966522333E+02  0.10566000000E+00 0.  1.
         22    1    1    0    0    0  0.20682400924E+02  0.50294217595E+00  0.18279560462E+02  0.27607190902E+02  0.00000000000E+00 0.  1.
</event>
<event>
 5    1  0.1764318E-003  0.9118800E+02  0.7818608E-02  0.1130116E+00
         25   -1    0    0    0    0  0.00000000000E+00  0.00000000000E+00  0.99999998245E-14  0.12500000000E+03  0.12500000000E+03 0.  0.
        -13    1    3    3    0    0  0.19825727260E+02  0.33353570238E+02  0.60342639220E+01  0.39267589869E+02  0.10566000000E+00 0.  1.
         23    2    1    0    0    0 -0.34309202402E+01 -0.13101002815E+02  0.26607724181E+02  0.95144037873E+02  0.90338305652E+02 0.  0.
         13    1    3    3    0    0 -0.23256647500E+02 -0.46454573053E+02  0.20573460259E+02  0.55876448004E+02  0.10566000000E+00 0. -1.
         22    1    1    0    0    0  0.34309202402E+01  0.13101002815E+02 -0.26607724181E+02  0.29855962127E+02  0.00000000000E+00 0. -1.
</event>
<event>
 5    1  0.1764318E-003  0.9118800E+02  0.7818608E-02  0.1130116E+00
         25   -1    0    0    0    0  0.00000000000E+00  0.00000000000E+00  0.99999998245E-14  0.12500000000E+03  0.12500000000E+03 0.  0.
        -13    1    3    3    0    0  0.37888933079E+02  0.98544765050E+01  0.43046796595E+02  0.58186938554E+02  0.10566000000E+00 0.  1.
         23    2    1    0    0    0  0.57975372398E+01 -0.27018252696E+01  0.28836873927E+02  0.95462285198E+02  0.90777592497E+02 0.  0.
         13    1    3    3    0    0 -0.32091395840E+02 -0.12556301775E+02 -0.14209922668E+02  0.37275346644E+02  0.10566000000E+00 0. -1.
         22    1    1    0    0    0 -0.57975372398E+01  0.27018252696E+01 -0.28836873927E+02  0.29537714802E+02  0.00000000000E+00 0.  1.
</event>
<event>
 5    1  0.1764318E-003  0.9118800E+02  0.7818608E-02  0.1130116E+00
         25   -1    0    0    0    0  0.00000000000E+00  0.00000000000E+00  0.99999998245E-14  0.12500000000E+03  0.12500000000E+03 0.  0.
        -13    1    3    3    0    0 -0.43452743166E+02 -0.32317077703E+02  0.25204067282E+01  0.54211604054E+02  0.10566000000E+00 0. -1.
         23    2    1    0    0    0 -0.29723222499E+02  0.56883232752E+01 -0.49435653218E+00  0.94733329126E+02  0.89768214205E+02 0.  0.
         13    1    3    3    0    0  0.13729520667E+02  0.38005400979E+02 -0.30147632603E+01  0.40521725072E+02  0.10566000000E+00 0.  1.
         22    1    1    0    0    0  0.29723222499E+02 -0.56883232752E+01  0.49435653218E+00  0.30266670874E+02  0.00000000000E+00 0.  1.
</event>
<event>
 5    1  0.1764318E-003  0.9118800E+02  0.7818608E-02  0.1130116E+00
         25   -1    0    0    0    0  0.00000000000E+00  0.00000000000E+00  0.99999998245E-14  0.12500000000E+03  0.12500000000E+03 0.  0.
        -13    1    3    3    0    0  0.36905003765E+02 -0.46852279849E+01 -0.21257949783E+02  0.42846729831E+02  0.10566000000E+00 0.  1.
         23    2    1    0    0    0  0.58852653223E+00 -0.26552482386E+02  0.11138068746E+02  0.96200047574E+02  0.91787863542E+02 0.  0.
         13    1    3    3    0    0 -0.36316477233E+02 -0.21867254401E+02  0.32396018530E+02  0.53353317743E+02  0.10566000000E+00 0. -1.
         22    1    1    0    0    0 -0.58852653223E+00  0.26552482386E+02 -0.11138068746E+02  0.28799952426E+02  0.00000000000E+00 0. -1.
</event>
<event>
 5    1  0.1764318E-003  0.9118800E+02  0.7818608E-02  0.1130116E+00
         25   -1    0    0    0    0  0.00000000000E+00  0.00000000000E+00  0.99999998245E-14  0.12500000000E+03  0.12500000000E+03 0.  0.
        -13    1    3    3    0    0 -0.18367259961E+01  0.25668708119E+02 -0.56841050053E+02  0.62395290479E+02  0.10566000000E+00 0. -1.
         23    2    1    0    0    0  0.10989847096E+01  0.10641257513E+02 -0.19408485596E+02  0.10283846932E+03  0.10042219541E+03 0.  0.
         13    1    3    3    0    0  0.29357107058E+01 -0.15027450606E+02  0.37432564457E+02  0.40443178843E+02  0.10566000000E+00 0.  1.
         22    1    1    0    0    0 -0.10989847096E+01 -0.10641257513E+02  0.19408485596E+02  0.22161530677E+02  0.00000000000E+00 0. -1.
</event>
<event>
 5    1  0.1764318E-003  0.9118800E+02  0.7818608E-02  0.1130116E+00
         25   -1    0    0    0    0  0.00000000000E+00  0.00000000000E+00  0.99999998245E-14  0.12500000000E+03  0.12500000000E+03 0.  0.
        -13    1    3    3    0    0 -0.20744042724E+02 -0.18522294881E+02 -0.49560310272E+02  0.56829800584E+02  0.10566000000E+00 0. -1.
         23    2    1    0    0    0 -0.17965149324E+02 -0.21037367011E+02 -0.11555341301E+02  0.95019284305E+02  0.90165520441E+02 0.  0.
         13    1    3    3    0    0  0.27788934000E+01 -0.25150721297E+01  0.38004968971E+02  0.38189483721E+02  0.10566000000E+00 0.  1.
         22    1    1    0    0    0  0.17965149324E+02  0.21037367011E+02  0.11555341301E+02  0.29980715695E+02  0.00000000000E+00 0. -1.
</event>
<event>
 5    1  0.1764318E-003  0.9118800E+02  0.7818608E-02  0.1130116E+00
         25   -1    0    0    0    0  0.00000000000E+00  0.00000000000E+00  0.99999998245E-14  0.12500000000E+03  0.12500000000E+03 0.  0.
        -13    1    3    3    0    0  0.26913885036E+02 -0.41806002496E+01 -0.23830874370E+02  0.36190556274E+02  0.10566000000E+00 0.  1.
         23    2    1    0    0    0 -0.25584243769E+02 -0.17756265415E+02 -0.58969834513E+01  0.93304370892E+02  0.87755870020E+02 0.  0.
         13    1    3    3    0    0 -0.52498128805E+02 -0.13575665166E+02  0.17933890918E+02  0.57113814618E+02  0.10566000000E+00 0. -1.
         22    1    1    0    0    0  0.25584243769E+02  0.17756265415E+02  0.58969834513E+01  0.31695629108E+02  0.00000000000E+00 0. -1.
</event>
<event>
 5    1  0.1764318E-003  0.9118800E+02  0.7818608E-02  0.1130116E+00
         25   -1    0    0    0    0  0.00000000000E+00  0.00000000000E+00  0.99999998245E-14  0.12500000000E+03  0.12500000000E+03 0.  0.
        -13    1    3    3    0    0  0.91553172850E+01 -0.86033561966E+01 -0.42321420966E+02  0.44146929781E+02  0.10566000000E+00 0.  1.
         23    2    1    0    0    0  0.24710339196E+02  0.17173821059E+02 -0.14993169305E+01  0.94870463923E+02  0.89958968317E+02 0.  0.
         13    1    3    3    0    0  0.15555021911E+02  0.25777177256E+02  0.40822104036E+02  0.50723534142E+02  0.10566000000E+00 0. -1.
         22    1    1    0    0    0 -0.24710339196E+02 -0.17173821059E+02  0.14993169305E+01  0.30129536077E+02  0.00000000000E+00 0.  1.
</event>
<event>
 5    1  0.1764318E-003  0.9118800E+02  0.7818608E-02  0.1130116E+00
         25   -1    0    0    0    0  0.00000000000E+00  0.00000000000E+00  0.99999998245E-14  0.12500000000E+03  0.12500000000E+03 0.  0.
        -13    1    3    3    0    0  0.38015735148E+02  0.12555580875E+02  0.22945252757E+02  0.46144712785E+02  0.10566000000E+00 0. -1.
         23    2    1    0    0    0 -0.86819848946E+01  0.25527671122E+02  0.74909240601E+01  0.97015132698E+02  0.92891243799E+02 0.  0.
         13    1    3    3    0    0 -0.46697720043E+02  0.12972090248E+02 -0.15454328696E+02  0.50870419913E+02  0.10566000000E+00 0.  1.
         22    1    1    0    0    0  0.86819848946E+01 -0.25527671122E+02 -0.74909240601E+01  0.27984867302E+02  0.00000000000E+00 0. -1.
</event>
<event>
 5    1  0.1764318E-003  0.9118800E+02  0.7818608E-02  0.1130116E+00
         25   -1    0    0    0    0  0.00000000000E+00  0.00000000000E+00  0.99999998245E-14  0.12500000000E+03  0.12500000000E+03 0.  0.
        -13    1    3    3    0    0 -0.22616696755E+02 -0.32239416646E+02 -0.34371933187E+02  0.52271750620E+02  0.10566000000E+00 0.  1.
         23    2    1    0    0    0  0.11227762112E+02 -0.26158358323E+02 -0.85393212360E+01  0.95280606343E+02  0.90527076533E+02 0.  0.
         13    1    3    3    0    0  0.33844458867E+02  0.60810583234E+01  0.25832611951E+02  0.43008855723E+02  0.10566000000E+00 0. -1.
         22    1    1    0    0    0 -0.11227762112E+02  0.26158358323E+02  0.85393212360E+01  0.29719393657E+02  0.00000000000E+00 0.  1.
</event>
<event>
 5    1  0.1764318E-003  0.9118800E+02  0.7818608E-02  0.1130116E+00
         25   -1    0    0    0    0  0.00000000000E+00  0.00000000000E+00  0.99999998245E-14  0.12500000000E+03  0.12500000000E+03 0.  0.
        -13    1    3    3    0    0 -0.13773199030E+02  0.59463423472E+02  0.45769307088E+01  0.61209143118E+02  0.10566000000E+00 0.  1.
         23    2    1    0    0    0 -0.67481100746E+01  0.27849782327E+02 -0.68252335706E+01  0.95542722825E+02  0.90888286959E+02 0.  0.
         13    1    3    3    0    0  0.70250889549E+01 -0.31613641144E+02 -0.11402164279E+02  0.34333579707E+02  0.10566000000E+00 0. -1.
         22    1    1    0    0    0  0.67481100746E+01 -0.27849782327E+02  0.68252335706E+01  0.29457277175E+02  0.00000000000E+00 0.  1.
</event>
<event>
 5    1  0.1764318E-003  0.9118800E+02  0.7818608E-02  0.1130116E+00
         25   -1    0    0    0    0  0.00000000000E+00  0.00000000000E+00  0.99999998245E-14  0.12500000000E+03  0.12500000000E+03 0.  0.
        -13    1    3    3    0    0 -0.30557091748E+02 -0.19316612734E+02 -0.94929399176E+00  0.36163236951E+02  0.10566000000E+00 0. -1.
         23    2    1    0    0    0  0.20969787841E+02 -0.17492777562E+01  0.21377890017E+02  0.95003230902E+02  0.90143262230E+02 0.  0.
         13    1    3    3    0    0  0.51526879589E+02  0.17567334978E+02  0.22327184008E+02  0.58839993951E+02  0.10566000000E+00 0.  1.
         22    1    1    0    0    0 -0.20969787841E+02  0.17492777562E+01 -0.21377890017E+02  0.29996769098E+02  0.00000000000E+00 0.  1.
</event>
<event>
 5    1  0.1764318E-003  0.9118800E+02  0.7818608E-02  0.1130116E+00
         25   -1    0    0    0    0  0.00000000000E+00  0.00000000000E+00  0.99999998245E-14  0.12500000000E+03  0.12500000000E+03 0.  0.
        -13    1    3    3    0    0 -0.29172646763E+02  0.11550652309E+01 -0.28284028521E+01  0.29332380087E+02  0.10566000000E+00 0.  1.
         23    2    1    0    0    0  0.90990391303E+01  0.56816696416E+01  0.38022617164E+02  0.85493123396E+02  0.75817417847E+02 0.  0.
         13    1    3    3    0    0  0.38271685893E+02  0.45266044107E+01  0.40851020016E+02  0.56160743309E+02  0.10566000000E+00 0. -1.
         22    1    1    0    0    0 -0.90990391303E+01 -0.56816696416E+01 -0.38022617164E+02  0.39506876604E+02  0.00000000000E+00 0. -1.
</event>
<event>
 5    1  0.1764318E-003  0.9118800E+02  0.7818608E-02  0.1130116E+00
         25   -1    0    0    0    0  0.00000000000E+00  0.00000000000E+00  0.99999998245E-14  0.12500000000E+03  0.12500000000E+03 0.  0.
        -13    1    3    3    0    0 -0.16487208155E+02 -0.17467067372E+02  0.24029922929E+02  0.33976092114E+02  0.10566000000E+00 0. -1.
         23    2    1    0    0    0  0.25841208362E+02  0.17035917620E+02 -0.96478898465E+00  0.94033544656E+02  0.88788434855E+02 0.  0.
         13    1    3    3    0    0  0.42328416517E+02  0.34502984992E+02 -0.24994711914E+02  0.60057452542E+02  0.10566000000E+00 0.  1.
         22    1    1    0    0    0 -0.25841208362E+02 -0.17035917620E+02  0.96478898465E+00  0.30966455344E+02  0.00000000000E+00 0.  1.
</event>
<event>
 5    1  0.1764318E-003  0.9118800E+02  0.7818608E-02  0.1130116E+00
         25   -1    0    0    0    0  0.00000000000E+00  0.00000000000E+00  0.99999998245E-14  0.12500000000E+03  0.12500000000E+03 0.  0.
        -13    1    3    3    0    0 -0.24639574490E+02  0.12730431884E+02  0.16487847302E+02  0.32265039899E+02  0.10566000000E+00 0.  1.
         23    2    1    0    0    0  0.23300352464E+02 -0.20070567099E+02 -0.42744790587E+01  0.93951565903E+02  0.88672946697E+02 0.  0.
         13    1    3    3    0    0  0.47939926953E+02 -0.32800998983E+02 -0.20762326361E+02  0.61686526005E+02  0.10566000000E+00 0. -1.
         22    1    1    0    0    0 -0.23300352464E+02  0.20070567099E+02  0.42744790587E+01  0.31048434097E+02  0.00000000000E+00 0. -1.
</event>
<event>
 5    1  0.1764318E-003  0.9118800E+02  0.7818608E-02  0.1130116E+00
         25   -1    0    0    0    0  0.00000000000E+00  0.00000000000E+00  0.99999998245E-14  0.12500000000E+03  0.12500000000E+03 0.  0.
        -13    1    3    3    0    0 -0.36798813663E+02  0.37970527775E+02 -0.25151146125E+02  0.58553436978E+02  0.10566000000E+00 0. -1.
         23    2    1    0    0    0 -0.22003674143E+02  0.26564307903E+02  0.76085918029E+00  0.90497782146E+02  0.83662689035E+02 0.  0.
         13    1    3    3    0    0  0.14795139520E+02 -0.11406219872E+02  0.25912005306E+02  0.31944345168E+02  0.10566000000E+00 0.  1.
         22    1    1    0    0    0  0.22003674143E+02 -0.26564307903E+02 -0.76085918029E+00  0.34502217854E+02  0.00000000000E+00 0. -1.
</event>
<event>
 5    1  0.1764318E-003  0.9118800E+02  0.7818608E-02  0.1130116E+00
         25   -1    0    0    0    0  0.00000000000E+00  0.00000000000E+00  0.99999998245E-14  0.12500000000E+03  0.12500000000E+03 0.  0.
        -13    1    3    3    0    0  0.12611091003E+02 -0.24376109397E+01  0.39766300822E+02  0.41789369563E+02  0.10566000000E+00 0.  1.
         23    2    1    0    0    0  0.14406941485E+02  0.24299694988E+02 -0.71860321714E+01  0.95850828523E+02  0.91311046050E+02 0.  0.
         13    1    3    3    0    0  0.17958504820E+01  0.26737305927E+02 -0.46952332994E+02  0.54061458959E+02  0.10566000000E+00 0. -1.
         22    1    1    0    0    0 -0.14406941485E+02 -0.24299694988E+02  0.71860321714E+01  0.29149171477E+02  0.00000000000E+00 0. -1.
</event>
<event>
 5    1  0.1764318E-003  0.9118800E+02  0.7818608E-02  0.1130116E+00
         25   -1    0    0    0    0  0.00000000000E+00  0.00000000000E+00  0.99999998245E-14  0.12500000000E+03  0.12500000000E+03 0.  0.
        -13    1    3    3    0    0 -0.17433572900E+02  0.40776218197E+02 -0.21303024442E+02  0.49198165097E+02  0.10566000000E+00 0.  1.
         23    2    1    0    0    0  0.12113484073E+02  0.23391841602E+02  0.11141154819E+02  0.96398600023E+02  0.92057862271E+02 0.  0.
         13    1    3    3    0    0  0.29547056973E+02 -0.17384376595E+02  0.32444179261E+02  0.47200434927E+02  0.10566000000E+00 0. -1.
         22    1    1    0    0    0 -0.12113484073E+02 -0.23391841602E+02 -0.11141154819E+02  0.28601399977E+02  0.00000000000E+00 0.  1.
</event>
<event>
 5    1  0.1764318E-003  0.9118800E+02  0.7818608E-02  0.1130116E+00
         25   -1    0    0    0    0  0.00000000000E+00  0.00000000000E+00  0.99999998245E-14  0.12500000000E+03  0.12500000000E+03 0.  0.
        -13    1    3    3    0    0  0.44298080820E+02 -0.31148568718E+02  0.17581172154E+02  0.56935595860E+02  0.10566000000E+00 0. -1.
         23    2    1    0    0    0  0.17983075065E+02 -0.21213609724E+02 -0.91336359287E+01  0.95728315190E+02  0.91143177461E+02 0.  0.
         13    1    3    3    0    0 -0.26315005756E+02  0.99349589939E+01 -0.26714808083E+02  0.38792719331E+02  0.10566000000E+00 0.  1.
         22    1    1    0    0    0 -0.17983075065E+02  0.21213609724E+02  0.91336359287E+01  0.29271684810E+02  0.00000000000E+00 0. -1.
</event>
<event>
 5    1  0.1764318E-003  0.9118800E+02  0.7818608E-02  0.1130116E+00
         25   -1    0    0    0    0  0.00000000000E+00  0.00000000000E+00  0.99999998245E-14  0.12500000000E+03  0.12500000000E+03 0.  0.
        -13    1    3    3    0    0 -0.33056520173E+02 -0.30460448001E+02 -0.17644875269E+02  0.48290011449E+02  0.10566000000E+00 0.  1.
         23    2    1    0    0    0 -0.14433693651E+02  0.10024969092E+02  0.13653147541E+02  0.10274601259E+03  0.10030704436E+03 0.  0.
         13    1    3    3    0    0  0.18622826522E+02  0.40485417093E+02  0.31298022809E+02  0.54456001145E+02  0.10566000000E+00 0. -1.
         22    1    1    0    0    0  0.14433693651E+02 -0.10024969092E+02 -0.13653147541E+02  0.22253987406E+02  0.00000000000E+00 0.  1.
</event>
<event>
 5    1  0.1764318E-003  0.9118800E+02  0.7818608E-02  0.1130116E+00
         25   -1    0    0    0    0  0.00000000000E+00  0.00000000000E+00  0.99999998245E-14  0.12500000000E+03  0.12500000000E+03 0.  0.
        -13    1    3    3    0    0  0.16216084876E+02 -0.52126177816E+01  0.29859990803E+02  0.34376780065E+02  0.10566000000E+00 0.  1.
         23    2    1    0    0    0 -0.24980524579E+02  0.63961419837E+01 -0.13998542122E+02  0.95658963514E+02  0.91048014138E+02 0.  0.
         13    1    3    3    0    0 -0.41196609455E+02  0.11608759765E+02 -0.43858532925E+02  0.61282183449E+02  0.10566000000E+00 0. -1.
         22    1    1    0    0    0  0.24980524579E+02 -0.63961419837E+01  0.13998542122E+02  0.29341036486E+02  0.00000000000E+00 0. -1.
</event>
<event>
 5    1  0.1764318E-003  0.9118800E+02  0.7818608E-02  0.1130116E+00
         25   -1    0    0    0    0  0.00000000000E+00  0.00000000000E+00  0.99999998245E-14  0.12500000000E+03  0.12500000000E+03 0.  0.
        -13    1    3    3    0    0 -0.27779137808E+02 -0.29727551883E+02 -0.44183523922E+02  0.60063323156E+02  0.10566000000E+00 0. -1.
         23    2    1    0    0    0 -0.21405711092E+02 -0.67875140095E+01 -0.29079115257E+02  0.88259426271E+02  0.80248716922E+02 0.  0.
         13    1    3    3    0    0  0.63734267154E+01  0.22940037874E+02  0.15104408664E+02  0.28196103115E+02  0.10566000000E+00 0.  1.
         22    1    1    0    0    0  0.21405711092E+02  0.67875140095E+01  0.29079115257E+02  0.36740573729E+02  0.00000000000E+00 0. -1.
</event>
<event>
 5    1  0.1764318E-003  0.9118800E+02  0.7818608E-02  0.1130116E+00
         25   -1    0    0    0    0  0.00000000000E+00  0.00000000000E+00  0.99999998245E-14  0.12500000000E+03  0.12500000000E+03 0.  0.
        -13    1    3    3    0    0 -0.19606447002E+02 -0.11262260299E+02 -0.45114732799E+02  0.50463863810E+02  0.10566000000E+00 0. -1.
         23    2    1    0    0    0 -0.92340989491E+01 -0.28126939012E+02 -0.53062780495E+01  0.94924264459E+02  0.90033694330E+02 0.  0.
         13    1    3    3    0    0  0.10372348053E+02 -0.16864678713E+02  0.39808454750E+02  0.44460400649E+02  0.10566000000E+00 0.  1.
         22    1    1    0    0    0  0.92340989491E+01  0.28126939012E+02  0.53062780495E+01  0.30075735541E+02  0.00000000000E+00 0. -1.
</event>
<event>
 5    1  0.1764318E-003  0.9118800E+02  0.7818608E-02  0.1130116E+00
         25   -1    0    0    0    0  0.00000000000E+00  0.00000000000E+00  0.99999998245E-14  0.12500000000E+03  0.12500000000E+03 0.  0.
        -13    1    3    3    0    0 -0.31161732835E+02 -0.17254387683E+02  0.27452211834E+02  0.44971130587E+02  0.10566000000E+00 0.  1.
         23    2    1    0    0    0  0.17466606482E+02 -0.66905202043E+01  0.23605836335E+02  0.94882216023E+02  0.89975296642E+02 0.  0.
         13    1    3    3    0    0  0.48628339318E+02  0.10563867479E+02 -0.38463754993E+01  0.49911085436E+02  0.10566000000E+00 0. -1.
         22    1    1    0    0    0 -0.17466606482E+02  0.66905202043E+01 -0.23605836335E+02  0.30117783977E+02  0.00000000000E+00 0. -1.
</event>
<event>
 5    1  0.1764318E-003  0.9118800E+02  0.7818608E-02  0.1130116E+00
         25   -1    0    0    0    0  0.00000000000E+00  0.00000000000E+00  0.99999998245E-14  0.12500000000E+03  0.12500000000E+03 0.  0.
        -13    1    3    3    0    0 -0.10123224479E+02  0.34821170093E+02  0.29275441648E+02  0.46605323818E+02  0.10566000000E+00 0. -1.
         23    2    1    0    0    0 -0.29574294529E+02  0.29408340702E+01 -0.18515903485E+01  0.95222226599E+02  0.90446429723E+02 0.  0.
         13    1    3    3    0    0 -0.19451070051E+02 -0.31880336022E+02 -0.31127031997E+02  0.48616902780E+02  0.10566000000E+00 0.  1.
         22    1    1    0    0    0  0.29574294529E+02 -0.29408340702E+01  0.18515903485E+01  0.29777773401E+02  0.00000000000E+00 0. -1.
</event>
<event>
 5    1  0.1764318E-003  0.9118800E+02  0.7818608E-02  0.1130116E+00
         25   -1    0    0    0    0  0.00000000000E+00  0.00000000000E+00  0.99999998245E-14  0.12500000000E+03  0.12500000000E+03 0.  0.
        -13    1    3    3    0    0  0.27044246798E+02 -0.45050829958E+02  0.14143378384E+02  0.54415208176E+02  0.10566000000E+00 0. -1.
         23    2    1    0    0    0 -0.80557456074E+01 -0.28200752231E+02  0.51473462445E+00  0.95666701253E+02  0.91058636675E+02 0.  0.
         13    1    3    3    0    0 -0.35099992405E+02  0.16850077727E+02 -0.13628643760E+02  0.41251493076E+02  0.10566000000E+00 0.  1.
         22    1    1    0    0    0  0.80557456074E+01  0.28200752231E+02 -0.51473462445E+00  0.29333298747E+02  0.00000000000E+00 0. -1.
</event>
<event>
 5    1  0.1764318E-003  0.9118800E+02  0.7818608E-02  0.1130116E+00
         25   -1    0    0    0    0  0.00000000000E+00  0.00000000000E+00  0.99999998245E-14  0.12500000000E+03  0.12500000000E+03 0.  0.
        -13    1    3    3    0    0  0.34185911520E+02  0.46475486597E+02  0.19862684147E+02  0.61017905457E+02  0.10566000000E+00 0. -1.
         23    2    1    0    0    0  0.70396023389E+01  0.25086596620E+02  0.11145703269E+02  0.96660627522E+02  0.92412969223E+02 0.  0.
         13    1    3    3    0    0 -0.27146309181E+02 -0.21388889976E+02 -0.87169808772E+01  0.35642722065E+02  0.10566000000E+00 0.  1.
         22    1    1    0    0    0 -0.70396023389E+01 -0.25086596620E+02 -0.11145703269E+02  0.28339372478E+02  0.00000000000E+00 0. -1.
</event>
<event>
 5    1  0.1764318E-003  0.9118800E+02  0.7818608E-02  0.1130116E+00
         25   -1    0    0    0    0  0.00000000000E+00  0.00000000000E+00  0.99999998245E-14  0.12500000000E+03  0.12500000000E+03 0.  0.
        -13    1    3    3    0    0 -0.13370490728E+02  0.28295678524E+02 -0.20891347536E+02  0.37628114639E+02  0.10566000000E+00 0.  1.
         23    2    1    0    0    0 -0.25654936917E+02 -0.16437254801E+02  0.94979230749E+01  0.93084961595E+02  0.87442783572E+02 0.  0.
         13    1    3    3    0    0 -0.12284446189E+02 -0.44732933325E+02  0.30389270610E+02  0.55456846956E+02  0.10566000000E+00 0. -1.
         22    1    1    0    0    0  0.25654936917E+02  0.16437254801E+02 -0.94979230749E+01  0.31915038405E+02  0.00000000000E+00 0. -1.
</event>
<event>
 5    1  0.1764318E-003  0.9118800E+02  0.7818608E-02  0.1130116E+00
         25   -1    0    0    0    0  0.00000000000E+00  0.00000000000E+00  0.99999998245E-14  0.12500000000E+03  0.12500000000E+03 0.  0.
        -13    1    3    3    0    0 -0.53188775110E+02 -0.16389587692E+02  0.25755525187E+02  0.61327176880E+02  0.10566000000E+00 0.  1.
         23    2    1    0    0    0 -0.26621438374E+02 -0.12715381698E+02  0.53758467931E+01  0.95011975031E+02  0.90155386737E+02 0.  0.
         13    1    3    3    0    0  0.26567336736E+02  0.36742059944E+01 -0.20379678394E+02  0.33684798150E+02  0.10566000000E+00 0. -1.
         22    1    1    0    0    0  0.26621438374E+02  0.12715381698E+02 -0.53758467931E+01  0.29988024969E+02  0.00000000000E+00 0.  1.
</event>
<event>
 5    1  0.1764318E-003  0.9118800E+02  0.7818608E-02  0.1130116E+00
         25   -1    0    0    0    0  0.00000000000E+00  0.00000000000E+00  0.99999998245E-14  0.12500000000E+03  0.12500000000E+03 0.  0.
        -13    1    3    3    0    0  0.24922075946E+02  0.11987070278E+02 -0.31462724131E+02  0.41889305283E+02  0.10566000000E+00 0.  1.
         23    2    1    0    0    0  0.47988889980E+01  0.27156937129E+02  0.14152476119E+02  0.94002884810E+02  0.88745260169E+02 0.  0.
         13    1    3    3    0    0 -0.20123186948E+02  0.15169866851E+02  0.45615200250E+02  0.52113579527E+02  0.10566000000E+00 0. -1.
         22    1    1    0    0    0 -0.47988889980E+01 -0.27156937129E+02 -0.14152476119E+02  0.30997115190E+02  0.00000000000E+00 0.  1.
</event>
<event>
 5    1  0.1764318E-003  0.9118800E+02  0.7818608E-02  0.1130116E+00
         25   -1    0    0    0    0  0.00000000000E+00  0.00000000000E+00  0.99999998245E-14  0.12500000000E+03  0.12500000000E+03 0.  0.
        -13    1    3    3    0    0 -0.49989763564E+02  0.66655364262E+01 -0.35147841214E+02  0.61471845125E+02  0.10566000000E+00 0. -1.
         23    2    1    0    0    0 -0.22455051686E+02 -0.77323675724E+00 -0.24078887028E+02  0.92066429866E+02  0.85974458221E+02 0.  0.
         13    1    3    3    0    0  0.27534711877E+02 -0.74387731834E+01  0.11068954186E+02  0.30594584741E+02  0.10566000000E+00 0.  1.
         22    1    1    0    0    0  0.22455051686E+02  0.77323675724E+00  0.24078887028E+02  0.32933570134E+02  0.00000000000E+00 0. -1.
</event>
<event>
 5    1  0.1764318E-003  0.9118800E+02  0.7818608E-02  0.1130116E+00
         25   -1    0    0    0    0  0.00000000000E+00  0.00000000000E+00  0.99999998245E-14  0.12500000000E+03  0.12500000000E+03 0.  0.
        -13    1    3    3    0    0  0.36489263828E+02 -0.78536269679E+01 -0.14582632680E+02  0.40072561325E+02  0.10566000000E+00 0.  1.
         23    2    1    0    0    0 -0.13066702740E+02 -0.70310181498E+01  0.19700127973E+02  0.10033689032E+03  0.97258534747E+02 0.  0.
         13    1    3    3    0    0 -0.49555966567E+02  0.82260881809E+00  0.34282760653E+02  0.60264328999E+02  0.10566000000E+00 0. -1.
         22    1    1    0    0    0  0.13066702740E+02  0.70310181498E+01 -0.19700127973E+02  0.24663109676E+02  0.00000000000E+00 0. -1.
</event>
<event>
 5    1  0.1764318E-003  0.9118800E+02  0.7818608E-02  0.1130116E+00
         25   -1    0    0    0    0  0.00000000000E+00  0.00000000000E+00  0.99999998245E-14  0.12500000000E+03  0.12500000000E+03 0.  0.
        -13    1    3    3    0    0  0.25611906648E+02  0.37705560841E+02 -0.72629905795E+01  0.46156703486E+02  0.10566000000E+00 0. -1.
         23    2    1    0    0    0  0.33620438813E+01  0.88676022357E+01  0.27134833808E+02  0.96255662919E+02  0.91863571287E+02 0.  0.
         13    1    3    3    0    0 -0.22249862767E+02 -0.28837958605E+02  0.34397824387E+02  0.50098959433E+02  0.10566000000E+00 0.  1.
         22    1    1    0    0    0 -0.33620438813E+01 -0.88676022357E+01 -0.27134833808E+02  0.28744337081E+02  0.00000000000E+00 0. -1.
</event>
<event>
 5    1  0.1764318E-003  0.9118800E+02  0.7818608E-02  0.1130116E+00
         25   -1    0    0    0    0  0.00000000000E+00  0.00000000000E+00  0.99999998245E-14  0.12500000000E+03  0.12500000000E+03 0.  0.
        -13    1    3    3    0    0 -0.54144309538E+02  0.61600644666E+01  0.10722371432E+01  0.54504252184E+02  0.10566000000E+00 0.  1.
         23    2    1    0    0    0 -0.16141333321E+02  0.23601726211E+02 -0.12103601715E+01  0.96380966242E+02  0.92033915273E+02 0.  0.
         13    1    3    3    0    0  0.38002976217E+02  0.17441661744E+02 -0.22825973148E+01  0.41876714058E+02  0.10566000000E+00 0. -1.
         22    1    1    0    0    0  0.16141333321E+02 -0.23601726211E+02  0.12103601715E+01  0.28619033758E+02  0.00000000000E+00 0.  1.
</event>
<event>
 5    1  0.1764318E-003  0.9118800E+02  0.7818608E-02  0.1130116E+00
         25   -1    0    0    0    0  0.00000000000E+00  0.00000000000E+00  0.99999998245E-14  0.12500000000E+03  0.12500000000E+03 0.  0.
        -13    1    3    3    0    0 -0.75965575471E+01 -0.14611390102E+01  0.25284581174E+02  0.26441706128E+02  0.10566000000E+00 0.  1.
         23    2    1    0    0    0  0.15574746015E+02 -0.21114125845E+01 -0.32607483964E+02  0.88802226767E+02  0.81089806338E+02 0.  0.
         13    1    3    3    0    0  0.23171303562E+02 -0.65027357432E+00 -0.57892065138E+02  0.62360520640E+02  0.10566000000E+00 0. -1.
         22    1    1    0    0    0 -0.15574746015E+02  0.21114125845E+01  0.32607483964E+02  0.36197773233E+02  0.00000000000E+00 0. -1.
</event>
<event>
 5    1  0.1764318E-003  0.9118800E+02  0.7818608E-02  0.1130116E+00
         25   -1    0    0    0    0  0.00000000000E+00  0.00000000000E+00  0.99999998245E-14  0.12500000000E+03  0.12500000000E+03 0.  0.
        -13    1    3    3    0    0 -0.11916822916E+02 -0.16565715025E+02  0.30483916119E+02  0.36683973186E+02  0.10566000000E+00 0. -1.
         23    2    1    0    0    0  0.41193361698E+01 -0.22522217991E+02 -0.22824975561E+02  0.92670466396E+02  0.86848238894E+02 0.  0.
         13    1    3    3    0    0  0.16036159086E+02 -0.59565029654E+01 -0.53308891680E+02  0.55986493210E+02  0.10566000000E+00 0.  1.
         22    1    1    0    0    0 -0.41193361698E+01  0.22522217991E+02  0.22824975561E+02  0.32329533604E+02  0.00000000000E+00 0.  1.
</event>
<event>
 5    1  0.1764318E-003  0.9118800E+02  0.7818608E-02  0.1130116E+00
         25   -1    0    0    0    0  0.00000000000E+00  0.00000000000E+00  0.99999998245E-14  0.12500000000E+03  0.12500000000E+03 0.  0.
        -13    1    3    3    0    0  0.74794463964E+01  0.18211027579E+01 -0.53217934490E+02  0.53771909479E+02  0.10566000000E+00 0.  1.
         23    2    1    0    0    0  0.97335961030E+01  0.22210773079E+02 -0.17038166354E+02  0.95362853603E+02  0.90640572598E+02 0.  0.
         13    1    3    3    0    0  0.22541497067E+01  0.20389670321E+02  0.36179768136E+02  0.41590944124E+02  0.10566000000E+00 0. -1.
         22    1    1    0    0    0 -0.97335961030E+01 -0.22210773079E+02  0.17038166354E+02  0.29637146397E+02  0.00000000000E+00 0.  1.
</event>
<event>
 5    1  0.1764318E-003  0.9118800E+02  0.7818608E-02  0.1130116E+00
         25   -1    0    0    0    0  0.00000000000E+00  0.00000000000E+00  0.99999998245E-14  0.12500000000E+03  0.12500000000E+03 0.  0.
        -13    1    3    3    0    0  0.46026642471E+02 -0.32845673372E+02  0.39173163548E+01  0.56680213548E+02  0.10566000000E+00 0.  1.
         23    2    1    0    0    0  0.70041359454E+01 -0.27260545777E+02 -0.29704028906E+01  0.96697728542E+02  0.92463139333E+02 0.  0.
         13    1    3    3    0    0 -0.39022506526E+02  0.55851275957E+01 -0.68877192454E+01  0.40017514993E+02  0.10566000000E+00 0. -1.
         22    1    1    0    0    0 -0.70041359454E+01  0.27260545777E+02  0.29704028906E+01  0.28302271458E+02  0.00000000000E+00 0.  1.
</event>
<event>
 5    1  0.1764318E-003  0.9118800E+02  0.7818608E-02  0.1130116E+00
         25   -1    0    0    0    0  0.00000000000E+00  0.00000000000E+00  0.99999998245E-14  0.12500000000E+03  0.12500000000E+03 0.  0.
        -13    1    3    3    0    0  0.35353009661E+02 -0.87848640014E+01 -0.18482522134E+02  0.40848793325E+02  0.10566000000E+00 0. -1.
         23    2    1    0    0    0  0.13847599426E+01 -0.17643988685E+02  0.23504342889E+02  0.95577525062E+02  0.90936138392E+02 0.  0.
         13    1    3    3    0    0 -0.33968249718E+02 -0.88591246833E+01  0.41986865023E+02  0.54728731738E+02  0.10566000000E+00 0.  1.
         22    1    1    0    0    0 -0.13847599426E+01  0.17643988685E+02 -0.23504342889E+02  0.29422474938E+02  0.00000000000E+00 0.  1.
</event>
<event>
 5    1  0.1764318E-003  0.9118800E+02  0.7818608E-02  0.1130116E+00
         25   -1    0    0    0    0  0.00000000000E+00  0.00000000000E+00  0.99999998245E-14  0.12500000000E+03  0.12500000000E+03 0.  0.
        -13    1    3    3    0    0  0.43475131255E+02  0.29348383081E+02  0.24718225979E+02  0.57986347416E+02  0.10566000000E+00 0. -1.
         23    2    1    0    0    0  0.27049951556E+02 -0.55344539483E-01  0.36718657369E+01  0.97701913250E+02  0.93810864576E+02 0.  0.
         13    1    3    3    0    0 -0.16425179698E+02 -0.29403727620E+02 -0.21046360242E+02  0.39715565834E+02  0.10566000000E+00 0.  1.
         22    1    1    0    0    0 -0.27049951556E+02  0.55344539483E-01 -0.36718657369E+01  0.27298086750E+02  0.00000000000E+00 0. -1.
</event>
<event>
 5    1  0.1764318E-003  0.9118800E+02  0.7818608E-02  0.1130116E+00
         25   -1    0    0    0    0  0.00000000000E+00  0.00000000000E+00  0.99999998245E-14  0.12500000000E+03  0.12500000000E+03 0.  0.
        -13    1    3    3    0    0  0.29452276400E+02 -0.48245211236E+02 -0.94761759201E+00  0.56532699701E+02  0.10566000000E+00 0. -1.
         23    2    1    0    0    0  0.16969145675E+01 -0.27564776768E+02  0.13765015044E+02  0.94142714370E+02  0.88941995662E+02 0.  0.
         13    1    3    3    0    0 -0.27755361833E+02  0.20680434468E+02  0.14712632636E+02  0.37610014669E+02  0.10566000000E+00 0.  1.
         22    1    1    0    0    0 -0.16969145675E+01  0.27564776768E+02 -0.13765015044E+02  0.30857285630E+02  0.00000000000E+00 0. -1.
</event>
<event>
 5    1  0.1764318E-003  0.9118800E+02  0.7818608E-02  0.1130116E+00
         25   -1    0    0    0    0  0.00000000000E+00  0.00000000000E+00  0.99999998245E-14  0.12500000000E+03  0.12500000000E+03 0.  0.
        -13    1    3    3    0    0  0.24213952883E+02  0.87411871507E+01  0.25820981522E+02  0.36461734981E+02  0.10566000000E+00 0. -1.
         23    2    1    0    0    0 -0.18420272341E+02 -0.22823287722E+02 -0.47061296306E+00  0.95666906537E+02  0.91058918478E+02 0.  0.
         13    1    3    3    0    0 -0.42634225223E+02 -0.31564474872E+02 -0.26291594486E+02  0.59205171556E+02  0.10566000000E+00 0.  1.
         22    1    1    0    0    0  0.18420272341E+02  0.22823287722E+02  0.47061296306E+00  0.29333093463E+02  0.00000000000E+00 0.  1.
</event>
<event>
 5    1  0.1764318E-003  0.9118800E+02  0.7818608E-02  0.1130116E+00
         25   -1    0    0    0    0  0.00000000000E+00  0.00000000000E+00  0.99999998245E-14  0.12500000000E+03  0.12500000000E+03 0.  0.
        -13    1    3    3    0    0  0.34246020109E+02 -0.15518703496E+02  0.16832259416E+02  0.41194127890E+02  0.10566000000E+00 0.  1.
         23    2    1    0    0    0  0.58095804498E+01 -0.64686526725E+01 -0.28352685043E+02  0.95344149960E+02  0.90614775231E+02 0.  0.
         13    1    3    3    0    0 -0.28436439660E+02  0.90500508233E+01 -0.45184944459E+02  0.54150022071E+02  0.10566000000E+00 0. -1.
         22    1    1    0    0    0 -0.58095804498E+01  0.64686526725E+01  0.28352685043E+02  0.29655850040E+02  0.00000000000E+00 0. -1.
</event>
<event>
 5    1  0.1764318E-003  0.9118800E+02  0.7818608E-02  0.1130116E+00
         25   -1    0    0    0    0  0.00000000000E+00  0.00000000000E+00  0.99999998245E-14  0.12500000000E+03  0.12500000000E+03 0.  0.
        -13    1    3    3    0    0 -0.81689600178E+01 -0.19963773633E+02 -0.95414348655E+01  0.23586740105E+02  0.10566000000E+00 0. -1.
         23    2    1    0    0    0 -0.11439052623E+02  0.22050669878E+02  0.33150824527E+02  0.83574631760E+02  0.72585521559E+02 0.  0.
         13    1    3    3    0    0 -0.32700926053E+01  0.42014443511E+02  0.42692259392E+02  0.59987891655E+02  0.10566000000E+00 0.  1.
         22    1    1    0    0    0  0.11439052623E+02 -0.22050669878E+02 -0.33150824527E+02  0.41425368240E+02  0.00000000000E+00 0.  1.
</event>
<event>
 5    1  0.1764318E-003  0.9118800E+02  0.7818608E-02  0.1130116E+00
         25   -1    0    0    0    0  0.00000000000E+00  0.00000000000E+00  0.99999998245E-14  0.12500000000E+03  0.12500000000E+03 0.  0.
        -13    1    3    3    0    0 -0.50392120234E+01 -0.27706204656E+02  0.17735710493E+02  0.33280535227E+02  0.10566000000E+00 0.  1.
         23    2    1    0    0    0 -0.26671003444E+02  0.22259815579E+02  0.98579915810E+00  0.90246387033E+02  0.83286233906E+02 0.  0.
         13    1    3    3    0    0 -0.21631791420E+02  0.49966020235E+02 -0.16749911335E+02  0.56965851806E+02  0.10566000000E+00 0. -1.
         22    1    1    0    0    0  0.26671003444E+02 -0.22259815579E+02 -0.98579915810E+00  0.34753612967E+02  0.00000000000E+00 0. -1.
</event>
<event>
 5    1  0.1764318E-003  0.9118800E+02  0.7818608E-02  0.1130116E+00
         25   -1    0    0    0    0  0.00000000000E+00  0.00000000000E+00  0.99999998245E-14  0.12500000000E+03  0.12500000000E+03 0.  0.
        -13    1    3    3    0    0 -0.17831827095E+02 -0.24069656593E+02 -0.28441507137E+02  0.41306814430E+02  0.10566000000E+00 0. -1.
         23    2    1    0    0    0 -0.10792827036E+02 -0.11323520868E+02  0.24343650398E+02  0.96063508247E+02  0.91601730670E+02 0.  0.
         13    1    3    3    0    0  0.70390000593E+01  0.12746135725E+02  0.52785157535E+02  0.54756693817E+02  0.10566000000E+00 0.  1.
         22    1    1    0    0    0  0.10792827036E+02  0.11323520868E+02 -0.24343650398E+02  0.28936491753E+02  0.00000000000E+00 0.  1.
</event>
