<event>
 5    1  0.2295636E-004  0.9118800E+02  0.7818608E-02  0.1130116E+00
         25   -1    0    0    0    0  0.00000000000E+00  0.00000000000E+00  0.99999998245E-14  0.12500000000E+03  0.12500000000E+03 0.  0.
        -13    1    3    3    0    0  0.33384692101E+01  0.32385285129E+02 -0.19270811245E+02  0.37832887804E+02  0.10566000000E+00 0.  1.
         23    2    1    0    0    0  0.96964321556E+01 -0.24254603705E+02 -0.14736820256E+02  0.95008660105E+02  0.90150790492E+02 0.  0.
         13    1    3    3    0    0  0.63579629455E+01 -0.56639888834E+02  0.45339909892E+01  0.57175772301E+02  0.10566000000E+00 0. -1.
         22    1    1    0    0    0 -0.96964321556E+01  0.24254603705E+02  0.14736820256E+02  0.29991339895E+02  0.00000000000E+00 0. -1.
</event>
<event>
 5    1  0.2295636E-004  0.9118800E+02  0.7818608E-02  0.1130116E+00
         25   -1    0    0    0    0  0.00000000000E+00  0.00000000000E+00  0.99999998245E-14  0.12500000000E+03  0.12500000000E+03 0.  0.
        -13    1    3    3    0    0  0.12886228641E+02  0.83476562067E+00  0.44987249946E+02  0.46804012050E+02  0.10566000000E+00 0. -1.
         23    2    1    0    0    0 -0.23993905209E+02 -0.91912246651E+01  0.16635431904E+02  0.94390790722E+02  0.89289964052E+02 0.  0.
         13    1    3    3    0    0 -0.36880133850E+02 -0.10025990286E+02 -0.28351818042E+02  0.47586778672E+02  0.10566000000E+00 0.  1.
         22    1    1    0    0    0  0.23993905209E+02  0.91912246651E+01 -0.16635431904E+02  0.30609209278E+02  0.00000000000E+00 0.  1.
</event>
<event>
 5    1  0.2295636E-004  0.9118800E+02  0.7818608E-02  0.1130116E+00
         25   -1    0    0    0    0  0.00000000000E+00  0.00000000000E+00  0.99999998245E-14  0.12500000000E+03  0.12500000000E+03 0.  0.
        -13    1    3    3    0    0 -0.24592616511E+02  0.21923395442E+02 -0.58635373562E+01  0.33463775772E+02  0.10566000000E+00 0.  1.
         23    2    1    0    0    0  0.60005049271E+01 -0.17585981962E+02 -0.30584138392E+02  0.89213657044E+02  0.81721565459E+02 0.  0.
         13    1    3    3    0    0  0.30593121438E+02 -0.39509377404E+02 -0.24720601036E+02  0.55749881272E+02  0.10566000000E+00 0. -1.
         22    1    1    0    0    0 -0.60005049271E+01  0.17585981962E+02  0.30584138392E+02  0.35786342956E+02  0.00000000000E+00 0. -1.
</event>
<event>
 5    1  0.2295636E-004  0.9118800E+02  0.7818608E-02  0.1130116E+00
         25   -1    0    0    0    0  0.00000000000E+00  0.00000000000E+00  0.99999998245E-14  0.12500000000E+03  0.12500000000E+03 0.  0.
        -13    1    3    3    0    0  0.35445194531E+02  0.20387709183E+02  0.18372447678E+02  0.44828322506E+02  0.10566000000E+00 0. -1.
         23    2    1    0    0    0 -0.14042600203E+02  0.16959836557E+02  0.21091556341E+02  0.94509273124E+02  0.89455677747E+02 0.  0.
         13    1    3    3    0    0 -0.49487794734E+02 -0.34278726256E+01  0.27191086633E+01  0.49680950618E+02  0.10566000000E+00 0.  1.
         22    1    1    0    0    0  0.14042600203E+02 -0.16959836557E+02 -0.21091556341E+02  0.30490726876E+02  0.00000000000E+00 0.  1.
</event>
<event>
 5    1  0.2295636E-004  0.9118800E+02  0.7818608E-02  0.1130116E+00
         25   -1    0    0    0    0  0.00000000000E+00  0.00000000000E+00  0.99999998245E-14  0.12500000000E+03  0.12500000000E+03 0.  0.
        -13    1    3    3    0    0 -0.16655158818E+02 -0.16271948144E+02 -0.25038821449E+02  0.34192460503E+02  0.10566000000E+00 0. -1.
         23    2    1    0    0    0  0.22980919152E+02 -0.97922989613E+01  0.18866171104E+02  0.93695939942E+02  0.88311862088E+02 0.  0.
         13    1    3    3    0    0  0.39636077970E+02  0.64796491828E+01  0.43904992552E+02  0.59503479439E+02  0.10566000000E+00 0.  1.
         22    1    1    0    0    0 -0.22980919152E+02  0.97922989613E+01 -0.18866171104E+02  0.31304060058E+02  0.00000000000E+00 0.  1.
</event>
<event>
 5    1  0.2295636E-004  0.9118800E+02  0.7818608E-02  0.1130116E+00
         25   -1    0    0    0    0  0.00000000000E+00  0.00000000000E+00  0.99999998245E-14  0.12500000000E+03  0.12500000000E+03 0.  0.
        -13    1    3    3    0    0 -0.34213612606E+02  0.11661402469E+02 -0.67426326916E+01  0.36770012983E+02  0.10566000000E+00 0. -1.
         23    2    1    0    0    0  0.13517368629E+02 -0.21267022602E+02 -0.15500471747E+02  0.95415035417E+02  0.90712506603E+02 0.  0.
         13    1    3    3    0    0  0.47730981235E+02 -0.32928425072E+02 -0.87578390557E+01  0.58645022434E+02  0.10566000000E+00 0.  1.
         22    1    1    0    0    0 -0.13517368629E+02  0.21267022602E+02  0.15500471747E+02  0.29584964583E+02  0.00000000000E+00 0.  1.
</event>
<event>
 5    1  0.2295636E-004  0.9118800E+02  0.7818608E-02  0.1130116E+00
         25   -1    0    0    0    0  0.00000000000E+00  0.00000000000E+00  0.99999998245E-14  0.12500000000E+03  0.12500000000E+03 0.  0.
        -13    1    3    3    0    0  0.25668306852E+02 -0.23324827069E+02  0.26329623839E+02  0.43545031749E+02  0.10566000000E+00 0.  1.
         23    2    1    0    0    0 -0.11305988091E+02 -0.24835446232E+02 -0.10506959491E+02  0.95759258662E+02  0.91185605583E+02 0.  0.
         13    1    3    3    0    0 -0.36974294943E+02 -0.15106191625E+01 -0.36836583330E+02  0.52214226914E+02  0.10566000000E+00 0. -1.
         22    1    1    0    0    0  0.11305988091E+02  0.24835446232E+02  0.10506959491E+02  0.29240741338E+02  0.00000000000E+00 0. -1.
</event>
<event>
 5    1  0.2295636E-004  0.9118800E+02  0.7818608E-02  0.1130116E+00
         25   -1    0    0    0    0  0.00000000000E+00  0.00000000000E+00  0.99999998245E-14  0.12500000000E+03  0.12500000000E+03 0.  0.
        -13    1    3    3    0    0 -0.34930049653E+02  0.13238290966E+02  0.14389087986E+02  0.40030210261E+02  0.10566000000E+00 0. -1.
         23    2    1    0    0    0  0.82785366619E+01 -0.21725734800E+02  0.17801633330E+02  0.95717925772E+02  0.91128927586E+02 0.  0.
         13    1    3    3    0    0  0.43208586315E+02 -0.34964025766E+02  0.34125453445E+01  0.55687715511E+02  0.10566000000E+00 0.  1.
         22    1    1    0    0    0 -0.82785366619E+01  0.21725734800E+02 -0.17801633330E+02  0.29282074228E+02  0.00000000000E+00 0.  1.
</event>
<event>
 5    1  0.2295636E-004  0.9118800E+02  0.7818608E-02  0.1130116E+00
         25   -1    0    0    0    0  0.00000000000E+00  0.00000000000E+00  0.99999998245E-14  0.12500000000E+03  0.12500000000E+03 0.  0.
        -13    1    3    3    0    0  0.34888618733E+02  0.12348996351E+02  0.11792905214E+02  0.38843238864E+02  0.10566000000E+00 0. -1.
         23    2    1    0    0    0 -0.21698508192E+02  0.18375427946E+02  0.43610031484E+01  0.96233700996E+02  0.91833682540E+02 0.  0.
         13    1    3    3    0    0 -0.56587126925E+02  0.60264315947E+01 -0.74319020661E+01  0.57390462132E+02  0.10566000000E+00 0.  1.
         22    1    1    0    0    0  0.21698508192E+02 -0.18375427946E+02 -0.43610031484E+01  0.28766299004E+02  0.00000000000E+00 0.  1.
</event>
<event>
 5    1  0.2295636E-004  0.9118800E+02  0.7818608E-02  0.1130116E+00
         25   -1    0    0    0    0  0.00000000000E+00  0.00000000000E+00  0.99999998245E-14  0.12500000000E+03  0.12500000000E+03 0.  0.
        -13    1    3    3    0    0 -0.17271934160E+02  0.30414029016E+02  0.28664144598E+02  0.45221424349E+02  0.10566000000E+00 0. -1.
         23    2    1    0    0    0 -0.24588580546E+02 -0.14338667457E+02  0.60256079722E+01  0.95905264580E+02  0.91385535754E+02 0.  0.
         13    1    3    3    0    0 -0.73166463852E+01 -0.44752696473E+02 -0.22638536626E+02  0.50683840231E+02  0.10566000000E+00 0.  1.
         22    1    1    0    0    0  0.24588580546E+02  0.14338667457E+02 -0.60256079722E+01  0.29094735420E+02  0.00000000000E+00 0.  1.
</event>
<event>
 5    1  0.2295636E-004  0.9118800E+02  0.7818608E-02  0.1130116E+00
         25   -1    0    0    0    0  0.00000000000E+00  0.00000000000E+00  0.99999998245E-14  0.12500000000E+03  0.12500000000E+03 0.  0.
        -13    1    3    3    0    0 -0.31814414522E+02 -0.17353407654E+02  0.19658764445E+02  0.41228338702E+02  0.10566000000E+00 0. -1.
         23    2    1    0    0    0  0.70632544044E+01 -0.18423320514E+02 -0.20091260526E+02  0.96840329351E+02  0.92655719401E+02 0.  0.
         13    1    3    3    0    0  0.38877668926E+02 -0.10699128600E+01 -0.39750024971E+02  0.55611990649E+02  0.10566000000E+00 0.  1.
         22    1    1    0    0    0 -0.70632544044E+01  0.18423320514E+02  0.20091260526E+02  0.28159670649E+02  0.00000000000E+00 0.  1.
</event>
<event>
 5    1  0.2295636E-004  0.9118800E+02  0.7818608E-02  0.1130116E+00
         25   -1    0    0    0    0  0.00000000000E+00  0.00000000000E+00  0.99999998245E-14  0.12500000000E+03  0.12500000000E+03 0.  0.
        -13    1    3    3    0    0 -0.52655035279E+02  0.27193393733E+02 -0.63138019775E+01  0.59597891426E+02  0.10566000000E+00 0.  1.
         23    2    1    0    0    0 -0.31954277977E+02  0.19079203417E+01  0.52563198546E+00  0.92984498598E+02  0.87299052970E+02 0.  0.
         13    1    3    3    0    0  0.20700757302E+02 -0.25285473391E+02  0.68394339630E+01  0.33386607172E+02  0.10566000000E+00 0. -1.
         22    1    1    0    0    0  0.31954277977E+02 -0.19079203417E+01 -0.52563198546E+00  0.32015501402E+02  0.00000000000E+00 0.  1.
</event>
<event>
 5    1  0.2295636E-004  0.9118800E+02  0.7818608E-02  0.1130116E+00
         25   -1    0    0    0    0  0.00000000000E+00  0.00000000000E+00  0.99999998245E-14  0.12500000000E+03  0.12500000000E+03 0.  0.
        -13    1    3    3    0    0  0.46323891204E+02 -0.38045609997E+02 -0.11039198851E+02  0.60952821195E+02  0.10566000000E+00 0. -1.
         23    2    1    0    0    0  0.25892181534E+02 -0.13829253171E+02  0.27699444627E+01  0.95515666869E+02  0.90851068883E+02 0.  0.
         13    1    3    3    0    0 -0.20431709669E+02  0.24216356826E+02  0.13809143314E+02  0.34562845674E+02  0.10566000000E+00 0.  1.
         22    1    1    0    0    0 -0.25892181534E+02  0.13829253171E+02 -0.27699444627E+01  0.29484333131E+02  0.00000000000E+00 0. -1.
</event>
<event>
 5    1  0.2295636E-004  0.9118800E+02  0.7818608E-02  0.1130116E+00
         25   -1    0    0    0    0  0.00000000000E+00  0.00000000000E+00  0.99999998245E-14  0.12500000000E+03  0.12500000000E+03 0.  0.
        -13    1    3    3    0    0  0.27791035907E+02 -0.20247198205E+02 -0.81312425812E+01  0.35332973012E+02  0.10566000000E+00 0.  1.
         23    2    1    0    0    0 -0.66782001526E+01  0.28580860624E+02 -0.23301014191E-01  0.95649284604E+02  0.91034724974E+02 0.  0.
         13    1    3    3    0    0 -0.34469236060E+02  0.48828058829E+02  0.81079415670E+01  0.60316311592E+02  0.10566000000E+00 0. -1.
         22    1    1    0    0    0  0.66782001526E+01 -0.28580860624E+02  0.23301014191E-01  0.29350715396E+02  0.00000000000E+00 0. -1.
</event>
<event>
 5    1  0.2295636E-004  0.9118800E+02  0.7818608E-02  0.1130116E+00
         25   -1    0    0    0    0  0.00000000000E+00  0.00000000000E+00  0.99999998245E-14  0.12500000000E+03  0.12500000000E+03 0.  0.
        -13    1    3    3    0    0  0.17563652091E+02  0.10832380974E+01 -0.39583056783E+02  0.43318412111E+02  0.10566000000E+00 0.  1.
         23    2    1    0    0    0  0.19466203378E+02  0.20303852024E+02  0.88922271624E+01  0.95499979917E+02  0.90829482985E+02 0.  0.
         13    1    3    3    0    0  0.19025512872E+01  0.19220613926E+02  0.48475283945E+02  0.52181567806E+02  0.10566000000E+00 0. -1.
         22    1    1    0    0    0 -0.19466203378E+02 -0.20303852024E+02 -0.88922271624E+01  0.29500020083E+02  0.00000000000E+00 0. -1.
</event>
<event>
 5    1  0.2295636E-004  0.9118800E+02  0.7818608E-02  0.1130116E+00
         25   -1    0    0    0    0  0.00000000000E+00  0.00000000000E+00  0.99999998245E-14  0.12500000000E+03  0.12500000000E+03 0.  0.
        -13    1    3    3    0    0  0.80398338327E+01 -0.33261521059E+02  0.16341892386E+02  0.37921449366E+02  0.10566000000E+00 0. -1.
         23    2    1    0    0    0 -0.18741719899E+02 -0.21121877777E+00 -0.22631672848E+02  0.95614811655E+02  0.90987377772E+02 0.  0.
         13    1    3    3    0    0 -0.26781553732E+02  0.33050302281E+02 -0.38973565234E+02  0.57693362289E+02  0.10566000000E+00 0.  1.
         22    1    1    0    0    0  0.18741719899E+02  0.21121877777E+00  0.22631672848E+02  0.29385188345E+02  0.00000000000E+00 0.  1.
</event>
<event>
 5    1  0.2295636E-004  0.9118800E+02  0.7818608E-02  0.1130116E+00
         25   -1    0    0    0    0  0.00000000000E+00  0.00000000000E+00  0.99999998245E-14  0.12500000000E+03  0.12500000000E+03 0.  0.
        -13    1    3    3    0    0 -0.35307905080E+02  0.19554275962E+02 -0.50202095210E+01  0.40672245293E+02  0.10566000000E+00 0. -1.
         23    2    1    0    0    0 -0.23040039591E+01 -0.19727456831E+02  0.19170923067E+02  0.97395556907E+02  0.93401762439E+02 0.  0.
         13    1    3    3    0    0  0.33003901121E+02 -0.39281732793E+02  0.24191132588E+02  0.56723311613E+02  0.10566000000E+00 0.  1.
         22    1    1    0    0    0  0.23040039591E+01  0.19727456831E+02 -0.19170923067E+02  0.27604443093E+02  0.00000000000E+00 0.  1.
</event>
<event>
 5    1  0.2295636E-004  0.9118800E+02  0.7818608E-02  0.1130116E+00
         25   -1    0    0    0    0  0.00000000000E+00  0.00000000000E+00  0.99999998245E-14  0.12500000000E+03  0.12500000000E+03 0.  0.
        -13    1    3    3    0    0 -0.54703393855E+01  0.12089359252E+02  0.35451470002E+02  0.37853601010E+02  0.10566000000E+00 0. -1.
         23    2    1    0    0    0  0.27914203724E+02 -0.45008989341E+00 -0.97494597853E+01  0.95428775532E+02  0.90731438228E+02 0.  0.
         13    1    3    3    0    0  0.33384543109E+02 -0.12539449146E+02 -0.45200929787E+02  0.57575174521E+02  0.10566000000E+00 0.  1.
         22    1    1    0    0    0 -0.27914203724E+02  0.45008989341E+00  0.97494597853E+01  0.29571224468E+02  0.00000000000E+00 0.  1.
</event>
<event>
 5    1  0.2295636E-004  0.9118800E+02  0.7818608E-02  0.1130116E+00
         25   -1    0    0    0    0  0.00000000000E+00  0.00000000000E+00  0.99999998245E-14  0.12500000000E+03  0.12500000000E+03 0.  0.
        -13    1    3    3    0    0 -0.11742868736E+02 -0.55843567951E+00  0.23070498591E+02  0.25893356017E+02  0.10566000000E+00 0. -1.
         23    2    1    0    0    0  0.12761332797E+02 -0.42411323963E+02 -0.23454907757E+01  0.80648299446E+02  0.67357812179E+02 0.  0.
         13    1    3    3    0    0  0.24504201533E+02 -0.41852888283E+02 -0.25415989366E+02  0.54754943429E+02  0.10566000000E+00 0.  1.
         22    1    1    0    0    0 -0.12761332797E+02  0.42411323963E+02  0.23454907757E+01  0.44351700554E+02  0.00000000000E+00 0.  1.
</event>
<event>
 5    1  0.2295636E-004  0.9118800E+02  0.7818608E-02  0.1130116E+00
         25   -1    0    0    0    0  0.00000000000E+00  0.00000000000E+00  0.99999998245E-14  0.12500000000E+03  0.12500000000E+03 0.  0.
        -13    1    3    3    0    0  0.11622880596E+02  0.55840937937E+02 -0.69313461160E+01  0.57457431426E+02  0.10566000000E+00 0.  1.
         23    2    1    0    0    0 -0.12251240217E+02  0.25530119266E+02  0.12936033458E+00  0.96682220943E+02  0.92442172388E+02 0.  0.
         13    1    3    3    0    0 -0.23874120814E+02 -0.30310818671E+02  0.70607064506E+01  0.39224789518E+02  0.10566000000E+00 0. -1.
         22    1    1    0    0    0  0.12251240217E+02 -0.25530119266E+02 -0.12936033458E+00  0.28317779057E+02  0.00000000000E+00 0.  1.
</event>
<event>
 5    1  0.2295636E-004  0.9118800E+02  0.7818608E-02  0.1130116E+00
         25   -1    0    0    0    0  0.00000000000E+00  0.00000000000E+00  0.99999998245E-14  0.12500000000E+03  0.12500000000E+03 0.  0.
        -13    1    3    3    0    0 -0.39591982378E+02 -0.39304981126E+02  0.21411461870E+02  0.59756744166E+02  0.10566000000E+00 0. -1.
         23    2    1    0    0    0 -0.19729938033E+02 -0.21408380959E+02 -0.27035112598E+01  0.95761357706E+02  0.91188482971E+02 0.  0.
         13    1    3    3    0    0  0.19862044345E+02  0.17896600167E+02 -0.24114973129E+02  0.36004613540E+02  0.10566000000E+00 0.  1.
         22    1    1    0    0    0  0.19729938033E+02  0.21408380959E+02  0.27035112598E+01  0.29238642294E+02  0.00000000000E+00 0. -1.
</event>
<event>
 5    1  0.2295636E-004  0.9118800E+02  0.7818608E-02  0.1130116E+00
         25   -1    0    0    0    0  0.00000000000E+00  0.00000000000E+00  0.99999998245E-14  0.12500000000E+03  0.12500000000E+03 0.  0.
        -13    1    3    3    0    0  0.31198617952E+02 -0.35925938501E+02  0.48358696455E+01  0.47827017663E+02  0.10566000000E+00 0. -1.
         23    2    1    0    0    0  0.33308343963E+01 -0.12803015888E+02 -0.26284550733E+02  0.95574003316E+02  0.90931297302E+02 0.  0.
         13    1    3    3    0    0 -0.27867783555E+02  0.23122922613E+02 -0.31120420378E+02  0.47746985654E+02  0.10566000000E+00 0.  1.
         22    1    1    0    0    0 -0.33308343963E+01  0.12803015888E+02  0.26284550733E+02  0.29425996684E+02  0.00000000000E+00 0. -1.
</event>
<event>
 5    1  0.2295636E-004  0.9118800E+02  0.7818608E-02  0.1130116E+00
         25   -1    0    0    0    0  0.00000000000E+00  0.00000000000E+00  0.99999998245E-14  0.12500000000E+03  0.12500000000E+03 0.  0.
        -13    1    3    3    0    0 -0.27505899822E+02 -0.24231462048E+02 -0.35223143532E+01  0.36826025315E+02  0.10566000000E+00 0. -1.
         23    2    1    0    0    0  0.23124873507E+02 -0.15431655581E+01  0.17291885098E+02  0.96083734251E+02  0.91629326979E+02 0.  0.
         13    1    3    3    0    0  0.50630773329E+02  0.22688296490E+02  0.20814199451E+02  0.59257708936E+02  0.10566000000E+00 0.  1.
         22    1    1    0    0    0 -0.23124873507E+02  0.15431655581E+01 -0.17291885098E+02  0.28916265749E+02  0.00000000000E+00 0.  1.
</event>
<event>
 5    1  0.2295636E-004  0.9118800E+02  0.7818608E-02  0.1130116E+00
         25   -1    0    0    0    0  0.00000000000E+00  0.00000000000E+00  0.99999998245E-14  0.12500000000E+03  0.12500000000E+03 0.  0.
        -13    1    3    3    0    0 -0.52383892772E+02 -0.13583663193E+02 -0.52626828119E+01  0.54371822869E+02  0.10566000000E+00 0. -1.
         23    2    1    0    0    0 -0.14870421855E+02 -0.22237941779E+02  0.10883000860E+02  0.96119293492E+02  0.91677823780E+02 0.  0.
         13    1    3    3    0    0  0.37513470918E+02 -0.86542785856E+01  0.16145683672E+02  0.41747470623E+02  0.10566000000E+00 0.  1.
         22    1    1    0    0    0  0.14870421855E+02  0.22237941779E+02 -0.10883000860E+02  0.28880706508E+02  0.00000000000E+00 0. -1.
</event>
<event>
 5    1  0.2295636E-004  0.9118800E+02  0.7818608E-02  0.1130116E+00
         25   -1    0    0    0    0  0.00000000000E+00  0.00000000000E+00  0.99999998245E-14  0.12500000000E+03  0.12500000000E+03 0.  0.
        -13    1    3    3    0    0 -0.25106965649E+02 -0.47898685941E+02 -0.18135457449E+02  0.57039896738E+02  0.10566000000E+00 0.  1.
         23    2    1    0    0    0 -0.21959149075E+02 -0.15357819543E+02  0.58305251122E+01  0.97576253496E+02  0.93643277250E+02 0.  0.
         13    1    3    3    0    0  0.31478165743E+01  0.32540866397E+02  0.23965982561E+02  0.40536356758E+02  0.10566000000E+00 0. -1.
         22    1    1    0    0    0  0.21959149075E+02  0.15357819543E+02 -0.58305251122E+01  0.27423746504E+02  0.00000000000E+00 0.  1.
</event>
<event>
 5    1  0.2295636E-004  0.9118800E+02  0.7818608E-02  0.1130116E+00
         25   -1    0    0    0    0  0.00000000000E+00  0.00000000000E+00  0.99999998245E-14  0.12500000000E+03  0.12500000000E+03 0.  0.
        -13    1    3    3    0    0  0.47971584616E+02  0.28360103834E+02 -0.24918528515E+02  0.61045168911E+02  0.10566000000E+00 0. -1.
         23    2    1    0    0    0  0.33264834464E+02  0.10055162795E+02 -0.10102452044E+02  0.88810014534E+02  0.81101810297E+02 0.  0.
         13    1    3    3    0    0 -0.14706750152E+02 -0.18304941038E+02  0.14816076470E+02  0.27764845623E+02  0.10566000000E+00 0.  1.
         22    1    1    0    0    0 -0.33264834464E+02 -0.10055162795E+02  0.10102452044E+02  0.36189985466E+02  0.00000000000E+00 0. -1.
</event>
<event>
 5    1  0.2295636E-004  0.9118800E+02  0.7818608E-02  0.1130116E+00
         25   -1    0    0    0    0  0.00000000000E+00  0.00000000000E+00  0.99999998245E-14  0.12500000000E+03  0.12500000000E+03 0.  0.
        -13    1    3    3    0    0  0.31589250720E+01 -0.32111414849E+02  0.11765353284E+02  0.34344671685E+02  0.10566000000E+00 0.  1.
         23    2    1    0    0    0 -0.76222115808E+01  0.20672340421E+02 -0.18581802279E+02  0.96177662416E+02  0.91757373567E+02 0.  0.
         13    1    3    3    0    0 -0.10781136653E+02  0.52783755270E+02 -0.30347155563E+02  0.61832990731E+02  0.10566000000E+00 0. -1.
         22    1    1    0    0    0  0.76222115808E+01 -0.20672340421E+02  0.18581802279E+02  0.28822337584E+02  0.00000000000E+00 0. -1.
</event>
<event>
 5    1  0.2295636E-004  0.9118800E+02  0.7818608E-02  0.1130116E+00
         25   -1    0    0    0    0  0.00000000000E+00  0.00000000000E+00  0.99999998245E-14  0.12500000000E+03  0.12500000000E+03 0.  0.
        -13    1    3    3    0    0 -0.23802219460E+02 -0.42871672143E+02 -0.23141523734E+02  0.54222386597E+02  0.10566000000E+00 0.  1.
         23    2    1    0    0    0 -0.25844228033E+02 -0.27316065967E+01 -0.14155146521E+02  0.95406859405E+02  0.90701239525E+02 0.  0.
         13    1    3    3    0    0 -0.20420085735E+01  0.40140065546E+02  0.89863772128E+01  0.41184472808E+02  0.10566000000E+00 0. -1.
         22    1    1    0    0    0  0.25844228033E+02  0.27316065967E+01  0.14155146521E+02  0.29593140595E+02  0.00000000000E+00 0.  1.
</event>
<event>
 5    1  0.2295636E-004  0.9118800E+02  0.7818608E-02  0.1130116E+00
         25   -1    0    0    0    0  0.00000000000E+00  0.00000000000E+00  0.99999998245E-14  0.12500000000E+03  0.12500000000E+03 0.  0.
        -13    1    3    3    0    0  0.56246393302E+02 -0.14836803734E+02  0.88143962848E+01  0.58834447822E+02  0.10566000000E+00 0. -1.
         23    2    1    0    0    0  0.23404965684E+02 -0.16060620523E+02 -0.76632117194E+01  0.95598286374E+02  0.90964672228E+02 0.  0.
         13    1    3    3    0    0 -0.32841427619E+02 -0.12238167894E+01 -0.16477608004E+02  0.36763838553E+02  0.10566000000E+00 0.  1.
         22    1    1    0    0    0 -0.23404965684E+02  0.16060620523E+02  0.76632117194E+01  0.29401713626E+02  0.00000000000E+00 0. -1.
</event>
<event>
 5    1  0.2295636E-004  0.9118800E+02  0.7818608E-02  0.1130116E+00
         25   -1    0    0    0    0  0.00000000000E+00  0.00000000000E+00  0.99999998245E-14  0.12500000000E+03  0.12500000000E+03 0.  0.
        -13    1    3    3    0    0  0.26239830354E+02  0.16207640616E+02  0.10085252689E+02  0.32449033841E+02  0.10566000000E+00 0. -1.
         23    2    1    0    0    0 -0.18017719238E+02 -0.29693132139E+00 -0.27024846324E+02  0.92518179029E+02  0.86628775573E+02 0.  0.
         13    1    3    3    0    0 -0.44257549593E+02 -0.16504571938E+02 -0.37110099013E+02  0.60069145188E+02  0.10566000000E+00 0.  1.
         22    1    1    0    0    0  0.18017719238E+02  0.29693132139E+00  0.27024846324E+02  0.32481820971E+02  0.00000000000E+00 0.  1.
</event>
<event>
 5    1  0.2295636E-004  0.9118800E+02  0.7818608E-02  0.1130116E+00
         25   -1    0    0    0    0  0.00000000000E+00  0.00000000000E+00  0.99999998245E-14  0.12500000000E+03  0.12500000000E+03 0.  0.
        -13    1    3    3    0    0  0.12301966955E+02  0.12075448764E+02 -0.29086185503E+02  0.33810829699E+02  0.10566000000E+00 0.  1.
         23    2    1    0    0    0 -0.92281795080E+01  0.44858862687E+01  0.27939316370E+02  0.95236131436E+02  0.90465644634E+02 0.  0.
         13    1    3    3    0    0 -0.21530146463E+02 -0.75895624951E+01  0.57025501873E+02  0.61425301737E+02  0.10566000000E+00 0. -1.
         22    1    1    0    0    0  0.92281795080E+01 -0.44858862687E+01 -0.27939316370E+02  0.29763868564E+02  0.00000000000E+00 0. -1.
</event>
<event>
 5    1  0.2295636E-004  0.9118800E+02  0.7818608E-02  0.1130116E+00
         25   -1    0    0    0    0  0.00000000000E+00  0.00000000000E+00  0.99999998245E-14  0.12500000000E+03  0.12500000000E+03 0.  0.
        -13    1    3    3    0    0  0.23585635737E+02 -0.22281291114E+02  0.97445382200E+01  0.33877800047E+02  0.10566000000E+00 0. -1.
         23    2    1    0    0    0 -0.18274820196E+02  0.22564434795E+02  0.60772618017E+01  0.95334264179E+02  0.90601137105E+02 0.  0.
         13    1    3    3    0    0 -0.41860455933E+02  0.44845725909E+02 -0.36672764183E+01  0.61456464132E+02  0.10566000000E+00 0.  1.
         22    1    1    0    0    0  0.18274820196E+02 -0.22564434795E+02 -0.60772618017E+01  0.29665735821E+02  0.00000000000E+00 0.  1.
</event>
<event>
 5    1  0.2295636E-004  0.9118800E+02  0.7818608E-02  0.1130116E+00
         25   -1    0    0    0    0  0.00000000000E+00  0.00000000000E+00  0.99999998245E-14  0.12500000000E+03  0.12500000000E+03 0.  0.
        -13    1    3    3    0    0 -0.22279038294E+02 -0.37838014180E+02  0.10454092955E+02  0.45137236157E+02  0.10566000000E+00 0.  1.
         23    2    1    0    0    0 -0.20429112355E+02  0.13449253956E+02  0.14413053127E+02  0.96610439171E+02  0.92345058302E+02 0.  0.
         13    1    3    3    0    0  0.18499259390E+01  0.51287268136E+02  0.39589601728E+01  0.51473203014E+02  0.10566000000E+00 0. -1.
         22    1    1    0    0    0  0.20429112355E+02 -0.13449253956E+02 -0.14413053127E+02  0.28389560829E+02  0.00000000000E+00 0. -1.
</event>
<event>
 5    1  0.2295636E-004  0.9118800E+02  0.7818608E-02  0.1130116E+00
         25   -1    0    0    0    0  0.00000000000E+00  0.00000000000E+00  0.99999998245E-14  0.12500000000E+03  0.12500000000E+03 0.  0.
        -13    1    3    3    0    0 -0.32790100643E+01 -0.41106003432E+02 -0.28452804094E+02  0.50100186127E+02  0.10566000000E+00 0. -1.
         23    2    1    0    0    0  0.90443030618E+01  0.20447741045E+01 -0.28555830678E+02  0.94976409530E+02  0.90106061851E+02 0.  0.
         13    1    3    3    0    0  0.12323313126E+02  0.43150777536E+02 -0.10302658446E+00  0.44876223403E+02  0.10566000000E+00 0.  1.
         22    1    1    0    0    0 -0.90443030618E+01 -0.20447741045E+01  0.28555830678E+02  0.30023590470E+02  0.00000000000E+00 0. -1.
</event>
<event>
 5    1  0.2295636E-004  0.9118800E+02  0.7818608E-02  0.1130116E+00
         25   -1    0    0    0    0  0.00000000000E+00  0.00000000000E+00  0.99999998245E-14  0.12500000000E+03  0.12500000000E+03 0.  0.
        -13    1    3    3    0    0 -0.46030603782E+02 -0.27498523636E+02  0.18168304623E+02  0.56613459032E+02  0.10566000000E+00 0. -1.
         23    2    1    0    0    0 -0.21882261542E+02 -0.89906202159E+01  0.27771438525E+02  0.88518259090E+02  0.80650882032E+02 0.  0.
         13    1    3    3    0    0  0.24148342240E+02  0.18507903420E+02  0.96031339022E+01  0.31904800058E+02  0.10566000000E+00 0.  1.
         22    1    1    0    0    0  0.21882261542E+02  0.89906202159E+01 -0.27771438525E+02  0.36481740910E+02  0.00000000000E+00 0. -1.
</event>
<event>
 5    1  0.2295636E-004  0.9118800E+02  0.7818608E-02  0.1130116E+00
         25   -1    0    0    0    0  0.00000000000E+00  0.00000000000E+00  0.99999998245E-14  0.12500000000E+03  0.12500000000E+03 0.  0.
        -13    1    3    3    0    0 -0.13834724995E+02 -0.39996388102E+02 -0.22672126568E+02  0.48011948139E+02  0.10566000000E+00 0.  1.
         23    2    1    0    0    0  0.14298443887E+02 -0.88111049721E+01 -0.29973260640E+02  0.90641923485E+02  0.83877773404E+02 0.  0.
         13    1    3    3    0    0  0.28133168882E+02  0.31185283130E+02 -0.73011340717E+01  0.42629975346E+02  0.10566000000E+00 0. -1.
         22    1    1    0    0    0 -0.14298443887E+02  0.88111049721E+01  0.29973260640E+02  0.34358076515E+02  0.00000000000E+00 0.  1.
</event>
<event>
 5    1  0.2295636E-004  0.9118800E+02  0.7818608E-02  0.1130116E+00
         25   -1    0    0    0    0  0.00000000000E+00  0.00000000000E+00  0.99999998245E-14  0.12500000000E+03  0.12500000000E+03 0.  0.
        -13    1    3    3    0    0  0.33283424940E+02  0.12304806405E+02  0.54913097702E+01  0.35907663297E+02  0.10566000000E+00 0.  1.
         23    2    1    0    0    0 -0.66748341954E+01 -0.29326572020E+02 -0.48591974906E+01  0.94533411116E+02  0.89489400372E+02 0.  0.
         13    1    3    3    0    0 -0.39958259135E+02 -0.41631378425E+02 -0.10350507261E+02  0.58625747819E+02  0.10566000000E+00 0. -1.
         22    1    1    0    0    0  0.66748341954E+01  0.29326572020E+02  0.48591974906E+01  0.30466588884E+02  0.00000000000E+00 0. -1.
</event>
<event>
 5    1  0.2295636E-004  0.9118800E+02  0.7818608E-02  0.1130116E+00
         25   -1    0    0    0    0  0.00000000000E+00  0.00000000000E+00  0.99999998245E-14  0.12500000000E+03  0.12500000000E+03 0.  0.
        -13    1    3    3    0    0  0.27180183124E+02 -0.36154861362E+02 -0.67422889812E+01  0.45731892368E+02  0.10566000000E+00 0.  1.
         23    2    1    0    0    0  0.22833654500E+02  0.74304688793E+01 -0.22315255626E+02  0.92219544249E+02  0.86196786845E+02 0.  0.
         13    1    3    3    0    0 -0.43465286247E+01  0.43585330241E+02 -0.15572966645E+02  0.46487651882E+02  0.10566000000E+00 0. -1.
         22    1    1    0    0    0 -0.22833654500E+02 -0.74304688793E+01  0.22315255626E+02  0.32780455751E+02  0.00000000000E+00 0. -1.
</event>
<event>
 5    1  0.2295636E-004  0.9118800E+02  0.7818608E-02  0.1130116E+00
         25   -1    0    0    0    0  0.00000000000E+00  0.00000000000E+00  0.99999998245E-14  0.12500000000E+03  0.12500000000E+03 0.  0.
        -13    1    3    3    0    0  0.56522755064E+02 -0.11064409088E+02 -0.10841649819E+02  0.58607128605E+02  0.10566000000E+00 0.  1.
         23    2    1    0    0    0  0.27894905361E+02 -0.64782779837E+00  0.98232208832E+01  0.95418906469E+02  0.90717840678E+02 0.  0.
         13    1    3    3    0    0 -0.28627849702E+02  0.10416581290E+02  0.20664870703E+02  0.36811777864E+02  0.10566000000E+00 0. -1.
         22    1    1    0    0    0 -0.27894905361E+02  0.64782779837E+00 -0.98232208832E+01  0.29581093531E+02  0.00000000000E+00 0.  1.
</event>
<event>
 5    1  0.2295636E-004  0.9118800E+02  0.7818608E-02  0.1130116E+00
         25   -1    0    0    0    0  0.00000000000E+00  0.00000000000E+00  0.99999998245E-14  0.12500000000E+03  0.12500000000E+03 0.  0.
        -13    1    3    3    0    0  0.20298738580E+02 -0.50964344260E+02  0.26578184333E+02  0.60957478789E+02  0.10566000000E+00 0. -1.
         23    2    1    0    0    0  0.27536205325E+01 -0.22986626103E+02  0.19498275290E+02  0.94732027737E+02  0.89766402035E+02 0.  0.
         13    1    3    3    0    0 -0.17545118048E+02  0.27977718157E+02 -0.70799090435E+01  0.33774548949E+02  0.10566000000E+00 0.  1.
         22    1    1    0    0    0 -0.27536205325E+01  0.22986626103E+02 -0.19498275290E+02  0.30267972263E+02  0.00000000000E+00 0. -1.
</event>
<event>
 5    1  0.2295636E-004  0.9118800E+02  0.7818608E-02  0.1130116E+00
         25   -1    0    0    0    0  0.00000000000E+00  0.00000000000E+00  0.99999998245E-14  0.12500000000E+03  0.12500000000E+03 0.  0.
        -13    1    3    3    0    0 -0.54581422517E+00 -0.29337810344E+02  0.18231182379E+02  0.34545509172E+02  0.10566000000E+00 0.  1.
         23    2    1    0    0    0 -0.21314305713E+02  0.11291609715E+02 -0.19679983704E+02  0.93869599479E+02  0.88557325331E+02 0.  0.
         13    1    3    3    0    0 -0.20768491488E+02  0.40629420059E+02 -0.37911166083E+02  0.59324090308E+02  0.10566000000E+00 0. -1.
         22    1    1    0    0    0  0.21314305713E+02 -0.11291609715E+02  0.19679983704E+02  0.31130400521E+02  0.00000000000E+00 0.  1.
</event>
<event>
 5    1  0.2295636E-004  0.9118800E+02  0.7818608E-02  0.1130116E+00
         25   -1    0    0    0    0  0.00000000000E+00  0.00000000000E+00  0.99999998245E-14  0.12500000000E+03  0.12500000000E+03 0.  0.
        -13    1    3    3    0    0 -0.52719816704E+02 -0.54343936927E+01  0.23834729510E+02  0.58112108919E+02  0.10566000000E+00 0.  1.
         23    2    1    0    0    0 -0.23887676027E+02  0.13508344136E+02  0.15007754902E+02  0.93721746621E+02  0.88348382301E+02 0.  0.
         13    1    3    3    0    0  0.28832140678E+02  0.18942737828E+02 -0.88269746082E+01  0.35609637702E+02  0.10566000000E+00 0. -1.
         22    1    1    0    0    0  0.23887676027E+02 -0.13508344136E+02 -0.15007754902E+02  0.31278253379E+02  0.00000000000E+00 0.  1.
</event>
<event>
 5    1  0.2295636E-004  0.9118800E+02  0.7818608E-02  0.1130116E+00
         25   -1    0    0    0    0  0.00000000000E+00  0.00000000000E+00  0.99999998245E-14  0.12500000000E+03  0.12500000000E+03 0.  0.
        -13    1    3    3    0    0  0.32095726184E+02  0.24004598984E+02 -0.20508139238E+02  0.45021676453E+02  0.10566000000E+00 0. -1.
         23    2    1    0    0    0  0.20233496023E+02  0.14345785653E+01  0.22304132837E+02  0.94851588457E+02  0.89932736610E+02 0.  0.
         13    1    3    3    0    0 -0.11862230161E+02 -0.22570020418E+02  0.42812272075E+02  0.49829912004E+02  0.10566000000E+00 0.  1.
         22    1    1    0    0    0 -0.20233496023E+02 -0.14345785653E+01 -0.22304132837E+02  0.30148411543E+02  0.00000000000E+00 0.  1.
</event>
<event>
 5    1  0.2295636E-004  0.9118800E+02  0.7818608E-02  0.1130116E+00
         25   -1    0    0    0    0  0.00000000000E+00  0.00000000000E+00  0.99999998245E-14  0.12500000000E+03  0.12500000000E+03 0.  0.
        -13    1    3    3    0    0  0.33255705254E+02  0.42379423814E+02 -0.27306885426E+02  0.60395650924E+02  0.10566000000E+00 0.  1.
         23    2    1    0    0    0  0.22755231104E+02  0.11279829360E+02 -0.15315082757E+02  0.95342170463E+02  0.90612044540E+02 0.  0.
         13    1    3    3    0    0 -0.10500474150E+02 -0.31099594455E+02  0.11991802669E+02  0.34946519539E+02  0.10566000000E+00 0. -1.
         22    1    1    0    0    0 -0.22755231104E+02 -0.11279829360E+02  0.15315082757E+02  0.29657829537E+02  0.00000000000E+00 0.  1.
</event>
<event>
 5    1  0.2295636E-004  0.9118800E+02  0.7818608E-02  0.1130116E+00
         25   -1    0    0    0    0  0.00000000000E+00  0.00000000000E+00  0.99999998245E-14  0.12500000000E+03  0.12500000000E+03 0.  0.
        -13    1    3    3    0    0 -0.32457511039E+02 -0.69010068364E+01 -0.35959930765E+02  0.48930989187E+02  0.10566000000E+00 0. -1.
         23    2    1    0    0    0  0.13766966778E+02 -0.88408081110E+01 -0.22623798344E+02  0.97080015869E+02  0.92978513471E+02 0.  0.
         13    1    3    3    0    0  0.46224477817E+02 -0.19398012746E+01  0.13336132420E+02  0.48149026682E+02  0.10566000000E+00 0.  1.
         22    1    1    0    0    0 -0.13766966778E+02  0.88408081110E+01  0.22623798344E+02  0.27919984131E+02  0.00000000000E+00 0.  1.
</event>
<event>
 5    1  0.2295636E-004  0.9118800E+02  0.7818608E-02  0.1130116E+00
         25   -1    0    0    0    0  0.00000000000E+00  0.00000000000E+00  0.99999998245E-14  0.12500000000E+03  0.12500000000E+03 0.  0.
        -13    1    3    3    0    0  0.61648274977E+01 -0.57181662117E+01  0.22852961686E+02  0.24351007059E+02  0.10566000000E+00 0.  1.
         23    2    1    0    0    0  0.25809450012E+02 -0.21163241637E+02 -0.28273315963E+02  0.81257676078E+02  0.68479332792E+02 0.  0.
         13    1    3    3    0    0  0.19644622514E+02 -0.15445075426E+02 -0.51126277649E+02  0.56906669020E+02  0.10566000000E+00 0. -1.
         22    1    1    0    0    0 -0.25809450012E+02  0.21163241637E+02  0.28273315963E+02  0.43742323922E+02  0.00000000000E+00 0. -1.
</event>
<event>
 5    1  0.2295636E-004  0.9118800E+02  0.7818608E-02  0.1130116E+00
         25   -1    0    0    0    0  0.00000000000E+00  0.00000000000E+00  0.99999998245E-14  0.12500000000E+03  0.12500000000E+03 0.  0.
        -13    1    3    3    0    0  0.29083003713E+02 -0.25208735179E+02  0.29926218683E+02  0.48753370786E+02  0.10566000000E+00 0.  1.
         23    2    1    0    0    0  0.40390281541E+01  0.16436913003E+02  0.20773898667E+02  0.98203718106E+02  0.94477137586E+02 0.  0.
         13    1    3    3    0    0 -0.25043975559E+02  0.41645648182E+02 -0.91523200157E+01  0.49450347320E+02  0.10566000000E+00 0. -1.
         22    1    1    0    0    0 -0.40390281541E+01 -0.16436913003E+02 -0.20773898667E+02  0.26796281894E+02  0.00000000000E+00 0.  1.
</event>
<event>
 5    1  0.2295636E-004  0.9118800E+02  0.7818608E-02  0.1130116E+00
         25   -1    0    0    0    0  0.00000000000E+00  0.00000000000E+00  0.99999998245E-14  0.12500000000E+03  0.12500000000E+03 0.  0.
        -13    1    3    3    0    0  0.53899718141E+02 -0.50921400122E+01  0.56817588075E+01  0.54437147728E+02  0.10566000000E+00 0.  1.
         23    2    1    0    0    0  0.17881241964E+02  0.13797085828E+02  0.17089336555E+02  0.96677856447E+02  0.92436270542E+02 0.  0.
         13    1    3    3    0    0 -0.36018476177E+02  0.18889225840E+02  0.11407577748E+02  0.42240708719E+02  0.10566000000E+00 0. -1.
         22    1    1    0    0    0 -0.17881241964E+02 -0.13797085828E+02 -0.17089336555E+02  0.28322143553E+02  0.00000000000E+00 0.  1.
</event>
<event>
 5    1  0.2295636E-004  0.9118800E+02  0.7818608E-02  0.1130116E+00
         25   -1    0    0    0    0  0.00000000000E+00  0.00000000000E+00  0.99999998245E-14  0.12500000000E+03  0.12500000000E+03 0.  0.
        -13    1    3    3    0    0  0.16485527083E+02 -0.46430284790E+02  0.19203269388E+02  0.52880248374E+02  0.10566000000E+00 0. -1.
         23    2    1    0    0    0 -0.32781213480E+01 -0.25486139089E+02 -0.13101296656E+02  0.96156745341E+02  0.91728874055E+02 0.  0.
         13    1    3    3    0    0 -0.19763648431E+02  0.20944145701E+02 -0.32304566044E+02  0.43276496967E+02  0.10566000000E+00 0.  1.
         22    1    1    0    0    0  0.32781213480E+01  0.25486139089E+02  0.13101296656E+02  0.28843254659E+02  0.00000000000E+00 0. -1.
</event>
<event>
 5    1  0.2295636E-004  0.9118800E+02  0.7818608E-02  0.1130116E+00
         25   -1    0    0    0    0  0.00000000000E+00  0.00000000000E+00  0.99999998245E-14  0.12500000000E+03  0.12500000000E+03 0.  0.
        -13    1    3    3    0    0  0.11099154200E+02  0.31628155583E+02 -0.42430009030E+02  0.54072620427E+02  0.10566000000E+00 0.  1.
         23    2    1    0    0    0 -0.30854594090E+01  0.29589655170E+02 -0.41316188416E+01  0.94964387353E+02  0.90089382494E+02 0.  0.
         13    1    3    3    0    0 -0.14184613609E+02 -0.20385004128E+01  0.38298390189E+02  0.40891766925E+02  0.10566000000E+00 0. -1.
         22    1    1    0    0    0  0.30854594090E+01 -0.29589655170E+02  0.41316188416E+01  0.30035612647E+02  0.00000000000E+00 0.  1.
</event>
<event>
 5    1  0.2295636E-004  0.9118800E+02  0.7818608E-02  0.1130116E+00
         25   -1    0    0    0    0  0.00000000000E+00  0.00000000000E+00  0.99999998245E-14  0.12500000000E+03  0.12500000000E+03 0.  0.
        -13    1    3    3    0    0 -0.36613616228E+02  0.10074069298E+02  0.10448874984E+02  0.39385707027E+02  0.10566000000E+00 0.  1.
         23    2    1    0    0    0 -0.17268006183E+00 -0.27109546348E+02 -0.11064891993E+02  0.95718791753E+02  0.91130115430E+02 0.  0.
         13    1    3    3    0    0  0.36440936167E+02 -0.37183615646E+02 -0.21513766976E+02  0.56333084726E+02  0.10566000000E+00 0. -1.
         22    1    1    0    0    0  0.17268006183E+00  0.27109546348E+02  0.11064891993E+02  0.29281208247E+02  0.00000000000E+00 0. -1.
</event>
<event>
 5    1  0.2295636E-004  0.9118800E+02  0.7818608E-02  0.1130116E+00
         25   -1    0    0    0    0  0.00000000000E+00  0.00000000000E+00  0.99999998245E-14  0.12500000000E+03  0.12500000000E+03 0.  0.
        -13    1    3    3    0    0 -0.20597832150E+02  0.21145028456E+02  0.41302047935E+01  0.29806923246E+02  0.10566000000E+00 0.  1.
         23    2    1    0    0    0  0.13727561300E+02 -0.19317385013E+02 -0.25177589373E+02  0.90423731988E+02  0.83551977817E+02 0.  0.
         13    1    3    3    0    0  0.34325393450E+02 -0.40462413469E+02 -0.29307794167E+02  0.60616808743E+02  0.10566000000E+00 0. -1.
         22    1    1    0    0    0 -0.13727561300E+02  0.19317385013E+02  0.25177589373E+02  0.34576268012E+02  0.00000000000E+00 0. -1.
</event>
<event>
 5    1  0.2295636E-004  0.9118800E+02  0.7818608E-02  0.1130116E+00
         25   -1    0    0    0    0  0.00000000000E+00  0.00000000000E+00  0.99999998245E-14  0.12500000000E+03  0.12500000000E+03 0.  0.
        -13    1    3    3    0    0  0.52114121348E+02  0.79984919727E+01 -0.28770265216E+02  0.60063273656E+02  0.10566000000E+00 0.  1.
         23    2    1    0    0    0  0.22968085619E+02 -0.85305515426E+01 -0.14874118556E+02  0.96337434353E+02  0.91974771477E+02 0.  0.
         13    1    3    3    0    0 -0.29146035729E+02 -0.16529043515E+02  0.13896146660E+02  0.36274160697E+02  0.10566000000E+00 0. -1.
         22    1    1    0    0    0 -0.22968085619E+02  0.85305515426E+01  0.14874118556E+02  0.28662565647E+02  0.00000000000E+00 0.  1.
</event>
<event>
 5    1  0.2295636E-004  0.9118800E+02  0.7818608E-02  0.1130116E+00
         25   -1    0    0    0    0  0.00000000000E+00  0.00000000000E+00  0.99999998245E-14  0.12500000000E+03  0.12500000000E+03 0.  0.
        -13    1    3    3    0    0 -0.28548234561E+02  0.94975492946E+01 -0.24006431140E+02  0.38490583774E+02  0.10566000000E+00 0. -1.
         23    2    1    0    0    0  0.82786584079E+01 -0.27743116851E+02 -0.13755441967E+00  0.96047700629E+02  0.91580157006E+02 0.  0.
         13    1    3    3    0    0  0.36826892969E+02 -0.37240666146E+02  0.23868876720E+02  0.57557116855E+02  0.10566000000E+00 0.  1.
         22    1    1    0    0    0 -0.82786584079E+01  0.27743116851E+02  0.13755441967E+00  0.28952299371E+02  0.00000000000E+00 0.  1.
</event>
<event>
 5    1  0.2295636E-004  0.9118800E+02  0.7818608E-02  0.1130116E+00
         25   -1    0    0    0    0  0.00000000000E+00  0.00000000000E+00  0.99999998245E-14  0.12500000000E+03  0.12500000000E+03 0.  0.
        -13    1    3    3    0    0 -0.30806675286E+02  0.12547902438E+02  0.34817219816E+02  0.48153411692E+02  0.10566000000E+00 0. -1.
         23    2    1    0    0    0 -0.16832144031E+02 -0.23028277713E+02  0.64410004082E+01  0.95757750884E+02  0.91183538651E+02 0.  0.
         13    1    3    3    0    0  0.13974531255E+02 -0.35576180151E+02 -0.28376219408E+02  0.47604339192E+02  0.10566000000E+00 0.  1.
         22    1    1    0    0    0  0.16832144031E+02  0.23028277713E+02 -0.64410004082E+01  0.29242249116E+02  0.00000000000E+00 0.  1.
</event>
<event>
 5    1  0.2295636E-004  0.9118800E+02  0.7818608E-02  0.1130116E+00
         25   -1    0    0    0    0  0.00000000000E+00  0.00000000000E+00  0.99999998245E-14  0.12500000000E+03  0.12500000000E+03 0.  0.
        -13    1    3    3    0    0 -0.17862557888E+02 -0.56489032904E+01  0.38342607493E+02  0.42674908273E+02  0.10566000000E+00 0.  1.
         23    2    1    0    0    0 -0.55278437212E+01  0.27915877830E+02 -0.18615282107E+01  0.96481259170E+02  0.92170031966E+02 0.  0.
         13    1    3    3    0    0  0.12334714166E+02  0.33564781120E+02 -0.40204135704E+02  0.53806350898E+02  0.10566000000E+00 0. -1.
         22    1    1    0    0    0  0.55278437212E+01 -0.27915877830E+02  0.18615282107E+01  0.28518740830E+02  0.00000000000E+00 0.  1.
</event>
<event>
 5    1  0.2295636E-004  0.9118800E+02  0.7818608E-02  0.1130116E+00
         25   -1    0    0    0    0  0.00000000000E+00  0.00000000000E+00  0.99999998245E-14  0.12500000000E+03  0.12500000000E+03 0.  0.
        -13    1    3    3    0    0  0.16477266258E+02 -0.12872755146E+02 -0.27998696704E+02  0.34944903913E+02  0.10566000000E+00 0. -1.
         23    2    1    0    0    0 -0.26628002465E+02  0.21071778289E+01  0.12083719542E+02  0.95682650330E+02  0.91080528010E+02 0.  0.
         13    1    3    3    0    0 -0.43105268724E+02  0.14979932974E+02  0.40082416246E+02  0.60737746417E+02  0.10566000000E+00 0.  1.
         22    1    1    0    0    0  0.26628002465E+02 -0.21071778289E+01 -0.12083719542E+02  0.29317349670E+02  0.00000000000E+00 0.  1.
</event>
<event>
 5    1  0.2295636E-004  0.9118800E+02  0.7818608E-02  0.1130116E+00
         25   -1    0    0    0    0  0.00000000000E+00  0.00000000000E+00  0.99999998245E-14  0.12500000000E+03  0.12500000000E+03 0.  0.
        -13    1    3    3    0    0 -0.44400773717E+02 -0.39324417154E+02 -0.16709475831E+02  0.61620258339E+02  0.10566000000E+00 0. -1.
         23    2    1    0    0    0 -0.15243941407E+02 -0.21083724267E+02 -0.12051882465E+02  0.96326858394E+02  0.91960396903E+02 0.  0.
         13    1    3    3    0    0  0.29156832311E+02  0.18240692887E+02  0.46575933662E+01  0.34706600055E+02  0.10566000000E+00 0.  1.
         22    1    1    0    0    0  0.15243941407E+02  0.21083724267E+02  0.12051882465E+02  0.28673141606E+02  0.00000000000E+00 0. -1.
</event>
<event>
 5    1  0.2295636E-004  0.9118800E+02  0.7818608E-02  0.1130116E+00
         25   -1    0    0    0    0  0.00000000000E+00  0.00000000000E+00  0.99999998245E-14  0.12500000000E+03  0.12500000000E+03 0.  0.
        -13    1    3    3    0    0 -0.47560941395E+02 -0.38412147804E+02  0.30152960965E+01  0.61209798397E+02  0.10566000000E+00 0. -1.
         23    2    1    0    0    0 -0.12501563910E+02 -0.20277521938E+02 -0.24267478975E+01  0.10105514457E+03  0.98177319900E+02 0.  0.
         13    1    3    3    0    0  0.35059377484E+02  0.18134625866E+02 -0.54420439940E+01  0.39845346174E+02  0.10566000000E+00 0.  1.
         22    1    1    0    0    0  0.12501563910E+02  0.20277521938E+02  0.24267478975E+01  0.23944855429E+02  0.00000000000E+00 0. -1.
</event>
<event>
 5    1  0.2295636E-004  0.9118800E+02  0.7818608E-02  0.1130116E+00
         25   -1    0    0    0    0  0.00000000000E+00  0.00000000000E+00  0.99999998245E-14  0.12500000000E+03  0.12500000000E+03 0.  0.
        -13    1    3    3    0    0  0.48378898492E+01 -0.14339205256E+02 -0.27829827104E+02  0.31678516794E+02  0.10566000000E+00 0. -1.
         23    2    1    0    0    0 -0.89084827069E+01  0.10956942240E+02  0.27520093772E+02  0.94068281513E+02  0.88837325366E+02 0.  0.
         13    1    3    3    0    0 -0.13746372556E+02  0.25296147496E+02  0.55349920876E+02  0.62389764718E+02  0.10566000000E+00 0.  1.
         22    1    1    0    0    0  0.89084827069E+01 -0.10956942240E+02 -0.27520093772E+02  0.30931718487E+02  0.00000000000E+00 0.  1.
</event>
<event>
 5    1  0.2295636E-004  0.9118800E+02  0.7818608E-02  0.1130116E+00
         25   -1    0    0    0    0  0.00000000000E+00  0.00000000000E+00  0.99999998245E-14  0.12500000000E+03  0.12500000000E+03 0.  0.
        -13    1    3    3    0    0  0.20534122349E+02 -0.44891025244E+02  0.26125051949E+02  0.55851444310E+02  0.10566000000E+00 0.  1.
         23    2    1    0    0    0  0.16669049128E+02 -0.24942149372E+02 -0.65163109626E+01  0.94300971958E+02  0.89164135108E+02 0.  0.
         13    1    3    3    0    0 -0.38650732207E+01  0.19948875872E+02 -0.32641362912E+02  0.38449527648E+02  0.10566000000E+00 0. -1.
         22    1    1    0    0    0 -0.16669049128E+02  0.24942149372E+02  0.65163109626E+01  0.30699028042E+02  0.00000000000E+00 0.  1.
</event>
<event>
 4    1  0.2295636E-004  0.9118800E+02  0.7818608E-02  0.1130116E+00
         25   -1    0    0    0    0  0.00000000000E+00  0.00000000000E+00  0.99999998245E-14  0.12500000000E+03  0.12500000000E+03 0.  0.
        -13    1    1    0    0    0 -0.18661764341E+02  0.19411543953E+02 -0.92118357391E+01  0.28459419682E+02  0.10566000000E+00 0. -1.
         13    1    1    0    0    0  0.14059032636E+02  0.36907635784E+02  0.59397467262E+01  0.39938975112E+02  0.10566000000E+00 0.  1.
         22    1    1    0    0    0  0.46027317044E+01 -0.56319179736E+02  0.32720890129E+01  0.56601605205E+02  0.00000000000E+00 0. -1.
</event>
<event>
 5    1  0.2295636E-004  0.9118800E+02  0.7818608E-02  0.1130116E+00
         25   -1    0    0    0    0  0.00000000000E+00  0.00000000000E+00  0.99999998245E-14  0.12500000000E+03  0.12500000000E+03 0.  0.
        -13    1    3    3    0    0 -0.27726678135E+02 -0.38494025156E+02  0.51399270414E+01  0.47717802413E+02  0.10566000000E+00 0.  1.
         23    2    1    0    0    0 -0.69480524835E+01  0.84215248026E+01  0.20921581393E+02  0.10140105762E+03  0.98616755198E+02 0.  0.
         13    1    3    3    0    0  0.20778625651E+02  0.46915549958E+02  0.15781654352E+02  0.53683255210E+02  0.10566000000E+00 0. -1.
         22    1    1    0    0    0  0.69480524835E+01 -0.84215248026E+01 -0.20921581393E+02  0.23598942377E+02  0.00000000000E+00 0. -1.
</event>
<event>
 5    1  0.2295636E-004  0.9118800E+02  0.7818608E-02  0.1130116E+00
         25   -1    0    0    0    0  0.00000000000E+00  0.00000000000E+00  0.99999998245E-14  0.12500000000E+03  0.12500000000E+03 0.  0.
        -13    1    3    3    0    0  0.17816317630E+02  0.19062438414E+02  0.26389991970E+02  0.37111192010E+02  0.10566000000E+00 0. -1.
         23    2    1    0    0    0 -0.11569258773E+02 -0.26375010710E+02  0.30634202358E+01  0.96036687309E+02  0.91565123422E+02 0.  0.
         13    1    3    3    0    0 -0.29385576402E+02 -0.45437449124E+02 -0.23326571734E+02  0.58925495299E+02  0.10566000000E+00 0.  1.
         22    1    1    0    0    0  0.11569258773E+02  0.26375010710E+02 -0.30634202358E+01  0.28963312691E+02  0.00000000000E+00 0.  1.
</event>
<event>
 5    1  0.2295636E-004  0.9118800E+02  0.7818608E-02  0.1130116E+00
         25   -1    0    0    0    0  0.00000000000E+00  0.00000000000E+00  0.99999998245E-14  0.12500000000E+03  0.12500000000E+03 0.  0.
        -13    1    3    3    0    0  0.18479507114E+02 -0.79267419155E+01 -0.38925673293E+02  0.43812608070E+02  0.10566000000E+00 0.  1.
         23    2    1    0    0    0  0.22901561810E+02  0.17001384642E+02  0.64353016441E+01  0.95760613544E+02  0.91187462877E+02 0.  0.
         13    1    3    3    0    0  0.44220546962E+01  0.24928126557E+02  0.45360974937E+02  0.51948005474E+02  0.10566000000E+00 0. -1.
         22    1    1    0    0    0 -0.22901561810E+02 -0.17001384642E+02 -0.64353016441E+01  0.29239386456E+02  0.00000000000E+00 0. -1.
</event>
<event>
 5    1  0.2295636E-004  0.9118800E+02  0.7818608E-02  0.1130116E+00
         25   -1    0    0    0    0  0.00000000000E+00  0.00000000000E+00  0.99999998245E-14  0.12500000000E+03  0.12500000000E+03 0.  0.
        -13    1    3    3    0    0  0.19706630601E+02  0.25094915236E+02 -0.19858561636E+02  0.37582970807E+02  0.10566000000E+00 0. -1.
         23    2    1    0    0    0  0.12160112536E+02 -0.11685807426E+02  0.24220762510E+02  0.95486075004E+02  0.90810344956E+02 0.  0.
         13    1    3    3    0    0 -0.75465180656E+01 -0.36780722662E+02  0.44079324146E+02  0.57903104198E+02  0.10566000000E+00 0.  1.
         22    1    1    0    0    0 -0.12160112536E+02  0.11685807426E+02 -0.24220762510E+02  0.29513924996E+02  0.00000000000E+00 0.  1.
</event>
<event>
 5    1  0.2295636E-004  0.9118800E+02  0.7818608E-02  0.1130116E+00
         25   -1    0    0    0    0  0.00000000000E+00  0.00000000000E+00  0.99999998245E-14  0.12500000000E+03  0.12500000000E+03 0.  0.
        -13    1    3    3    0    0 -0.36239634083E+02  0.10098230682E+02  0.32979602937E+01  0.37764706374E+02  0.10566000000E+00 0. -1.
         23    2    1    0    0    0  0.15686790337E+02  0.16924060387E+02 -0.19407451674E+02  0.94847912318E+02  0.89927626898E+02 0.  0.
         13    1    3    3    0    0  0.51926424420E+02  0.68258297054E+01 -0.22705411968E+02  0.57083205944E+02  0.10566000000E+00 0.  1.
         22    1    1    0    0    0 -0.15686790337E+02 -0.16924060387E+02  0.19407451674E+02  0.30152087682E+02  0.00000000000E+00 0.  1.
</event>
<event>
 5    1  0.2295636E-004  0.9118800E+02  0.7818608E-02  0.1130116E+00
         25   -1    0    0    0    0  0.00000000000E+00  0.00000000000E+00  0.99999998245E-14  0.12500000000E+03  0.12500000000E+03 0.  0.
        -13    1    3    3    0    0  0.39709653632E+02  0.30780852174E+02 -0.56663825740E+01  0.50561215448E+02  0.10566000000E+00 0.  1.
         23    2    1    0    0    0  0.50677688391E+01  0.16709277307E+02  0.21882450322E+02  0.97004931484E+02  0.92877515422E+02 0.  0.
         13    1    3    3    0    0 -0.34641884793E+02 -0.14071574867E+02  0.27548832896E+02  0.46443716036E+02  0.10566000000E+00 0. -1.
         22    1    1    0    0    0 -0.50677688391E+01 -0.16709277307E+02 -0.21882450322E+02  0.27995068516E+02  0.00000000000E+00 0. -1.
</event>
<event>
 5    1  0.2295636E-004  0.9118800E+02  0.7818608E-02  0.1130116E+00
         25   -1    0    0    0    0  0.00000000000E+00  0.00000000000E+00  0.99999998245E-14  0.12500000000E+03  0.12500000000E+03 0.  0.
        -13    1    3    3    0    0  0.40522972773E+02  0.29466474362E+02  0.24386222019E+02  0.55723275407E+02  0.10566000000E+00 0.  1.
         23    2    1    0    0    0  0.11708698800E+02  0.62864367321E+01  0.29105425971E+02  0.93004082521E+02  0.87327089899E+02 0.  0.
         13    1    3    3    0    0 -0.28814273973E+02 -0.23180037630E+02  0.47192039518E+01  0.37280807114E+02  0.10566000000E+00 0. -1.
         22    1    1    0    0    0 -0.11708698800E+02 -0.62864367321E+01 -0.29105425971E+02  0.31995917479E+02  0.00000000000E+00 0.  1.
</event>
<event>
 5    1  0.2295636E-004  0.9118800E+02  0.7818608E-02  0.1130116E+00
         25   -1    0    0    0    0  0.00000000000E+00  0.00000000000E+00  0.99999998245E-14  0.12500000000E+03  0.12500000000E+03 0.  0.
        -13    1    3    3    0    0 -0.27639142070E+02 -0.10835268531E+00 -0.49030397658E+02  0.56284322624E+02  0.10566000000E+00 0. -1.
         23    2    1    0    0    0 -0.25198157024E+02  0.10247688816E+02 -0.11200583604E+02  0.95582057914E+02  0.90942368996E+02 0.  0.
         13    1    3    3    0    0  0.24409850457E+01  0.10356041501E+02  0.37829814054E+02  0.39297735290E+02  0.10566000000E+00 0.  1.
         22    1    1    0    0    0  0.25198157024E+02 -0.10247688816E+02  0.11200583604E+02  0.29417942086E+02  0.00000000000E+00 0. -1.
</event>
<event>
 5    1  0.2295636E-004  0.9118800E+02  0.7818608E-02  0.1130116E+00
         25   -1    0    0    0    0  0.00000000000E+00  0.00000000000E+00  0.99999998245E-14  0.12500000000E+03  0.12500000000E+03 0.  0.
        -13    1    3    3    0    0 -0.20770582481E+02 -0.33789397777E+02 -0.20792758059E+02  0.44782702581E+02  0.10566000000E+00 0. -1.
         23    2    1    0    0    0 -0.23321635928E+02  0.75963716786E+01  0.12044268221E+02  0.97674774255E+02  0.93774695754E+02 0.  0.
         13    1    3    3    0    0 -0.25510534464E+01  0.41385769455E+02  0.32837026279E+02  0.52892071674E+02  0.10566000000E+00 0.  1.
         22    1    1    0    0    0  0.23321635928E+02 -0.75963716786E+01 -0.12044268221E+02  0.27325225745E+02  0.00000000000E+00 0.  1.
</event>
<event>
 5    1  0.2295636E-004  0.9118800E+02  0.7818608E-02  0.1130116E+00
         25   -1    0    0    0    0  0.00000000000E+00  0.00000000000E+00  0.99999998245E-14  0.12500000000E+03  0.12500000000E+03 0.  0.
        -13    1    3    3    0    0 -0.55323684420E+01  0.29324219964E+01  0.45671049525E+02  0.46098396155E+02  0.10566000000E+00 0. -1.
         23    2    1    0    0    0  0.43603903874E+01 -0.27738580098E+02  0.77356628118E+01  0.95874713575E+02  0.91343737573E+02 0.  0.
         13    1    3    3    0    0  0.98927588295E+01 -0.30671002095E+02 -0.37935386713E+02  0.49776317420E+02  0.10566000000E+00 0.  1.
         22    1    1    0    0    0 -0.43603903874E+01  0.27738580098E+02 -0.77356628118E+01  0.29125286425E+02  0.00000000000E+00 0. -1.
</event>
<event>
 5    1  0.2295636E-004  0.9118800E+02  0.7818608E-02  0.1130116E+00
         25   -1    0    0    0    0  0.00000000000E+00  0.00000000000E+00  0.99999998245E-14  0.12500000000E+03  0.12500000000E+03 0.  0.
        -13    1    3    3    0    0  0.25284659673E+02  0.27830258273E+02  0.24446303834E+02  0.44849417226E+02  0.10566000000E+00 0.  1.
         23    2    1    0    0    0  0.25387990571E+02 -0.11888651168E+02 -0.76783675697E+01  0.95933740861E+02  0.91424478206E+02 0.  0.
         13    1    3    3    0    0  0.10333089837E+00 -0.39718909441E+02 -0.32124671404E+02  0.51084323635E+02  0.10566000000E+00 0. -1.
         22    1    1    0    0    0 -0.25387990571E+02  0.11888651168E+02  0.76783675697E+01  0.29066259139E+02  0.00000000000E+00 0. -1.
</event>
<event>
 5    1  0.2295636E-004  0.9118800E+02  0.7818608E-02  0.1130116E+00
         25   -1    0    0    0    0  0.00000000000E+00  0.00000000000E+00  0.99999998245E-14  0.12500000000E+03  0.12500000000E+03 0.  0.
        -13    1    3    3    0    0 -0.97517734858E+01  0.80161300606E+00 -0.35090082277E+02  0.36428899349E+02  0.10566000000E+00 0. -1.
         23    2    1    0    0    0  0.15128465211E+02  0.14188223034E+02  0.18626890669E+02  0.97122819574E+02  0.93036040831E+02 0.  0.
         13    1    3    3    0    0  0.24880238697E+02  0.13386610028E+02  0.53716972946E+02  0.60693920225E+02  0.10566000000E+00 0.  1.
         22    1    1    0    0    0 -0.15128465211E+02 -0.14188223034E+02 -0.18626890669E+02  0.27877180426E+02  0.00000000000E+00 0.  1.
</event>
<event>
 5    1  0.2295636E-004  0.9118800E+02  0.7818608E-02  0.1130116E+00
         25   -1    0    0    0    0  0.00000000000E+00  0.00000000000E+00  0.99999998245E-14  0.12500000000E+03  0.12500000000E+03 0.  0.
        -13    1    3    3    0    0 -0.59750784229E+01 -0.28460628663E+02  0.40910725601E+02  0.50193700594E+02  0.10566000000E+00 0.  1.
         23    2    1    0    0    0 -0.25079222142E+02 -0.13567590152E+02  0.15088862323E+01  0.96446127698E+02  0.92122374722E+02 0.  0.
         13    1    3    3    0    0 -0.19104143719E+02  0.14893038512E+02 -0.39401839368E+02  0.46252427104E+02  0.10566000000E+00 0. -1.
         22    1    1    0    0    0  0.25079222142E+02  0.13567590152E+02 -0.15088862323E+01  0.28553872302E+02  0.00000000000E+00 0.  1.
</event>
<event>
 5    1  0.2295636E-004  0.9118800E+02  0.7818608E-02  0.1130116E+00
         25   -1    0    0    0    0  0.00000000000E+00  0.00000000000E+00  0.99999998245E-14  0.12500000000E+03  0.12500000000E+03 0.  0.
        -13    1    3    3    0    0  0.32443186535E+02  0.48981006327E+02  0.14551715487E+01  0.58769277872E+02  0.10566000000E+00 0.  1.
         23    2    1    0    0    0  0.26933811932E+02  0.13171025880E+02  0.43660834525E+00  0.95015057533E+02  0.90159660510E+02 0.  0.
         13    1    3    3    0    0 -0.55093746032E+01 -0.35809980447E+02 -0.10185632034E+01  0.36245779661E+02  0.10566000000E+00 0. -1.
         22    1    1    0    0    0 -0.26933811932E+02 -0.13171025880E+02 -0.43660834525E+00  0.29984942467E+02  0.00000000000E+00 0.  1.
</event>
<event>
 5    1  0.2295636E-004  0.9118800E+02  0.7818608E-02  0.1130116E+00
         25   -1    0    0    0    0  0.00000000000E+00  0.00000000000E+00  0.99999998245E-14  0.12500000000E+03  0.12500000000E+03 0.  0.
        -13    1    3    3    0    0 -0.14598079964E+02 -0.11324034895E+02 -0.35697718674E+02  0.40195472227E+02  0.10566000000E+00 0.  1.
         23    2    1    0    0    0  0.19322517965E+02 -0.20689761243E+02  0.73068149633E+01  0.95762772605E+02  0.91190422476E+02 0.  0.
         13    1    3    3    0    0  0.33920597930E+02 -0.93657263480E+01  0.43004533638E+02  0.55567300379E+02  0.10566000000E+00 0. -1.
         22    1    1    0    0    0 -0.19322517965E+02  0.20689761243E+02 -0.73068149633E+01  0.29237227395E+02  0.00000000000E+00 0. -1.
</event>
<event>
 5    1  0.2295636E-004  0.9118800E+02  0.7818608E-02  0.1130116E+00
         25   -1    0    0    0    0  0.00000000000E+00  0.00000000000E+00  0.99999998245E-14  0.12500000000E+03  0.12500000000E+03 0.  0.
        -13    1    3    3    0    0  0.14334978266E+02 -0.33166161985E+02 -0.13644080905E+02  0.38621988691E+02  0.10566000000E+00 0. -1.
         23    2    1    0    0    0 -0.26922048632E+02  0.41066457014E+01 -0.14329477845E+02  0.94226713260E+02  0.89059970329E+02 0.  0.
         13    1    3    3    0    0 -0.41257026899E+02  0.37272807686E+02 -0.68539694046E+00  0.55604724569E+02  0.10566000000E+00 0.  1.
         22    1    1    0    0    0  0.26922048632E+02 -0.41066457014E+01  0.14329477845E+02  0.30773286740E+02  0.00000000000E+00 0.  1.
</event>
<event>
 5    1  0.2295636E-004  0.9118800E+02  0.7818608E-02  0.1130116E+00
         25   -1    0    0    0    0  0.00000000000E+00  0.00000000000E+00  0.99999998245E-14  0.12500000000E+03  0.12500000000E+03 0.  0.
        -13    1    3    3    0    0 -0.49836754517E+02 -0.81975646009E+01  0.28949978740E+02  0.58215243701E+02  0.10566000000E+00 0.  1.
         23    2    1    0    0    0 -0.19777316787E+02 -0.18392589223E+02  0.61389230280E+01  0.97303141450E+02  0.93278000420E+02 0.  0.
         13    1    3    3    0    0  0.30059437730E+02 -0.10195024622E+02 -0.22811055712E+02  0.39087897748E+02  0.10566000000E+00 0. -1.
         22    1    1    0    0    0  0.19777316787E+02  0.18392589223E+02 -0.61389230280E+01  0.27696858550E+02  0.00000000000E+00 0. -1.
</event>
<event>
 5    1  0.2295636E-004  0.9118800E+02  0.7818608E-02  0.1130116E+00
         25   -1    0    0    0    0  0.00000000000E+00  0.00000000000E+00  0.99999998245E-14  0.12500000000E+03  0.12500000000E+03 0.  0.
        -13    1    3    3    0    0  0.18800832047E+02 -0.63854156197E+01 -0.37102406453E+02  0.42081403814E+02  0.10566000000E+00 0. -1.
         23    2    1    0    0    0  0.29635941643E+02  0.12578078237E+02  0.76764515863E+01  0.91902794708E+02  0.85736215667E+02 0.  0.
         13    1    3    3    0    0  0.10835109596E+02  0.18963493857E+02  0.44778858040E+02  0.49821390894E+02  0.10566000000E+00 0.  1.
         22    1    1    0    0    0 -0.29635941643E+02 -0.12578078237E+02 -0.76764515863E+01  0.33097205292E+02  0.00000000000E+00 0.  1.
</event>
<event>
 5    1  0.2295636E-004  0.9118800E+02  0.7818608E-02  0.1130116E+00
         25   -1    0    0    0    0  0.00000000000E+00  0.00000000000E+00  0.99999998245E-14  0.12500000000E+03  0.12500000000E+03 0.  0.
        -13    1    3    3    0    0  0.40125554347E+02  0.45524721879E+02  0.37793383388E+01  0.60801767870E+02  0.10566000000E+00 0. -1.
         23    2    1    0    0    0  0.15020117436E+02  0.19208206211E+02 -0.84809209670E+01  0.99183626628E+02  0.95764850843E+02 0.  0.
         13    1    3    3    0    0 -0.25105436911E+02 -0.26316515668E+02 -0.12260259306E+02  0.38381858758E+02  0.10566000000E+00 0.  1.
         22    1    1    0    0    0 -0.15020117436E+02 -0.19208206211E+02  0.84809209670E+01  0.25816373372E+02  0.00000000000E+00 0. -1.
</event>
<event>
 5    1  0.2295636E-004  0.9118800E+02  0.7818608E-02  0.1130116E+00
         25   -1    0    0    0    0  0.00000000000E+00  0.00000000000E+00  0.99999998245E-14  0.12500000000E+03  0.12500000000E+03 0.  0.
        -13    1    3    3    0    0  0.41027773774E+02  0.39177829669E+01  0.22133974168E+02  0.46781954008E+02  0.10566000000E+00 0.  1.
         23    2    1    0    0    0  0.98597301002E+01  0.26066448961E+02 -0.85949185384E+01  0.95835866826E+02  0.91290561979E+02 0.  0.
         13    1    3    3    0    0 -0.31168043674E+02  0.22148665994E+02 -0.30728892707E+02  0.49053912819E+02  0.10566000000E+00 0. -1.
         22    1    1    0    0    0 -0.98597301002E+01 -0.26066448961E+02  0.85949185384E+01  0.29164133174E+02  0.00000000000E+00 0.  1.
</event>
<event>
 5    1  0.2295636E-004  0.9118800E+02  0.7818608E-02  0.1130116E+00
         25   -1    0    0    0    0  0.00000000000E+00  0.00000000000E+00  0.99999998245E-14  0.12500000000E+03  0.12500000000E+03 0.  0.
        -13    1    3    3    0    0 -0.31260373342E+02  0.22518382851E+02 -0.11003185653E+02  0.40067065856E+02  0.10566000000E+00 0. -1.
         23    2    1    0    0    0 -0.94459358739E+01 -0.19818207654E+02  0.18669747382E+02  0.96180795874E+02  0.91761642142E+02 0.  0.
         13    1    3    3    0    0  0.21814437468E+02 -0.42336590505E+02  0.29672933035E+02  0.56113730018E+02  0.10566000000E+00 0.  1.
         22    1    1    0    0    0  0.94459358739E+01  0.19818207654E+02 -0.18669747382E+02  0.28819204126E+02  0.00000000000E+00 0.  1.
</event>
<event>
 5    1  0.2295636E-004  0.9118800E+02  0.7818608E-02  0.1130116E+00
         25   -1    0    0    0    0  0.00000000000E+00  0.00000000000E+00  0.99999998245E-14  0.12500000000E+03  0.12500000000E+03 0.  0.
        -13    1    3    3    0    0  0.43191513988E+02 -0.10398735476E+02 -0.23797599349E+01  0.44489493158E+02  0.10566000000E+00 0. -1.
         23    2    1    0    0    0 -0.14617292183E+01 -0.20886603200E+02  0.20456175642E+02  0.95728136933E+02  0.91142932985E+02 0.  0.
         13    1    3    3    0    0 -0.44653243206E+02 -0.10487867723E+02  0.22835935577E+02  0.51238643775E+02  0.10566000000E+00 0.  1.
         22    1    1    0    0    0  0.14617292183E+01  0.20886603200E+02 -0.20456175642E+02  0.29271863067E+02  0.00000000000E+00 0. -1.
</event>
<event>
 5    1  0.2295636E-004  0.9118800E+02  0.7818608E-02  0.1130116E+00
         25   -1    0    0    0    0  0.00000000000E+00  0.00000000000E+00  0.99999998245E-14  0.12500000000E+03  0.12500000000E+03 0.  0.
        -13    1    3    3    0    0 -0.16371631018E+02  0.12035359104E+02 -0.28452666322E+02  0.34963488897E+02  0.10566000000E+00 0.  1.
         23    2    1    0    0    0 -0.44678701261E+01 -0.25618728232E+02  0.16033396431E+02  0.94449207854E+02  0.89371706727E+02 0.  0.
         13    1    3    3    0    0  0.11903760892E+02 -0.37654087335E+02  0.44486062753E+02  0.59485718957E+02  0.10566000000E+00 0. -1.
         22    1    1    0    0    0  0.44678701261E+01  0.25618728232E+02 -0.16033396431E+02  0.30550792146E+02  0.00000000000E+00 0. -1.
</event>
<event>
 5    1  0.2295636E-004  0.9118800E+02  0.7818608E-02  0.1130116E+00
         25   -1    0    0    0    0  0.00000000000E+00  0.00000000000E+00  0.99999998245E-14  0.12500000000E+03  0.12500000000E+03 0.  0.
        -13    1    3    3    0    0  0.21259185519E+02  0.17859377435E+02  0.21982574309E+02  0.35414051852E+02  0.10566000000E+00 0.  1.
         23    2    1    0    0    0  0.20048180959E+02 -0.12914731568E+02 -0.24264816741E+02  0.90977930946E+02  0.84377027303E+02 0.  0.
         13    1    3    3    0    0 -0.12110045599E+01 -0.30774109003E+02 -0.46247391050E+02  0.55563879094E+02  0.10566000000E+00 0. -1.
         22    1    1    0    0    0 -0.20048180959E+02  0.12914731568E+02  0.24264816741E+02  0.34022069054E+02  0.00000000000E+00 0. -1.
</event>
<event>
 5    1  0.2295636E-004  0.9118800E+02  0.7818608E-02  0.1130116E+00
         25   -1    0    0    0    0  0.00000000000E+00  0.00000000000E+00  0.99999998245E-14  0.12500000000E+03  0.12500000000E+03 0.  0.
        -13    1    3    3    0    0  0.33340384703E+02 -0.41499458173E+02  0.32226736816E+02  0.62228289472E+02  0.10566000000E+00 0.  1.
         23    2    1    0    0    0  0.18198882727E+02 -0.18161031858E+02  0.18989826572E+02  0.93036960033E+02  0.87374138098E+02 0.  0.
         13    1    3    3    0    0 -0.15141501976E+02  0.23338426314E+02 -0.13236910244E+02  0.30808670561E+02  0.10566000000E+00 0. -1.
         22    1    1    0    0    0 -0.18198882727E+02  0.18161031858E+02 -0.18989826572E+02  0.31963039967E+02  0.00000000000E+00 0.  1.
</event>
<event>
 5    1  0.2295636E-004  0.9118800E+02  0.7818608E-02  0.1130116E+00
         25   -1    0    0    0    0  0.00000000000E+00  0.00000000000E+00  0.99999998245E-14  0.12500000000E+03  0.12500000000E+03 0.  0.
        -13    1    3    3    0    0 -0.79259285348E+01  0.47319183120E+02  0.14988771605E+02  0.50265294911E+02  0.10566000000E+00 0.  1.
         23    2    1    0    0    0  0.21614322760E+02  0.23520204382E+02 -0.42082173466E+01  0.92780626080E+02  0.87006646413E+02 0.  0.
         13    1    3    3    0    0  0.29540251295E+02 -0.23798978738E+02 -0.19196988952E+02  0.42515331169E+02  0.10566000000E+00 0. -1.
         22    1    1    0    0    0 -0.21614322760E+02 -0.23520204382E+02  0.42082173466E+01  0.32219373920E+02  0.00000000000E+00 0.  1.
</event>
<event>
 5    1  0.2295636E-004  0.9118800E+02  0.7818608E-02  0.1130116E+00
         25   -1    0    0    0    0  0.00000000000E+00  0.00000000000E+00  0.99999998245E-14  0.12500000000E+03  0.12500000000E+03 0.  0.
        -13    1    3    3    0    0 -0.16611105847E+02 -0.32841929766E+02 -0.11411382021E+02  0.38532479701E+02  0.10566000000E+00 0. -1.
         23    2    1    0    0    0  0.13375333913E+02 -0.41783037743E+02  0.14113662523E+02  0.78914023064E+02  0.64058611959E+02 0.  0.
         13    1    3    3    0    0  0.29986439761E+02 -0.89411079764E+01  0.25525044545E+02  0.40381543363E+02  0.10566000000E+00 0.  1.
         22    1    1    0    0    0 -0.13375333913E+02  0.41783037743E+02 -0.14113662523E+02  0.46085976936E+02  0.00000000000E+00 0.  1.
</event>
<event>
 5    1  0.2295636E-004  0.9118800E+02  0.7818608E-02  0.1130116E+00
         25   -1    0    0    0    0  0.00000000000E+00  0.00000000000E+00  0.99999998245E-14  0.12500000000E+03  0.12500000000E+03 0.  0.
        -13    1    3    3    0    0 -0.33310389376E+02 -0.42123152746E+02 -0.45167659891E+01  0.53892062279E+02  0.10566000000E+00 0.  1.
         23    2    1    0    0    0  0.72128240029E+01 -0.26519436487E+02 -0.35323586973E+00  0.97514911002E+02  0.93561358212E+02 0.  0.
         13    1    3    3    0    0  0.40523213379E+02  0.15603716259E+02  0.41635301194E+01  0.43622848723E+02  0.10566000000E+00 0. -1.
         22    1    1    0    0    0 -0.72128240029E+01  0.26519436487E+02  0.35323586973E+00  0.27485088998E+02  0.00000000000E+00 0.  1.
</event>
<event>
 5    1  0.2295636E-004  0.9118800E+02  0.7818608E-02  0.1130116E+00
         25   -1    0    0    0    0  0.00000000000E+00  0.00000000000E+00  0.99999998245E-14  0.12500000000E+03  0.12500000000E+03 0.  0.
        -13    1    3    3    0    0  0.17602501435E+02 -0.24771692154E+02  0.24337794372E+02  0.38933586887E+02  0.10566000000E+00 0. -1.
         23    2    1    0    0    0 -0.18868708631E+01 -0.11847666111E+02 -0.27059146619E+02  0.95400593086E+02  0.90692603179E+02 0.  0.
         13    1    3    3    0    0 -0.19489372298E+02  0.12924026043E+02 -0.51396940991E+02  0.56467006199E+02  0.10566000000E+00 0.  1.
         22    1    1    0    0    0  0.18868708631E+01  0.11847666111E+02  0.27059146619E+02  0.29599406914E+02  0.00000000000E+00 0.  1.
</event>
<event>
 5    1  0.2295636E-004  0.9118800E+02  0.7818608E-02  0.1130116E+00
         25   -1    0    0    0    0  0.00000000000E+00  0.00000000000E+00  0.99999998245E-14  0.12500000000E+03  0.12500000000E+03 0.  0.
        -13    1    3    3    0    0  0.11171396167E+02  0.33760270298E+02 -0.17013785699E+02  0.39421263434E+02  0.10566000000E+00 0.  1.
         23    2    1    0    0    0 -0.18117264021E+02 -0.13913982747E+02 -0.18819167219E+02  0.95402783470E+02  0.90695622097E+02 0.  0.
         13    1    3    3    0    0 -0.29288660188E+02 -0.47674253045E+02 -0.18053815206E+01  0.55981520036E+02  0.10566000000E+00 0. -1.
         22    1    1    0    0    0  0.18117264021E+02  0.13913982747E+02  0.18819167219E+02  0.29597216530E+02  0.00000000000E+00 0.  1.
</event>
<event>
 5    1  0.2295636E-004  0.9118800E+02  0.7818608E-02  0.1130116E+00
         25   -1    0    0    0    0  0.00000000000E+00  0.00000000000E+00  0.99999998245E-14  0.12500000000E+03  0.12500000000E+03 0.  0.
        -13    1    3    3    0    0 -0.46286396618E+02  0.13096156167E+02  0.22234888340E+02  0.52993784935E+02  0.10566000000E+00 0. -1.
         23    2    1    0    0    0 -0.23289654711E+02 -0.17753657210E+02  0.44660976903E+01  0.95376590516E+02  0.90659514828E+02 0.  0.
         13    1    3    3    0    0  0.22996741907E+02 -0.30849813377E+02 -0.17768790650E+02  0.42382805581E+02  0.10566000000E+00 0.  1.
         22    1    1    0    0    0  0.23289654711E+02  0.17753657210E+02 -0.44660976903E+01  0.29623409484E+02  0.00000000000E+00 0.  1.
</event>
<event>
 5    1  0.2295636E-004  0.9118800E+02  0.7818608E-02  0.1130116E+00
         25   -1    0    0    0    0  0.00000000000E+00  0.00000000000E+00  0.99999998245E-14  0.12500000000E+03  0.12500000000E+03 0.  0.
        -13    1    3    3    0    0 -0.31194732406E+02  0.10192470609E+02 -0.41578508795E+02  0.52969626624E+02  0.10566000000E+00 0. -1.
         23    2    1    0    0    0  0.80765236712E+01  0.81543668076E+01 -0.28276978797E+02  0.94482603936E+02  0.89418404056E+02 0.  0.
         13    1    3    3    0    0  0.39271256078E+02 -0.20381038018E+01  0.13301529998E+02  0.41512977312E+02  0.10566000000E+00 0.  1.
         22    1    1    0    0    0 -0.80765236712E+01 -0.81543668076E+01  0.28276978797E+02  0.30517396064E+02  0.00000000000E+00 0. -1.
</event>
<event>
 5    1  0.2295636E-004  0.9118800E+02  0.7818608E-02  0.1130116E+00
         25   -1    0    0    0    0  0.00000000000E+00  0.00000000000E+00  0.99999998245E-14  0.12500000000E+03  0.12500000000E+03 0.  0.
        -13    1    3    3    0    0  0.50284297369E+01 -0.35334398292E+02  0.53232003094E+01  0.36085349296E+02  0.10566000000E+00 0. -1.
         23    2    1    0    0    0 -0.22571893537E+02  0.17271010177E+02  0.77486413975E+01  0.95541221786E+02  0.90886222534E+02 0.  0.
         13    1    3    3    0    0 -0.27600323274E+02  0.52605408468E+02  0.24254410881E+01  0.59455872489E+02  0.10566000000E+00 0.  1.
         22    1    1    0    0    0  0.22571893537E+02 -0.17271010177E+02 -0.77486413975E+01  0.29458778214E+02  0.00000000000E+00 0.  1.
</event>
<event>
 5    1  0.2295636E-004  0.9118800E+02  0.7818608E-02  0.1130116E+00
         25   -1    0    0    0    0  0.00000000000E+00  0.00000000000E+00  0.99999998245E-14  0.12500000000E+03  0.12500000000E+03 0.  0.
        -13    1    3    3    0    0 -0.24370930208E+02  0.15488067976E+02 -0.16940274882E+02  0.33478449277E+02  0.10566000000E+00 0.  1.
         23    2    1    0    0    0  0.29883255920E+02  0.13554818490E+02  0.45626054003E+01  0.91870565101E+02  0.85689213296E+02 0.  0.
         13    1    3    3    0    0  0.54254186128E+02 -0.19332494860E+01  0.21502880282E+02  0.58392115825E+02  0.10566000000E+00 0. -1.
         22    1    1    0    0    0 -0.29883255920E+02 -0.13554818490E+02 -0.45626054003E+01  0.33129434899E+02  0.00000000000E+00 0. -1.
</event>
<event>
 5    1  0.2295636E-004  0.9118800E+02  0.7818608E-02  0.1130116E+00
         25   -1    0    0    0    0  0.00000000000E+00  0.00000000000E+00  0.99999998245E-14  0.12500000000E+03  0.12500000000E+03 0.  0.
        -13    1    3    3    0    0  0.28313220579E+02  0.35239289804E+02  0.54128021406E+01  0.45527525702E+02  0.10566000000E+00 0.  1.
         23    2    1    0    0    0  0.97552866744E+01  0.12299333611E+01 -0.27141652743E+02  0.96132238262E+02  0.91695471892E+02 0.  0.
         13    1    3    3    0    0 -0.18557933905E+02 -0.34009356443E+02 -0.32554454883E+02  0.50604712560E+02  0.10566000000E+00 0. -1.
         22    1    1    0    0    0 -0.97552866744E+01 -0.12299333611E+01  0.27141652743E+02  0.28867761738E+02  0.00000000000E+00 0. -1.
</event>
<event>
 5    1  0.2295636E-004  0.9118800E+02  0.7818608E-02  0.1130116E+00
         25   -1    0    0    0    0  0.00000000000E+00  0.00000000000E+00  0.99999998245E-14  0.12500000000E+03  0.12500000000E+03 0.  0.
        -13    1    3    3    0    0 -0.22632048374E+02  0.24387170220E+02  0.50641708014E+02  0.60593212817E+02  0.10566000000E+00 0. -1.
         23    2    1    0    0    0 -0.27027877381E+01  0.18805487346E+02  0.21964117348E+02  0.95959100105E+02  0.91459144027E+02 0.  0.
         13    1    3    3    0    0  0.19929260635E+02 -0.55816828743E+01 -0.28677590666E+02  0.35365887288E+02  0.10566000000E+00 0.  1.
         22    1    1    0    0    0  0.27027877381E+01 -0.18805487346E+02 -0.21964117348E+02  0.29040899895E+02  0.00000000000E+00 0.  1.
</event>
<event>
 5    1  0.2295636E-004  0.9118800E+02  0.7818608E-02  0.1130116E+00
         25   -1    0    0    0    0  0.00000000000E+00  0.00000000000E+00  0.99999998245E-14  0.12500000000E+03  0.12500000000E+03 0.  0.
        -13    1    3    3    0    0  0.10151929388E+02  0.25830970883E+02 -0.22751812510E+02  0.35888115910E+02  0.10566000000E+00 0.  1.
         23    2    1    0    0    0  0.15007473414E+02 -0.26105356047E+02  0.41906017460E+01  0.94598108355E+02  0.89579724763E+02 0.  0.
         13    1    3    3    0    0  0.48555440253E+01 -0.51936326931E+02  0.26942414256E+02  0.58709992444E+02  0.10566000000E+00 0. -1.
         22    1    1    0    0    0 -0.15007473414E+02  0.26105356047E+02 -0.41906017460E+01  0.30401891645E+02  0.00000000000E+00 0. -1.
</event>
<event>
 5    1  0.2295636E-004  0.9118800E+02  0.7818608E-02  0.1130116E+00
         25   -1    0    0    0    0  0.00000000000E+00  0.00000000000E+00  0.99999998245E-14  0.12500000000E+03  0.12500000000E+03 0.  0.
        -13    1    3    3    0    0 -0.18034739893E+02  0.32573132736E+02 -0.41056441927E+02  0.55424754460E+02  0.10566000000E+00 0.  1.
         23    2    1    0    0    0  0.21939908838E+01 -0.45061594370E+00 -0.28897761208E+02  0.96015568773E+02  0.91536288942E+02 0.  0.
         13    1    3    3    0    0  0.20228730777E+02 -0.33023748680E+02  0.12158680719E+02  0.40590814313E+02  0.10566000000E+00 0. -1.
         22    1    1    0    0    0 -0.21939908838E+01  0.45061594370E+00  0.28897761208E+02  0.28984431227E+02  0.00000000000E+00 0.  1.
</event>
<event>
 5    1  0.2295636E-004  0.9118800E+02  0.7818608E-02  0.1130116E+00
         25   -1    0    0    0    0  0.00000000000E+00  0.00000000000E+00  0.99999998245E-14  0.12500000000E+03  0.12500000000E+03 0.  0.
        -13    1    3    3    0    0 -0.17293658837E+02 -0.16434714338E+02 -0.29642737331E+02  0.38050933127E+02  0.10566000000E+00 0.  1.
         23    2    1    0    0    0 -0.84402136673E+01  0.21954501983E+02  0.14618641975E+02  0.97306281267E+02  0.93282207933E+02 0.  0.
         13    1    3    3    0    0  0.88534451694E+01  0.38389216321E+02  0.44261379306E+02  0.59255348140E+02  0.10566000000E+00 0. -1.
         22    1    1    0    0    0  0.84402136673E+01 -0.21954501983E+02 -0.14618641975E+02  0.27693718733E+02  0.00000000000E+00 0. -1.
</event>
<event>
 5    1  0.2295636E-004  0.9118800E+02  0.7818608E-02  0.1130116E+00
         25   -1    0    0    0    0  0.00000000000E+00  0.00000000000E+00  0.99999998245E-14  0.12500000000E+03  0.12500000000E+03 0.  0.
        -13    1    3    3    0    0 -0.20198798123E+02 -0.30490214041E+02  0.64942100108E+00  0.36579741792E+02  0.10566000000E+00 0.  1.
         23    2    1    0    0    0  0.28752868614E+02  0.67836957580E-01  0.89633447018E+01  0.94882337348E+02  0.89975465194E+02 0.  0.
         13    1    3    3    0    0  0.48951666737E+02  0.30558050999E+02  0.83139237007E+01  0.58302595556E+02  0.10566000000E+00 0. -1.
         22    1    1    0    0    0 -0.28752868614E+02 -0.67836957580E-01 -0.89633447018E+01  0.30117662652E+02  0.00000000000E+00 0. -1.
</event>
<event>
 5    1  0.2295636E-004  0.9118800E+02  0.7818608E-02  0.1130116E+00
         25   -1    0    0    0    0  0.00000000000E+00  0.00000000000E+00  0.99999998245E-14  0.12500000000E+03  0.12500000000E+03 0.  0.
        -13    1    3    3    0    0 -0.94422278428E+01  0.34923512001E+02 -0.24974904727E+02  0.43960941610E+02  0.10566000000E+00 0.  1.
         23    2    1    0    0    0  0.22239767554E+02  0.13986017579E+02  0.11229244425E+02  0.96428827834E+02  0.92098897705E+02 0.  0.
         13    1    3    3    0    0  0.31681995397E+02 -0.20937494422E+02  0.36204149151E+02  0.52467886224E+02  0.10566000000E+00 0. -1.
         22    1    1    0    0    0 -0.22239767554E+02 -0.13986017579E+02 -0.11229244425E+02  0.28571172166E+02  0.00000000000E+00 0. -1.
</event>
<event>
 5    1  0.2295636E-004  0.9118800E+02  0.7818608E-02  0.1130116E+00
         25   -1    0    0    0    0  0.00000000000E+00  0.00000000000E+00  0.99999998245E-14  0.12500000000E+03  0.12500000000E+03 0.  0.
        -13    1    3    3    0    0  0.14868821805E+02  0.51202907549E+02  0.21775045479E+02  0.57593258052E+02  0.10566000000E+00 0.  1.
         23    2    1    0    0    0  0.20478253180E+02  0.18198188566E+02 -0.13513419188E+00  0.97603810820E+02  0.93680055001E+02 0.  0.
         13    1    3    3    0    0  0.56094313745E+01 -0.33004718984E+02 -0.21910179671E+02  0.40010552768E+02  0.10566000000E+00 0. -1.
         22    1    1    0    0    0 -0.20478253180E+02 -0.18198188566E+02  0.13513419188E+00  0.27396189180E+02  0.00000000000E+00 0.  1.
</event>
<event>
 5    1  0.2295636E-004  0.9118800E+02  0.7818608E-02  0.1130116E+00
         25   -1    0    0    0    0  0.00000000000E+00  0.00000000000E+00  0.99999998245E-14  0.12500000000E+03  0.12500000000E+03 0.  0.
        -13    1    3    3    0    0  0.26234858922E+02 -0.31794926344E+02 -0.22975060913E+02  0.47191627985E+02  0.10566000000E+00 0.  1.
         23    2    1    0    0    0  0.17365397606E+02  0.16174020742E+02  0.35696441583E+00  0.10126640768E+03  0.98445933989E+02 0.  0.
         13    1    3    3    0    0 -0.88694613157E+01  0.47968947087E+02  0.23332025329E+02  0.54074779691E+02  0.10566000000E+00 0. -1.
         22    1    1    0    0    0 -0.17365397606E+02 -0.16174020742E+02 -0.35696441583E+00  0.23733592324E+02  0.00000000000E+00 0. -1.
</event>
<event>
 5    1  0.2295636E-004  0.9118800E+02  0.7818608E-02  0.1130116E+00
         25   -1    0    0    0    0  0.00000000000E+00  0.00000000000E+00  0.99999998245E-14  0.12500000000E+03  0.12500000000E+03 0.  0.
        -13    1    3    3    0    0  0.47497575896E+02  0.24693065364E+02 -0.14132046365E+02  0.55366895267E+02  0.10566000000E+00 0.  1.
         23    2    1    0    0    0  0.10506349713E+02  0.28401742321E+02 -0.11395029450E+02  0.92644335159E+02  0.86810620259E+02 0.  0.
         13    1    3    3    0    0 -0.36991226182E+02  0.37086769563E+01  0.27370169154E+01  0.37277439891E+02  0.10566000000E+00 0. -1.
         22    1    1    0    0    0 -0.10506349713E+02 -0.28401742321E+02  0.11395029450E+02  0.32355664841E+02  0.00000000000E+00 0.  1.
</event>
<event>
 5    1  0.2295636E-004  0.9118800E+02  0.7818608E-02  0.1130116E+00
         25   -1    0    0    0    0  0.00000000000E+00  0.00000000000E+00  0.99999998245E-14  0.12500000000E+03  0.12500000000E+03 0.  0.
        -13    1    3    3    0    0 -0.39817386616E+02 -0.46200024308E+02  0.13576180097E+02  0.62483520652E+02  0.10566000000E+00 0.  1.
         23    2    1    0    0    0 -0.18702475788E+02 -0.20235102987E+02  0.64589981319E+01  0.96698751787E+02  0.92464522639E+02 0.  0.
         13    1    3    3    0    0  0.21114910828E+02  0.25964921321E+02 -0.71171819650E+01  0.34215231135E+02  0.10566000000E+00 0. -1.
         22    1    1    0    0    0  0.18702475788E+02  0.20235102987E+02 -0.64589981319E+01  0.28301248213E+02  0.00000000000E+00 0.  1.
</event>
<event>
 5    1  0.2295636E-004  0.9118800E+02  0.7818608E-02  0.1130116E+00
         25   -1    0    0    0    0  0.00000000000E+00  0.00000000000E+00  0.99999998245E-14  0.12500000000E+03  0.12500000000E+03 0.  0.
        -13    1    3    3    0    0 -0.75446827339E+01  0.25237954383E+02 -0.55379381187E+02  0.61325065052E+02  0.10566000000E+00 0.  1.
         23    2    1    0    0    0  0.26121091496E+01  0.64140609454E+01 -0.28469549951E+02  0.95700195113E+02  0.91104603496E+02 0.  0.
         13    1    3    3    0    0  0.10156791883E+02 -0.18823893437E+02  0.26909831236E+02  0.34375130061E+02  0.10566000000E+00 0. -1.
         22    1    1    0    0    0 -0.26121091496E+01 -0.64140609454E+01  0.28469549951E+02  0.29299804887E+02  0.00000000000E+00 0.  1.
</event>
<event>
 5    1  0.2295636E-004  0.9118800E+02  0.7818608E-02  0.1130116E+00
         25   -1    0    0    0    0  0.00000000000E+00  0.00000000000E+00  0.99999998245E-14  0.12500000000E+03  0.12500000000E+03 0.  0.
        -13    1    3    3    0    0  0.56980726358E+01  0.36790945326E+02  0.89396822974E+01  0.38287997772E+02  0.10566000000E+00 0.  1.
         23    2    1    0    0    0 -0.12532400246E+02 -0.16355344128E+02  0.20810573809E+02  0.95714537399E+02  0.91124279694E+02 0.  0.
         13    1    3    3    0    0 -0.18230472882E+02 -0.53146289454E+02  0.11870891512E+02  0.57426539627E+02  0.10566000000E+00 0. -1.
         22    1    1    0    0    0  0.12532400246E+02  0.16355344128E+02 -0.20810573809E+02  0.29285462601E+02  0.00000000000E+00 0. -1.
</event>
<event>
 5    1  0.2295636E-004  0.9118800E+02  0.7818608E-02  0.1130116E+00
         25   -1    0    0    0    0  0.00000000000E+00  0.00000000000E+00  0.99999998245E-14  0.12500000000E+03  0.12500000000E+03 0.  0.
        -13    1    3    3    0    0  0.27711386862E+02  0.43363032875E+02 -0.27215338594E+02  0.58214769610E+02  0.10566000000E+00 0.  1.
         23    2    1    0    0    0  0.25905050102E+02  0.11171122752E+02 -0.83138085291E+01  0.95589372387E+02  0.90952422160E+02 0.  0.
         13    1    3    3    0    0 -0.18063367601E+01 -0.32191910123E+02  0.18901530065E+02  0.37374602777E+02  0.10566000000E+00 0. -1.
         22    1    1    0    0    0 -0.25905050102E+02 -0.11171122752E+02  0.83138085291E+01  0.29410627613E+02  0.00000000000E+00 0.  1.
</event>
<event>
 5    1  0.2295636E-004  0.9118800E+02  0.7818608E-02  0.1130116E+00
         25   -1    0    0    0    0  0.00000000000E+00  0.00000000000E+00  0.99999998245E-14  0.12500000000E+03  0.12500000000E+03 0.  0.
        -13    1    3    3    0    0  0.23634806071E+02  0.56162687053E+02 -0.13147471519E+02  0.62335532776E+02  0.10566000000E+00 0. -1.
         23    2    1    0    0    0  0.14035706685E+02  0.25159782021E+02 -0.57983127354E+01  0.95612313394E+02  0.90983945553E+02 0.  0.
         13    1    3    3    0    0 -0.95990993859E+01 -0.31002905032E+02  0.73491587833E+01  0.33276780618E+02  0.10566000000E+00 0.  1.
         22    1    1    0    0    0 -0.14035706685E+02 -0.25159782021E+02  0.57983127354E+01  0.29387686606E+02  0.00000000000E+00 0. -1.
</event>
<event>
 5    1  0.2295636E-004  0.9118800E+02  0.7818608E-02  0.1130116E+00
         25   -1    0    0    0    0  0.00000000000E+00  0.00000000000E+00  0.99999998245E-14  0.12500000000E+03  0.12500000000E+03 0.  0.
        -13    1    3    3    0    0  0.14229565827E+02 -0.42885722242E+02  0.29732051435E+02  0.54089479221E+02  0.10566000000E+00 0.  1.
         23    2    1    0    0    0 -0.10692867454E+02 -0.10410138834E+02  0.25774498021E+02  0.95216898194E+02  0.90439065390E+02 0.  0.
         13    1    3    3    0    0 -0.24922433281E+02  0.32475583408E+02 -0.39575534139E+01  0.41127418973E+02  0.10566000000E+00 0. -1.
         22    1    1    0    0    0  0.10692867454E+02  0.10410138834E+02 -0.25774498021E+02  0.29783101806E+02  0.00000000000E+00 0.  1.
</event>
<event>
 5    1  0.2295636E-004  0.9118800E+02  0.7818608E-02  0.1130116E+00
         25   -1    0    0    0    0  0.00000000000E+00  0.00000000000E+00  0.99999998245E-14  0.12500000000E+03  0.12500000000E+03 0.  0.
        -13    1    3    3    0    0 -0.68746647276E+01  0.31024953394E+02 -0.92359577981E+00  0.31791082734E+02  0.10566000000E+00 0. -1.
         23    2    1    0    0    0 -0.33594238630E+01 -0.28464226293E+02  0.13819246324E+02  0.93180674487E+02  0.87579498866E+02 0.  0.
         13    1    3    3    0    0  0.35152408646E+01 -0.59489179687E+02  0.14742842104E+02  0.61389591752E+02  0.10566000000E+00 0.  1.
         22    1    1    0    0    0  0.33594238630E+01  0.28464226293E+02 -0.13819246324E+02  0.31819325513E+02  0.00000000000E+00 0.  1.
</event>
<event>
 5    1  0.2295636E-004  0.9118800E+02  0.7818608E-02  0.1130116E+00
         25   -1    0    0    0    0  0.00000000000E+00  0.00000000000E+00  0.99999998245E-14  0.12500000000E+03  0.12500000000E+03 0.  0.
        -13    1    3    3    0    0 -0.18335340532E+02 -0.29203139633E+02 -0.53330736872E+01  0.34892132578E+02  0.10566000000E+00 0.  1.
         23    2    1    0    0    0  0.22027916131E+02  0.17415025301E+02  0.11495921677E+01  0.96896018833E+02  0.92730818546E+02 0.  0.
         13    1    3    3    0    0  0.40363256662E+02  0.46618164933E+02  0.64826658549E+01  0.62003886255E+02  0.10566000000E+00 0. -1.
         22    1    1    0    0    0 -0.22027916131E+02 -0.17415025301E+02 -0.11495921677E+01  0.28103981167E+02  0.00000000000E+00 0. -1.
</event>
<event>
 5    1  0.2295636E-004  0.9118800E+02  0.7818608E-02  0.1130116E+00
         25   -1    0    0    0    0  0.00000000000E+00  0.00000000000E+00  0.99999998245E-14  0.12500000000E+03  0.12500000000E+03 0.  0.
        -13    1    3    3    0    0 -0.19526303633E+02 -0.36139365759E+02  0.11592207780E+02  0.42681620591E+02  0.10566000000E+00 0. -1.
         23    2    1    0    0    0  0.24712014717E+02 -0.44683965239E+01  0.12175244737E+02  0.97091456088E+02  0.92993892391E+02 0.  0.
         13    1    3    3    0    0  0.44238318350E+02  0.31670969235E+02  0.58303695722E+00  0.54409835497E+02  0.10566000000E+00 0.  1.
         22    1    1    0    0    0 -0.24712014717E+02  0.44683965239E+01 -0.12175244737E+02  0.27908543912E+02  0.00000000000E+00 0.  1.
</event>
<event>
 5    1  0.2295636E-004  0.9118800E+02  0.7818608E-02  0.1130116E+00
         25   -1    0    0    0    0  0.00000000000E+00  0.00000000000E+00  0.99999998245E-14  0.12500000000E+03  0.12500000000E+03 0.  0.
        -13    1    3    3    0    0 -0.65782639155E+01  0.26652099512E+02  0.27614846848E+02  0.38938398722E+02  0.10566000000E+00 0.  1.
         23    2    1    0    0    0  0.25751072774E+02  0.34119846916E+01 -0.13118736360E+02  0.95899130043E+02  0.91377144357E+02 0.  0.
         13    1    3    3    0    0  0.32329336689E+02 -0.23240114821E+02 -0.40733583208E+02  0.56960731321E+02  0.10566000000E+00 0. -1.
         22    1    1    0    0    0 -0.25751072774E+02 -0.34119846916E+01  0.13118736360E+02  0.29100869957E+02  0.00000000000E+00 0. -1.
</event>
<event>
 5    1  0.2295636E-004  0.9118800E+02  0.7818608E-02  0.1130116E+00
         25   -1    0    0    0    0  0.00000000000E+00  0.00000000000E+00  0.99999998245E-14  0.12500000000E+03  0.12500000000E+03 0.  0.
        -13    1    3    3    0    0  0.21336867603E+02  0.34568561145E+02 -0.11917242449E+02  0.42335318238E+02  0.10566000000E+00 0.  1.
         23    2    1    0    0    0  0.24593365570E+02 -0.17127246015E+02 -0.55037101363E+01  0.94529243341E+02  0.89483578578E+02 0.  0.
         13    1    3    3    0    0  0.32564979678E+01 -0.51695807159E+02  0.64135323129E+01  0.52193925103E+02  0.10566000000E+00 0. -1.
         22    1    1    0    0    0 -0.24593365570E+02  0.17127246015E+02  0.55037101363E+01  0.30470756659E+02  0.00000000000E+00 0. -1.
</event>
<event>
 5    1  0.2295636E-004  0.9118800E+02  0.7818608E-02  0.1130116E+00
         25   -1    0    0    0    0  0.00000000000E+00  0.00000000000E+00  0.99999998245E-14  0.12500000000E+03  0.12500000000E+03 0.  0.
        -13    1    3    3    0    0 -0.32269602381E+02  0.26483132302E+02 -0.12325586856E+02  0.43527173005E+02  0.10566000000E+00 0.  1.
         23    2    1    0    0    0  0.12074208683E+02  0.74060883929E+01 -0.27447027541E+02  0.94113498394E+02  0.88900925746E+02 0.  0.
         13    1    3    3    0    0  0.44343811064E+02 -0.19077043909E+02 -0.15121440685E+02  0.50586325390E+02  0.10566000000E+00 0. -1.
         22    1    1    0    0    0 -0.12074208683E+02 -0.74060883929E+01  0.27447027541E+02  0.30886501606E+02  0.00000000000E+00 0. -1.
</event>
<event>
 5    1  0.2295636E-004  0.9118800E+02  0.7818608E-02  0.1130116E+00
         25   -1    0    0    0    0  0.00000000000E+00  0.00000000000E+00  0.99999998245E-14  0.12500000000E+03  0.12500000000E+03 0.  0.
        -13    1    3    3    0    0  0.15856494044E+02 -0.12799911164E+02 -0.21333232065E+02  0.29502272515E+02  0.10566000000E+00 0.  1.
         23    2    1    0    0    0 -0.33146648361E+02  0.80750210565E+01  0.74990840104E+01  0.90069461447E+02  0.83020270788E+02 0.  0.
         13    1    3    3    0    0 -0.49003142405E+02  0.20874932221E+02  0.28832316075E+02  0.60567188932E+02  0.10566000000E+00 0. -1.
         22    1    1    0    0    0  0.33146648361E+02 -0.80750210565E+01 -0.74990840104E+01  0.34930538553E+02  0.00000000000E+00 0. -1.
</event>
<event>
 5    1  0.2295636E-004  0.9118800E+02  0.7818608E-02  0.1130116E+00
         25   -1    0    0    0    0  0.00000000000E+00  0.00000000000E+00  0.99999998245E-14  0.12500000000E+03  0.12500000000E+03 0.  0.
        -13    1    3    3    0    0  0.30752747015E+02  0.52233967573E+01  0.40810482360E+02  0.51366545116E+02  0.10566000000E+00 0.  1.
         23    2    1    0    0    0 -0.81470040725E+01 -0.89346602239E+01  0.27678276276E+02  0.94795880971E+02  0.89855273873E+02 0.  0.
         13    1    3    3    0    0 -0.38899751088E+02 -0.14158056981E+02 -0.13132206084E+02  0.43429335855E+02  0.10566000000E+00 0. -1.
         22    1    1    0    0    0  0.81470040725E+01  0.89346602239E+01 -0.27678276276E+02  0.30204119029E+02  0.00000000000E+00 0. -1.
</event>
<event>
 5    1  0.2295636E-004  0.9118800E+02  0.7818608E-02  0.1130116E+00
         25   -1    0    0    0    0  0.00000000000E+00  0.00000000000E+00  0.99999998245E-14  0.12500000000E+03  0.12500000000E+03 0.  0.
        -13    1    3    3    0    0  0.46407972913E+02  0.20129699879E+02  0.27190712100E+02  0.57430399229E+02  0.10566000000E+00 0. -1.
         23    2    1    0    0    0  0.28633908202E+02  0.49396040025E+01 -0.31923162816E+01  0.95768317361E+02  0.91198022678E+02 0.  0.
         13    1    3    3    0    0 -0.17774064710E+02 -0.15190095876E+02 -0.30383028382E+02  0.38337918132E+02  0.10566000000E+00 0.  1.
         22    1    1    0    0    0 -0.28633908202E+02 -0.49396040025E+01  0.31923162816E+01  0.29231682639E+02  0.00000000000E+00 0. -1.
</event>
<event>
 5    1  0.2295636E-004  0.9118800E+02  0.7818608E-02  0.1130116E+00
         25   -1    0    0    0    0  0.00000000000E+00  0.00000000000E+00  0.99999998245E-14  0.12500000000E+03  0.12500000000E+03 0.  0.
        -13    1    3    3    0    0 -0.81677825330E+01 -0.10698404095E+02  0.49692041739E+02  0.51482800020E+02  0.10566000000E+00 0. -1.
         23    2    1    0    0    0 -0.23581620375E+02  0.10391605424E+02  0.14122324711E+02  0.95614317465E+02  0.90986698843E+02 0.  0.
         13    1    3    3    0    0 -0.15413837842E+02  0.21090009519E+02 -0.35569717028E+02  0.44131517445E+02  0.10566000000E+00 0.  1.
         22    1    1    0    0    0  0.23581620375E+02 -0.10391605424E+02 -0.14122324711E+02  0.29385682535E+02  0.00000000000E+00 0. -1.
</event>
<event>
 5    1  0.2295636E-004  0.9118800E+02  0.7818608E-02  0.1130116E+00
         25   -1    0    0    0    0  0.00000000000E+00  0.00000000000E+00  0.99999998245E-14  0.12500000000E+03  0.12500000000E+03 0.  0.
        -13    1    3    3    0    0 -0.69786590530E+01 -0.50916802562E+02 -0.25043836821E+02  0.57170161728E+02  0.10566000000E+00 0.  1.
         23    2    1    0    0    0  0.14483436788E+02 -0.20624072267E+02 -0.15165630880E+02  0.95587100482E+02  0.90949299725E+02 0.  0.
         13    1    3    3    0    0  0.21462095841E+02  0.30292730294E+02  0.98782059413E+01  0.38416938754E+02  0.10566000000E+00 0. -1.
         22    1    1    0    0    0 -0.14483436788E+02  0.20624072267E+02  0.15165630880E+02  0.29412899518E+02  0.00000000000E+00 0.  1.
</event>
<event>
 5    1  0.2295636E-004  0.9118800E+02  0.7818608E-02  0.1130116E+00
         25   -1    0    0    0    0  0.00000000000E+00  0.00000000000E+00  0.99999998245E-14  0.12500000000E+03  0.12500000000E+03 0.  0.
        -13    1    3    3    0    0  0.84101058526E+01 -0.14953752628E+02 -0.53289564270E+02  0.55983331646E+02  0.10566000000E+00 0.  1.
         23    2    1    0    0    0 -0.85820863210E+01  0.93480503918E+01 -0.24985556339E+02  0.96976504905E+02  0.92839249385E+02 0.  0.
         13    1    3    3    0    0 -0.16992192174E+02  0.24301803020E+02  0.28304007931E+02  0.40993173259E+02  0.10566000000E+00 0. -1.
         22    1    1    0    0    0  0.85820863210E+01 -0.93480503918E+01  0.24985556339E+02  0.28023495095E+02  0.00000000000E+00 0.  1.
</event>
<event>
 5    1  0.2295636E-004  0.9118800E+02  0.7818608E-02  0.1130116E+00
         25   -1    0    0    0    0  0.00000000000E+00  0.00000000000E+00  0.99999998245E-14  0.12500000000E+03  0.12500000000E+03 0.  0.
        -13    1    3    3    0    0 -0.25794950118E+02 -0.28696511882E+02  0.11938705303E+02  0.40390755058E+02  0.10566000000E+00 0.  1.
         23    2    1    0    0    0 -0.15833055431E+02  0.24651282923E+02  0.14422593933E+01  0.95666546296E+02  0.91058423960E+02 0.  0.
         13    1    3    3    0    0  0.99618946879E+01  0.53347794805E+02 -0.10496445910E+02  0.55275791239E+02  0.10566000000E+00 0. -1.
         22    1    1    0    0    0  0.15833055431E+02 -0.24651282923E+02 -0.14422593933E+01  0.29333453704E+02  0.00000000000E+00 0. -1.
</event>
<event>
 5    1  0.2295636E-004  0.9118800E+02  0.7818608E-02  0.1130116E+00
         25   -1    0    0    0    0  0.00000000000E+00  0.00000000000E+00  0.99999998245E-14  0.12500000000E+03  0.12500000000E+03 0.  0.
        -13    1    3    3    0    0  0.10937760730E+02  0.21121142705E+02  0.22710163628E+02  0.32886166925E+02  0.10566000000E+00 0. -1.
         23    2    1    0    0    0 -0.18791405082E+01 -0.20261509144E+02 -0.21924354959E+02  0.95087840897E+02  0.90260513095E+02 0.  0.
         13    1    3    3    0    0 -0.12816901239E+02 -0.41382651849E+02 -0.44634518587E+02  0.62201673972E+02  0.10566000000E+00 0.  1.
         22    1    1    0    0    0  0.18791405082E+01  0.20261509144E+02  0.21924354959E+02  0.29912159103E+02  0.00000000000E+00 0.  1.
</event>
<event>
 5    1  0.2295636E-004  0.9118800E+02  0.7818608E-02  0.1130116E+00
         25   -1    0    0    0    0  0.00000000000E+00  0.00000000000E+00  0.99999998245E-14  0.12500000000E+03  0.12500000000E+03 0.  0.
        -13    1    3    3    0    0 -0.43942191020E+01  0.28733128750E+02 -0.41607683520E+02  0.50755416865E+02  0.10566000000E+00 0. -1.
         23    2    1    0    0    0  0.24615076495E+02  0.82067891043E+01 -0.17041011007E+02  0.93957296600E+02  0.88681024746E+02 0.  0.
         13    1    3    3    0    0  0.29009295597E+02 -0.20526339645E+02  0.24566672513E+02  0.43201879735E+02  0.10566000000E+00 0.  1.
         22    1    1    0    0    0 -0.24615076495E+02 -0.82067891043E+01  0.17041011007E+02  0.31042703400E+02  0.00000000000E+00 0.  1.
</event>
<event>
 5    1  0.2295636E-004  0.9118800E+02  0.7818608E-02  0.1130116E+00
         25   -1    0    0    0    0  0.00000000000E+00  0.00000000000E+00  0.99999998245E-14  0.12500000000E+03  0.12500000000E+03 0.  0.
        -13    1    3    3    0    0  0.34926070981E+02  0.94250821404E+01 -0.46312149895E+02  0.58766393453E+02  0.10566000000E+00 0.  1.
         23    2    1    0    0    0  0.31669490052E+01 -0.93649128416E+00 -0.27888381006E+02  0.96916759855E+02  0.92758772974E+02 0.  0.
         13    1    3    3    0    0 -0.31759121976E+02 -0.10361573425E+02  0.18423768889E+02  0.38150366402E+02  0.10566000000E+00 0. -1.
         22    1    1    0    0    0 -0.31669490052E+01  0.93649128416E+00  0.27888381006E+02  0.28083240145E+02  0.00000000000E+00 0.  1.
</event>
<event>
 5    1  0.2295636E-004  0.9118800E+02  0.7818608E-02  0.1130116E+00
         25   -1    0    0    0    0  0.00000000000E+00  0.00000000000E+00  0.99999998245E-14  0.12500000000E+03  0.12500000000E+03 0.  0.
        -13    1    3    3    0    0 -0.29905203651E+02  0.37958659544E+02 -0.92199556026E+01  0.49195526068E+02  0.10566000000E+00 0.  1.
         23    2    1    0    0    0  0.10385451878E+02  0.21969523851E+02 -0.19613612172E+02  0.93771625540E+02  0.88418925492E+02 0.  0.
         13    1    3    3    0    0  0.40290655530E+02 -0.15989135693E+02 -0.10393656569E+02  0.44576099472E+02  0.10566000000E+00 0. -1.
         22    1    1    0    0    0 -0.10385451878E+02 -0.21969523851E+02  0.19613612172E+02  0.31228374460E+02  0.00000000000E+00 0.  1.
</event>
<event>
 5    1  0.2295636E-004  0.9118800E+02  0.7818608E-02  0.1130116E+00
         25   -1    0    0    0    0  0.00000000000E+00  0.00000000000E+00  0.99999998245E-14  0.12500000000E+03  0.12500000000E+03 0.  0.
        -13    1    3    3    0    0 -0.17273579817E+02  0.17199186525E+02  0.31738562917E+02  0.40019196854E+02  0.10566000000E+00 0. -1.
         23    2    1    0    0    0 -0.14469532797E+02 -0.26131071070E+02 -0.20824377231E+01  0.95057775608E+02  0.90218866664E+02 0.  0.
         13    1    3    3    0    0  0.28040470192E+01 -0.43330257595E+02 -0.33821000640E+02  0.55038578754E+02  0.10566000000E+00 0.  1.
         22    1    1    0    0    0  0.14469532797E+02  0.26131071070E+02  0.20824377231E+01  0.29942224392E+02  0.00000000000E+00 0.  1.
</event>
<event>
 5    1  0.2295636E-004  0.9118800E+02  0.7818608E-02  0.1130116E+00
         25   -1    0    0    0    0  0.00000000000E+00  0.00000000000E+00  0.99999998245E-14  0.12500000000E+03  0.12500000000E+03 0.  0.
        -13    1    3    3    0    0  0.16570269523E+02  0.11848431173E+02 -0.43670938776E+02  0.48188392906E+02  0.10566000000E+00 0.  1.
         23    2    1    0    0    0  0.38780071428E+01 -0.24336183941E+02 -0.20093983280E+02  0.93202878239E+02  0.87611183988E+02 0.  0.
         13    1    3    3    0    0 -0.12692262380E+02 -0.36184615114E+02  0.23576955495E+02  0.45014485333E+02  0.10566000000E+00 0. -1.
         22    1    1    0    0    0 -0.38780071428E+01  0.24336183941E+02  0.20093983280E+02  0.31797121761E+02  0.00000000000E+00 0.  1.
</event>
<event>
 5    1  0.2295636E-004  0.9118800E+02  0.7818608E-02  0.1130116E+00
         25   -1    0    0    0    0  0.00000000000E+00  0.00000000000E+00  0.99999998245E-14  0.12500000000E+03  0.12500000000E+03 0.  0.
        -13    1    3    3    0    0 -0.20618102202E+02 -0.10094728133E+02  0.38544097115E+02  0.44862771436E+02  0.10566000000E+00 0. -1.
         23    2    1    0    0    0 -0.18211340504E+02 -0.13376022892E+02 -0.14557907496E+02  0.98120573258E+02  0.94367066895E+02 0.  0.
         13    1    3    3    0    0  0.24067616980E+01 -0.32812947585E+01 -0.53102004611E+02  0.53257801822E+02  0.10566000000E+00 0.  1.
         22    1    1    0    0    0  0.18211340504E+02  0.13376022892E+02  0.14557907496E+02  0.26879426742E+02  0.00000000000E+00 0. -1.
</event>
<event>
 5    1  0.2295636E-004  0.9118800E+02  0.7818608E-02  0.1130116E+00
         25   -1    0    0    0    0  0.00000000000E+00  0.00000000000E+00  0.99999998245E-14  0.12500000000E+03  0.12500000000E+03 0.  0.
        -13    1    3    3    0    0  0.32029976747E+02  0.13742804247E+02 -0.27896354329E+01  0.34965372998E+02  0.10566000000E+00 0. -1.
         23    2    1    0    0    0 -0.27505813025E+02  0.56938664183E+01  0.75217951556E+01  0.95921360635E+02  0.91407549791E+02 0.  0.
         13    1    3    3    0    0 -0.59535789772E+02 -0.80489378290E+01  0.10311430588E+02  0.60955987637E+02  0.10566000000E+00 0.  1.
         22    1    1    0    0    0  0.27505813025E+02 -0.56938664183E+01 -0.75217951556E+01  0.29078639365E+02  0.00000000000E+00 0.  1.
</event>
<event>
 5    1  0.2295636E-004  0.9118800E+02  0.7818608E-02  0.1130116E+00
         25   -1    0    0    0    0  0.00000000000E+00  0.00000000000E+00  0.99999998245E-14  0.12500000000E+03  0.12500000000E+03 0.  0.
        -13    1    3    3    0    0 -0.27937422031E+02 -0.26901592786E+02 -0.20223742567E+02  0.43740212295E+02  0.10566000000E+00 0.  1.
         23    2    1    0    0    0 -0.14903288863E+01  0.18475277771E+02 -0.21925817380E+02  0.96289402014E+02  0.91909469063E+02 0.  0.
         13    1    3    3    0    0  0.26447093145E+02  0.45376870557E+02 -0.17020748133E+01  0.52549189719E+02  0.10566000000E+00 0. -1.
         22    1    1    0    0    0  0.14903288863E+01 -0.18475277771E+02  0.21925817380E+02  0.28710597986E+02  0.00000000000E+00 0. -1.
</event>
<event>
 5    1  0.2295636E-004  0.9118800E+02  0.7818608E-02  0.1130116E+00
         25   -1    0    0    0    0  0.00000000000E+00  0.00000000000E+00  0.99999998245E-14  0.12500000000E+03  0.12500000000E+03 0.  0.
        -13    1    3    3    0    0 -0.31376331652E+02 -0.10397473482E+02 -0.31823408624E+02  0.45883789547E+02  0.10566000000E+00 0.  1.
         23    2    1    0    0    0 -0.25618393584E+01  0.25919371402E+02 -0.12518096973E+02  0.96102256375E+02  0.91654591231E+02 0.  0.
         13    1    3    3    0    0  0.28814492293E+02  0.36316844885E+02  0.19305311651E+02  0.50218466827E+02  0.10566000000E+00 0. -1.
         22    1    1    0    0    0  0.25618393584E+01 -0.25919371402E+02  0.12518096973E+02  0.28897743625E+02  0.00000000000E+00 0. -1.
</event>
<event>
 5    1  0.2295636E-004  0.9118800E+02  0.7818608E-02  0.1130116E+00
         25   -1    0    0    0    0  0.00000000000E+00  0.00000000000E+00  0.99999998245E-14  0.12500000000E+03  0.12500000000E+03 0.  0.
        -13    1    3    3    0    0  0.38715262410E+02 -0.23395376758E+02  0.33035422606E+02  0.56013976005E+02  0.10566000000E+00 0.  1.
         23    2    1    0    0    0  0.86013997368E+01  0.33674374196E+01  0.26637232892E+02  0.96806633965E+02  0.92610250466E+02 0.  0.
         13    1    3    3    0    0 -0.30113862674E+02  0.26762814177E+02 -0.63981897136E+01  0.40792657960E+02  0.10566000000E+00 0. -1.
         22    1    1    0    0    0 -0.86013997368E+01 -0.33674374196E+01 -0.26637232892E+02  0.28193366035E+02  0.00000000000E+00 0.  1.
</event>
<event>
 5    1  0.2295636E-004  0.9118800E+02  0.7818608E-02  0.1130116E+00
         25   -1    0    0    0    0  0.00000000000E+00  0.00000000000E+00  0.99999998245E-14  0.12500000000E+03  0.12500000000E+03 0.  0.
        -13    1    3    3    0    0 -0.63820947624E+00  0.18076114260E+02 -0.12620037634E+02  0.22055152051E+02  0.10566000000E+00 0.  1.
         23    2    1    0    0    0 -0.32831394794E+02 -0.24988433602E+02  0.13172283726E+02  0.81689131196E+02  0.69262419818E+02 0.  0.
         13    1    3    3    0    0 -0.32193185318E+02 -0.43064547862E+02  0.25792321361E+02  0.59633979145E+02  0.10566000000E+00 0. -1.
         22    1    1    0    0    0  0.32831394794E+02  0.24988433602E+02 -0.13172283726E+02  0.43310868804E+02  0.00000000000E+00 0. -1.
</event>
<event>
 5    1  0.2295636E-004  0.9118800E+02  0.7818608E-02  0.1130116E+00
         25   -1    0    0    0    0  0.00000000000E+00  0.00000000000E+00  0.99999998245E-14  0.12500000000E+03  0.12500000000E+03 0.  0.
        -13    1    3    3    0    0 -0.52758076623E+02 -0.60777201138E+01 -0.87698574684E+00  0.53114344567E+02  0.10566000000E+00 0.  1.
         23    2    1    0    0    0 -0.12190016061E+02 -0.23724099780E+02  0.53669910621E+01  0.97792758409E+02  0.93931834871E+02 0.  0.
         13    1    3    3    0    0  0.40568060562E+02 -0.17646379666E+02  0.62439768089E+01  0.44678413842E+02  0.10566000000E+00 0. -1.
         22    1    1    0    0    0  0.12190016061E+02  0.23724099780E+02 -0.53669910621E+01  0.27207241591E+02  0.00000000000E+00 0.  1.
</event>
<event>
 5    1  0.2295636E-004  0.9118800E+02  0.7818608E-02  0.1130116E+00
         25   -1    0    0    0    0  0.00000000000E+00  0.00000000000E+00  0.99999998245E-14  0.12500000000E+03  0.12500000000E+03 0.  0.
        -13    1    3    3    0    0 -0.29738111993E+02  0.75811043359E+01  0.39545398322E+02  0.50056749199E+02  0.10566000000E+00 0.  1.
         23    2    1    0    0    0 -0.24166257423E+02  0.13822931097E+02 -0.61304594108E+01  0.96492738565E+02  0.92185598881E+02 0.  0.
         13    1    3    3    0    0  0.55718545701E+01  0.62418267611E+01 -0.45675857733E+02  0.46435989365E+02  0.10566000000E+00 0. -1.
         22    1    1    0    0    0  0.24166257423E+02 -0.13822931097E+02  0.61304594108E+01  0.28507261435E+02  0.00000000000E+00 0.  1.
</event>
<event>
 5    1  0.2295636E-004  0.9118800E+02  0.7818608E-02  0.1130116E+00
         25   -1    0    0    0    0  0.00000000000E+00  0.00000000000E+00  0.99999998245E-14  0.12500000000E+03  0.12500000000E+03 0.  0.
        -13    1    3    3    0    0  0.99876027610E+01  0.23488029623E+02  0.25332656808E+02  0.35961012353E+02  0.10566000000E+00 0.  1.
         23    2    1    0    0    0 -0.17918218502E+02  0.14794651338E+01 -0.22907429760E+02  0.95879531089E+02  0.91350329896E+02 0.  0.
         13    1    3    3    0    0 -0.27905821263E+02 -0.22008564489E+02 -0.48240086568E+02  0.59918518735E+02  0.10566000000E+00 0. -1.
         22    1    1    0    0    0  0.17918218502E+02 -0.14794651338E+01  0.22907429760E+02  0.29120468911E+02  0.00000000000E+00 0. -1.
</event>
<event>
 5    1  0.2295636E-004  0.9118800E+02  0.7818608E-02  0.1130116E+00
         25   -1    0    0    0    0  0.00000000000E+00  0.00000000000E+00  0.99999998245E-14  0.12500000000E+03  0.12500000000E+03 0.  0.
        -13    1    3    3    0    0  0.17033976437E+02  0.39823684705E+01 -0.37520790896E+02  0.41398508734E+02  0.10566000000E+00 0. -1.
         23    2    1    0    0    0  0.35861660665E+02 -0.46929849731E+01  0.47917713289E+01  0.88516525849E+02  0.80648195655E+02 0.  0.
         13    1    3    3    0    0  0.18827684229E+02 -0.86753534436E+01  0.42312562225E+02  0.47118017115E+02  0.10566000000E+00 0.  1.
         22    1    1    0    0    0 -0.35861660665E+02  0.46929849731E+01 -0.47917713289E+01  0.36483474151E+02  0.00000000000E+00 0.  1.
</event>
<event>
 5    1  0.2295636E-004  0.9118800E+02  0.7818608E-02  0.1130116E+00
         25   -1    0    0    0    0  0.00000000000E+00  0.00000000000E+00  0.99999998245E-14  0.12500000000E+03  0.12500000000E+03 0.  0.
        -13    1    3    3    0    0 -0.11926060164E+02  0.32803994399E+02  0.43289827980E+02  0.55608932107E+02  0.10566000000E+00 0. -1.
         23    2    1    0    0    0  0.51602479449E+01  0.27534400939E+02  0.69083541155E+01  0.96146980218E+02  0.91715566043E+02 0.  0.
         13    1    3    3    0    0  0.17086308109E+02 -0.52695934594E+01 -0.36381473865E+02  0.40538048111E+02  0.10566000000E+00 0.  1.
         22    1    1    0    0    0 -0.51602479449E+01 -0.27534400939E+02 -0.69083541155E+01  0.28853019782E+02  0.00000000000E+00 0. -1.
</event>
<event>
 5    1  0.2295636E-004  0.9118800E+02  0.7818608E-02  0.1130116E+00
         25   -1    0    0    0    0  0.00000000000E+00  0.00000000000E+00  0.99999998245E-14  0.12500000000E+03  0.12500000000E+03 0.  0.
        -13    1    3    3    0    0  0.40711830245E+02  0.29113814332E+01 -0.31633743124E+02  0.51639462931E+02  0.10566000000E+00 0. -1.
         23    2    1    0    0    0  0.75431570990E+01 -0.89759348762E+01 -0.35995566678E+02  0.87143066073E+02  0.78490550503E+02 0.  0.
         13    1    3    3    0    0 -0.33168673146E+02 -0.11887316309E+02 -0.43618235537E+01  0.35503603142E+02  0.10566000000E+00 0.  1.
         22    1    1    0    0    0 -0.75431570990E+01  0.89759348762E+01  0.35995566678E+02  0.37856933927E+02  0.00000000000E+00 0.  1.
</event>
<event>
 5    1  0.2295636E-004  0.9118800E+02  0.7818608E-02  0.1130116E+00
         25   -1    0    0    0    0  0.00000000000E+00  0.00000000000E+00  0.99999998245E-14  0.12500000000E+03  0.12500000000E+03 0.  0.
        -13    1    3    3    0    0  0.83921216558E+01  0.48800659981E+02  0.20129853472E+02  0.53452355283E+02  0.10566000000E+00 0. -1.
         23    2    1    0    0    0  0.14207594696E+02  0.22233023796E+02 -0.12394135179E+02  0.95849053515E+02  0.91308616125E+02 0.  0.
         13    1    3    3    0    0  0.58154730404E+01 -0.26567636185E+02 -0.32523988651E+02  0.42396698232E+02  0.10566000000E+00 0.  1.
         22    1    1    0    0    0 -0.14207594696E+02 -0.22233023796E+02  0.12394135179E+02  0.29150946485E+02  0.00000000000E+00 0. -1.
</event>
<event>
 5    1  0.2295636E-004  0.9118800E+02  0.7818608E-02  0.1130116E+00
         25   -1    0    0    0    0  0.00000000000E+00  0.00000000000E+00  0.99999998245E-14  0.12500000000E+03  0.12500000000E+03 0.  0.
        -13    1    3    3    0    0  0.33355286467E+01  0.26055602639E+02 -0.32105625465E+02  0.41482556946E+02  0.10566000000E+00 0.  1.
         23    2    1    0    0    0 -0.75703222667E+01  0.23349291038E+02  0.19094797053E+02  0.93901600592E+02  0.88602483871E+02 0.  0.
         13    1    3    3    0    0 -0.10905850913E+02 -0.27063116006E+01  0.51200422519E+02  0.52419043646E+02  0.10566000000E+00 0. -1.
         22    1    1    0    0    0  0.75703222667E+01 -0.23349291038E+02 -0.19094797053E+02  0.31098399408E+02  0.00000000000E+00 0. -1.
</event>
<event>
 5    1  0.2295636E-004  0.9118800E+02  0.7818608E-02  0.1130116E+00
         25   -1    0    0    0    0  0.00000000000E+00  0.00000000000E+00  0.99999998245E-14  0.12500000000E+03  0.12500000000E+03 0.  0.
        -13    1    3    3    0    0 -0.53053223157E+02 -0.22708846064E+02  0.34985112862E+01  0.57815109808E+02  0.10566000000E+00 0.  1.
         23    2    1    0    0    0 -0.15629928519E+02 -0.22659849169E+02  0.98292179620E+01  0.95770272741E+02  0.91200702768E+02 0.  0.
         13    1    3    3    0    0  0.37423294638E+02  0.48996894499E-01  0.63307066757E+01  0.37955162933E+02  0.10566000000E+00 0. -1.
         22    1    1    0    0    0  0.15629928519E+02  0.22659849169E+02 -0.98292179620E+01  0.29229727259E+02  0.00000000000E+00 0.  1.
</event>
<event>
 5    1  0.2295636E-004  0.9118800E+02  0.7818608E-02  0.1130116E+00
         25   -1    0    0    0    0  0.00000000000E+00  0.00000000000E+00  0.99999998245E-14  0.12500000000E+03  0.12500000000E+03 0.  0.
        -13    1    3    3    0    0 -0.52683221436E+02  0.90990134003E+01 -0.88901736302E+01  0.54197418914E+02  0.10566000000E+00 0. -1.
         23    2    1    0    0    0 -0.26567328192E+02 -0.17564365896E+02 -0.10243451561E+02  0.91544683883E+02  0.85212504779E+02 0.  0.
         13    1    3    3    0    0  0.26115893244E+02 -0.26663379297E+02 -0.13532779312E+01  0.37347264969E+02  0.10566000000E+00 0.  1.
         22    1    1    0    0    0  0.26567328192E+02  0.17564365896E+02  0.10243451561E+02  0.33455316117E+02  0.00000000000E+00 0.  1.
</event>
<event>
 5    1  0.2295636E-004  0.9118800E+02  0.7818608E-02  0.1130116E+00
         25   -1    0    0    0    0  0.00000000000E+00  0.00000000000E+00  0.99999998245E-14  0.12500000000E+03  0.12500000000E+03 0.  0.
        -13    1    3    3    0    0 -0.38980818921E+02  0.91726830445E+01  0.22240117933E+02  0.45806946719E+02  0.10566000000E+00 0. -1.
         23    2    1    0    0    0 -0.18595011412E+02  0.15748323400E+02 -0.20201334644E+02  0.93347542580E+02  0.87817342507E+02 0.  0.
         13    1    3    3    0    0  0.20385807510E+02  0.65756403558E+01 -0.42441452577E+02  0.47540595861E+02  0.10566000000E+00 0.  1.
         22    1    1    0    0    0  0.18595011412E+02 -0.15748323400E+02  0.20201334644E+02  0.31652457420E+02  0.00000000000E+00 0. -1.
</event>
<event>
 5    1  0.2295636E-004  0.9118800E+02  0.7818608E-02  0.1130116E+00
         25   -1    0    0    0    0  0.00000000000E+00  0.00000000000E+00  0.99999998245E-14  0.12500000000E+03  0.12500000000E+03 0.  0.
        -13    1    3    3    0    0  0.35492340863E+02 -0.32887387449E+02 -0.24815890619E+02  0.54379463995E+02  0.10566000000E+00 0. -1.
         23    2    1    0    0    0  0.29349281476E+02  0.99877661944E-01 -0.80586117171E+00  0.95639487216E+02  0.91021271162E+02 0.  0.
         13    1    3    3    0    0 -0.61430593866E+01  0.32987265111E+02  0.24010029447E+02  0.41260023221E+02  0.10566000000E+00 0.  1.
         22    1    1    0    0    0 -0.29349281476E+02 -0.99877661944E-01  0.80586117171E+00  0.29360512784E+02  0.00000000000E+00 0. -1.
</event>
<event>
 4    1  0.2295636E-004  0.9118800E+02  0.7818608E-02  0.1130116E+00
         25   -1    0    0    0    0  0.00000000000E+00  0.00000000000E+00  0.99999998245E-14  0.12500000000E+03  0.12500000000E+03 0.  0.
        -13    1    1    0    0    0 -0.40509123504E+02  0.30491636690E+02 -0.23918045207E+02  0.56060797762E+02  0.10566000000E+00 0.  1.
         13    1    1    0    0    0  0.12606647913E+02  0.42609263147E+01 -0.66687885790E+01  0.14885125791E+02  0.10566000000E+00 0. -1.
         22    1    1    0    0    0  0.27902475591E+02 -0.34752563005E+02  0.30586833786E+02  0.54054076447E+02  0.00000000000E+00 0.  1.
</event>
<event>
 5    1  0.2295636E-004  0.9118800E+02  0.7818608E-02  0.1130116E+00
         25   -1    0    0    0    0  0.00000000000E+00  0.00000000000E+00  0.99999998245E-14  0.12500000000E+03  0.12500000000E+03 0.  0.
        -13    1    3    3    0    0  0.10649074304E+02  0.43018645220E+02  0.53230883903E+01  0.44635782218E+02  0.10566000000E+00 0. -1.
         23    2    1    0    0    0  0.26910283160E+02 -0.22744564712E+01 -0.11544031327E+02  0.95629927626E+02  0.91008141979E+02 0.  0.
         13    1    3    3    0    0  0.16261208856E+02 -0.45293101692E+02 -0.16867119718E+02  0.50994145408E+02  0.10566000000E+00 0.  1.
         22    1    1    0    0    0 -0.26910283160E+02  0.22744564712E+01  0.11544031327E+02  0.29370072374E+02  0.00000000000E+00 0. -1.
</event>
<event>
 5    1  0.2295636E-004  0.9118800E+02  0.7818608E-02  0.1130116E+00
         25   -1    0    0    0    0  0.00000000000E+00  0.00000000000E+00  0.99999998245E-14  0.12500000000E+03  0.12500000000E+03 0.  0.
        -13    1    3    3    0    0  0.31303656711E+01 -0.19821451425E+02 -0.43820141364E+02  0.48196525591E+02  0.10566000000E+00 0.  1.
         23    2    1    0    0    0 -0.22087097539E+02 -0.27513477100E+02 -0.16891223290E+02  0.85882935641E+02  0.76457399316E+02 0.  0.
         13    1    3    3    0    0 -0.25217463210E+02 -0.76920256754E+01  0.26928918074E+02  0.37686410050E+02  0.10566000000E+00 0. -1.
         22    1    1    0    0    0  0.22087097539E+02  0.27513477100E+02  0.16891223290E+02  0.39117064359E+02  0.00000000000E+00 0. -1.
</event>
<event>
 5    1  0.2295636E-004  0.9118800E+02  0.7818608E-02  0.1130116E+00
         25   -1    0    0    0    0  0.00000000000E+00  0.00000000000E+00  0.99999998245E-14  0.12500000000E+03  0.12500000000E+03 0.  0.
        -13    1    3    3    0    0  0.94020442173E+01  0.11163799421E+02  0.34979826451E+02  0.37902879515E+02  0.10566000000E+00 0. -1.
         23    2    1    0    0    0 -0.10627191745E+02 -0.28370532915E+02 -0.54083903917E+00  0.94699556948E+02  0.89721174965E+02 0.  0.
         13    1    3    3    0    0 -0.20029235963E+02 -0.39534332336E+02 -0.35520665490E+02  0.56796677433E+02  0.10566000000E+00 0.  1.
         22    1    1    0    0    0  0.10627191745E+02  0.28370532915E+02  0.54083903917E+00  0.30300443052E+02  0.00000000000E+00 0.  1.
</event>
<event>
 5    1  0.2295636E-004  0.9118800E+02  0.7818608E-02  0.1130116E+00
         25   -1    0    0    0    0  0.00000000000E+00  0.00000000000E+00  0.99999998245E-14  0.12500000000E+03  0.12500000000E+03 0.  0.
        -13    1    3    3    0    0 -0.28762823741E+02  0.13156408219E+02 -0.14855023895E+02  0.34943869358E+02  0.10566000000E+00 0.  1.
         23    2    1    0    0    0  0.10150272762E+02 -0.53930795675E+01  0.27387028965E+02  0.95298776121E+02  0.90552161930E+02 0.  0.
         13    1    3    3    0    0  0.38913096502E+02 -0.18549487786E+02  0.42242052860E+02  0.60354906763E+02  0.10566000000E+00 0. -1.
         22    1    1    0    0    0 -0.10150272762E+02  0.53930795675E+01 -0.27387028965E+02  0.29701223879E+02  0.00000000000E+00 0. -1.
</event>
<event>
 5    1  0.2295636E-004  0.9118800E+02  0.7818608E-02  0.1130116E+00
         25   -1    0    0    0    0  0.00000000000E+00  0.00000000000E+00  0.99999998245E-14  0.12500000000E+03  0.12500000000E+03 0.  0.
        -13    1    3    3    0    0 -0.59242898930E+02 -0.11805441430E+02 -0.13228590086E+02  0.61839277815E+02  0.10566000000E+00 0. -1.
         23    2    1    0    0    0 -0.24431751985E+02 -0.64474977062E+01 -0.11859566029E+02  0.97087099074E+02  0.92988035620E+02 0.  0.
         13    1    3    3    0    0  0.34811146945E+02  0.53579437233E+01  0.13690240573E+01  0.35247821259E+02  0.10566000000E+00 0.  1.
         22    1    1    0    0    0  0.24431751985E+02  0.64474977062E+01  0.11859566029E+02  0.27912900926E+02  0.00000000000E+00 0. -1.
</event>
<event>
 5    1  0.2295636E-004  0.9118800E+02  0.7818608E-02  0.1130116E+00
         25   -1    0    0    0    0  0.00000000000E+00  0.00000000000E+00  0.99999998245E-14  0.12500000000E+03  0.12500000000E+03 0.  0.
        -13    1    3    3    0    0  0.29893376633E+02 -0.18453495727E+02 -0.35830831013E+02  0.50179727841E+02  0.10566000000E+00 0.  1.
         23    2    1    0    0    0  0.16403788739E+02  0.19447641656E+02 -0.14533311200E+02  0.95699621412E+02  0.91103816347E+02 0.  0.
         13    1    3    3    0    0 -0.13489587894E+02  0.37901137383E+02  0.21297519813E+02  0.45519893571E+02  0.10566000000E+00 0. -1.
         22    1    1    0    0    0 -0.16403788739E+02 -0.19447641656E+02  0.14533311200E+02  0.29300378588E+02  0.00000000000E+00 0. -1.
</event>
<event>
 5    1  0.2295636E-004  0.9118800E+02  0.7818608E-02  0.1130116E+00
         25   -1    0    0    0    0  0.00000000000E+00  0.00000000000E+00  0.99999998245E-14  0.12500000000E+03  0.12500000000E+03 0.  0.
        -13    1    3    3    0    0  0.12208147362E+02 -0.30668986435E+02  0.74058399256E+01  0.33830211646E+02  0.10566000000E+00 0. -1.
         23    2    1    0    0    0 -0.16217379038E+02  0.24142295182E+02  0.36521907891E+01  0.95688017858E+02  0.91087894172E+02 0.  0.
         13    1    3    3    0    0 -0.28425526400E+02  0.54811281616E+02 -0.37536491365E+01  0.61857806213E+02  0.10566000000E+00 0.  1.
         22    1    1    0    0    0  0.16217379038E+02 -0.24142295182E+02 -0.36521907891E+01  0.29311982142E+02  0.00000000000E+00 0.  1.
</event>
<event>
 5    1  0.2295636E-004  0.9118800E+02  0.7818608E-02  0.1130116E+00
         25   -1    0    0    0    0  0.00000000000E+00  0.00000000000E+00  0.99999998245E-14  0.12500000000E+03  0.12500000000E+03 0.  0.
        -13    1    3    3    0    0 -0.26332251380E+02 -0.19042126027E+02  0.23862040381E+02  0.40316227025E+02  0.10566000000E+00 0.  1.
         23    2    1    0    0    0  0.16763143207E+02  0.14092481603E+02  0.20852418599E+02  0.94760549454E+02  0.89806109834E+02 0.  0.
         13    1    3    3    0    0  0.43095394586E+02  0.33134607631E+02 -0.30096217828E+01  0.54444322429E+02  0.10566000000E+00 0. -1.
         22    1    1    0    0    0 -0.16763143207E+02 -0.14092481603E+02 -0.20852418599E+02  0.30239450546E+02  0.00000000000E+00 0. -1.
</event>
<event>
 5    1  0.2295636E-004  0.9118800E+02  0.7818608E-02  0.1130116E+00
         25   -1    0    0    0    0  0.00000000000E+00  0.00000000000E+00  0.99999998245E-14  0.12500000000E+03  0.12500000000E+03 0.  0.
        -13    1    3    3    0    0  0.15568783585E+02  0.34139404414E+02 -0.32614242701E+02  0.49715047491E+02  0.10566000000E+00 0. -1.
         23    2    1    0    0    0  0.97314260685E+01 -0.10954787632E+02 -0.25290012990E+02  0.95771712632E+02  0.91202676266E+02 0.  0.
         13    1    3    3    0    0 -0.58373575170E+01 -0.45094192046E+02  0.73242297104E+01  0.46056665142E+02  0.10566000000E+00 0.  1.
         22    1    1    0    0    0 -0.97314260685E+01  0.10954787632E+02  0.25290012990E+02  0.29228287368E+02  0.00000000000E+00 0.  1.
</event>
<event>
 5    1  0.2295636E-004  0.9118800E+02  0.7818608E-02  0.1130116E+00
         25   -1    0    0    0    0  0.00000000000E+00  0.00000000000E+00  0.99999998245E-14  0.12500000000E+03  0.12500000000E+03 0.  0.
        -13    1    3    3    0    0  0.47261713427E+02  0.20054768105E+02 -0.19794512130E+02  0.55024514121E+02  0.10566000000E+00 0.  1.
         23    2    1    0    0    0  0.22369733288E+02 -0.25467155050E+00 -0.28934620813E+02  0.88425663280E+02  0.80507240792E+02 0.  0.
         13    1    3    3    0    0 -0.24891980139E+02 -0.20309439655E+02 -0.91401086823E+01  0.33401149159E+02  0.10566000000E+00 0. -1.
         22    1    1    0    0    0 -0.22369733288E+02  0.25467155050E+00  0.28934620813E+02  0.36574336720E+02  0.00000000000E+00 0.  1.
</event>
<event>
 5    1  0.2295636E-004  0.9118800E+02  0.7818608E-02  0.1130116E+00
         25   -1    0    0    0    0  0.00000000000E+00  0.00000000000E+00  0.99999998245E-14  0.12500000000E+03  0.12500000000E+03 0.  0.
        -13    1    3    3    0    0  0.61504584822E+01 -0.37268254914E+02  0.15204729789E+01  0.37803094661E+02  0.10566000000E+00 0. -1.
         23    2    1    0    0    0  0.26912044878E+02  0.14316189670E+02 -0.60516415269E+01  0.93922133095E+02  0.88631446304E+02 0.  0.
         13    1    3    3    0    0  0.20761586396E+02  0.51584444584E+02 -0.75721145057E+01  0.56119038434E+02  0.10566000000E+00 0.  1.
         22    1    1    0    0    0 -0.26912044878E+02 -0.14316189670E+02  0.60516415269E+01  0.31077866905E+02  0.00000000000E+00 0.  1.
</event>
<event>
 5    1  0.2295636E-004  0.9118800E+02  0.7818608E-02  0.1130116E+00
         25   -1    0    0    0    0  0.00000000000E+00  0.00000000000E+00  0.99999998245E-14  0.12500000000E+03  0.12500000000E+03 0.  0.
        -13    1    3    3    0    0 -0.18109627837E+02  0.30129415298E+02  0.32486734001E+01  0.35303049861E+02  0.10566000000E+00 0.  1.
         23    2    1    0    0    0  0.59462768887E+01 -0.16783251071E+02 -0.24368563618E+02  0.94819499372E+02  0.89888124038E+02 0.  0.
         13    1    3    3    0    0  0.24055904725E+02 -0.46912666368E+02 -0.27617237018E+02  0.59516449512E+02  0.10566000000E+00 0. -1.
         22    1    1    0    0    0 -0.59462768887E+01  0.16783251071E+02  0.24368563618E+02  0.30180500628E+02  0.00000000000E+00 0.  1.
</event>
<event>
 5    1  0.2295636E-004  0.9118800E+02  0.7818608E-02  0.1130116E+00
         25   -1    0    0    0    0  0.00000000000E+00  0.00000000000E+00  0.99999998245E-14  0.12500000000E+03  0.12500000000E+03 0.  0.
        -13    1    3    3    0    0 -0.11625009511E+02  0.22218974641E+02  0.22243492145E+02  0.33520259353E+02  0.10566000000E+00 0.  1.
         23    2    1    0    0    0  0.11405738709E+02 -0.80292939346E+01 -0.26330281600E+02  0.95203285991E+02  0.90420249379E+02 0.  0.
         13    1    3    3    0    0  0.23030748220E+02 -0.30248268575E+02 -0.48573773746E+02  0.61683026638E+02  0.10566000000E+00 0. -1.
         22    1    1    0    0    0 -0.11405738709E+02  0.80292939346E+01  0.26330281600E+02  0.29796714009E+02  0.00000000000E+00 0. -1.
</event>
<event>
 5    1  0.2295636E-004  0.9118800E+02  0.7818608E-02  0.1130116E+00
         25   -1    0    0    0    0  0.00000000000E+00  0.00000000000E+00  0.99999998245E-14  0.12500000000E+03  0.12500000000E+03 0.  0.
        -13    1    3    3    0    0  0.25209109803E+01  0.22423400143E+02  0.36517084227E+02  0.42926361022E+02  0.10566000000E+00 0.  1.
         23    2    1    0    0    0 -0.22171764977E+02  0.14035188837E+02 -0.10535991552E+02  0.96723140099E+02  0.92497486586E+02 0.  0.
         13    1    3    3    0    0 -0.24692675957E+02 -0.83882113055E+01 -0.47053075778E+02  0.53796779077E+02  0.10566000000E+00 0. -1.
         22    1    1    0    0    0  0.22171764977E+02 -0.14035188837E+02  0.10535991552E+02  0.28276859901E+02  0.00000000000E+00 0. -1.
</event>
<event>
 5    1  0.2295636E-004  0.9118800E+02  0.7818608E-02  0.1130116E+00
         25   -1    0    0    0    0  0.00000000000E+00  0.00000000000E+00  0.99999998245E-14  0.12500000000E+03  0.12500000000E+03 0.  0.
        -13    1    3    3    0    0 -0.49998349163E+02  0.12962546390E+02  0.18269637722E+02  0.54787346664E+02  0.10566000000E+00 0.  1.
         23    2    1    0    0    0 -0.22408628820E+02  0.15279485175E+02 -0.11587618751E+02  0.95506234199E+02  0.90838089752E+02 0.  0.
         13    1    3    3    0    0  0.27589720344E+02  0.23169387849E+01 -0.29857256473E+02  0.40718887535E+02  0.10566000000E+00 0. -1.
         22    1    1    0    0    0  0.22408628820E+02 -0.15279485175E+02  0.11587618751E+02  0.29493765801E+02  0.00000000000E+00 0.  1.
</event>
<event>
 5    1  0.2295636E-004  0.9118800E+02  0.7818608E-02  0.1130116E+00
         25   -1    0    0    0    0  0.00000000000E+00  0.00000000000E+00  0.99999998245E-14  0.12500000000E+03  0.12500000000E+03 0.  0.
        -13    1    3    3    0    0  0.21093746598E+02 -0.26024152368E+02  0.33549999406E+01  0.33667043836E+02  0.10566000000E+00 0. -1.
         23    2    1    0    0    0 -0.29071004084E+01  0.29210357280E+02  0.93593374643E+01  0.94189394635E+02  0.89007576412E+02 0.  0.
         13    1    3    3    0    0 -0.24000847006E+02  0.55234509648E+02  0.60043375236E+01  0.60522350799E+02  0.10566000000E+00 0.  1.
         22    1    1    0    0    0  0.29071004084E+01 -0.29210357280E+02 -0.93593374643E+01  0.30810605365E+02  0.00000000000E+00 0.  1.
</event>
<event>
 5    1  0.2295636E-004  0.9118800E+02  0.7818608E-02  0.1130116E+00
         25   -1    0    0    0    0  0.00000000000E+00  0.00000000000E+00  0.99999998245E-14  0.12500000000E+03  0.12500000000E+03 0.  0.
        -13    1    3    3    0    0 -0.74029514634E+01  0.39196614652E+02 -0.82262054548E+01  0.40729103977E+02  0.10566000000E+00 0. -1.
         23    2    1    0    0    0  0.29648073868E+02  0.22457205557E+01  0.53511947846E+01  0.94789292784E+02  0.89846108408E+02 0.  0.
         13    1    3    3    0    0  0.37051025331E+02 -0.36950894096E+02  0.13577400239E+02  0.54060188807E+02  0.10566000000E+00 0.  1.
         22    1    1    0    0    0 -0.29648073868E+02 -0.22457205557E+01 -0.53511947846E+01  0.30210707216E+02  0.00000000000E+00 0.  1.
</event>
<event>
 5    1  0.2295636E-004  0.9118800E+02  0.7818608E-02  0.1130116E+00
         25   -1    0    0    0    0  0.00000000000E+00  0.00000000000E+00  0.99999998245E-14  0.12500000000E+03  0.12500000000E+03 0.  0.
        -13    1    3    3    0    0  0.22183072265E+02 -0.99980998576E+01 -0.15168029105E+02  0.28672826279E+02  0.10566000000E+00 0.  1.
         23    2    1    0    0    0 -0.26879686116E+02  0.65048801012E+01  0.19665035590E+02  0.91065583612E+02  0.84506780219E+02 0.  0.
         13    1    3    3    0    0 -0.49062758381E+02  0.16502979959E+02  0.34833064696E+02  0.62392757333E+02  0.10566000000E+00 0. -1.
         22    1    1    0    0    0  0.26879686116E+02 -0.65048801012E+01 -0.19665035590E+02  0.33934416388E+02  0.00000000000E+00 0. -1.
</event>
<event>
 5    1  0.2295636E-004  0.9118800E+02  0.7818608E-02  0.1130116E+00
         25   -1    0    0    0    0  0.00000000000E+00  0.00000000000E+00  0.99999998245E-14  0.12500000000E+03  0.12500000000E+03 0.  0.
        -13    1    3    3    0    0  0.21637321849E+02  0.55946738548E+02  0.73727390873E+01  0.60436575818E+02  0.10566000000E+00 0. -1.
         23    2    1    0    0    0  0.27130099746E+01  0.27484238397E+02  0.11924036057E+02  0.94918005065E+02  0.90025003561E+02 0.  0.
         13    1    3    3    0    0 -0.18924311874E+02 -0.28462500151E+02  0.45512969700E+01  0.34481429247E+02  0.10566000000E+00 0.  1.
         22    1    1    0    0    0 -0.27130099746E+01 -0.27484238397E+02 -0.11924036057E+02  0.30081994935E+02  0.00000000000E+00 0. -1.
</event>
<event>
 5    1  0.2295636E-004  0.9118800E+02  0.7818608E-02  0.1130116E+00
         25   -1    0    0    0    0  0.00000000000E+00  0.00000000000E+00  0.99999998245E-14  0.12500000000E+03  0.12500000000E+03 0.  0.
        -13    1    3    3    0    0  0.24412582495E+02  0.42618849577E+02 -0.23543886694E+02  0.54467111986E+02  0.10566000000E+00 0. -1.
         23    2    1    0    0    0 -0.53235395484E+00  0.31046007036E+02  0.43611079831E+01  0.93644662074E+02  0.88239251575E+02 0.  0.
         13    1    3    3    0    0 -0.24944936450E+02 -0.11572842541E+02  0.27904994677E+02  0.39177550088E+02  0.10566000000E+00 0.  1.
         22    1    1    0    0    0  0.53235395484E+00 -0.31046007036E+02 -0.43611079831E+01  0.31355337926E+02  0.00000000000E+00 0. -1.
</event>
<event>
 5    1  0.2295636E-004  0.9118800E+02  0.7818608E-02  0.1130116E+00
         25   -1    0    0    0    0  0.00000000000E+00  0.00000000000E+00  0.99999998245E-14  0.12500000000E+03  0.12500000000E+03 0.  0.
        -13    1    3    3    0    0 -0.25411092746E+01 -0.51330460512E+02  0.71578102017E+01  0.51889486639E+02  0.10566000000E+00 0. -1.
         23    2    1    0    0    0  0.22740509105E+02 -0.11513508266E+02  0.64038987404E+00  0.99502907496E+02  0.96180699073E+02 0.  0.
         13    1    3    3    0    0  0.25281618379E+02  0.39816952246E+02 -0.65174203277E+01  0.47613420858E+02  0.10566000000E+00 0.  1.
         22    1    1    0    0    0 -0.22740509105E+02  0.11513508266E+02 -0.64038987404E+00  0.25497092504E+02  0.00000000000E+00 0. -1.
</event>
<event>
 5    1  0.2295636E-004  0.9118800E+02  0.7818608E-02  0.1130116E+00
         25   -1    0    0    0    0  0.00000000000E+00  0.00000000000E+00  0.99999998245E-14  0.12500000000E+03  0.12500000000E+03 0.  0.
        -13    1    3    3    0    0 -0.90556508327E+01  0.33976600751E+02 -0.28572113235E+02  0.45307736970E+02  0.10566000000E+00 0. -1.
         23    2    1    0    0    0  0.25077011095E+02 -0.68987769669E+00 -0.14815794170E+02  0.95865138174E+02  0.91330633106E+02 0.  0.
         13    1    3    3    0    0  0.34132661928E+02 -0.34666478448E+02  0.13756319065E+02  0.50557401204E+02  0.10566000000E+00 0.  1.
         22    1    1    0    0    0 -0.25077011095E+02  0.68987769669E+00  0.14815794170E+02  0.29134861826E+02  0.00000000000E+00 0.  1.
</event>
<event>
 5    1  0.2295636E-004  0.9118800E+02  0.7818608E-02  0.1130116E+00
         25   -1    0    0    0    0  0.00000000000E+00  0.00000000000E+00  0.99999998245E-14  0.12500000000E+03  0.12500000000E+03 0.  0.
        -13    1    3    3    0    0  0.32271638612E+02  0.98111559752E+01  0.88829784244E+01  0.34880308341E+02  0.10566000000E+00 0.  1.
         23    2    1    0    0    0 -0.28348134855E+02  0.53857396587E+00  0.31298785830E+01  0.96474521009E+02  0.92160893292E+02 0.  0.
         13    1    3    3    0    0 -0.60619773467E+02 -0.92725820094E+01 -0.57530998415E+01  0.61594212668E+02  0.10566000000E+00 0. -1.
         22    1    1    0    0    0  0.28348134855E+02 -0.53857396587E+00 -0.31298785830E+01  0.28525478991E+02  0.00000000000E+00 0. -1.
</event>
<event>
 5    1  0.2295636E-004  0.9118800E+02  0.7818608E-02  0.1130116E+00
         25   -1    0    0    0    0  0.00000000000E+00  0.00000000000E+00  0.99999998245E-14  0.12500000000E+03  0.12500000000E+03 0.  0.
        -13    1    3    3    0    0  0.49364168358E+02 -0.24932041482E+02 -0.18128447222E+02  0.58198621743E+02  0.10566000000E+00 0.  1.
         23    2    1    0    0    0  0.12182340396E+02 -0.24102876896E+02 -0.94381965629E+01  0.96391650755E+02  0.92048425780E+02 0.  0.
         13    1    3    3    0    0 -0.37181827962E+02  0.82916458619E+00  0.86902506594E+01  0.38193029011E+02  0.10566000000E+00 0. -1.
         22    1    1    0    0    0 -0.12182340396E+02  0.24102876896E+02  0.94381965629E+01  0.28608349245E+02  0.00000000000E+00 0.  1.
</event>
<event>
 5    1  0.2295636E-004  0.9118800E+02  0.7818608E-02  0.1130116E+00
         25   -1    0    0    0    0  0.00000000000E+00  0.00000000000E+00  0.99999998245E-14  0.12500000000E+03  0.12500000000E+03 0.  0.
        -13    1    3    3    0    0 -0.37058988028E+02 -0.38786901219E+00  0.75673959257E+01  0.37825859953E+02  0.10566000000E+00 0.  1.
         23    2    1    0    0    0  0.14774997179E+02 -0.25298575501E+02  0.13242654928E+01  0.95673013399E+02  0.91067301210E+02 0.  0.
         13    1    3    3    0    0  0.51833985207E+02 -0.24910706489E+02 -0.62431304329E+01  0.57847153446E+02  0.10566000000E+00 0. -1.
         22    1    1    0    0    0 -0.14774997179E+02  0.25298575501E+02 -0.13242654928E+01  0.29326986601E+02  0.00000000000E+00 0. -1.
</event>
<event>
 5    1  0.2295636E-004  0.9118800E+02  0.7818608E-02  0.1130116E+00
         25   -1    0    0    0    0  0.00000000000E+00  0.00000000000E+00  0.99999998245E-14  0.12500000000E+03  0.12500000000E+03 0.  0.
        -13    1    3    3    0    0  0.81660805613E+01 -0.23481205267E+02  0.25222070979E+02  0.35414910716E+02  0.10566000000E+00 0.  1.
         23    2    1    0    0    0 -0.83591093933E+00  0.10319801103E+02 -0.25756609541E+02  0.97240317420E+02  0.93193773156E+02 0.  0.
         13    1    3    3    0    0 -0.90019915007E+01  0.33801006369E+02 -0.50978680520E+02  0.61825406704E+02  0.10566000000E+00 0. -1.
         22    1    1    0    0    0  0.83591093933E+00 -0.10319801103E+02  0.25756609541E+02  0.27759682580E+02  0.00000000000E+00 0. -1.
</event>
<event>
 5    1  0.2295636E-004  0.9118800E+02  0.7818608E-02  0.1130116E+00
         25   -1    0    0    0    0  0.00000000000E+00  0.00000000000E+00  0.99999998245E-14  0.12500000000E+03  0.12500000000E+03 0.  0.
        -13    1    3    3    0    0 -0.18600061016E+02 -0.25636223579E+02 -0.16975353256E+02  0.35935386618E+02  0.10566000000E+00 0. -1.
         23    2    1    0    0    0 -0.42409515135E+01  0.15625030264E+02  0.24143320077E+02  0.95930649391E+02  0.91420251300E+02 0.  0.
         13    1    3    3    0    0  0.14359109502E+02  0.41261253843E+02  0.41118673333E+02  0.59995262773E+02  0.10566000000E+00 0.  1.
         22    1    1    0    0    0  0.42409515135E+01 -0.15625030264E+02 -0.24143320077E+02  0.29069350609E+02  0.00000000000E+00 0.  1.
</event>
<event>
 5    1  0.2295636E-004  0.9118800E+02  0.7818608E-02  0.1130116E+00
         25   -1    0    0    0    0  0.00000000000E+00  0.00000000000E+00  0.99999998245E-14  0.12500000000E+03  0.12500000000E+03 0.  0.
        -13    1    3    3    0    0 -0.50614834323E+02 -0.29141247967E+02  0.10252060805E+02  0.59297467917E+02  0.10566000000E+00 0.  1.
         23    2    1    0    0    0 -0.14525882204E+02 -0.23932862596E+02  0.82421253146E+01  0.95815829709E+02  0.91263121946E+02 0.  0.
         13    1    3    3    0    0  0.36088952120E+02  0.52083853705E+01 -0.20099354905E+01  0.36518361792E+02  0.10566000000E+00 0. -1.
         22    1    1    0    0    0  0.14525882204E+02  0.23932862596E+02 -0.82421253146E+01  0.29184170291E+02  0.00000000000E+00 0.  1.
</event>
<event>
 5    1  0.2295636E-004  0.9118800E+02  0.7818608E-02  0.1130116E+00
         25   -1    0    0    0    0  0.00000000000E+00  0.00000000000E+00  0.99999998245E-14  0.12500000000E+03  0.12500000000E+03 0.  0.
        -13    1    3    3    0    0 -0.69994971186E+01  0.58378809876E+02 -0.94788620199E+01  0.59556178451E+02  0.10566000000E+00 0.  1.
         23    2    1    0    0    0  0.73006897971E+01  0.23716280200E+02 -0.12576224137E+02  0.97180520645E+02  0.93113533716E+02 0.  0.
         13    1    3    3    0    0  0.14300186916E+02 -0.34662529676E+02 -0.30973621170E+01  0.37624342193E+02  0.10566000000E+00 0. -1.
         22    1    1    0    0    0 -0.73006897971E+01 -0.23716280200E+02  0.12576224137E+02  0.27819479355E+02  0.00000000000E+00 0.  1.
</event>
<event>
 5    1  0.2295636E-004  0.9118800E+02  0.7818608E-02  0.1130116E+00
         25   -1    0    0    0    0  0.00000000000E+00  0.00000000000E+00  0.99999998245E-14  0.12500000000E+03  0.12500000000E+03 0.  0.
        -13    1    3    3    0    0  0.45779024500E+02 -0.12300786868E+02  0.40237865424E+02  0.62178174786E+02  0.10566000000E+00 0. -1.
         23    2    1    0    0    0  0.22743688491E+02 -0.18342695187E+01  0.16831610323E+02  0.96646111080E+02  0.92393331848E+02 0.  0.
         13    1    3    3    0    0 -0.23035336009E+02  0.10466517350E+02 -0.23406255101E+02  0.34467936294E+02  0.10566000000E+00 0.  1.
         22    1    1    0    0    0 -0.22743688491E+02  0.18342695187E+01 -0.16831610323E+02  0.28353888920E+02  0.00000000000E+00 0. -1.
</event>
<event>
 5    1  0.2295636E-004  0.9118800E+02  0.7818608E-02  0.1130116E+00
         25   -1    0    0    0    0  0.00000000000E+00  0.00000000000E+00  0.99999998245E-14  0.12500000000E+03  0.12500000000E+03 0.  0.
        -13    1    3    3    0    0  0.22578191734E+02  0.93415328142E+01 -0.51185578028E+02  0.56718723005E+02  0.10566000000E+00 0.  1.
         23    2    1    0    0    0  0.65957940543E+01  0.21825908989E+02 -0.16656526239E+02  0.96763239053E+02  0.92551659970E+02 0.  0.
         13    1    3    3    0    0 -0.15982397680E+02  0.12484376175E+02  0.34529051788E+02  0.40044516048E+02  0.10566000000E+00 0. -1.
         22    1    1    0    0    0 -0.65957940543E+01 -0.21825908989E+02  0.16656526239E+02  0.28236760947E+02  0.00000000000E+00 0.  1.
</event>
<event>
 5    1  0.2295636E-004  0.9118800E+02  0.7818608E-02  0.1130116E+00
         25   -1    0    0    0    0  0.00000000000E+00  0.00000000000E+00  0.99999998245E-14  0.12500000000E+03  0.12500000000E+03 0.  0.
        -13    1    3    3    0    0  0.93197416261E+01  0.39798374575E+02 -0.67262430205E+01  0.41424892420E+02  0.10566000000E+00 0.  1.
         23    2    1    0    0    0 -0.22151134197E+02 -0.10035063801E+02 -0.32407357287E+01  0.10046680576E+03  0.97425363429E+02 0.  0.
         13    1    3    3    0    0 -0.31470875823E+02 -0.49833438375E+02  0.34855072918E+01  0.59041913337E+02  0.10566000000E+00 0. -1.
         22    1    1    0    0    0  0.22151134197E+02  0.10035063801E+02  0.32407357287E+01  0.24533194243E+02  0.00000000000E+00 0. -1.
</event>
<event>
 5    1  0.2295636E-004  0.9118800E+02  0.7818608E-02  0.1130116E+00
         25   -1    0    0    0    0  0.00000000000E+00  0.00000000000E+00  0.99999998245E-14  0.12500000000E+03  0.12500000000E+03 0.  0.
        -13    1    3    3    0    0 -0.14174475185E+02  0.31985895395E+02 -0.42769134392E+02  0.55255979510E+02  0.10566000000E+00 0.  1.
         23    2    1    0    0    0 -0.19224544735E+02  0.23319649918E+02 -0.49596663968E+01  0.94373418680E+02  0.89265641039E+02 0.  0.
         13    1    3    3    0    0 -0.50500695498E+01 -0.86662454767E+01  0.37809467995E+02  0.39117439170E+02  0.10566000000E+00 0. -1.
         22    1    1    0    0    0  0.19224544735E+02 -0.23319649918E+02  0.49596663968E+01  0.30626581320E+02  0.00000000000E+00 0.  1.
</event>
<event>
 5    1  0.2295636E-004  0.9118800E+02  0.7818608E-02  0.1130116E+00
         25   -1    0    0    0    0  0.00000000000E+00  0.00000000000E+00  0.99999998245E-14  0.12500000000E+03  0.12500000000E+03 0.  0.
        -13    1    3    3    0    0  0.23030892965E+02 -0.37253405147E+02 -0.11033711008E+02  0.45166272466E+02  0.10566000000E+00 0.  1.
         23    2    1    0    0    0  0.12358545129E+02 -0.14143952167E+02  0.27710164706E+02  0.91524064634E+02  0.85182252603E+02 0.  0.
         13    1    3    3    0    0 -0.10672347836E+02  0.23109452979E+02  0.38743875714E+02  0.46357792168E+02  0.10566000000E+00 0. -1.
         22    1    1    0    0    0 -0.12358545129E+02  0.14143952167E+02 -0.27710164706E+02  0.33475935366E+02  0.00000000000E+00 0.  1.
</event>
<event>
 5    1  0.2295636E-004  0.9118800E+02  0.7818608E-02  0.1130116E+00
         25   -1    0    0    0    0  0.00000000000E+00  0.00000000000E+00  0.99999998245E-14  0.12500000000E+03  0.12500000000E+03 0.  0.
        -13    1    3    3    0    0 -0.46507927384E+02  0.16601315971E+02  0.28848192245E+02  0.57191086380E+02  0.10566000000E+00 0. -1.
         23    2    1    0    0    0 -0.20648245903E+02  0.19722955161E+02 -0.51314276556E+00  0.96441142623E+02  0.92115610272E+02 0.  0.
         13    1    3    3    0    0  0.25859681481E+02  0.31216391908E+01 -0.29361335010E+02  0.39250056244E+02  0.10566000000E+00 0.  1.
         22    1    1    0    0    0  0.20648245903E+02 -0.19722955161E+02  0.51314276556E+00  0.28558857377E+02  0.00000000000E+00 0. -1.
</event>
<event>
 5    1  0.2295636E-004  0.9118800E+02  0.7818608E-02  0.1130116E+00
         25   -1    0    0    0    0  0.00000000000E+00  0.00000000000E+00  0.99999998245E-14  0.12500000000E+03  0.12500000000E+03 0.  0.
        -13    1    3    3    0    0 -0.17978759911E+02  0.17266465020E+02 -0.51247109058E+02  0.56988103785E+02  0.10566000000E+00 0. -1.
         23    2    1    0    0    0 -0.14775583018E+02 -0.91935361416E+01 -0.26088843413E+02  0.93639727187E+02  0.88232260521E+02 0.  0.
         13    1    3    3    0    0  0.32031768927E+01 -0.26460001161E+02  0.25158265645E+02  0.36651623401E+02  0.10566000000E+00 0.  1.
         22    1    1    0    0    0  0.14775583018E+02  0.91935361416E+01  0.26088843413E+02  0.31360272813E+02  0.00000000000E+00 0. -1.
</event>
<event>
 5    1  0.2295636E-004  0.9118800E+02  0.7818608E-02  0.1130116E+00
         25   -1    0    0    0    0  0.00000000000E+00  0.00000000000E+00  0.99999998245E-14  0.12500000000E+03  0.12500000000E+03 0.  0.
        -13    1    3    3    0    0 -0.75193167632E+01  0.25353904988E+02  0.49301022489E+02  0.55946068720E+02  0.10566000000E+00 0.  1.
         23    2    1    0    0    0  0.40547240972E+01 -0.75789073014E+01  0.25223893577E+02  0.98351821252E+02  0.94672885839E+02 0.  0.
         13    1    3    3    0    0  0.11574040860E+02 -0.32932812289E+02 -0.24077128912E+02  0.42405752532E+02  0.10566000000E+00 0. -1.
         22    1    1    0    0    0 -0.40547240972E+01  0.75789073014E+01 -0.25223893577E+02  0.26648178748E+02  0.00000000000E+00 0.  1.
</event>
<event>
 5    1  0.2295636E-004  0.9118800E+02  0.7818608E-02  0.1130116E+00
         25   -1    0    0    0    0  0.00000000000E+00  0.00000000000E+00  0.99999998245E-14  0.12500000000E+03  0.12500000000E+03 0.  0.
        -13    1    3    3    0    0 -0.84161023565E+01  0.24214018168E+02 -0.26420722461E+02  0.36813247535E+02  0.10566000000E+00 0.  1.
         23    2    1    0    0    0  0.28639081929E+01 -0.29208787939E+02 -0.12051387559E+02  0.93273178459E+02  0.87711428073E+02 0.  0.
         13    1    3    3    0    0  0.11280010549E+02 -0.53422806107E+02  0.14369334901E+02  0.56459930923E+02  0.10566000000E+00 0. -1.
         22    1    1    0    0    0 -0.28639081929E+01  0.29208787939E+02  0.12051387559E+02  0.31726821541E+02  0.00000000000E+00 0. -1.
</event>
<event>
 5    1  0.2295636E-004  0.9118800E+02  0.7818608E-02  0.1130116E+00
         25   -1    0    0    0    0  0.00000000000E+00  0.00000000000E+00  0.99999998245E-14  0.12500000000E+03  0.12500000000E+03 0.  0.
        -13    1    3    3    0    0  0.13520524720E+02  0.43413852194E+02 -0.41087799221E+02  0.61284464262E+02  0.10566000000E+00 0. -1.
         23    2    1    0    0    0  0.90048804810E+01  0.26071619716E+02 -0.13230797067E+02  0.94407987675E+02  0.89314035396E+02 0.  0.
         13    1    3    3    0    0 -0.45156442390E+01 -0.17342232479E+02  0.27857002154E+02  0.33123523412E+02  0.10566000000E+00 0.  1.
         22    1    1    0    0    0 -0.90048804810E+01 -0.26071619716E+02  0.13230797067E+02  0.30592012325E+02  0.00000000000E+00 0. -1.
</event>
<event>
 5    1  0.2295636E-004  0.9118800E+02  0.7818608E-02  0.1130116E+00
         25   -1    0    0    0    0  0.00000000000E+00  0.00000000000E+00  0.99999998245E-14  0.12500000000E+03  0.12500000000E+03 0.  0.
        -13    1    3    3    0    0 -0.16385499043E+02 -0.38292060935E+02  0.86391355724E+01  0.42537187695E+02  0.10566000000E+00 0.  1.
         23    2    1    0    0    0  0.19013606649E+02 -0.12757661344E+02 -0.19880769719E+02  0.94676409094E+02  0.89688919458E+02 0.  0.
         13    1    3    3    0    0  0.35399105692E+02  0.25534399590E+02 -0.28519905292E+02  0.52139221399E+02  0.10566000000E+00 0. -1.
         22    1    1    0    0    0 -0.19013606649E+02  0.12757661344E+02  0.19880769719E+02  0.30323590906E+02  0.00000000000E+00 0. -1.
</event>
<event>
 5    1  0.2295636E-004  0.9118800E+02  0.7818608E-02  0.1130116E+00
         25   -1    0    0    0    0  0.00000000000E+00  0.00000000000E+00  0.99999998245E-14  0.12500000000E+03  0.12500000000E+03 0.  0.
        -13    1    3    3    0    0  0.22018681870E+02  0.64455208694E+01  0.26412519954E+02  0.34985703722E+02  0.10566000000E+00 0.  1.
         23    2    1    0    0    0 -0.22640748284E+02 -0.18526957884E+02 -0.54204693442E+01  0.95247132252E+02  0.90480843625E+02 0.  0.
         13    1    3    3    0    0 -0.44659430154E+02 -0.24972478754E+02 -0.31832989298E+02  0.60261428530E+02  0.10566000000E+00 0. -1.
         22    1    1    0    0    0  0.22640748284E+02  0.18526957884E+02  0.54204693442E+01  0.29752867748E+02  0.00000000000E+00 0. -1.
</event>
<event>
 5    1  0.2295636E-004  0.9118800E+02  0.7818608E-02  0.1130116E+00
         25   -1    0    0    0    0  0.00000000000E+00  0.00000000000E+00  0.99999998245E-14  0.12500000000E+03  0.12500000000E+03 0.  0.
        -13    1    3    3    0    0  0.17235121190E+02  0.22014230556E+02 -0.40988548529E+02  0.49616005723E+02  0.10566000000E+00 0. -1.
         23    2    1    0    0    0 -0.20555088334E+02  0.13296184730E+02 -0.15489637773E+02  0.96030549486E+02  0.91556743998E+02 0.  0.
         13    1    3    3    0    0 -0.37790209524E+02 -0.87180458265E+01  0.25498910756E+02  0.46414543762E+02  0.10566000000E+00 0.  1.
         22    1    1    0    0    0  0.20555088334E+02 -0.13296184730E+02  0.15489637773E+02  0.28969450514E+02  0.00000000000E+00 0.  1.
</event>
<event>
 5    1  0.2295636E-004  0.9118800E+02  0.7818608E-02  0.1130116E+00
         25   -1    0    0    0    0  0.00000000000E+00  0.00000000000E+00  0.99999998245E-14  0.12500000000E+03  0.12500000000E+03 0.  0.
        -13    1    3    3    0    0 -0.22915340706E+02 -0.10854653555E+01  0.32428163617E+02  0.39722638814E+02  0.10566000000E+00 0.  1.
         23    2    1    0    0    0 -0.13552231515E+02  0.90183295449E+01 -0.22991684493E+02  0.96828901288E+02  0.92640300744E+02 0.  0.
         13    1    3    3    0    0  0.93631091910E+01  0.10103794900E+02 -0.55419848111E+02  0.57106262474E+02  0.10566000000E+00 0. -1.
         22    1    1    0    0    0  0.13552231515E+02 -0.90183295449E+01  0.22991684493E+02  0.28171098712E+02  0.00000000000E+00 0. -1.
</event>
<event>
 5    1  0.2295636E-004  0.9118800E+02  0.7818608E-02  0.1130116E+00
         25   -1    0    0    0    0  0.00000000000E+00  0.00000000000E+00  0.99999998245E-14  0.12500000000E+03  0.12500000000E+03 0.  0.
        -13    1    3    3    0    0  0.34500258196E+02  0.37499422765E+02 -0.29599093200E+02  0.58928702731E+02  0.10566000000E+00 0.  1.
         23    2    1    0    0    0  0.14706927415E+02  0.63861422240E+01 -0.23867143884E+02  0.96247311714E+02  0.91852206987E+02 0.  0.
         13    1    3    3    0    0 -0.19793330781E+02 -0.31113280541E+02  0.57319493152E+01  0.37318608983E+02  0.10566000000E+00 0. -1.
         22    1    1    0    0    0 -0.14706927415E+02 -0.63861422240E+01  0.23867143884E+02  0.28752688286E+02  0.00000000000E+00 0.  1.
</event>
<event>
 5    1  0.2295636E-004  0.9118800E+02  0.7818608E-02  0.1130116E+00
         25   -1    0    0    0    0  0.00000000000E+00  0.00000000000E+00  0.99999998245E-14  0.12500000000E+03  0.12500000000E+03 0.  0.
        -13    1    3    3    0    0  0.66909713174E+00 -0.19620768419E+02 -0.27448093293E+02  0.33746573659E+02  0.10566000000E+00 0.  1.
         23    2    1    0    0    0 -0.12135843929E+02  0.27805424386E+02  0.71481279247E+01  0.93830847526E+02  0.88502609461E+02 0.  0.
         13    1    3    3    0    0 -0.12804941061E+02  0.47426192804E+02  0.34596221217E+02  0.60084273866E+02  0.10566000000E+00 0. -1.
         22    1    1    0    0    0  0.12135843929E+02 -0.27805424386E+02 -0.71481279247E+01  0.31169152474E+02  0.00000000000E+00 0. -1.
</event>
<event>
 5    1  0.2295636E-004  0.9118800E+02  0.7818608E-02  0.1130116E+00
         25   -1    0    0    0    0  0.00000000000E+00  0.00000000000E+00  0.99999998245E-14  0.12500000000E+03  0.12500000000E+03 0.  0.
        -13    1    3    3    0    0 -0.73150365856E+01 -0.31990104511E+02 -0.77291209680E+01  0.33713899535E+02  0.10566000000E+00 0. -1.
         23    2    1    0    0    0 -0.37840410236E+01  0.29275785388E+02 -0.81964964757E+00  0.95469297297E+02  0.90787247586E+02 0.  0.
         13    1    3    3    0    0  0.35309955620E+01  0.61265889899E+02  0.69094713204E+01  0.61755397762E+02  0.10566000000E+00 0.  1.
         22    1    1    0    0    0  0.37840410236E+01 -0.29275785388E+02  0.81964964757E+00  0.29530702703E+02  0.00000000000E+00 0.  1.
</event>
<event>
 5    1  0.2295636E-004  0.9118800E+02  0.7818608E-02  0.1130116E+00
         25   -1    0    0    0    0  0.00000000000E+00  0.00000000000E+00  0.99999998245E-14  0.12500000000E+03  0.12500000000E+03 0.  0.
        -13    1    3    3    0    0  0.13471025882E+02  0.18406317350E+02  0.25311735927E+02  0.34072807287E+02  0.10566000000E+00 0. -1.
         23    2    1    0    0    0 -0.23717737603E+02 -0.10476695760E+02 -0.14107252825E+02  0.95482093345E+02  0.90804864055E+02 0.  0.
         13    1    3    3    0    0 -0.37188763485E+02 -0.28883013110E+02 -0.39418988752E+02  0.61409286058E+02  0.10566000000E+00 0.  1.
         22    1    1    0    0    0  0.23717737603E+02  0.10476695760E+02  0.14107252825E+02  0.29517906655E+02  0.00000000000E+00 0.  1.
</event>
<event>
 5    1  0.2295636E-004  0.9118800E+02  0.7818608E-02  0.1130116E+00
         25   -1    0    0    0    0  0.00000000000E+00  0.00000000000E+00  0.99999998245E-14  0.12500000000E+03  0.12500000000E+03 0.  0.
        -13    1    3    3    0    0 -0.13722148679E+02  0.94064707030E+01  0.35693748639E+02  0.39380628632E+02  0.10566000000E+00 0. -1.
         23    2    1    0    0    0  0.11416942307E+02  0.13379459407E+02 -0.18634953488E+02  0.99375441522E+02  0.96014896660E+02 0.  0.
         13    1    3    3    0    0  0.25139090987E+02  0.39729887044E+01 -0.54328702127E+02  0.59994812890E+02  0.10566000000E+00 0.  1.
         22    1    1    0    0    0 -0.11416942307E+02 -0.13379459407E+02  0.18634953488E+02  0.25624558478E+02  0.00000000000E+00 0.  1.
</event>
<event>
 5    1  0.2295636E-004  0.9118800E+02  0.7818608E-02  0.1130116E+00
         25   -1    0    0    0    0  0.00000000000E+00  0.00000000000E+00  0.99999998245E-14  0.12500000000E+03  0.12500000000E+03 0.  0.
        -13    1    3    3    0    0  0.36313639678E+02 -0.10832669075E+02  0.14865061801E+02  0.40706367712E+02  0.10566000000E+00 0.  1.
         23    2    1    0    0    0 -0.45717459900E+00  0.28812240142E+02  0.33630003297E+01  0.95988554641E+02  0.91499391584E+02 0.  0.
         13    1    3    3    0    0 -0.36770814277E+02  0.39644909217E+02 -0.11502061471E+02  0.55282186928E+02  0.10566000000E+00 0. -1.
         22    1    1    0    0    0  0.45717459900E+00 -0.28812240142E+02 -0.33630003297E+01  0.29011445359E+02  0.00000000000E+00 0. -1.
</event>
<event>
 5    1  0.2295636E-004  0.9118800E+02  0.7818608E-02  0.1130116E+00
         25   -1    0    0    0    0  0.00000000000E+00  0.00000000000E+00  0.99999998245E-14  0.12500000000E+03  0.12500000000E+03 0.  0.
        -13    1    3    3    0    0  0.27309082200E+02  0.42169139754E+02 -0.22200552477E+02  0.54926296184E+02  0.10566000000E+00 0. -1.
         23    2    1    0    0    0 -0.35190492944E+01  0.22392796705E+02  0.64559336832E+01  0.10143094970E+03  0.98654637121E+02 0.  0.
         13    1    3    3    0    0 -0.30828131494E+02 -0.19776343048E+02  0.28656486160E+02  0.46504653518E+02  0.10566000000E+00 0.  1.
         22    1    1    0    0    0  0.35190492944E+01 -0.22392796705E+02 -0.64559336832E+01  0.23569050298E+02  0.00000000000E+00 0. -1.
</event>
<event>
 5    1  0.2295636E-004  0.9118800E+02  0.7818608E-02  0.1130116E+00
         25   -1    0    0    0    0  0.00000000000E+00  0.00000000000E+00  0.99999998245E-14  0.12500000000E+03  0.12500000000E+03 0.  0.
        -13    1    3    3    0    0  0.36947800775E+02  0.20484806696E+02  0.37264597687E+02  0.56333193521E+02  0.10566000000E+00 0.  1.
         23    2    1    0    0    0  0.23178772656E+02  0.17954397295E+02  0.49636790373E+00  0.95676591856E+02  0.91072212908E+02 0.  0.
         13    1    3    3    0    0 -0.13769028119E+02 -0.25304094010E+01 -0.36768229783E+02  0.39343398335E+02  0.10566000000E+00 0. -1.
         22    1    1    0    0    0 -0.23178772656E+02 -0.17954397295E+02 -0.49636790373E+00  0.29323408144E+02  0.00000000000E+00 0.  1.
</event>
<event>
 5    1  0.2295636E-004  0.9118800E+02  0.7818608E-02  0.1130116E+00
         25   -1    0    0    0    0  0.00000000000E+00  0.00000000000E+00  0.99999998245E-14  0.12500000000E+03  0.12500000000E+03 0.  0.
        -13    1    3    3    0    0 -0.10229841717E+02 -0.48973523328E+02  0.35937778297E+02  0.61600249364E+02  0.10566000000E+00 0.  1.
         23    2    1    0    0    0 -0.12138941614E+02 -0.21498687023E+02  0.16981028321E+02  0.95034974219E+02  0.90187269361E+02 0.  0.
         13    1    3    3    0    0 -0.19090998972E+01  0.27474836306E+02 -0.18956749976E+02  0.33434724855E+02  0.10566000000E+00 0. -1.
         22    1    1    0    0    0  0.12138941614E+02  0.21498687023E+02 -0.16981028321E+02  0.29965025781E+02  0.00000000000E+00 0.  1.
</event>
<event>
 5    1  0.2295636E-004  0.9118800E+02  0.7818608E-02  0.1130116E+00
         25   -1    0    0    0    0  0.00000000000E+00  0.00000000000E+00  0.99999998245E-14  0.12500000000E+03  0.12500000000E+03 0.  0.
        -13    1    3    3    0    0 -0.18467590395E+02 -0.12237757547E+02  0.49707672572E+02  0.54421305399E+02  0.10566000000E+00 0. -1.
         23    2    1    0    0    0  0.85068693411E+01 -0.17717487249E+02  0.32911180160E+02  0.86666959944E+02  0.77728630414E+02 0.  0.
         13    1    3    3    0    0  0.26974459736E+02 -0.54797297020E+01 -0.16796492412E+02  0.32245654545E+02  0.10566000000E+00 0.  1.
         22    1    1    0    0    0 -0.85068693411E+01  0.17717487249E+02 -0.32911180160E+02  0.38333040056E+02  0.00000000000E+00 0. -1.
</event>
<event>
 5    1  0.2295636E-004  0.9118800E+02  0.7818608E-02  0.1130116E+00
         25   -1    0    0    0    0  0.00000000000E+00  0.00000000000E+00  0.99999998245E-14  0.12500000000E+03  0.12500000000E+03 0.  0.
        -13    1    3    3    0    0 -0.25017908656E+02 -0.20393198062E+02  0.24264535185E+02  0.40380157410E+02  0.10566000000E+00 0.  1.
         23    2    1    0    0    0 -0.49139667820E+01  0.21527605950E+02  0.30560517119E+02  0.87296815863E+02  0.78735023756E+02 0.  0.
         13    1    3    3    0    0  0.20103941874E+02  0.41920804012E+02  0.62959819334E+01  0.46916658453E+02  0.10566000000E+00 0. -1.
         22    1    1    0    0    0  0.49139667820E+01 -0.21527605950E+02 -0.30560517119E+02  0.37703184137E+02  0.00000000000E+00 0. -1.
</event>
<event>
 5    1  0.2295636E-004  0.9118800E+02  0.7818608E-02  0.1130116E+00
         25   -1    0    0    0    0  0.00000000000E+00  0.00000000000E+00  0.99999998245E-14  0.12500000000E+03  0.12500000000E+03 0.  0.
        -13    1    3    3    0    0 -0.57967766159E+02 -0.78649435555E+01  0.13997407284E+02  0.60150293642E+02  0.10566000000E+00 0.  1.
         23    2    1    0    0    0 -0.28569603860E+02 -0.57384358118E+01 -0.53015436004E+01  0.95381453871E+02  0.90666220102E+02 0.  0.
         13    1    3    3    0    0  0.29398162299E+02  0.21265077436E+01 -0.19298950885E+02  0.35231160228E+02  0.10566000000E+00 0. -1.
         22    1    1    0    0    0  0.28569603860E+02  0.57384358118E+01  0.53015436004E+01  0.29618546129E+02  0.00000000000E+00 0.  1.
</event>
<event>
 5    1  0.2295636E-004  0.9118800E+02  0.7818608E-02  0.1130116E+00
         25   -1    0    0    0    0  0.00000000000E+00  0.00000000000E+00  0.99999998245E-14  0.12500000000E+03  0.12500000000E+03 0.  0.
        -13    1    3    3    0    0  0.28201161385E+02  0.18879802403E+02 -0.63317229090E+01  0.34523243203E+02  0.10566000000E+00 0. -1.
         23    2    1    0    0    0 -0.15523153738E+02 -0.23254076498E+02 -0.98753371181E+01  0.95347973781E+02  0.90620049907E+02 0.  0.
         13    1    3    3    0    0 -0.43724315122E+02 -0.42133878901E+02 -0.35436142091E+01  0.60824730578E+02  0.10566000000E+00 0.  1.
         22    1    1    0    0    0  0.15523153738E+02  0.23254076498E+02  0.98753371181E+01  0.29652026219E+02  0.00000000000E+00 0.  1.
</event>
<event>
 5    1  0.2295636E-004  0.9118800E+02  0.7818608E-02  0.1130116E+00
         25   -1    0    0    0    0  0.00000000000E+00  0.00000000000E+00  0.99999998245E-14  0.12500000000E+03  0.12500000000E+03 0.  0.
        -13    1    3    3    0    0 -0.32148493261E+02 -0.82019463591E+01  0.25356748761E+02  0.41758513082E+02  0.10566000000E+00 0.  1.
         23    2    1    0    0    0 -0.24688640992E+00 -0.30514967083E+02 -0.84680423087E+01  0.93330899767E+02  0.87793649781E+02 0.  0.
         13    1    3    3    0    0  0.31901606852E+02 -0.22313020724E+02 -0.33824791069E+02  0.51572386686E+02  0.10566000000E+00 0. -1.
         22    1    1    0    0    0  0.24688640992E+00  0.30514967083E+02  0.84680423087E+01  0.31669100233E+02  0.00000000000E+00 0. -1.
</event>
<event>
 5    1  0.2295636E-004  0.9118800E+02  0.7818608E-02  0.1130116E+00
         25   -1    0    0    0    0  0.00000000000E+00  0.00000000000E+00  0.99999998245E-14  0.12500000000E+03  0.12500000000E+03 0.  0.
        -13    1    3    3    0    0  0.36581874480E+02  0.37198840089E+02 -0.72703841832E+01  0.52676910451E+02  0.10566000000E+00 0.  1.
         23    2    1    0    0    0  0.19170999622E+02  0.96422869724E+01  0.20368255455E+02  0.95413402446E+02  0.90710256374E+02 0.  0.
         13    1    3    3    0    0 -0.17410874858E+02 -0.27556553116E+02  0.27638639638E+02  0.42736491995E+02  0.10566000000E+00 0. -1.
         22    1    1    0    0    0 -0.19170999622E+02 -0.96422869724E+01 -0.20368255455E+02  0.29586597554E+02  0.00000000000E+00 0.  1.
</event>
<event>
 5    1  0.2295636E-004  0.9118800E+02  0.7818608E-02  0.1130116E+00
         25   -1    0    0    0    0  0.00000000000E+00  0.00000000000E+00  0.99999998245E-14  0.12500000000E+03  0.12500000000E+03 0.  0.
        -13    1    3    3    0    0  0.14908399423E+02  0.17353055717E+02  0.23888443821E+02  0.33076544988E+02  0.10566000000E+00 0. -1.
         23    2    1    0    0    0 -0.20147617870E+02 -0.16753536194E+02 -0.14317702157E+02  0.95140259949E+02  0.90333078035E+02 0.  0.
         13    1    3    3    0    0 -0.35056017293E+02 -0.34106591911E+02 -0.38206145978E+02  0.62063714961E+02  0.10566000000E+00 0.  1.
         22    1    1    0    0    0  0.20147617870E+02  0.16753536194E+02  0.14317702157E+02  0.29859740051E+02  0.00000000000E+00 0.  1.
</event>
<event>
 5    1  0.2295636E-004  0.9118800E+02  0.7818608E-02  0.1130116E+00
         25   -1    0    0    0    0  0.00000000000E+00  0.00000000000E+00  0.99999998245E-14  0.12500000000E+03  0.12500000000E+03 0.  0.
        -13    1    3    3    0    0 -0.36550387090E+02 -0.18557512539E+01  0.89681120004E+01  0.37680403475E+02  0.10566000000E+00 0. -1.
         23    2    1    0    0    0  0.99413393295E+01  0.13039934760E+02 -0.23524572351E+02  0.96324651170E+02  0.91957396617E+02 0.  0.
         13    1    3    3    0    0  0.46491726420E+02  0.14895686014E+02 -0.32492684351E+02  0.58644247695E+02  0.10566000000E+00 0.  1.
         22    1    1    0    0    0 -0.99413393295E+01 -0.13039934760E+02  0.23524572351E+02  0.28675348830E+02  0.00000000000E+00 0.  1.
</event>
<event>
 5    1  0.2295636E-004  0.9118800E+02  0.7818608E-02  0.1130116E+00
         25   -1    0    0    0    0  0.00000000000E+00  0.00000000000E+00  0.99999998245E-14  0.12500000000E+03  0.12500000000E+03 0.  0.
        -13    1    3    3    0    0 -0.43921550072E+02 -0.38080184064E+01 -0.43936196587E+02  0.62241498211E+02  0.10566000000E+00 0.  1.
         23    2    1    0    0    0 -0.20992914966E+02 -0.39548940040E+01 -0.16436929164E+02  0.98046033581E+02  0.94268278839E+02 0.  0.
         13    1    3    3    0    0  0.22928635106E+02 -0.14687559761E+00  0.27499267423E+02  0.35804535371E+02  0.10566000000E+00 0. -1.
         22    1    1    0    0    0  0.20992914966E+02  0.39548940040E+01  0.16436929164E+02  0.26953966419E+02  0.00000000000E+00 0.  1.
</event>
<event>
 5    1  0.2295636E-004  0.9118800E+02  0.7818608E-02  0.1130116E+00
         25   -1    0    0    0    0  0.00000000000E+00  0.00000000000E+00  0.99999998245E-14  0.12500000000E+03  0.12500000000E+03 0.  0.
        -13    1    3    3    0    0 -0.82837723009E+01 -0.27179389910E+02 -0.48342508864E+02  0.56074499077E+02  0.10566000000E+00 0.  1.
         23    2    1    0    0    0 -0.19076150146E+02  0.62452253486E+00 -0.22076513579E+02  0.95816751644E+02  0.91264384680E+02 0.  0.
         13    1    3    3    0    0 -0.10792377845E+02  0.27803912445E+02  0.26265995285E+02  0.39742252568E+02  0.10566000000E+00 0. -1.
         22    1    1    0    0    0  0.19076150146E+02 -0.62452253486E+00  0.22076513579E+02  0.29183248356E+02  0.00000000000E+00 0.  1.
</event>
<event>
 5    1  0.2295636E-004  0.9118800E+02  0.7818608E-02  0.1130116E+00
         25   -1    0    0    0    0  0.00000000000E+00  0.00000000000E+00  0.99999998245E-14  0.12500000000E+03  0.12500000000E+03 0.  0.
        -13    1    3    3    0    0 -0.76230273216E+00  0.29079166722E+02 -0.49532529813E+02  0.57442682010E+02  0.10566000000E+00 0.  1.
         23    2    1    0    0    0 -0.12447768773E+02  0.20753108042E+02 -0.11275237239E+02  0.98302258230E+02  0.94607423374E+02 0.  0.
         13    1    3    3    0    0 -0.11685466041E+02 -0.83260586802E+01  0.38257292575E+02  0.40859576220E+02  0.10566000000E+00 0. -1.
         22    1    1    0    0    0  0.12447768773E+02 -0.20753108042E+02  0.11275237239E+02  0.26697741770E+02  0.00000000000E+00 0.  1.
</event>
<event>
 5    1  0.2295636E-004  0.9118800E+02  0.7818608E-02  0.1130116E+00
         25   -1    0    0    0    0  0.00000000000E+00  0.00000000000E+00  0.99999998245E-14  0.12500000000E+03  0.12500000000E+03 0.  0.
        -13    1    3    3    0    0  0.29587717231E+02 -0.33909765329E+02 -0.16543735251E+02  0.47948008673E+02  0.10566000000E+00 0.  1.
         23    2    1    0    0    0  0.24921843361E+02  0.90354927818E+00  0.15619697334E+02  0.95573997509E+02  0.90931289319E+02 0.  0.
         13    1    3    3    0    0 -0.46658738702E+01  0.34813314608E+02  0.32163432585E+02  0.47625988836E+02  0.10566000000E+00 0. -1.
         22    1    1    0    0    0 -0.24921843361E+02 -0.90354927818E+00 -0.15619697334E+02  0.29426002491E+02  0.00000000000E+00 0. -1.
</event>
<event>
 5    1  0.2295636E-004  0.9118800E+02  0.7818608E-02  0.1130116E+00
         25   -1    0    0    0    0  0.00000000000E+00  0.00000000000E+00  0.99999998245E-14  0.12500000000E+03  0.12500000000E+03 0.  0.
        -13    1    3    3    0    0 -0.25525224418E+01  0.29567040393E+02 -0.35635817539E+02  0.46375078481E+02  0.10566000000E+00 0.  1.
         23    2    1    0    0    0  0.30455318234E+01  0.23929251225E+02  0.14312377007E+02  0.96951319748E+02  0.92805333559E+02 0.  0.
         13    1    3    3    0    0  0.55980542652E+01 -0.56377891682E+01  0.49948194546E+02  0.50576241267E+02  0.10566000000E+00 0. -1.
         22    1    1    0    0    0 -0.30455318234E+01 -0.23929251225E+02 -0.14312377007E+02  0.28048680252E+02  0.00000000000E+00 0. -1.
</event>
<event>
 5    1  0.2295636E-004  0.9118800E+02  0.7818608E-02  0.1130116E+00
         25   -1    0    0    0    0  0.00000000000E+00  0.00000000000E+00  0.99999998245E-14  0.12500000000E+03  0.12500000000E+03 0.  0.
        -13    1    3    3    0    0  0.17587872300E+02  0.23483683345E+02  0.27173879166E+02  0.39990592750E+02  0.10566000000E+00 0. -1.
         23    2    1    0    0    0  0.25740684603E+02  0.47624344175E+01 -0.20433040315E+02  0.91791977446E+02  0.85574495975E+02 0.  0.
         13    1    3    3    0    0  0.81528123030E+01 -0.18721248928E+02 -0.47606919481E+02  0.51801384696E+02  0.10566000000E+00 0.  1.
         22    1    1    0    0    0 -0.25740684603E+02 -0.47624344175E+01  0.20433040315E+02  0.33208022554E+02  0.00000000000E+00 0.  1.
</event>
<event>
 5    1  0.2295636E-004  0.9118800E+02  0.7818608E-02  0.1130116E+00
         25   -1    0    0    0    0  0.00000000000E+00  0.00000000000E+00  0.99999998245E-14  0.12500000000E+03  0.12500000000E+03 0.  0.
        -13    1    3    3    0    0  0.46500445159E+02 -0.28669089871E+02  0.30055372812E+02  0.62350178131E+02  0.10566000000E+00 0. -1.
         23    2    1    0    0    0  0.23320412761E+02 -0.10820559004E+02  0.13612142392E+02  0.95910198196E+02  0.91392283859E+02 0.  0.
         13    1    3    3    0    0 -0.23180032399E+02  0.17848530867E+02 -0.16443230420E+02  0.33560020065E+02  0.10566000000E+00 0.  1.
         22    1    1    0    0    0 -0.23320412761E+02  0.10820559004E+02 -0.13612142392E+02  0.29089801804E+02  0.00000000000E+00 0. -1.
</event>
<event>
 5    1  0.2295636E-004  0.9118800E+02  0.7818608E-02  0.1130116E+00
         25   -1    0    0    0    0  0.00000000000E+00  0.00000000000E+00  0.99999998245E-14  0.12500000000E+03  0.12500000000E+03 0.  0.
        -13    1    3    3    0    0  0.18545175006E+02  0.38842982994E+02 -0.11323416903E+02  0.44507659771E+02  0.10566000000E+00 0.  1.
         23    2    1    0    0    0 -0.25507181032E+02  0.14028782320E+02 -0.50246021740E+01  0.95459017542E+02  0.90773092849E+02 0.  0.
         13    1    3    3    0    0 -0.44052356039E+02 -0.24814200674E+02  0.62988147290E+01  0.50951357771E+02  0.10566000000E+00 0. -1.
         22    1    1    0    0    0  0.25507181032E+02 -0.14028782320E+02  0.50246021740E+01  0.29540982458E+02  0.00000000000E+00 0.  1.
</event>
<event>
 5    1  0.2295636E-004  0.9118800E+02  0.7818608E-02  0.1130116E+00
         25   -1    0    0    0    0  0.00000000000E+00  0.00000000000E+00  0.99999998245E-14  0.12500000000E+03  0.12500000000E+03 0.  0.
        -13    1    3    3    0    0 -0.45710255828E+02 -0.71968607666E+01 -0.12133606702E+02  0.47837828842E+02  0.10566000000E+00 0.  1.
         23    2    1    0    0    0 -0.18286112524E+02  0.15179457751E+02  0.18684436595E+02  0.94769121420E+02  0.89818040254E+02 0.  0.
         13    1    3    3    0    0  0.27424143304E+02  0.22376318518E+02  0.30818043297E+02  0.46931292578E+02  0.10566000000E+00 0. -1.
         22    1    1    0    0    0  0.18286112524E+02 -0.15179457751E+02 -0.18684436595E+02  0.30230878580E+02  0.00000000000E+00 0.  1.
</event>
<event>
 5    1  0.2295636E-004  0.9118800E+02  0.7818608E-02  0.1130116E+00
         25   -1    0    0    0    0  0.00000000000E+00  0.00000000000E+00  0.99999998245E-14  0.12500000000E+03  0.12500000000E+03 0.  0.
        -13    1    3    3    0    0  0.72563560873E+00  0.30286868195E+02  0.16011250847E+02  0.34266488729E+02  0.10566000000E+00 0. -1.
         23    2    1    0    0    0 -0.11619813632E+02 -0.24191591151E+02 -0.10604692222E+02  0.96143239122E+02  0.91710467126E+02 0.  0.
         13    1    3    3    0    0 -0.12345449240E+02 -0.54478459346E+02 -0.26615943069E+02  0.61876750393E+02  0.10566000000E+00 0.  1.
         22    1    1    0    0    0  0.11619813632E+02  0.24191591151E+02  0.10604692222E+02  0.28856760878E+02  0.00000000000E+00 0.  1.
</event>
<event>
 5    1  0.2295636E-004  0.9118800E+02  0.7818608E-02  0.1130116E+00
         25   -1    0    0    0    0  0.00000000000E+00  0.00000000000E+00  0.99999998245E-14  0.12500000000E+03  0.12500000000E+03 0.  0.
        -13    1    3    3    0    0 -0.34415917162E+02 -0.22633481609E+02  0.29308265555E+02  0.50554084283E+02  0.10566000000E+00 0.  1.
         23    2    1    0    0    0  0.92621162155E+00 -0.28757215606E+02  0.10643214740E+01  0.96208193916E+02  0.91798956851E+02 0.  0.
         13    1    3    3    0    0  0.35342128784E+02 -0.61237339975E+01 -0.28243944081E+02  0.45654109632E+02  0.10566000000E+00 0. -1.
         22    1    1    0    0    0 -0.92621162155E+00  0.28757215606E+02 -0.10643214740E+01  0.28791806084E+02  0.00000000000E+00 0.  1.
</event>
<event>
 5    1  0.2295636E-004  0.9118800E+02  0.7818608E-02  0.1130116E+00
         25   -1    0    0    0    0  0.00000000000E+00  0.00000000000E+00  0.99999998245E-14  0.12500000000E+03  0.12500000000E+03 0.  0.
        -13    1    3    3    0    0  0.64388187790E+01  0.37462221963E+02  0.27789200216E+02  0.47086380986E+02  0.10566000000E+00 0.  1.
         23    2    1    0    0    0  0.70995579126E+01  0.23229737266E+02 -0.17823008539E+02  0.94872204704E+02  0.89961387139E+02 0.  0.
         13    1    3    3    0    0  0.66073913358E+00 -0.14232484697E+02 -0.45612208755E+02  0.47785823718E+02  0.10566000000E+00 0. -1.
         22    1    1    0    0    0 -0.70995579126E+01 -0.23229737266E+02  0.17823008539E+02  0.30127795296E+02  0.00000000000E+00 0. -1.
</event>
<event>
 5    1  0.2295636E-004  0.9118800E+02  0.7818608E-02  0.1130116E+00
         25   -1    0    0    0    0  0.00000000000E+00  0.00000000000E+00  0.99999998245E-14  0.12500000000E+03  0.12500000000E+03 0.  0.
        -13    1    3    3    0    0 -0.59057893261E+02 -0.59313222994E+01 -0.19537472475E+02  0.62487913514E+02  0.10566000000E+00 0. -1.
         23    2    1    0    0    0 -0.27387637393E+02 -0.19390878110E+01 -0.87067884677E+01  0.96196338619E+02  0.91782812415E+02 0.  0.
         13    1    3    3    0    0  0.31670255868E+02  0.39922344884E+01  0.10830684007E+02  0.33708425104E+02  0.10566000000E+00 0.  1.
         22    1    1    0    0    0  0.27387637393E+02  0.19390878110E+01  0.87067884677E+01  0.28803661381E+02  0.00000000000E+00 0. -1.
</event>
<event>
 5    1  0.2295636E-004  0.9118800E+02  0.7818608E-02  0.1130116E+00
         25   -1    0    0    0    0  0.00000000000E+00  0.00000000000E+00  0.99999998245E-14  0.12500000000E+03  0.12500000000E+03 0.  0.
        -13    1    3    3    0    0 -0.45194654316E+02 -0.35916651468E+01 -0.37154211007E+02  0.58616579539E+02  0.10566000000E+00 0.  1.
         23    2    1    0    0    0 -0.10506556797E+02  0.41513702875E+01 -0.27232326454E+02  0.95517442189E+02  0.90853511474E+02 0.  0.
         13    1    3    3    0    0  0.34688097519E+02  0.77430354343E+01  0.99218845525E+01  0.36900862650E+02  0.10566000000E+00 0. -1.
         22    1    1    0    0    0  0.10506556797E+02 -0.41513702875E+01  0.27232326454E+02  0.29482557811E+02  0.00000000000E+00 0.  1.
</event>
<event>
 5    1  0.2295636E-004  0.9118800E+02  0.7818608E-02  0.1130116E+00
         25   -1    0    0    0    0  0.00000000000E+00  0.00000000000E+00  0.99999998245E-14  0.12500000000E+03  0.12500000000E+03 0.  0.
        -13    1    3    3    0    0  0.31699000103E+02 -0.44203446588E+02  0.83882022903E+00  0.54401158822E+02  0.10566000000E+00 0. -1.
         23    2    1    0    0    0 -0.38544697215E+01 -0.28181288599E+02 -0.99552352231E+01  0.94864494823E+02  0.89950673737E+02 0.  0.
         13    1    3    3    0    0 -0.35553469825E+02  0.16022157989E+02 -0.10794055452E+02  0.40463336001E+02  0.10566000000E+00 0.  1.
         22    1    1    0    0    0  0.38544697215E+01  0.28181288599E+02  0.99552352231E+01  0.30135505177E+02  0.00000000000E+00 0. -1.
</event>
<event>
 5    1  0.2295636E-004  0.9118800E+02  0.7818608E-02  0.1130116E+00
         25   -1    0    0    0    0  0.00000000000E+00  0.00000000000E+00  0.99999998245E-14  0.12500000000E+03  0.12500000000E+03 0.  0.
        -13    1    3    3    0    0 -0.50808110429E+02 -0.15791431261E+02 -0.19667808882E+02  0.56724485514E+02  0.10566000000E+00 0.  1.
         23    2    1    0    0    0 -0.23094686449E+02 -0.17375738236E+02  0.70489041186E+01  0.95251590451E+02  0.90487002452E+02 0.  0.
         13    1    3    3    0    0  0.27713423980E+02 -0.15843069751E+01  0.26716713000E+02  0.38527104937E+02  0.10566000000E+00 0. -1.
         22    1    1    0    0    0  0.23094686449E+02  0.17375738236E+02 -0.70489041186E+01  0.29748409549E+02  0.00000000000E+00 0.  1.
</event>
<event>
 5    1  0.2295636E-004  0.9118800E+02  0.7818608E-02  0.1130116E+00
         25   -1    0    0    0    0  0.00000000000E+00  0.00000000000E+00  0.99999998245E-14  0.12500000000E+03  0.12500000000E+03 0.  0.
        -13    1    3    3    0    0 -0.19920930298E+01 -0.26210189686E+02  0.30029745844E+02  0.39909137770E+02  0.10566000000E+00 0.  1.
         23    2    1    0    0    0  0.12713285840E+02  0.24073465941E+02  0.10014530012E+02  0.95992238787E+02  0.91504424465E+02 0.  0.
         13    1    3    3    0    0  0.14705378869E+02  0.50283655626E+02 -0.20015215833E+02  0.56083101017E+02  0.10566000000E+00 0. -1.
         22    1    1    0    0    0 -0.12713285840E+02 -0.24073465941E+02 -0.10014530012E+02  0.29007761213E+02  0.00000000000E+00 0. -1.
</event>
<event>
 5    1  0.2295636E-004  0.9118800E+02  0.7818608E-02  0.1130116E+00
         25   -1    0    0    0    0  0.00000000000E+00  0.00000000000E+00  0.99999998245E-14  0.12500000000E+03  0.12500000000E+03 0.  0.
        -13    1    3    3    0    0 -0.24812416592E+02  0.21042769331E+02 -0.14545476572E+02  0.35637567411E+02  0.10566000000E+00 0. -1.
         23    2    1    0    0    0  0.22720751227E+02  0.88934982379E+01  0.18145679548E+02  0.94592886794E+02  0.89572438275E+02 0.  0.
         13    1    3    3    0    0  0.47533167819E+02 -0.12149271093E+02  0.32691156120E+02  0.58955319383E+02  0.10566000000E+00 0.  1.
         22    1    1    0    0    0 -0.22720751227E+02 -0.88934982379E+01 -0.18145679548E+02  0.30407113206E+02  0.00000000000E+00 0.  1.
</event>
<event>
 5    1  0.2295636E-004  0.9118800E+02  0.7818608E-02  0.1130116E+00
         25   -1    0    0    0    0  0.00000000000E+00  0.00000000000E+00  0.99999998245E-14  0.12500000000E+03  0.12500000000E+03 0.  0.
        -13    1    3    3    0    0 -0.32532935548E+02 -0.79455440430E+01 -0.30844179207E+02  0.45529090926E+02  0.10566000000E+00 0.  1.
         23    2    1    0    0    0  0.76036064197E+01  0.20408021486E+02 -0.19048817731E+02  0.96066289064E+02  0.91605525303E+02 0.  0.
         13    1    3    3    0    0  0.40136541968E+02  0.28353565529E+02  0.11795361476E+02  0.50537198139E+02  0.10566000000E+00 0. -1.
         22    1    1    0    0    0 -0.76036064197E+01 -0.20408021486E+02  0.19048817731E+02  0.28933710936E+02  0.00000000000E+00 0. -1.
</event>
<event>
 5    1  0.2295636E-004  0.9118800E+02  0.7818608E-02  0.1130116E+00
         25   -1    0    0    0    0  0.00000000000E+00  0.00000000000E+00  0.99999998245E-14  0.12500000000E+03  0.12500000000E+03 0.  0.
        -13    1    3    3    0    0  0.59739952498E+02 -0.14843437140E+02  0.10469330329E+01  0.61565386244E+02  0.10566000000E+00 0.  1.
         23    2    1    0    0    0  0.25257943839E+02 -0.52998909154E+00 -0.45884275626E+01  0.99323195625E+02  0.95946854593E+02 0.  0.
         13    1    3    3    0    0 -0.34482008659E+02  0.14313448049E+02 -0.56353605955E+01  0.37757809381E+02  0.10566000000E+00 0. -1.
         22    1    1    0    0    0 -0.25257943839E+02  0.52998909154E+00  0.45884275626E+01  0.25676804375E+02  0.00000000000E+00 0.  1.
</event>
<event>
 5    1  0.2295636E-004  0.9118800E+02  0.7818608E-02  0.1130116E+00
         25   -1    0    0    0    0  0.00000000000E+00  0.00000000000E+00  0.99999998245E-14  0.12500000000E+03  0.12500000000E+03 0.  0.
        -13    1    3    3    0    0 -0.54519569333E+02 -0.51266455480E+01  0.21973393316E+02  0.59004297409E+02  0.10566000000E+00 0.  1.
         23    2    1    0    0    0 -0.27032848613E+02 -0.99209026676E+01 -0.24696401904E+01  0.96098471726E+02  0.91649429521E+02 0.  0.
         13    1    3    3    0    0  0.27486720720E+02 -0.47942571196E+01 -0.24443033507E+02  0.37094174317E+02  0.10566000000E+00 0. -1.
         22    1    1    0    0    0  0.27032848613E+02  0.99209026676E+01  0.24696401904E+01  0.28901528274E+02  0.00000000000E+00 0.  1.
</event>
<event>
 5    1  0.2295636E-004  0.9118800E+02  0.7818608E-02  0.1130116E+00
         25   -1    0    0    0    0  0.00000000000E+00  0.00000000000E+00  0.99999998245E-14  0.12500000000E+03  0.12500000000E+03 0.  0.
        -13    1    3    3    0    0 -0.32425269475E+01 -0.39576758437E+02 -0.91276153866E+01  0.40745040386E+02  0.10566000000E+00 0.  1.
         23    2    1    0    0    0 -0.24857317449E+02 -0.89634735204E+00  0.19409785310E+02  0.93449573139E+02  0.87962453835E+02 0.  0.
         13    1    3    3    0    0 -0.21614790502E+02  0.38680411085E+02  0.28537400697E+02  0.52704532753E+02  0.10566000000E+00 0. -1.
         22    1    1    0    0    0  0.24857317449E+02  0.89634735204E+00 -0.19409785310E+02  0.31550426861E+02  0.00000000000E+00 0. -1.
</event>
<event>
 5    1  0.2295636E-004  0.9118800E+02  0.7818608E-02  0.1130116E+00
         25   -1    0    0    0    0  0.00000000000E+00  0.00000000000E+00  0.99999998245E-14  0.12500000000E+03  0.12500000000E+03 0.  0.
        -13    1    3    3    0    0  0.57700134306E+02  0.17060252758E+02 -0.12790058815E+02  0.61513856094E+02  0.10566000000E+00 0.  1.
         23    2    1    0    0    0  0.24148099949E+02  0.91605602404E+01 -0.13219541877E+02  0.95986160500E+02  0.91496120819E+02 0.  0.
         13    1    3    3    0    0 -0.33552034356E+02 -0.78996925179E+01 -0.42948306252E+00  0.34472304406E+02  0.10566000000E+00 0. -1.
         22    1    1    0    0    0 -0.24148099949E+02 -0.91605602404E+01  0.13219541877E+02  0.29013839500E+02  0.00000000000E+00 0.  1.
</event>
<event>
 5    1  0.2295636E-004  0.9118800E+02  0.7818608E-02  0.1130116E+00
         25   -1    0    0    0    0  0.00000000000E+00  0.00000000000E+00  0.99999998245E-14  0.12500000000E+03  0.12500000000E+03 0.  0.
        -13    1    3    3    0    0 -0.10667858378E+02  0.31754764766E+02 -0.42645477897E+02  0.54229293162E+02  0.10566000000E+00 0. -1.
         23    2    1    0    0    0  0.17444219784E+02  0.17413148728E+02 -0.15285147059E+02  0.95997340241E+02  0.91511393062E+02 0.  0.
         13    1    3    3    0    0  0.28112078162E+02 -0.14341616038E+02  0.27360330838E+02  0.41768047079E+02  0.10566000000E+00 0.  1.
         22    1    1    0    0    0 -0.17444219784E+02 -0.17413148728E+02  0.15285147059E+02  0.29002659759E+02  0.00000000000E+00 0.  1.
</event>
<event>
 5    1  0.2295636E-004  0.9118800E+02  0.7818608E-02  0.1130116E+00
         25   -1    0    0    0    0  0.00000000000E+00  0.00000000000E+00  0.99999998245E-14  0.12500000000E+03  0.12500000000E+03 0.  0.
        -13    1    3    3    0    0 -0.25614153627E+02 -0.38197516011E+02  0.55488263035E+01  0.46324245626E+02  0.10566000000E+00 0.  1.
         23    2    1    0    0    0  0.19864746728E+02 -0.23042966552E+02  0.46160303050E-01  0.94576512349E+02  0.89549584518E+02 0.  0.
         13    1    3    3    0    0  0.45478900355E+02  0.15154549459E+02 -0.55026660004E+01  0.48252266723E+02  0.10566000000E+00 0. -1.
         22    1    1    0    0    0 -0.19864746728E+02  0.23042966552E+02 -0.46160303050E-01  0.30423487651E+02  0.00000000000E+00 0. -1.
</event>
<event>
 5    1  0.2295636E-004  0.9118800E+02  0.7818608E-02  0.1130116E+00
         25   -1    0    0    0    0  0.00000000000E+00  0.00000000000E+00  0.99999998245E-14  0.12500000000E+03  0.12500000000E+03 0.  0.
        -13    1    3    3    0    0  0.48778581347E+01 -0.37281152674E+02 -0.16486123115E+02  0.41054613189E+02  0.10566000000E+00 0.  1.
         23    2    1    0    0    0  0.62759237016E+01  0.18771309595E+02  0.97233933689E+01  0.10294793296E+03  0.10055835738E+03 0.  0.
         13    1    3    3    0    0  0.13980655669E+01  0.56052462269E+02  0.26209516484E+02  0.61893319769E+02  0.10566000000E+00 0. -1.
         22    1    1    0    0    0 -0.62759237016E+01 -0.18771309595E+02 -0.97233933689E+01  0.22052067042E+02  0.00000000000E+00 0. -1.
</event>
<event>
 5    1  0.2295636E-004  0.9118800E+02  0.7818608E-02  0.1130116E+00
         25   -1    0    0    0    0  0.00000000000E+00  0.00000000000E+00  0.99999998245E-14  0.12500000000E+03  0.12500000000E+03 0.  0.
        -13    1    3    3    0    0  0.27274017137E+02 -0.74297555309E+01  0.32003584870E+02  0.42700279702E+02  0.10566000000E+00 0. -1.
         23    2    1    0    0    0  0.16952069288E+01  0.26557670317E+02 -0.35670585871E+01  0.98150279589E+02  0.94406408136E+02 0.  0.
         13    1    3    3    0    0 -0.25578810208E+02  0.33987425848E+02 -0.35570643457E+02  0.55449999887E+02  0.10566000000E+00 0.  1.
         22    1    1    0    0    0 -0.16952069288E+01 -0.26557670317E+02  0.35670585871E+01  0.26849720411E+02  0.00000000000E+00 0. -1.
</event>
<event>
 5    1  0.2295636E-004  0.9118800E+02  0.7818608E-02  0.1130116E+00
         25   -1    0    0    0    0  0.00000000000E+00  0.00000000000E+00  0.99999998245E-14  0.12500000000E+03  0.12500000000E+03 0.  0.
        -13    1    3    3    0    0  0.27132170246E+02  0.35810302592E+02 -0.68532129658E+01  0.45447883625E+02  0.10566000000E+00 0. -1.
         23    2    1    0    0    0 -0.16944691269E+02  0.12362401032E+02 -0.18855073161E+02  0.96796005507E+02  0.92595903671E+02 0.  0.
         13    1    3    3    0    0 -0.44076861515E+02 -0.23447901561E+02 -0.12001860195E+02  0.51348121882E+02  0.10566000000E+00 0.  1.
         22    1    1    0    0    0  0.16944691269E+02 -0.12362401032E+02  0.18855073161E+02  0.28203994493E+02  0.00000000000E+00 0. -1.
</event>
<event>
 5    1  0.2295636E-004  0.9118800E+02  0.7818608E-02  0.1130116E+00
         25   -1    0    0    0    0  0.00000000000E+00  0.00000000000E+00  0.99999998245E-14  0.12500000000E+03  0.12500000000E+03 0.  0.
        -13    1    3    3    0    0 -0.41213968356E+02 -0.35897697477E+01 -0.28789840513E+02  0.50401822540E+02  0.10566000000E+00 0.  1.
         23    2    1    0    0    0  0.52474132853E+01 -0.12545205084E+02 -0.23281487765E+02  0.98038078901E+02  0.94257730321E+02 0.  0.
         13    1    3    3    0    0  0.46461381642E+02 -0.89554353359E+01  0.55083527480E+01  0.47636256362E+02  0.10566000000E+00 0. -1.
         22    1    1    0    0    0 -0.52474132853E+01  0.12545205084E+02  0.23281487765E+02  0.26961921099E+02  0.00000000000E+00 0.  1.
</event>
<event>
 5    1  0.2295636E-004  0.9118800E+02  0.7818608E-02  0.1130116E+00
         25   -1    0    0    0    0  0.00000000000E+00  0.00000000000E+00  0.99999998245E-14  0.12500000000E+03  0.12500000000E+03 0.  0.
        -13    1    3    3    0    0  0.36719830996E+02 -0.14716098336E+02  0.28261903425E+02  0.48617444275E+02  0.10566000000E+00 0.  1.
         23    2    1    0    0    0 -0.10988535701E+02 -0.14076184721E+02  0.21884159970E+02  0.96754587085E+02  0.92539973910E+02 0.  0.
         13    1    3    3    0    0 -0.47708366697E+02  0.63991361485E+00 -0.63777434556E+01  0.48137142810E+02  0.10566000000E+00 0. -1.
         22    1    1    0    0    0  0.10988535701E+02  0.14076184721E+02 -0.21884159970E+02  0.28245412915E+02  0.00000000000E+00 0.  1.
</event>
<event>
 5    1  0.2295636E-004  0.9118800E+02  0.7818608E-02  0.1130116E+00
         25   -1    0    0    0    0  0.00000000000E+00  0.00000000000E+00  0.99999998245E-14  0.12500000000E+03  0.12500000000E+03 0.  0.
        -13    1    3    3    0    0 -0.42836017010E+02  0.85094701379E+01  0.43381894348E+02  0.61557577572E+02  0.10566000000E+00 0. -1.
         23    2    1    0    0    0 -0.24543667319E+02  0.82272004344E+01  0.15743181285E+02  0.94702703266E+02  0.89725558323E+02 0.  0.
         13    1    3    3    0    0  0.18292349691E+02 -0.28226970347E+00 -0.27638713063E+02  0.33145125693E+02  0.10566000000E+00 0.  1.
         22    1    1    0    0    0  0.24543667319E+02 -0.82272004344E+01 -0.15743181285E+02  0.30297296734E+02  0.00000000000E+00 0. -1.
</event>
<event>
 5    1  0.2295636E-004  0.9118800E+02  0.7818608E-02  0.1130116E+00
         25   -1    0    0    0    0  0.00000000000E+00  0.00000000000E+00  0.99999998245E-14  0.12500000000E+03  0.12500000000E+03 0.  0.
        -13    1    3    3    0    0  0.35905902104E+01 -0.47638757362E+02  0.32779721698E+02  0.57938457519E+02  0.10566000000E+00 0.  1.
         23    2    1    0    0    0  0.17859258741E+02 -0.20922010691E+02  0.10426011860E+02  0.95582566777E+02  0.90943068423E+02 0.  0.
         13    1    3    3    0    0  0.14268668531E+02  0.26716746670E+02 -0.22353709838E+02  0.37644109258E+02  0.10566000000E+00 0. -1.
         22    1    1    0    0    0 -0.17859258741E+02  0.20922010691E+02 -0.10426011860E+02  0.29417433223E+02  0.00000000000E+00 0.  1.
</event>
<event>
 5    1  0.2295636E-004  0.9118800E+02  0.7818608E-02  0.1130116E+00
         25   -1    0    0    0    0  0.00000000000E+00  0.00000000000E+00  0.99999998245E-14  0.12500000000E+03  0.12500000000E+03 0.  0.
        -13    1    3    3    0    0 -0.23026881447E+02 -0.25825212471E+01 -0.31866930642E+02  0.39400750218E+02  0.10566000000E+00 0.  1.
         23    2    1    0    0    0 -0.78908349306E+00  0.23855267760E+02  0.14386118625E+02  0.97131435958E+02  0.93047616786E+02 0.  0.
         13    1    3    3    0    0  0.22237797954E+02  0.26437789007E+02  0.46253049268E+02  0.57730685740E+02  0.10566000000E+00 0. -1.
         22    1    1    0    0    0  0.78908349306E+00 -0.23855267760E+02 -0.14386118625E+02  0.27868564042E+02  0.00000000000E+00 0. -1.
</event>
<event>
 5    1  0.2295636E-004  0.9118800E+02  0.7818608E-02  0.1130116E+00
         25   -1    0    0    0    0  0.00000000000E+00  0.00000000000E+00  0.99999998245E-14  0.12500000000E+03  0.12500000000E+03 0.  0.
        -13    1    3    3    0    0  0.25444343782E+02  0.28090066110E+02  0.11247447786E+02  0.39534575884E+02  0.10566000000E+00 0.  1.
         23    2    1    0    0    0 -0.21036561758E+02 -0.24618057138E+01  0.20032576812E+02  0.95846928949E+02  0.91305707583E+02 0.  0.
         13    1    3    3    0    0 -0.46480905539E+02 -0.30551871824E+02  0.87851290263E+01  0.56312353065E+02  0.10566000000E+00 0. -1.
         22    1    1    0    0    0  0.21036561758E+02  0.24618057138E+01 -0.20032576812E+02  0.29153071051E+02  0.00000000000E+00 0. -1.
</event>
<event>
 5    1  0.2295636E-004  0.9118800E+02  0.7818608E-02  0.1130116E+00
         25   -1    0    0    0    0  0.00000000000E+00  0.00000000000E+00  0.99999998245E-14  0.12500000000E+03  0.12500000000E+03 0.  0.
        -13    1    3    3    0    0  0.23657472939E+02 -0.38362675963E+02  0.28039916126E+02  0.53081248980E+02  0.10566000000E+00 0. -1.
         23    2    1    0    0    0 -0.30035976477E+01 -0.28784279873E+02 -0.39262639059E+01  0.95794317079E+02  0.91233652068E+02 0.  0.
         13    1    3    3    0    0 -0.26661070587E+02  0.95783960899E+01 -0.31966180032E+02  0.42713068098E+02  0.10566000000E+00 0.  1.
         22    1    1    0    0    0  0.30035976477E+01  0.28784279873E+02  0.39262639059E+01  0.29205682921E+02  0.00000000000E+00 0. -1.
</event>
<event>
 5    1  0.2295636E-004  0.9118800E+02  0.7818608E-02  0.1130116E+00
         25   -1    0    0    0    0  0.00000000000E+00  0.00000000000E+00  0.99999998245E-14  0.12500000000E+03  0.12500000000E+03 0.  0.
        -13    1    3    3    0    0  0.32559521466E+02  0.91701718657E+01  0.96613802918E+01  0.35179083605E+02  0.10566000000E+00 0. -1.
         23    2    1    0    0    0 -0.15435848259E+02 -0.13607007682E+02 -0.20235915304E+02  0.96139848619E+02  0.91705845805E+02 0.  0.
         13    1    3    3    0    0 -0.47995369724E+02 -0.22777179548E+02 -0.29897295596E+02  0.60960765014E+02  0.10566000000E+00 0.  1.
         22    1    1    0    0    0  0.15435848259E+02  0.13607007682E+02  0.20235915304E+02  0.28860151381E+02  0.00000000000E+00 0.  1.
</event>
<event>
 5    1  0.2295636E-004  0.9118800E+02  0.7818608E-02  0.1130116E+00
         25   -1    0    0    0    0  0.00000000000E+00  0.00000000000E+00  0.99999998245E-14  0.12500000000E+03  0.12500000000E+03 0.  0.
        -13    1    3    3    0    0 -0.32779289071E+02 -0.50094939069E+02 -0.72028194167E+01  0.60298229526E+02  0.10566000000E+00 0. -1.
         23    2    1    0    0    0 -0.81008342762E+01 -0.23337309310E+02 -0.12882631110E+02  0.97139352015E+02  0.93058250595E+02 0.  0.
         13    1    3    3    0    0  0.24678454795E+02  0.26757629759E+02 -0.56798116930E+01  0.36841122490E+02  0.10566000000E+00 0.  1.
         22    1    1    0    0    0  0.81008342762E+01  0.23337309310E+02  0.12882631110E+02  0.27860647985E+02  0.00000000000E+00 0. -1.
</event>
<event>
 5    1  0.2295636E-004  0.9118800E+02  0.7818608E-02  0.1130116E+00
         25   -1    0    0    0    0  0.00000000000E+00  0.00000000000E+00  0.99999998245E-14  0.12500000000E+03  0.12500000000E+03 0.  0.
        -13    1    3    3    0    0 -0.53203159884E+02 -0.19055022574E+02  0.10034355454E+02  0.57396598857E+02  0.10566000000E+00 0.  1.
         23    2    1    0    0    0 -0.36367123050E+02 -0.19737087581E+01  0.20092914617E+02  0.83404466790E+02  0.72291885420E+02 0.  0.
         13    1    3    3    0    0  0.16836036834E+02  0.17081313816E+02  0.10058559163E+02  0.26007867933E+02  0.10566000000E+00 0. -1.
         22    1    1    0    0    0  0.36367123050E+02  0.19737087581E+01 -0.20092914617E+02  0.41595533210E+02  0.00000000000E+00 0.  1.
</event>
<event>
 5    1  0.2295636E-004  0.9118800E+02  0.7818608E-02  0.1130116E+00
         25   -1    0    0    0    0  0.00000000000E+00  0.00000000000E+00  0.99999998245E-14  0.12500000000E+03  0.12500000000E+03 0.  0.
        -13    1    3    3    0    0 -0.31726754486E+02 -0.24066502753E+02  0.46718099582E+02  0.61387095530E+02  0.10566000000E+00 0.  1.
         23    2    1    0    0    0 -0.12138998195E+02 -0.18402321331E+02  0.18386326400E+02  0.96293594686E+02  0.91915171063E+02 0.  0.
         13    1    3    3    0    0  0.19587756292E+02  0.56641814220E+01 -0.28331773181E+02  0.34906499156E+02  0.10566000000E+00 0. -1.
         22    1    1    0    0    0  0.12138998195E+02  0.18402321331E+02 -0.18386326400E+02  0.28706405314E+02  0.00000000000E+00 0.  1.
</event>
<event>
 5    1  0.2295636E-004  0.9118800E+02  0.7818608E-02  0.1130116E+00
         25   -1    0    0    0    0  0.00000000000E+00  0.00000000000E+00  0.99999998245E-14  0.12500000000E+03  0.12500000000E+03 0.  0.
        -13    1    3    3    0    0 -0.30104753264E+02 -0.39501617052E+02  0.29268658114E+02  0.57648412213E+02  0.10566000000E+00 0. -1.
         23    2    1    0    0    0 -0.11369579987E+02 -0.26305773721E+02 -0.18364370591E+01  0.96283566009E+02  0.91901531555E+02 0.  0.
         13    1    3    3    0    0  0.18735173278E+02  0.13195843332E+02 -0.31105095174E+02  0.38635153795E+02  0.10566000000E+00 0.  1.
         22    1    1    0    0    0  0.11369579987E+02  0.26305773721E+02  0.18364370591E+01  0.28716433991E+02  0.00000000000E+00 0. -1.
</event>
<event>
 5    1  0.2295636E-004  0.9118800E+02  0.7818608E-02  0.1130116E+00
         25   -1    0    0    0    0  0.00000000000E+00  0.00000000000E+00  0.99999998245E-14  0.12500000000E+03  0.12500000000E+03 0.  0.
        -13    1    3    3    0    0  0.36682249230E+02  0.23118619397E+02  0.19605696897E+02  0.47586263630E+02  0.10566000000E+00 0.  1.
         23    2    1    0    0    0 -0.10993318482E+02  0.24248839244E+02  0.11666559555E+02  0.95931668989E+02  0.91421645398E+02 0.  0.
         13    1    3    3    0    0 -0.47675567712E+02  0.11302198462E+01 -0.79391373420E+01  0.48345405359E+02  0.10566000000E+00 0. -1.
         22    1    1    0    0    0  0.10993318482E+02 -0.24248839244E+02 -0.11666559555E+02  0.29068331011E+02  0.00000000000E+00 0.  1.
</event>
<event>
 5    1  0.2295636E-004  0.9118800E+02  0.7818608E-02  0.1130116E+00
         25   -1    0    0    0    0  0.00000000000E+00  0.00000000000E+00  0.99999998245E-14  0.12500000000E+03  0.12500000000E+03 0.  0.
        -13    1    3    3    0    0  0.31849661178E+02 -0.51465776663E+01 -0.45904836985E+02  0.56108407583E+02  0.10566000000E+00 0.  1.
         23    2    1    0    0    0  0.29002352747E+02 -0.26703634648E+01 -0.71982554817E+01  0.94998630234E+02  0.90136882343E+02 0.  0.
         13    1    3    3    0    0 -0.28473084314E+01  0.24762142015E+01  0.38706581504E+02  0.38890222651E+02  0.10566000000E+00 0. -1.
         22    1    1    0    0    0 -0.29002352747E+02  0.26703634648E+01  0.71982554817E+01  0.30001369766E+02  0.00000000000E+00 0.  1.
</event>
<event>
 5    1  0.2295636E-004  0.9118800E+02  0.7818608E-02  0.1130116E+00
         25   -1    0    0    0    0  0.00000000000E+00  0.00000000000E+00  0.99999998245E-14  0.12500000000E+03  0.12500000000E+03 0.  0.
        -13    1    3    3    0    0 -0.54070789222E+02 -0.24798669258E+02  0.12129275403E+01  0.59498794957E+02  0.10566000000E+00 0.  1.
         23    2    1    0    0    0 -0.28845673484E+02  0.69989499918E+00 -0.44301328917E+01  0.95807726892E+02  0.91252023117E+02 0.  0.
         13    1    3    3    0    0  0.25225115738E+02  0.25498564257E+02 -0.56430604320E+01  0.36308931935E+02  0.10566000000E+00 0. -1.
         22    1    1    0    0    0  0.28845673484E+02 -0.69989499918E+00  0.44301328917E+01  0.29192273108E+02  0.00000000000E+00 0.  1.
</event>
<event>
 5    1  0.2295636E-004  0.9118800E+02  0.7818608E-02  0.1130116E+00
         25   -1    0    0    0    0  0.00000000000E+00  0.00000000000E+00  0.99999998245E-14  0.12500000000E+03  0.12500000000E+03 0.  0.
        -13    1    3    3    0    0 -0.59377718001E+01 -0.12564939572E+02 -0.31136767386E+02  0.34097570114E+02  0.10566000000E+00 0. -1.
         23    2    1    0    0    0 -0.20131713373E+02  0.18453822539E+02  0.16802797155E+02  0.92935012212E+02  0.87228166626E+02 0.  0.
         13    1    3    3    0    0 -0.14193941573E+02  0.31018762110E+02  0.47939564540E+02  0.58837442098E+02  0.10566000000E+00 0.  1.
         22    1    1    0    0    0  0.20131713373E+02 -0.18453822539E+02 -0.16802797155E+02  0.32064987788E+02  0.00000000000E+00 0.  1.
</event>
<event>
 5    1  0.2295636E-004  0.9118800E+02  0.7818608E-02  0.1130116E+00
         25   -1    0    0    0    0  0.00000000000E+00  0.00000000000E+00  0.99999998245E-14  0.12500000000E+03  0.12500000000E+03 0.  0.
        -13    1    3    3    0    0  0.97081472795E+01  0.23738802424E+02  0.30024029791E+02  0.39487116798E+02  0.10566000000E+00 0.  1.
         23    2    1    0    0    0  0.24227999488E+02 -0.19859627283E+02  0.13677572527E+01  0.93642839496E+02  0.88236669667E+02 0.  0.
         13    1    3    3    0    0  0.14519852208E+02 -0.43598429707E+02 -0.28656272538E+02  0.54155722697E+02  0.10566000000E+00 0. -1.
         22    1    1    0    0    0 -0.24227999488E+02  0.19859627283E+02 -0.13677572527E+01  0.31357160504E+02  0.00000000000E+00 0. -1.
</event>
<event>
 5    1  0.2295636E-004  0.9118800E+02  0.7818608E-02  0.1130116E+00
         25   -1    0    0    0    0  0.00000000000E+00  0.00000000000E+00  0.99999998245E-14  0.12500000000E+03  0.12500000000E+03 0.  0.
        -13    1    3    3    0    0 -0.39407130766E+02  0.88083583375E+01  0.88584439949E+00  0.40389417130E+02  0.10566000000E+00 0.  1.
         23    2    1    0    0    0  0.86059498513E+01 -0.71417132580E+01 -0.25286151372E+02  0.97351204505E+02  0.93342386547E+02 0.  0.
         13    1    3    3    0    0  0.48013080617E+02 -0.15950071596E+02 -0.26171995771E+02  0.56961787375E+02  0.10566000000E+00 0. -1.
         22    1    1    0    0    0 -0.86059498513E+01  0.71417132580E+01  0.25286151372E+02  0.27648795495E+02  0.00000000000E+00 0. -1.
</event>
<event>
 5    1  0.2295636E-004  0.9118800E+02  0.7818608E-02  0.1130116E+00
         25   -1    0    0    0    0  0.00000000000E+00  0.00000000000E+00  0.99999998245E-14  0.12500000000E+03  0.12500000000E+03 0.  0.
        -13    1    3    3    0    0 -0.29960885182E+02 -0.25574347946E+02  0.72078636303E+01  0.40045803474E+02  0.10566000000E+00 0.  1.
         23    2    1    0    0    0 -0.13876307179E+02  0.24892473464E+02 -0.84411400049E+01  0.95277281741E+02  0.90522485799E+02 0.  0.
         13    1    3    3    0    0  0.16084578002E+02  0.50466821410E+02 -0.15649003635E+02  0.55231478267E+02  0.10566000000E+00 0. -1.
         22    1    1    0    0    0  0.13876307179E+02 -0.24892473464E+02  0.84411400049E+01  0.29722718259E+02  0.00000000000E+00 0. -1.
</event>
<event>
 5    1  0.2295636E-004  0.9118800E+02  0.7818608E-02  0.1130116E+00
         25   -1    0    0    0    0  0.00000000000E+00  0.00000000000E+00  0.99999998245E-14  0.12500000000E+03  0.12500000000E+03 0.  0.
        -13    1    3    3    0    0 -0.54713995530E+02  0.11241501640E+02 -0.11896939837E+02  0.57109902884E+02  0.10566000000E+00 0. -1.
         23    2    1    0    0    0 -0.19829548283E+02  0.20966957740E+02 -0.13015343632E+02  0.93342086742E+02  0.87809576275E+02 0.  0.
         13    1    3    3    0    0  0.34884447246E+02  0.97254560993E+01 -0.11184037951E+01  0.36232183858E+02  0.10566000000E+00 0.  1.
         22    1    1    0    0    0  0.19829548283E+02 -0.20966957740E+02  0.13015343632E+02  0.31657913258E+02  0.00000000000E+00 0. -1.
</event>
<event>
 5    1  0.2295636E-004  0.9118800E+02  0.7818608E-02  0.1130116E+00
         25   -1    0    0    0    0  0.00000000000E+00  0.00000000000E+00  0.99999998245E-14  0.12500000000E+03  0.12500000000E+03 0.  0.
        -13    1    3    3    0    0  0.35629023846E+01  0.17113996639E+02  0.33991350637E+02  0.38223111288E+02  0.10566000000E+00 0. -1.
         23    2    1    0    0    0  0.18632332694E+02  0.10129645444E+02 -0.20690026603E+02  0.95371453979E+02  0.90652432371E+02 0.  0.
         13    1    3    3    0    0  0.15069430309E+02 -0.69843511952E+01 -0.54681377240E+02  0.57148342692E+02  0.10566000000E+00 0.  1.
         22    1    1    0    0    0 -0.18632332694E+02 -0.10129645444E+02  0.20690026603E+02  0.29628546021E+02  0.00000000000E+00 0.  1.
</event>
<event>
 5    1  0.2295636E-004  0.9118800E+02  0.7818608E-02  0.1130116E+00
         25   -1    0    0    0    0  0.00000000000E+00  0.00000000000E+00  0.99999998245E-14  0.12500000000E+03  0.12500000000E+03 0.  0.
        -13    1    3    3    0    0  0.13181470951E+02 -0.17425328957E+02  0.24991680027E+02  0.33196212138E+02  0.10566000000E+00 0.  1.
         23    2    1    0    0    0 -0.24700382484E+01  0.23125081856E+02 -0.18947444272E+02  0.95002064334E+02  0.90141644557E+02 0.  0.
         13    1    3    3    0    0 -0.15651509200E+02  0.40550410813E+02 -0.43939124299E+02  0.61805852195E+02  0.10566000000E+00 0. -1.
         22    1    1    0    0    0  0.24700382484E+01 -0.23125081856E+02  0.18947444272E+02  0.29997935666E+02  0.00000000000E+00 0. -1.
</event>
<event>
 5    1  0.2295636E-004  0.9118800E+02  0.7818608E-02  0.1130116E+00
         25   -1    0    0    0    0  0.00000000000E+00  0.00000000000E+00  0.99999998245E-14  0.12500000000E+03  0.12500000000E+03 0.  0.
        -13    1    3    3    0    0  0.42728871247E+02  0.26115253310E+02  0.45764665792E+01  0.50286361012E+02  0.10566000000E+00 0. -1.
         23    2    1    0    0    0  0.13422664294E+01  0.23238491677E+02 -0.16156516459E+02  0.96665176925E+02  0.92419122650E+02 0.  0.
         13    1    3    3    0    0 -0.41386604817E+02 -0.28767616333E+01 -0.20732983039E+02  0.46378815913E+02  0.10566000000E+00 0.  1.
         22    1    1    0    0    0 -0.13422664294E+01 -0.23238491677E+02  0.16156516459E+02  0.28334823075E+02  0.00000000000E+00 0. -1.
</event>
<event>
 5    1  0.2295636E-004  0.9118800E+02  0.7818608E-02  0.1130116E+00
         25   -1    0    0    0    0  0.00000000000E+00  0.00000000000E+00  0.99999998245E-14  0.12500000000E+03  0.12500000000E+03 0.  0.
        -13    1    3    3    0    0  0.15897582525E+02  0.41401614289E+02 -0.31150002494E+02  0.54195577452E+02  0.10566000000E+00 0.  1.
         23    2    1    0    0    0  0.24354993964E+02  0.11092219735E+02 -0.33846758730E+00  0.98235889143E+02  0.94519692582E+02 0.  0.
         13    1    3    3    0    0  0.84574114393E+01 -0.30309394555E+02  0.30811534907E+02  0.44040311691E+02  0.10566000000E+00 0. -1.
         22    1    1    0    0    0 -0.24354993964E+02 -0.11092219735E+02  0.33846758730E+00  0.26764110857E+02  0.00000000000E+00 0.  1.
</event>
<event>
 5    1  0.2295636E-004  0.9118800E+02  0.7818608E-02  0.1130116E+00
         25   -1    0    0    0    0  0.00000000000E+00  0.00000000000E+00  0.99999998245E-14  0.12500000000E+03  0.12500000000E+03 0.  0.
        -13    1    3    3    0    0 -0.14575359321E+02 -0.40162963668E+02  0.19782137714E+02  0.47083424753E+02  0.10566000000E+00 0. -1.
         23    2    1    0    0    0 -0.19033706216E+02  0.94809469423E+01  0.18293788438E+02  0.96949455929E+02  0.92802823138E+02 0.  0.
         13    1    3    3    0    0 -0.44583468948E+01  0.49643910610E+02 -0.14883492755E+01  0.49866031176E+02  0.10566000000E+00 0.  1.
         22    1    1    0    0    0  0.19033706216E+02 -0.94809469423E+01 -0.18293788438E+02  0.28050544071E+02  0.00000000000E+00 0.  1.
</event>
<event>
 5    1  0.2295636E-004  0.9118800E+02  0.7818608E-02  0.1130116E+00
         25   -1    0    0    0    0  0.00000000000E+00  0.00000000000E+00  0.99999998245E-14  0.12500000000E+03  0.12500000000E+03 0.  0.
        -13    1    3    3    0    0 -0.33439861685E+02 -0.24094852297E+02 -0.18308142579E+02  0.45099728441E+02  0.10566000000E+00 0. -1.
         23    2    1    0    0    0 -0.14771729931E+02  0.22844221126E+02 -0.49772565584E+01  0.97344340058E+02  0.93333193530E+02 0.  0.
         13    1    3    3    0    0  0.18668131754E+02  0.46939073422E+02  0.13330886021E+02  0.52244611617E+02  0.10566000000E+00 0.  1.
         22    1    1    0    0    0  0.14771729931E+02 -0.22844221126E+02  0.49772565584E+01  0.27655659942E+02  0.00000000000E+00 0. -1.
</event>
<event>
 5    1  0.2295636E-004  0.9118800E+02  0.7818608E-02  0.1130116E+00
         25   -1    0    0    0    0  0.00000000000E+00  0.00000000000E+00  0.99999998245E-14  0.12500000000E+03  0.12500000000E+03 0.  0.
        -13    1    3    3    0    0 -0.74892342354E+01 -0.11033428773E+02 -0.59341893384E+02  0.60821843563E+02  0.10566000000E+00 0.  1.
         23    2    1    0    0    0  0.48719840543E+00 -0.14233198582E+02 -0.24949135772E+02  0.96272301172E+02  0.91886208394E+02 0.  0.
         13    1    3    3    0    0  0.79764326408E+01 -0.31997698083E+01  0.34392757612E+02  0.35450457609E+02  0.10566000000E+00 0. -1.
         22    1    1    0    0    0 -0.48719840543E+00  0.14233198582E+02  0.24949135772E+02  0.28727698828E+02  0.00000000000E+00 0.  1.
</event>
<event>
 5    1  0.2295636E-004  0.9118800E+02  0.7818608E-02  0.1130116E+00
         25   -1    0    0    0    0  0.00000000000E+00  0.00000000000E+00  0.99999998245E-14  0.12500000000E+03  0.12500000000E+03 0.  0.
        -13    1    3    3    0    0  0.24902305296E+02  0.68059777922E+01  0.28274720857E+02  0.38287297454E+02  0.10566000000E+00 0.  1.
         23    2    1    0    0    0  0.56955789425E+01  0.87532913611E+01 -0.26581073958E+02  0.96441057059E+02  0.92115494162E+02 0.  0.
         13    1    3    3    0    0 -0.19206726354E+02  0.19473135689E+01 -0.54855794815E+02  0.58153759605E+02  0.10566000000E+00 0. -1.
         22    1    1    0    0    0 -0.56955789425E+01 -0.87532913611E+01  0.26581073958E+02  0.28558942941E+02  0.00000000000E+00 0. -1.
</event>
<event>
 5    1  0.2295636E-004  0.9118800E+02  0.7818608E-02  0.1130116E+00
         25   -1    0    0    0    0  0.00000000000E+00  0.00000000000E+00  0.99999998245E-14  0.12500000000E+03  0.12500000000E+03 0.  0.
        -13    1    3    3    0    0 -0.26844153127E+02 -0.70167360108E+01  0.31971774039E+02  0.42332595486E+02  0.10566000000E+00 0. -1.
         23    2    1    0    0    0  0.18122701635E+02 -0.16022144082E+02  0.27446441663E+02  0.88415186546E+02  0.80490972391E+02 0.  0.
         13    1    3    3    0    0  0.44966854762E+02 -0.90054080712E+01 -0.45253323759E+01  0.46082591060E+02  0.10566000000E+00 0.  1.
         22    1    1    0    0    0 -0.18122701635E+02  0.16022144082E+02 -0.27446441663E+02  0.36584813454E+02  0.00000000000E+00 0. -1.
</event>
<event>
 5    1  0.2295636E-004  0.9118800E+02  0.7818608E-02  0.1130116E+00
         25   -1    0    0    0    0  0.00000000000E+00  0.00000000000E+00  0.99999998245E-14  0.12500000000E+03  0.12500000000E+03 0.  0.
        -13    1    3    3    0    0 -0.48598633748E+02  0.33834271280E+02  0.36757400482E+01  0.59330492532E+02  0.10566000000E+00 0.  1.
         23    2    1    0    0    0 -0.29128047715E+02  0.36552306208E+01 -0.14409005742E+01  0.95608163224E+02  0.90978243587E+02 0.  0.
         13    1    3    3    0    0  0.19470586033E+02 -0.30179040659E+02 -0.51166406224E+01  0.36277670692E+02  0.10566000000E+00 0. -1.
         22    1    1    0    0    0  0.29128047715E+02 -0.36552306208E+01  0.14409005742E+01  0.29391836776E+02  0.00000000000E+00 0.  1.
</event>
<event>
 5    1  0.2295636E-004  0.9118800E+02  0.7818608E-02  0.1130116E+00
         25   -1    0    0    0    0  0.00000000000E+00  0.00000000000E+00  0.99999998245E-14  0.12500000000E+03  0.12500000000E+03 0.  0.
        -13    1    3    3    0    0  0.42696840330E+01 -0.98070913100E+01  0.53603593459E+02  0.54660457713E+02  0.10566000000E+00 0.  1.
         23    2    1    0    0    0  0.19620155275E+02 -0.14315811443E+02  0.14986235913E+02  0.96460900205E+02  0.92142417220E+02 0.  0.
         13    1    3    3    0    0  0.15350471242E+02 -0.45087201333E+01 -0.38617357546E+02  0.41800442491E+02  0.10566000000E+00 0. -1.
         22    1    1    0    0    0 -0.19620155275E+02  0.14315811443E+02 -0.14986235913E+02  0.28539099795E+02  0.00000000000E+00 0.  1.
</event>
<event>
 5    1  0.2295636E-004  0.9118800E+02  0.7818608E-02  0.1130116E+00
         25   -1    0    0    0    0  0.00000000000E+00  0.00000000000E+00  0.99999998245E-14  0.12500000000E+03  0.12500000000E+03 0.  0.
        -13    1    3    3    0    0  0.41588762562E+02  0.34888465104E+02  0.26207868282E+02  0.60280126847E+02  0.10566000000E+00 0.  1.
         23    2    1    0    0    0  0.22828285199E+02  0.24519396181E+02  0.38095001908E+01  0.91282887344E+02  0.84827600673E+02 0.  0.
         13    1    3    3    0    0 -0.18760477363E+02 -0.10369068923E+02 -0.22398368092E+02  0.31002760497E+02  0.10566000000E+00 0. -1.
         22    1    1    0    0    0 -0.22828285199E+02 -0.24519396181E+02 -0.38095001908E+01  0.33717112656E+02  0.00000000000E+00 0.  1.
</event>
<event>
 5    1  0.2295636E-004  0.9118800E+02  0.7818608E-02  0.1130116E+00
         25   -1    0    0    0    0  0.00000000000E+00  0.00000000000E+00  0.99999998245E-14  0.12500000000E+03  0.12500000000E+03 0.  0.
        -13    1    3    3    0    0 -0.55562004619E+02 -0.38047215287E+01 -0.23073996969E+02  0.60282939239E+02  0.10566000000E+00 0.  1.
         23    2    1    0    0    0 -0.21914300524E+02  0.68261034379E+01 -0.17782300471E+02  0.95964806430E+02  0.91466942703E+02 0.  0.
         13    1    3    3    0    0  0.33647704095E+02  0.10630824967E+02  0.52916964973E+01  0.35681867190E+02  0.10566000000E+00 0. -1.
         22    1    1    0    0    0  0.21914300524E+02 -0.68261034379E+01  0.17782300471E+02  0.29035193570E+02  0.00000000000E+00 0.  1.
</event>
<event>
 5    1  0.2295636E-004  0.9118800E+02  0.7818608E-02  0.1130116E+00
         25   -1    0    0    0    0  0.00000000000E+00  0.00000000000E+00  0.99999998245E-14  0.12500000000E+03  0.12500000000E+03 0.  0.
        -13    1    3    3    0    0  0.42518465443E+02  0.14000287744E+02  0.34269503876E+02  0.56375863812E+02  0.10566000000E+00 0. -1.
         23    2    1    0    0    0  0.27187278267E+02 -0.82809749484E+01  0.51527859492E+01  0.96116200930E+02  0.91673607067E+02 0.  0.
         13    1    3    3    0    0 -0.15331187176E+02 -0.22281262693E+02 -0.29116717927E+02  0.39740337119E+02  0.10566000000E+00 0.  1.
         22    1    1    0    0    0 -0.27187278267E+02  0.82809749484E+01 -0.51527859492E+01  0.28883799070E+02  0.00000000000E+00 0. -1.
</event>
<event>
 5    1  0.2295636E-004  0.9118800E+02  0.7818608E-02  0.1130116E+00
         25   -1    0    0    0    0  0.00000000000E+00  0.00000000000E+00  0.99999998245E-14  0.12500000000E+03  0.12500000000E+03 0.  0.
        -13    1    3    3    0    0 -0.45278393345E+01 -0.54065537034E+02 -0.20538213355E+02  0.58012179719E+02  0.10566000000E+00 0. -1.
         23    2    1    0    0    0 -0.42663456451E+01 -0.28812204334E+02  0.66540603696E+01  0.95123230711E+02  0.90309510450E+02 0.  0.
         13    1    3    3    0    0  0.26149368945E+00  0.25253332700E+02  0.27192273724E+02  0.37111050992E+02  0.10566000000E+00 0.  1.
         22    1    1    0    0    0  0.42663456451E+01  0.28812204334E+02 -0.66540603696E+01  0.29876769289E+02  0.00000000000E+00 0. -1.
</event>
<event>
 5    1  0.2295636E-004  0.9118800E+02  0.7818608E-02  0.1130116E+00
         25   -1    0    0    0    0  0.00000000000E+00  0.00000000000E+00  0.99999998245E-14  0.12500000000E+03  0.12500000000E+03 0.  0.
        -13    1    3    3    0    0 -0.38243613882E+02 -0.10132557728E+02  0.10731312551E+02  0.40992864769E+02  0.10566000000E+00 0. -1.
         23    2    1    0    0    0  0.15655652950E+02 -0.22711148725E+02  0.73981303499E+01  0.96440796959E+02  0.92115141207E+02 0.  0.
         13    1    3    3    0    0  0.53899266832E+02 -0.12578590997E+02 -0.33331822007E+01  0.55447932190E+02  0.10566000000E+00 0.  1.
         22    1    1    0    0    0 -0.15655652950E+02  0.22711148725E+02 -0.73981303499E+01  0.28559203041E+02  0.00000000000E+00 0.  1.
</event>
<event>
 5    1  0.2295636E-004  0.9118800E+02  0.7818608E-02  0.1130116E+00
         25   -1    0    0    0    0  0.00000000000E+00  0.00000000000E+00  0.99999998245E-14  0.12500000000E+03  0.12500000000E+03 0.  0.
        -13    1    3    3    0    0  0.55828448420E+01  0.68987314510E+00  0.59770875464E+02  0.60035096396E+02  0.10566000000E+00 0.  1.
         23    2    1    0    0    0  0.87609809312E+01  0.10826554776E+02  0.25126305193E+02  0.96271959902E+02  0.91885744137E+02 0.  0.
         13    1    3    3    0    0  0.31781360892E+01  0.10136681631E+02 -0.34644570271E+02  0.36236863506E+02  0.10566000000E+00 0. -1.
         22    1    1    0    0    0 -0.87609809312E+01 -0.10826554776E+02 -0.25126305193E+02  0.28728040098E+02  0.00000000000E+00 0.  1.
</event>
<event>
 5    1  0.2295636E-004  0.9118800E+02  0.7818608E-02  0.1130116E+00
         25   -1    0    0    0    0  0.00000000000E+00  0.00000000000E+00  0.99999998245E-14  0.12500000000E+03  0.12500000000E+03 0.  0.
        -13    1    3    3    0    0  0.17525279329E+01  0.28199277999E+02 -0.45309926955E+02  0.53397296547E+02  0.10566000000E+00 0.  1.
         23    2    1    0    0    0 -0.21095502422E+02  0.19149758921E+02 -0.13841383519E+02  0.93324814335E+02  0.87784984956E+02 0.  0.
         13    1    3    3    0    0 -0.22848030355E+02 -0.90495190784E+01  0.31468543436E+02  0.39927517788E+02  0.10566000000E+00 0. -1.
         22    1    1    0    0    0  0.21095502422E+02 -0.19149758921E+02  0.13841383519E+02  0.31675185665E+02  0.00000000000E+00 0.  1.
</event>
<event>
 5    1  0.2295636E-004  0.9118800E+02  0.7818608E-02  0.1130116E+00
         25   -1    0    0    0    0  0.00000000000E+00  0.00000000000E+00  0.99999998245E-14  0.12500000000E+03  0.12500000000E+03 0.  0.
        -13    1    3    3    0    0  0.38964246711E+02 -0.67872742645E+01  0.13101212703E+02  0.41664523903E+02  0.10566000000E+00 0.  1.
         23    2    1    0    0    0  0.46926524718E+01  0.30959671832E+02  0.47210911039E+01  0.93332809276E+02  0.87796368484E+02 0.  0.
         13    1    3    3    0    0 -0.34271594240E+02  0.37746946096E+02 -0.83801215988E+01  0.51668285373E+02  0.10566000000E+00 0. -1.
         22    1    1    0    0    0 -0.46926524718E+01 -0.30959671832E+02 -0.47210911039E+01  0.31667190724E+02  0.00000000000E+00 0. -1.
</event>
<event>
 5    1  0.2295636E-004  0.9118800E+02  0.7818608E-02  0.1130116E+00
         25   -1    0    0    0    0  0.00000000000E+00  0.00000000000E+00  0.99999998245E-14  0.12500000000E+03  0.12500000000E+03 0.  0.
        -13    1    3    3    0    0  0.31811736303E+02  0.52954712875E+01 -0.13752770501E+02  0.35059641231E+02  0.10566000000E+00 0.  1.
         23    2    1    0    0    0 -0.91603878395E+01  0.26604925217E+02  0.18442682157E+02  0.91356764776E+02  0.84936394991E+02 0.  0.
         13    1    3    3    0    0 -0.40972124143E+02  0.21309453929E+02  0.32195452659E+02  0.56297123545E+02  0.10566000000E+00 0. -1.
         22    1    1    0    0    0  0.91603878395E+01 -0.26604925217E+02 -0.18442682157E+02  0.33643235224E+02  0.00000000000E+00 0.  1.
</event>
<event>
 5    1  0.2295636E-004  0.9118800E+02  0.7818608E-02  0.1130116E+00
         25   -1    0    0    0    0  0.00000000000E+00  0.00000000000E+00  0.99999998245E-14  0.12500000000E+03  0.12500000000E+03 0.  0.
        -13    1    3    3    0    0 -0.12862339189E+02 -0.25125259324E+02 -0.17863146098E+02  0.33403915610E+02  0.10566000000E+00 0. -1.
         23    2    1    0    0    0  0.69703017893E+01  0.15393647064E+02  0.24465917477E+02  0.95265666395E+02  0.90506445067E+02 0.  0.
         13    1    3    3    0    0  0.19832640979E+02  0.40518906388E+02  0.42329063575E+02  0.61861750785E+02  0.10566000000E+00 0.  1.
         22    1    1    0    0    0 -0.69703017893E+01 -0.15393647064E+02 -0.24465917477E+02  0.29734333605E+02  0.00000000000E+00 0.  1.
</event>
<event>
 5    1  0.2295636E-004  0.9118800E+02  0.7818608E-02  0.1130116E+00
         25   -1    0    0    0    0  0.00000000000E+00  0.00000000000E+00  0.99999998245E-14  0.12500000000E+03  0.12500000000E+03 0.  0.
        -13    1    3    3    0    0 -0.20923853424E+02 -0.24729253829E+02 -0.85679312531E+01  0.33507674450E+02  0.10566000000E+00 0.  1.
         23    2    1    0    0    0  0.20620968415E+02  0.99341868406E+01  0.19920711371E+02  0.94656184352E+02  0.89660727680E+02 0.  0.
         13    1    3    3    0    0  0.41544821839E+02  0.34663440670E+02  0.28488642624E+02  0.61148509902E+02  0.10566000000E+00 0. -1.
         22    1    1    0    0    0 -0.20620968415E+02 -0.99341868406E+01 -0.19920711371E+02  0.30343815648E+02  0.00000000000E+00 0. -1.
</event>
<event>
 5    1  0.2295636E-004  0.9118800E+02  0.7818608E-02  0.1130116E+00
         25   -1    0    0    0    0  0.00000000000E+00  0.00000000000E+00  0.99999998245E-14  0.12500000000E+03  0.12500000000E+03 0.  0.
        -13    1    3    3    0    0  0.27377344942E+02 -0.17189269102E+02 -0.47377083606E+02  0.57354940532E+02  0.10566000000E+00 0.  1.
         23    2    1    0    0    0  0.24975265670E+02  0.43262080742E+01 -0.17721304661E+02  0.94072267938E+02  0.88842934354E+02 0.  0.
         13    1    3    3    0    0 -0.24020792712E+01  0.21515477177E+02  0.29655778946E+02  0.36717327407E+02  0.10566000000E+00 0. -1.
         22    1    1    0    0    0 -0.24975265670E+02 -0.43262080742E+01  0.17721304661E+02  0.30927732062E+02  0.00000000000E+00 0.  1.
</event>
<event>
 5    1  0.2295636E-004  0.9118800E+02  0.7818608E-02  0.1130116E+00
         25   -1    0    0    0    0  0.00000000000E+00  0.00000000000E+00  0.99999998245E-14  0.12500000000E+03  0.12500000000E+03 0.  0.
        -13    1    3    3    0    0 -0.14015313960E+02 -0.18654855195E+02 -0.33242654303E+02  0.40614257064E+02  0.10566000000E+00 0.  1.
         23    2    1    0    0    0 -0.36348663003E+02  0.27848377469E+01  0.31680084200E+01  0.88407420141E+02  0.80478910500E+02 0.  0.
         13    1    3    3    0    0 -0.22333349043E+02  0.21439692942E+02  0.36410662723E+02  0.47793163077E+02  0.10566000000E+00 0. -1.
         22    1    1    0    0    0  0.36348663003E+02 -0.27848377469E+01 -0.31680084200E+01  0.36592579859E+02  0.00000000000E+00 0.  1.
</event>
<event>
 5    1  0.2295636E-004  0.9118800E+02  0.7818608E-02  0.1130116E+00
         25   -1    0    0    0    0  0.00000000000E+00  0.00000000000E+00  0.99999998245E-14  0.12500000000E+03  0.12500000000E+03 0.  0.
        -13    1    3    3    0    0  0.29469602289E+02  0.43199206093E+02  0.97112081248E+01  0.53187851935E+02  0.10566000000E+00 0.  1.
         23    2    1    0    0    0  0.19272030456E+02 -0.65394007565E+01  0.18718316727E+01  0.10456281150E+03  0.10254610121E+03 0.  0.
         13    1    3    3    0    0 -0.10197571833E+02 -0.49738606850E+02 -0.78393764521E+01  0.51374959561E+02  0.10566000000E+00 0. -1.
         22    1    1    0    0    0 -0.19272030456E+02  0.65394007565E+01 -0.18718316727E+01  0.20437188504E+02  0.00000000000E+00 0.  1.
</event>
<event>
 5    1  0.2295636E-004  0.9118800E+02  0.7818608E-02  0.1130116E+00
         25   -1    0    0    0    0  0.00000000000E+00  0.00000000000E+00  0.99999998245E-14  0.12500000000E+03  0.12500000000E+03 0.  0.
        -13    1    3    3    0    0 -0.93919194921E+01 -0.40272936448E+02 -0.42412707538E+02  0.59236530002E+02  0.10566000000E+00 0.  1.
         23    2    1    0    0    0  0.64198695093E+01 -0.12124533789E+02 -0.26339278523E+02  0.95301908525E+02  0.90556485860E+02 0.  0.
         13    1    3    3    0    0  0.15811789001E+02  0.28148402659E+02  0.16073429015E+02  0.36065378523E+02  0.10566000000E+00 0. -1.
         22    1    1    0    0    0 -0.64198695093E+01  0.12124533789E+02  0.26339278523E+02  0.29698091475E+02  0.00000000000E+00 0.  1.
</event>
<event>
 5    1  0.2295636E-004  0.9118800E+02  0.7818608E-02  0.1130116E+00
         25   -1    0    0    0    0  0.00000000000E+00  0.00000000000E+00  0.99999998245E-14  0.12500000000E+03  0.12500000000E+03 0.  0.
        -13    1    3    3    0    0 -0.39628747520E+02 -0.15554704108E+02 -0.13132521656E+02  0.44551775935E+02  0.10566000000E+00 0.  1.
         23    2    1    0    0    0 -0.11651255511E+01 -0.15968233910E+02  0.22766678248E+02  0.97167219862E+02  0.93095676407E+02 0.  0.
         13    1    3    3    0    0  0.38463621969E+02 -0.41352980223E+00  0.35899199903E+02  0.52615443927E+02  0.10566000000E+00 0. -1.
         22    1    1    0    0    0  0.11651255511E+01  0.15968233910E+02 -0.22766678248E+02  0.27832780138E+02  0.00000000000E+00 0. -1.
</event>
<event>
 5    1  0.2295636E-004  0.9118800E+02  0.7818608E-02  0.1130116E+00
         25   -1    0    0    0    0  0.00000000000E+00  0.00000000000E+00  0.99999998245E-14  0.12500000000E+03  0.12500000000E+03 0.  0.
        -13    1    3    3    0    0  0.26860464345E+02 -0.42034956223E+02 -0.11182962647E+02  0.51122322983E+02  0.10566000000E+00 0.  1.
         23    2    1    0    0    0  0.12638355263E+02 -0.70860072994E+01 -0.28797051196E+02  0.92763224715E+02  0.86981642769E+02 0.  0.
         13    1    3    3    0    0 -0.14222109082E+02  0.34948948924E+02 -0.17614088549E+02  0.41640901732E+02  0.10566000000E+00 0. -1.
         22    1    1    0    0    0 -0.12638355263E+02  0.70860072994E+01  0.28797051196E+02  0.32236775285E+02  0.00000000000E+00 0. -1.
</event>
<event>
 5    1  0.2295636E-004  0.9118800E+02  0.7818608E-02  0.1130116E+00
         25   -1    0    0    0    0  0.00000000000E+00  0.00000000000E+00  0.99999998245E-14  0.12500000000E+03  0.12500000000E+03 0.  0.
        -13    1    3    3    0    0  0.37704410224E+02 -0.76160620796E+01 -0.23601324491E-01  0.38466071712E+02  0.10566000000E+00 0.  1.
         23    2    1    0    0    0 -0.46741878425E+01 -0.29448261586E+02  0.18834841513E+02  0.89732459723E+02  0.82511301836E+02 0.  0.
         13    1    3    3    0    0 -0.42378598066E+02 -0.21832199506E+02  0.18858442837E+02  0.51266388010E+02  0.10566000000E+00 0. -1.
         22    1    1    0    0    0  0.46741878425E+01  0.29448261586E+02 -0.18834841513E+02  0.35267540277E+02  0.00000000000E+00 0. -1.
</event>
<event>
 5    1  0.2295636E-004  0.9118800E+02  0.7818608E-02  0.1130116E+00
         25   -1    0    0    0    0  0.00000000000E+00  0.00000000000E+00  0.99999998245E-14  0.12500000000E+03  0.12500000000E+03 0.  0.
        -13    1    3    3    0    0 -0.30854498700E+02  0.35857738228E+02  0.33217941023E+02  0.57803289272E+02  0.10566000000E+00 0.  1.
         23    2    1    0    0    0 -0.49410759840E+01  0.17748549893E+02  0.30282481355E+02  0.89553506066E+02  0.82239750222E+02 0.  0.
         13    1    3    3    0    0  0.25913422716E+02 -0.18109188335E+02 -0.29354596675E+01  0.31750216795E+02  0.10566000000E+00 0. -1.
         22    1    1    0    0    0  0.49410759840E+01 -0.17748549893E+02 -0.30282481355E+02  0.35446493934E+02  0.00000000000E+00 0.  1.
</event>
<event>
 5    1  0.2295636E-004  0.9118800E+02  0.7818608E-02  0.1130116E+00
         25   -1    0    0    0    0  0.00000000000E+00  0.00000000000E+00  0.99999998245E-14  0.12500000000E+03  0.12500000000E+03 0.  0.
        -13    1    3    3    0    0  0.40048502176E+02 -0.60305404356E+01 -0.43204800732E+02  0.59219219133E+02  0.10566000000E+00 0. -1.
         23    2    1    0    0    0  0.18139495832E+02  0.11537172012E+02 -0.19720415200E+02  0.95827368601E+02  0.91278925007E+02 0.  0.
         13    1    3    3    0    0 -0.21909006344E+02  0.17567712447E+02  0.23484385532E+02  0.36608149468E+02  0.10566000000E+00 0.  1.
         22    1    1    0    0    0 -0.18139495832E+02 -0.11537172012E+02  0.19720415200E+02  0.29172631399E+02  0.00000000000E+00 0. -1.
</event>
<event>
 5    1  0.2295636E-004  0.9118800E+02  0.7818608E-02  0.1130116E+00
         25   -1    0    0    0    0  0.00000000000E+00  0.00000000000E+00  0.99999998245E-14  0.12500000000E+03  0.12500000000E+03 0.  0.
        -13    1    3    3    0    0  0.23154671552E+02  0.50683588704E+02  0.23412915324E+02  0.60441217283E+02  0.10566000000E+00 0. -1.
         23    2    1    0    0    0  0.29268048507E+01  0.21963544560E+02  0.18934583736E+02  0.95854126579E+02  0.91315560802E+02 0.  0.
         13    1    3    3    0    0 -0.20227866701E+02 -0.28720044145E+02 -0.44783315889E+01  0.35412909296E+02  0.10566000000E+00 0.  1.
         22    1    1    0    0    0 -0.29268048507E+01 -0.21963544560E+02 -0.18934583736E+02  0.29145873421E+02  0.00000000000E+00 0. -1.
</event>
<event>
 5    1  0.2295636E-004  0.9118800E+02  0.7818608E-02  0.1130116E+00
         25   -1    0    0    0    0  0.00000000000E+00  0.00000000000E+00  0.99999998245E-14  0.12500000000E+03  0.12500000000E+03 0.  0.
        -13    1    3    3    0    0 -0.18829648500E+02 -0.33958355839E+02 -0.23167925756E+02  0.45216031911E+02  0.10566000000E+00 0. -1.
         23    2    1    0    0    0 -0.24771020371E+02 -0.10023521768E+01  0.15025200011E+02  0.96010953871E+02  0.91529986713E+02 0.  0.
         13    1    3    3    0    0 -0.59413718714E+01  0.32956003662E+02  0.38193125766E+02  0.50794921960E+02  0.10566000000E+00 0.  1.
         22    1    1    0    0    0  0.24771020371E+02  0.10023521768E+01 -0.15025200011E+02  0.28989046129E+02  0.00000000000E+00 0.  1.
</event>
<event>
 5    1  0.2295636E-004  0.9118800E+02  0.7818608E-02  0.1130116E+00
         25   -1    0    0    0    0  0.00000000000E+00  0.00000000000E+00  0.99999998245E-14  0.12500000000E+03  0.12500000000E+03 0.  0.
        -13    1    3    3    0    0  0.41195924325E+02 -0.38429719393E+01  0.78171897952E+01  0.42106914333E+02  0.10566000000E+00 0. -1.
         23    2    1    0    0    0 -0.94081745066E+01 -0.10292032812E+02  0.25365582415E+02  0.96054318833E+02  0.91589189909E+02 0.  0.
         13    1    3    3    0    0 -0.50604098832E+02 -0.64490608726E+01  0.17548392620E+02  0.53947404500E+02  0.10566000000E+00 0.  1.
         22    1    1    0    0    0  0.94081745066E+01  0.10292032812E+02 -0.25365582415E+02  0.28945681167E+02  0.00000000000E+00 0.  1.
</event>
<event>
 5    1  0.2295636E-004  0.9118800E+02  0.7818608E-02  0.1130116E+00
         25   -1    0    0    0    0  0.00000000000E+00  0.00000000000E+00  0.99999998245E-14  0.12500000000E+03  0.12500000000E+03 0.  0.
        -13    1    3    3    0    0 -0.26174327422E+02 -0.36305818734E+02  0.13839796936E+00  0.44757549173E+02  0.10566000000E+00 0.  1.
         23    2    1    0    0    0  0.15261837301E+02 -0.13831314261E+02  0.20349070320E+02  0.96046354376E+02  0.91578319454E+02 0.  0.
         13    1    3    3    0    0  0.41436164724E+02  0.22474504472E+02  0.20210672351E+02  0.51288805203E+02  0.10566000000E+00 0. -1.
         22    1    1    0    0    0 -0.15261837301E+02  0.13831314261E+02 -0.20349070320E+02  0.28953645624E+02  0.00000000000E+00 0.  1.
</event>
<event>
 5    1  0.2295636E-004  0.9118800E+02  0.7818608E-02  0.1130116E+00
         25   -1    0    0    0    0  0.00000000000E+00  0.00000000000E+00  0.99999998245E-14  0.12500000000E+03  0.12500000000E+03 0.  0.
        -13    1    3    3    0    0  0.17600861818E+02 -0.27616518005E+02 -0.39142204279E+02  0.51035142043E+02  0.10566000000E+00 0.  1.
         23    2    1    0    0    0  0.28118936156E+02  0.22081099433E+01 -0.74061128226E+01  0.95838367206E+02  0.91293985571E+02 0.  0.
         13    1    3    3    0    0  0.10518074339E+02  0.29824627948E+02  0.31736091457E+02  0.44803225163E+02  0.10566000000E+00 0. -1.
         22    1    1    0    0    0 -0.28118936156E+02 -0.22081099433E+01  0.74061128226E+01  0.29161632794E+02  0.00000000000E+00 0.  1.
</event>
<event>
 5    1  0.2295636E-004  0.9118800E+02  0.7818608E-02  0.1130116E+00
         25   -1    0    0    0    0  0.00000000000E+00  0.00000000000E+00  0.99999998245E-14  0.12500000000E+03  0.12500000000E+03 0.  0.
        -13    1    3    3    0    0  0.22363963804E+02 -0.26840974181E+02 -0.14742401163E+02  0.37920104537E+02  0.10566000000E+00 0.  1.
         23    2    1    0    0    0  0.74638093285E+01  0.27337154900E+02  0.21130632333E+01  0.96583569472E+02  0.92308679809E+02 0.  0.
         13    1    3    3    0    0 -0.14900154476E+02  0.54178129081E+02  0.16855464397E+02  0.58663464935E+02  0.10566000000E+00 0. -1.
         22    1    1    0    0    0 -0.74638093285E+01 -0.27337154900E+02 -0.21130632333E+01  0.28416430528E+02  0.00000000000E+00 0. -1.
</event>
<event>
 5    1  0.2295636E-004  0.9118800E+02  0.7818608E-02  0.1130116E+00
         25   -1    0    0    0    0  0.00000000000E+00  0.00000000000E+00  0.99999998245E-14  0.12500000000E+03  0.12500000000E+03 0.  0.
        -13    1    3    3    0    0  0.36369941273E+01  0.28847385390E+02 -0.26756078451E+02  0.39513266991E+02  0.10566000000E+00 0.  1.
         23    2    1    0    0    0 -0.17557740573E+02  0.98104058352E+01  0.21504756654E+02  0.95555596874E+02  0.90905991103E+02 0.  0.
         13    1    3    3    0    0 -0.21194734701E+02 -0.19036979555E+02  0.48260835106E+02  0.56042329883E+02  0.10566000000E+00 0. -1.
         22    1    1    0    0    0  0.17557740573E+02 -0.98104058352E+01 -0.21504756654E+02  0.29444403126E+02  0.00000000000E+00 0. -1.
</event>
<event>
 5    1  0.2295636E-004  0.9118800E+02  0.7818608E-02  0.1130116E+00
         25   -1    0    0    0    0  0.00000000000E+00  0.00000000000E+00  0.99999998245E-14  0.12500000000E+03  0.12500000000E+03 0.  0.
        -13    1    3    3    0    0 -0.56362419038E+02 -0.10974576956E+02  0.11743682384E+02  0.58609631112E+02  0.10566000000E+00 0.  1.
         23    2    1    0    0    0 -0.19466885535E+02 -0.83611964124E+01  0.19275862866E+02  0.96356883425E+02  0.92001200298E+02 0.  0.
         13    1    3    3    0    0  0.36895533503E+02  0.26133805439E+01  0.75321804818E+01  0.37747252313E+02  0.10566000000E+00 0. -1.
         22    1    1    0    0    0  0.19466885535E+02  0.83611964124E+01 -0.19275862866E+02  0.28643116575E+02  0.00000000000E+00 0.  1.
</event>
<event>
 5    1  0.2295636E-004  0.9118800E+02  0.7818608E-02  0.1130116E+00
         25   -1    0    0    0    0  0.00000000000E+00  0.00000000000E+00  0.99999998245E-14  0.12500000000E+03  0.12500000000E+03 0.  0.
        -13    1    3    3    0    0 -0.37620800693E+02 -0.64391149512E+01  0.23164557910E+02  0.44647449573E+02  0.10566000000E+00 0.  1.
         23    2    1    0    0    0 -0.15478328489E+02  0.23053790821E+02 -0.11202021865E+02  0.95057701860E+02  0.90218764484E+02 0.  0.
         13    1    3    3    0    0  0.22142472205E+02  0.29492905772E+02 -0.34366579775E+02  0.50410252287E+02  0.10566000000E+00 0. -1.
         22    1    1    0    0    0  0.15478328489E+02 -0.23053790821E+02  0.11202021865E+02  0.29942298140E+02  0.00000000000E+00 0. -1.
</event>
<event>
 5    1  0.2295636E-004  0.9118800E+02  0.7818608E-02  0.1130116E+00
         25   -1    0    0    0    0  0.00000000000E+00  0.00000000000E+00  0.99999998245E-14  0.12500000000E+03  0.12500000000E+03 0.  0.
        -13    1    3    3    0    0  0.41416131161E+01 -0.36894284101E+02 -0.67988453947E+01  0.37743563971E+02  0.10566000000E+00 0.  1.
         23    2    1    0    0    0 -0.23809982940E+02  0.63271522216E+01 -0.22580666604E+02  0.91580923904E+02  0.85265649449E+02 0.  0.
         13    1    3    3    0    0 -0.27951596056E+02  0.43221436322E+02 -0.15781821209E+02  0.53837359933E+02  0.10566000000E+00 0. -1.
         22    1    1    0    0    0  0.23809982940E+02 -0.63271522216E+01  0.22580666604E+02  0.33419076096E+02  0.00000000000E+00 0. -1.
</event>
<event>
 5    1  0.2295636E-004  0.9118800E+02  0.7818608E-02  0.1130116E+00
         25   -1    0    0    0    0  0.00000000000E+00  0.00000000000E+00  0.99999998245E-14  0.12500000000E+03  0.12500000000E+03 0.  0.
        -13    1    3    3    0    0 -0.13349644331E+02 -0.12778885627E+02 -0.35820654720E+02  0.40306865299E+02  0.10566000000E+00 0.  1.
         23    2    1    0    0    0  0.88954367793E+01 -0.23341990463E+02  0.14347575441E+02  0.96193225878E+02  0.91778573042E+02 0.  0.
         13    1    3    3    0    0  0.22245081111E+02 -0.10563104836E+02  0.50168230160E+02  0.55886360580E+02  0.10566000000E+00 0. -1.
         22    1    1    0    0    0 -0.88954367793E+01  0.23341990463E+02 -0.14347575441E+02  0.28806774122E+02  0.00000000000E+00 0. -1.
</event>
<event>
 5    1  0.2295636E-004  0.9118800E+02  0.7818608E-02  0.1130116E+00
         25   -1    0    0    0    0  0.00000000000E+00  0.00000000000E+00  0.99999998245E-14  0.12500000000E+03  0.12500000000E+03 0.  0.
        -13    1    3    3    0    0 -0.23966422690E+01  0.51964997488E+02 -0.14684348386E+02  0.54053178534E+02  0.10566000000E+00 0.  1.
         23    2    1    0    0    0  0.13782155708E+02  0.16414330237E+02 -0.22542203995E+02  0.93894871580E+02  0.88592990100E+02 0.  0.
         13    1    3    3    0    0  0.16178797977E+02 -0.35550667251E+02 -0.78578556096E+01  0.39841693046E+02  0.10566000000E+00 0. -1.
         22    1    1    0    0    0 -0.13782155708E+02 -0.16414330237E+02  0.22542203995E+02  0.31105128420E+02  0.00000000000E+00 0.  1.
</event>
<event>
 5    1  0.2295636E-004  0.9118800E+02  0.7818608E-02  0.1130116E+00
         25   -1    0    0    0    0  0.00000000000E+00  0.00000000000E+00  0.99999998245E-14  0.12500000000E+03  0.12500000000E+03 0.  0.
        -13    1    3    3    0    0 -0.44861516782E+02  0.26575233651E+02  0.31303452208E+02  0.60817070102E+02  0.10566000000E+00 0.  1.
         23    2    1    0    0    0 -0.13414485210E+02  0.11778863050E+02  0.21752784215E+02  0.96859750369E+02  0.92681916209E+02 0.  0.
         13    1    3    3    0    0  0.31447031572E+02 -0.14796370601E+02 -0.95506679929E+01  0.36042680267E+02  0.10566000000E+00 0. -1.
         22    1    1    0    0    0  0.13414485210E+02 -0.11778863050E+02 -0.21752784215E+02  0.28140249631E+02  0.00000000000E+00 0.  1.
</event>
<event>
 5    1  0.2295636E-004  0.9118800E+02  0.7818608E-02  0.1130116E+00
         25   -1    0    0    0    0  0.00000000000E+00  0.00000000000E+00  0.99999998245E-14  0.12500000000E+03  0.12500000000E+03 0.  0.
        -13    1    3    3    0    0 -0.49265906778E+02  0.31231683823E+02 -0.17307629852E+02  0.60844990428E+02  0.10566000000E+00 0.  1.
         23    2    1    0    0    0 -0.25292503493E+02  0.76657908953E+01 -0.15163897042E+02  0.94530033533E+02  0.89484682395E+02 0.  0.
         13    1    3    3    0    0  0.23973403285E+02 -0.23565892928E+02  0.21437328097E+01  0.33685043105E+02  0.10566000000E+00 0. -1.
         22    1    1    0    0    0  0.25292503493E+02 -0.76657908953E+01  0.15163897042E+02  0.30469966467E+02  0.00000000000E+00 0.  1.
</event>
<event>
 5    1  0.2295636E-004  0.9118800E+02  0.7818608E-02  0.1130116E+00
         25   -1    0    0    0    0  0.00000000000E+00  0.00000000000E+00  0.99999998245E-14  0.12500000000E+03  0.12500000000E+03 0.  0.
        -13    1    3    3    0    0 -0.17584532527E+02 -0.16495317525E+02 -0.57544586682E+02  0.62391521097E+02  0.10566000000E+00 0.  1.
         23    2    1    0    0    0 -0.66255454093E+01 -0.59826229369E+01 -0.28012019418E+02  0.95599951342E+02  0.90966960131E+02 0.  0.
         13    1    3    3    0    0  0.10958987117E+02  0.10512694588E+02  0.29532567263E+02  0.33208430245E+02  0.10566000000E+00 0. -1.
         22    1    1    0    0    0  0.66255454093E+01  0.59826229369E+01  0.28012019418E+02  0.29400048658E+02  0.00000000000E+00 0.  1.
</event>
<event>
 5    1  0.2295636E-004  0.9118800E+02  0.7818608E-02  0.1130116E+00
         25   -1    0    0    0    0  0.00000000000E+00  0.00000000000E+00  0.99999998245E-14  0.12500000000E+03  0.12500000000E+03 0.  0.
        -13    1    3    3    0    0  0.36648634089E+02 -0.19469227824E+02 -0.12832402043E+02  0.43437943309E+02  0.10566000000E+00 0.  1.
         23    2    1    0    0    0  0.56325747052E+01  0.19315033289E+02 -0.23326188958E+02  0.94195657773E+02  0.89016371771E+02 0.  0.
         13    1    3    3    0    0 -0.31016059384E+02  0.38784261113E+02 -0.10493786914E+02  0.50757714464E+02  0.10566000000E+00 0. -1.
         22    1    1    0    0    0 -0.56325747052E+01 -0.19315033289E+02  0.23326188958E+02  0.30804342227E+02  0.00000000000E+00 0. -1.
</event>
<event>
 5    1  0.2295636E-004  0.9118800E+02  0.7818608E-02  0.1130116E+00
         25   -1    0    0    0    0  0.00000000000E+00  0.00000000000E+00  0.99999998245E-14  0.12500000000E+03  0.12500000000E+03 0.  0.
        -13    1    3    3    0    0 -0.33343816850E+02 -0.22586212102E+02 -0.35340043379E+01  0.40428300112E+02  0.10566000000E+00 0.  1.
         23    2    1    0    0    0  0.89753381955E+01  0.58818782753E+00 -0.28754619312E+02  0.94871428968E+02  0.89960309259E+02 0.  0.
         13    1    3    3    0    0  0.42319155046E+02  0.23174399930E+02 -0.25220614974E+02  0.54443128856E+02  0.10566000000E+00 0. -1.
         22    1    1    0    0    0 -0.89753381955E+01 -0.58818782753E+00  0.28754619312E+02  0.30128571032E+02  0.00000000000E+00 0. -1.
</event>
<event>
 5    1  0.2295636E-004  0.9118800E+02  0.7818608E-02  0.1130116E+00
         25   -1    0    0    0    0  0.00000000000E+00  0.00000000000E+00  0.99999998245E-14  0.12500000000E+03  0.12500000000E+03 0.  0.
        -13    1    3    3    0    0 -0.11906200149E+02  0.58903236877E+00 -0.61272722289E+02  0.62421648663E+02  0.10566000000E+00 0.  1.
         23    2    1    0    0    0 -0.42587720751E+01 -0.16635409110E+01 -0.27483097853E+02  0.97139182073E+02  0.93058022321E+02 0.  0.
         13    1    3    3    0    0  0.76474280737E+01 -0.22525732798E+01  0.33789624436E+02  0.34717533410E+02  0.10566000000E+00 0. -1.
         22    1    1    0    0    0  0.42587720751E+01  0.16635409110E+01  0.27483097853E+02  0.27860817927E+02  0.00000000000E+00 0.  1.
</event>
<event>
 5    1  0.2295636E-004  0.9118800E+02  0.7818608E-02  0.1130116E+00
         25   -1    0    0    0    0  0.00000000000E+00  0.00000000000E+00  0.99999998245E-14  0.12500000000E+03  0.12500000000E+03 0.  0.
        -13    1    3    3    0    0 -0.26049530030E+02 -0.42958510744E+02  0.92503728498E+01  0.51084168017E+02  0.10566000000E+00 0. -1.
         23    2    1    0    0    0  0.14213072544E+02 -0.24668480851E+02 -0.11264633673E+01  0.96507644914E+02  0.92205809082E+02 0.  0.
         13    1    3    3    0    0  0.40262602574E+02  0.18290029893E+02 -0.10376836217E+02  0.45423476897E+02  0.10566000000E+00 0.  1.
         22    1    1    0    0    0 -0.14213072544E+02  0.24668480851E+02  0.11264633673E+01  0.28492355086E+02  0.00000000000E+00 0.  1.
</event>
<event>
 5    1  0.2295636E-004  0.9118800E+02  0.7818608E-02  0.1130116E+00
         25   -1    0    0    0    0  0.00000000000E+00  0.00000000000E+00  0.99999998245E-14  0.12500000000E+03  0.12500000000E+03 0.  0.
        -13    1    3    3    0    0  0.18995720377E+02 -0.50916832586E+02 -0.16738730660E+02  0.56864378141E+02  0.10566000000E+00 0.  1.
         23    2    1    0    0    0  0.15608206662E+02 -0.23543564915E+02  0.97608775673E+01  0.95113710585E+02  0.90296332408E+02 0.  0.
         13    1    3    3    0    0 -0.33875137150E+01  0.27373267671E+02  0.26499608228E+02  0.38249332444E+02  0.10566000000E+00 0. -1.
         22    1    1    0    0    0 -0.15608206662E+02  0.23543564915E+02 -0.97608775673E+01  0.29886289415E+02  0.00000000000E+00 0.  1.
</event>
<event>
 5    1  0.2295636E-004  0.9118800E+02  0.7818608E-02  0.1130116E+00
         25   -1    0    0    0    0  0.00000000000E+00  0.00000000000E+00  0.99999998245E-14  0.12500000000E+03  0.12500000000E+03 0.  0.
        -13    1    3    3    0    0 -0.47604789086E+02 -0.34331955793E+02 -0.75079931949E+01  0.59171616999E+02  0.10566000000E+00 0.  1.
         23    2    1    0    0    0 -0.14640277444E+02 -0.20968721068E+02 -0.14758125674E+02  0.95473278877E+02  0.90792729441E+02 0.  0.
         13    1    3    3    0    0  0.32964511642E+02  0.13363234725E+02 -0.72501324795E+01  0.36301661878E+02  0.10566000000E+00 0. -1.
         22    1    1    0    0    0  0.14640277444E+02  0.20968721068E+02  0.14758125674E+02  0.29526721123E+02  0.00000000000E+00 0.  1.
</event>
<event>
 5    1  0.2295636E-004  0.9118800E+02  0.7818608E-02  0.1130116E+00
         25   -1    0    0    0    0  0.00000000000E+00  0.00000000000E+00  0.99999998245E-14  0.12500000000E+03  0.12500000000E+03 0.  0.
        -13    1    3    3    0    0 -0.82244380409E+01  0.57619113915E+02  0.21418284808E+02  0.62019011259E+02  0.10566000000E+00 0.  1.
         23    2    1    0    0    0 -0.12227045485E-01  0.27886830615E+02  0.61223868195E+01  0.96449008921E+02  0.92126284144E+02 0.  0.
         13    1    3    3    0    0  0.82122109954E+01 -0.29732283300E+02 -0.15295897988E+02  0.34429997661E+02  0.10566000000E+00 0. -1.
         22    1    1    0    0    0  0.12227045485E-01 -0.27886830615E+02 -0.61223868195E+01  0.28550991079E+02  0.00000000000E+00 0.  1.
</event>
<event>
 5    1  0.2295636E-004  0.9118800E+02  0.7818608E-02  0.1130116E+00
         25   -1    0    0    0    0  0.00000000000E+00  0.00000000000E+00  0.99999998245E-14  0.12500000000E+03  0.12500000000E+03 0.  0.
        -13    1    3    3    0    0  0.15087812177E+02  0.34100541532E+02 -0.32080258075E+01  0.37427150609E+02  0.10566000000E+00 0.  1.
         23    2    1    0    0    0  0.18810725013E+02 -0.19194502164E+02  0.15430552692E+02  0.94010094462E+02  0.88755414571E+02 0.  0.
         13    1    3    3    0    0  0.37229128357E+01 -0.53295043697E+02  0.18638578499E+02  0.56582943853E+02  0.10566000000E+00 0. -1.
         22    1    1    0    0    0 -0.18810725013E+02  0.19194502164E+02 -0.15430552692E+02  0.30989905538E+02  0.00000000000E+00 0. -1.
</event>
<event>
 5    1  0.2295636E-004  0.9118800E+02  0.7818608E-02  0.1130116E+00
         25   -1    0    0    0    0  0.00000000000E+00  0.00000000000E+00  0.99999998245E-14  0.12500000000E+03  0.12500000000E+03 0.  0.
        -13    1    3    3    0    0  0.24621301411E+02  0.31932956492E+02  0.14702386382E+01  0.40349658724E+02  0.10566000000E+00 0.  1.
         23    2    1    0    0    0 -0.21858959960E+02  0.11874574466E+02 -0.17687115452E+02  0.94476997161E+02  0.89410565876E+02 0.  0.
         13    1    3    3    0    0 -0.46480261370E+02 -0.20058382026E+02 -0.19157354090E+02  0.54127338437E+02  0.10566000000E+00 0. -1.
         22    1    1    0    0    0  0.21858959960E+02 -0.11874574466E+02  0.17687115452E+02  0.30523002839E+02  0.00000000000E+00 0. -1.
</event>
<event>
 5    1  0.2295636E-004  0.9118800E+02  0.7818608E-02  0.1130116E+00
         25   -1    0    0    0    0  0.00000000000E+00  0.00000000000E+00  0.99999998245E-14  0.12500000000E+03  0.12500000000E+03 0.  0.
        -13    1    3    3    0    0 -0.17376732990E+02  0.44274912408E+02 -0.10866613742E+02  0.48788453310E+02  0.10566000000E+00 0.  1.
         23    2    1    0    0    0  0.63198714921E+01  0.11948598319E+02  0.21021715767E+02  0.10000755492E+03  0.96834336520E+02 0.  0.
         13    1    3    3    0    0  0.23696604482E+02 -0.32326314089E+02  0.31888329508E+02  0.51219101607E+02  0.10566000000E+00 0. -1.
         22    1    1    0    0    0 -0.63198714921E+01 -0.11948598319E+02 -0.21021715767E+02  0.24992445083E+02  0.00000000000E+00 0. -1.
</event>
<event>
 5    1  0.2295636E-004  0.9118800E+02  0.7818608E-02  0.1130116E+00
         25   -1    0    0    0    0  0.00000000000E+00  0.00000000000E+00  0.99999998245E-14  0.12500000000E+03  0.12500000000E+03 0.  0.
        -13    1    3    3    0    0 -0.11550090503E+01  0.20919435828E+02  0.25998180803E+02  0.33389720130E+02  0.10566000000E+00 0.  1.
         23    2    1    0    0    0  0.39222919250E+02  0.26552324425E+01  0.26288883781E+02  0.77707367759E+02  0.61659078324E+02 0.  0.
         13    1    3    3    0    0  0.40377928300E+02 -0.18264203385E+02  0.29070297837E+00  0.44317647629E+02  0.10566000000E+00 0. -1.
         22    1    1    0    0    0 -0.39222919250E+02 -0.26552324425E+01 -0.26288883781E+02  0.47292632241E+02  0.00000000000E+00 0. -1.
</event>
<event>
 5    1  0.2295636E-004  0.9118800E+02  0.7818608E-02  0.1130116E+00
         25   -1    0    0    0    0  0.00000000000E+00  0.00000000000E+00  0.99999998245E-14  0.12500000000E+03  0.12500000000E+03 0.  0.
        -13    1    3    3    0    0 -0.54221025890E+01 -0.14749645606E+02 -0.58658015967E+02  0.60726643602E+02  0.10566000000E+00 0.  1.
         23    2    1    0    0    0  0.48833297422E+01 -0.42081580221E+01 -0.39890386516E+02  0.84592099291E+02  0.74317056069E+02 0.  0.
         13    1    3    3    0    0  0.10305432331E+02  0.10541487584E+02  0.18767629451E+02  0.23865455689E+02  0.10566000000E+00 0. -1.
         22    1    1    0    0    0 -0.48833297422E+01  0.42081580221E+01  0.39890386516E+02  0.40407900709E+02  0.00000000000E+00 0.  1.
</event>
<event>
 5    1  0.2295636E-004  0.9118800E+02  0.7818608E-02  0.1130116E+00
         25   -1    0    0    0    0  0.00000000000E+00  0.00000000000E+00  0.99999998245E-14  0.12500000000E+03  0.12500000000E+03 0.  0.
        -13    1    3    3    0    0 -0.21277313354E+00 -0.60117041923E+02 -0.37437400466E+01  0.60233966792E+02  0.10566000000E+00 0.  1.
         23    2    1    0    0    0  0.58420432071E+01 -0.26170227458E+02 -0.11892919998E+02  0.95666540946E+02  0.91058416615E+02 0.  0.
         13    1    3    3    0    0  0.60548163406E+01  0.33946814465E+02 -0.81491799513E+01  0.35432574154E+02  0.10566000000E+00 0. -1.
         22    1    1    0    0    0 -0.58420432071E+01  0.26170227458E+02  0.11892919998E+02  0.29333459054E+02  0.00000000000E+00 0.  1.
</event>
<event>
 5    1  0.2295636E-004  0.9118800E+02  0.7818608E-02  0.1130116E+00
         25   -1    0    0    0    0  0.00000000000E+00  0.00000000000E+00  0.99999998245E-14  0.12500000000E+03  0.12500000000E+03 0.  0.
        -13    1    3    3    0    0  0.40507352752E+02  0.15660662468E+02 -0.30553628028E+02  0.53100257303E+02  0.10566000000E+00 0.  1.
         23    2    1    0    0    0  0.20612127570E+02  0.21062295643E+02  0.58677881342E+01  0.94951521864E+02  0.90071529719E+02 0.  0.
         13    1    3    3    0    0 -0.19895225183E+02  0.54016331750E+01  0.36421416162E+02  0.41851264561E+02  0.10566000000E+00 0. -1.
         22    1    1    0    0    0 -0.20612127570E+02 -0.21062295643E+02 -0.58677881342E+01  0.30048478136E+02  0.00000000000E+00 0.  1.
</event>
<event>
 5    1  0.2295636E-004  0.9118800E+02  0.7818608E-02  0.1130116E+00
         25   -1    0    0    0    0  0.00000000000E+00  0.00000000000E+00  0.99999998245E-14  0.12500000000E+03  0.12500000000E+03 0.  0.
        -13    1    3    3    0    0  0.35104814713E+02  0.25732864627E+02  0.11495874069E+02  0.45018825202E+02  0.10566000000E+00 0.  1.
         23    2    1    0    0    0  0.22948941601E+02  0.10922656142E+02 -0.26938473241E+02  0.87964345850E+02  0.79787758851E+02 0.  0.
         13    1    3    3    0    0 -0.12155873112E+02 -0.14810208484E+02 -0.38434347310E+02  0.42945520647E+02  0.10566000000E+00 0. -1.
         22    1    1    0    0    0 -0.22948941601E+02 -0.10922656142E+02  0.26938473241E+02  0.37035654150E+02  0.00000000000E+00 0.  1.
</event>
<event>
 5    1  0.2295636E-004  0.9118800E+02  0.7818608E-02  0.1130116E+00
         25   -1    0    0    0    0  0.00000000000E+00  0.00000000000E+00  0.99999998245E-14  0.12500000000E+03  0.12500000000E+03 0.  0.
        -13    1    3    3    0    0 -0.29337491876E+02 -0.32256393203E+01  0.26806317214E+02  0.39870828749E+02  0.10566000000E+00 0. -1.
         23    2    1    0    0    0  0.75460918397E+01 -0.25732796757E+02 -0.97471335169E+01  0.96467090180E+02  0.92150814131E+02 0.  0.
         13    1    3    3    0    0  0.36883583715E+02 -0.22507157437E+02 -0.36553450730E+02  0.56596261431E+02  0.10566000000E+00 0.  1.
         22    1    1    0    0    0 -0.75460918397E+01  0.25732796757E+02  0.97471335169E+01  0.28532909820E+02  0.00000000000E+00 0.  1.
</event>
<event>
 5    1  0.2295636E-004  0.9118800E+02  0.7818608E-02  0.1130116E+00
         25   -1    0    0    0    0  0.00000000000E+00  0.00000000000E+00  0.99999998245E-14  0.12500000000E+03  0.12500000000E+03 0.  0.
        -13    1    3    3    0    0  0.10584818557E+01 -0.19787230791E+02  0.28130111605E+02  0.34408853935E+02  0.10566000000E+00 0.  1.
         23    2    1    0    0    0 -0.12988410900E+02  0.54170150256E+01 -0.25821960196E+02  0.95592237455E+02  0.90956359667E+02 0.  0.
         13    1    3    3    0    0 -0.14046892756E+02  0.25204245817E+02 -0.53952071801E+02  0.61183383520E+02  0.10566000000E+00 0. -1.
         22    1    1    0    0    0  0.12988410900E+02 -0.54170150256E+01  0.25821960196E+02  0.29407762545E+02  0.00000000000E+00 0. -1.
</event>
<event>
 5    1  0.2295636E-004  0.9118800E+02  0.7818608E-02  0.1130116E+00
         25   -1    0    0    0    0  0.00000000000E+00  0.00000000000E+00  0.99999998245E-14  0.12500000000E+03  0.12500000000E+03 0.  0.
        -13    1    3    3    0    0  0.55125442377E+02 -0.22909880427E+02 -0.83610442263E+01  0.60279310240E+02  0.10566000000E+00 0.  1.
         23    2    1    0    0    0  0.26569040104E+02 -0.58931499038E+01  0.70004431510E+01  0.96899300504E+02  0.92735242093E+02 0.  0.
         13    1    3    3    0    0 -0.28556402273E+02  0.17016730523E+02  0.15361487377E+02  0.36619990264E+02  0.10566000000E+00 0. -1.
         22    1    1    0    0    0 -0.26569040104E+02  0.58931499038E+01 -0.70004431510E+01  0.28100699496E+02  0.00000000000E+00 0.  1.
</event>
<event>
 5    1  0.2295636E-004  0.9118800E+02  0.7818608E-02  0.1130116E+00
         25   -1    0    0    0    0  0.00000000000E+00  0.00000000000E+00  0.99999998245E-14  0.12500000000E+03  0.12500000000E+03 0.  0.
        -13    1    3    3    0    0  0.26721869856E+02 -0.83349058962E+01  0.20753241180E+02  0.34845906050E+02  0.10566000000E+00 0.  1.
         23    2    1    0    0    0 -0.20416401312E+02 -0.68745777661E+01 -0.18807587005E+02  0.96402542229E+02  0.92063215006E+02 0.  0.
         13    1    3    3    0    0 -0.47138271168E+02  0.14603281301E+01 -0.39560828185E+02  0.61556636179E+02  0.10566000000E+00 0. -1.
         22    1    1    0    0    0  0.20416401312E+02  0.68745777661E+01  0.18807587005E+02  0.28597457771E+02  0.00000000000E+00 0. -1.
</event>
<event>
 5    1  0.2295636E-004  0.9118800E+02  0.7818608E-02  0.1130116E+00
         25   -1    0    0    0    0  0.00000000000E+00  0.00000000000E+00  0.99999998245E-14  0.12500000000E+03  0.12500000000E+03 0.  0.
        -13    1    3    3    0    0 -0.18482332403E+02  0.14217209088E+02 -0.34544407130E+02  0.41677966281E+02  0.10566000000E+00 0. -1.
         23    2    1    0    0    0 -0.25620041932E+01 -0.26779401328E+02  0.77969283532E+00  0.98087026885E+02  0.94322620411E+02 0.  0.
         13    1    3    3    0    0  0.15920328210E+02 -0.40996610416E+02  0.35324099965E+02  0.56409060604E+02  0.10566000000E+00 0.  1.
         22    1    1    0    0    0  0.25620041932E+01  0.26779401328E+02 -0.77969283532E+00  0.26912973115E+02  0.00000000000E+00 0. -1.
</event>
<event>
 5    1  0.2295636E-004  0.9118800E+02  0.7818608E-02  0.1130116E+00
         25   -1    0    0    0    0  0.00000000000E+00  0.00000000000E+00  0.99999998245E-14  0.12500000000E+03  0.12500000000E+03 0.  0.
        -13    1    3    3    0    0 -0.11325412230E+02  0.51606993275E+02  0.19748048690E+02  0.56405170934E+02  0.10566000000E+00 0. -1.
         23    2    1    0    0    0 -0.56121052714E+01  0.13371442760E+02  0.25670810855E+02  0.95516415804E+02  0.90852099321E+02 0.  0.
         13    1    3    3    0    0  0.57133069583E+01 -0.38235550515E+02  0.59227621652E+01  0.39111244870E+02  0.10566000000E+00 0.  1.
         22    1    1    0    0    0  0.56121052714E+01 -0.13371442760E+02 -0.25670810855E+02  0.29483584196E+02  0.00000000000E+00 0. -1.
</event>
<event>
 5    1  0.2295636E-004  0.9118800E+02  0.7818608E-02  0.1130116E+00
         25   -1    0    0    0    0  0.00000000000E+00  0.00000000000E+00  0.99999998245E-14  0.12500000000E+03  0.12500000000E+03 0.  0.
        -13    1    3    3    0    0 -0.29228187983E+02 -0.22760757140E+02  0.61207717098E+00  0.37050301495E+02  0.10566000000E+00 0. -1.
         23    2    1    0    0    0 -0.12998590678E+01  0.27920711207E+02  0.92490596181E+01  0.95558518180E+02  0.90910007948E+02 0.  0.
         13    1    3    3    0    0  0.27928328916E+02  0.50681468347E+02  0.86369824471E+01  0.58508216685E+02  0.10566000000E+00 0.  1.
         22    1    1    0    0    0  0.12998590678E+01 -0.27920711207E+02 -0.92490596181E+01  0.29441481820E+02  0.00000000000E+00 0.  1.
</event>
<event>
 5    1  0.2295636E-004  0.9118800E+02  0.7818608E-02  0.1130116E+00
         25   -1    0    0    0    0  0.00000000000E+00  0.00000000000E+00  0.99999998245E-14  0.12500000000E+03  0.12500000000E+03 0.  0.
        -13    1    3    3    0    0 -0.24372363564E+02 -0.22686734119E+02 -0.39849215738E+02  0.51929482663E+02  0.10566000000E+00 0.  1.
         23    2    1    0    0    0  0.13463611427E+02 -0.18629320854E+02 -0.17969055576E+02  0.95824541367E+02  0.91275053228E+02 0.  0.
         13    1    3    3    0    0  0.37835974990E+02  0.40574132641E+01  0.21880160162E+02  0.43895058704E+02  0.10566000000E+00 0. -1.
         22    1    1    0    0    0 -0.13463611427E+02  0.18629320854E+02  0.17969055576E+02  0.29175458633E+02  0.00000000000E+00 0.  1.
</event>
<event>
 5    1  0.2295636E-004  0.9118800E+02  0.7818608E-02  0.1130116E+00
         25   -1    0    0    0    0  0.00000000000E+00  0.00000000000E+00  0.99999998245E-14  0.12500000000E+03  0.12500000000E+03 0.  0.
        -13    1    3    3    0    0  0.31089619285E+02  0.36948534981E+02 -0.20959550384E+02  0.52640978153E+02  0.10566000000E+00 0.  1.
         23    2    1    0    0    0  0.26009037878E+02 -0.54054520333E+01 -0.91547088690E+01  0.96901999048E+02  0.92738879452E+02 0.  0.
         13    1    3    3    0    0 -0.50805814066E+01 -0.42353987015E+02  0.11804841515E+02  0.44261020895E+02  0.10566000000E+00 0. -1.
         22    1    1    0    0    0 -0.26009037878E+02  0.54054520333E+01  0.91547088690E+01  0.28098000952E+02  0.00000000000E+00 0.  1.
</event>
<event>
 5    1  0.2295636E-004  0.9118800E+02  0.7818608E-02  0.1130116E+00
         25   -1    0    0    0    0  0.00000000000E+00  0.00000000000E+00  0.99999998245E-14  0.12500000000E+03  0.12500000000E+03 0.  0.
        -13    1    3    3    0    0 -0.27300326536E+02  0.50102319947E+02 -0.22215861562E+02  0.61229943345E+02  0.10566000000E+00 0. -1.
         23    2    1    0    0    0 -0.22100672538E+02  0.22586365370E+02 -0.14185120469E+02  0.90361852388E+02  0.83459349967E+02 0.  0.
         13    1    3    3    0    0  0.51996539974E+01 -0.27515954577E+02  0.80307410930E+01  0.29131909043E+02  0.10566000000E+00 0.  1.
         22    1    1    0    0    0  0.22100672538E+02 -0.22586365370E+02  0.14185120469E+02  0.34638147612E+02  0.00000000000E+00 0. -1.
</event>
<event>
 5    1  0.2295636E-004  0.9118800E+02  0.7818608E-02  0.1130116E+00
         25   -1    0    0    0    0  0.00000000000E+00  0.00000000000E+00  0.99999998245E-14  0.12500000000E+03  0.12500000000E+03 0.  0.
        -13    1    3    3    0    0 -0.40852780525E+01  0.12353168567E+02  0.40597779163E+02  0.42631925917E+02  0.10566000000E+00 0.  1.
         23    2    1    0    0    0 -0.29150489611E+02 -0.72428029313E+01 -0.93256797821E+00  0.94948728448E+02  0.90067652973E+02 0.  0.
         13    1    3    3    0    0 -0.25065211558E+02 -0.19595971499E+02 -0.41530347141E+02  0.52316802531E+02  0.10566000000E+00 0. -1.
         22    1    1    0    0    0  0.29150489611E+02  0.72428029313E+01  0.93256797821E+00  0.30051271552E+02  0.00000000000E+00 0.  1.
</event>
<event>
 5    1  0.2295636E-004  0.9118800E+02  0.7818608E-02  0.1130116E+00
         25   -1    0    0    0    0  0.00000000000E+00  0.00000000000E+00  0.99999998245E-14  0.12500000000E+03  0.12500000000E+03 0.  0.
        -13    1    3    3    0    0  0.47031395210E+02  0.22635716236E+02  0.18054054171E+02  0.55229410833E+02  0.10566000000E+00 0.  1.
         23    2    1    0    0    0  0.20151260601E+02 -0.83736007151E+01  0.18683800410E+02  0.96272401936E+02  0.91886345471E+02 0.  0.
         13    1    3    3    0    0 -0.26880134609E+02 -0.31009316951E+02  0.62974623933E+00  0.41042991103E+02  0.10566000000E+00 0. -1.
         22    1    1    0    0    0 -0.20151260601E+02  0.83736007151E+01 -0.18683800410E+02  0.28727598064E+02  0.00000000000E+00 0.  1.
</event>
<event>
 5    1  0.2295636E-004  0.9118800E+02  0.7818608E-02  0.1130116E+00
         25   -1    0    0    0    0  0.00000000000E+00  0.00000000000E+00  0.99999998245E-14  0.12500000000E+03  0.12500000000E+03 0.  0.
        -13    1    3    3    0    0  0.22399226635E+02  0.24926027302E+02  0.13728518341E+02  0.36214852903E+02  0.10566000000E+00 0. -1.
         23    2    1    0    0    0 -0.30385532645E+02  0.29841713974E+01  0.38350637238E+01  0.94228363924E+02  0.89062287086E+02 0.  0.
         13    1    3    3    0    0 -0.52784759279E+02 -0.21941855904E+02 -0.98934546173E+01  0.58013511021E+02  0.10566000000E+00 0.  1.
         22    1    1    0    0    0  0.30385532645E+02 -0.29841713974E+01 -0.38350637238E+01  0.30771636076E+02  0.00000000000E+00 0.  1.
</event>
<event>
 5    1  0.2295636E-004  0.9118800E+02  0.7818608E-02  0.1130116E+00
         25   -1    0    0    0    0  0.00000000000E+00  0.00000000000E+00  0.99999998245E-14  0.12500000000E+03  0.12500000000E+03 0.  0.
        -13    1    3    3    0    0  0.22480293492E+01 -0.29697371335E+02  0.10767679657E+02  0.31669253060E+02  0.10566000000E+00 0.  1.
         23    2    1    0    0    0 -0.66060632447E+01  0.19459775305E+02 -0.24655138930E+02  0.92903289854E+02  0.87182695895E+02 0.  0.
         13    1    3    3    0    0 -0.88540925939E+01  0.49157146640E+02 -0.35422818587E+02  0.61234036794E+02  0.10566000000E+00 0. -1.
         22    1    1    0    0    0  0.66060632447E+01 -0.19459775305E+02  0.24655138930E+02  0.32096710146E+02  0.00000000000E+00 0. -1.
</event>
<event>
 5    1  0.2295636E-004  0.9118800E+02  0.7818608E-02  0.1130116E+00
         25   -1    0    0    0    0  0.00000000000E+00  0.00000000000E+00  0.99999998245E-14  0.12500000000E+03  0.12500000000E+03 0.  0.
        -13    1    3    3    0    0  0.30131651125E+02 -0.11184561952E+02  0.21826327386E+02  0.38851133275E+02  0.10566000000E+00 0.  1.
         23    2    1    0    0    0  0.81721596885E+01 -0.91972372593E+01 -0.28588253268E+02  0.93876671256E+02  0.88567306688E+02 0.  0.
         13    1    3    3    0    0 -0.21959491436E+02  0.19873246932E+01 -0.50414580654E+02  0.55025537981E+02  0.10566000000E+00 0. -1.
         22    1    1    0    0    0 -0.81721596885E+01  0.91972372593E+01  0.28588253268E+02  0.31123328744E+02  0.00000000000E+00 0. -1.
</event>
<event>
 5    1  0.2295636E-004  0.9118800E+02  0.7818608E-02  0.1130116E+00
         25   -1    0    0    0    0  0.00000000000E+00  0.00000000000E+00  0.99999998245E-14  0.12500000000E+03  0.12500000000E+03 0.  0.
        -13    1    3    3    0    0  0.39293960026E+02  0.77947471883E+01 -0.17738600025E+02  0.43811442262E+02  0.10566000000E+00 0. -1.
         23    2    1    0    0    0 -0.16498961513E+02 -0.10856494085E+02 -0.90399248104E+01  0.10327905538E+03  0.10096912322E+03 0.  0.
         13    1    3    3    0    0 -0.55792921539E+02 -0.18651241273E+02  0.86986752144E+01  0.59467613113E+02  0.10566000000E+00 0.  1.
         22    1    1    0    0    0  0.16498961513E+02  0.10856494085E+02  0.90399248104E+01  0.21720944625E+02  0.00000000000E+00 0.  1.
</event>
<event>
 5    1  0.2295636E-004  0.9118800E+02  0.7818608E-02  0.1130116E+00
         25   -1    0    0    0    0  0.00000000000E+00  0.00000000000E+00  0.99999998245E-14  0.12500000000E+03  0.12500000000E+03 0.  0.
        -13    1    3    3    0    0 -0.33355721163E+02 -0.87271600134E+01  0.12563316119E+02  0.36696260465E+02  0.10566000000E+00 0.  1.
         23    2    1    0    0    0  0.93995611927E+01  0.21830072330E+00 -0.27481099701E+02  0.95955030614E+02  0.91453581961E+02 0.  0.
         13    1    3    3    0    0  0.42755282356E+02  0.89454607367E+01 -0.40044415820E+02  0.59258770149E+02  0.10566000000E+00 0. -1.
         22    1    1    0    0    0 -0.93995611927E+01 -0.21830072330E+00  0.27481099701E+02  0.29044969386E+02  0.00000000000E+00 0. -1.
</event>
<event>
 5    1  0.2295636E-004  0.9118800E+02  0.7818608E-02  0.1130116E+00
         25   -1    0    0    0    0  0.00000000000E+00  0.00000000000E+00  0.99999998245E-14  0.12500000000E+03  0.12500000000E+03 0.  0.
        -13    1    3    3    0    0 -0.27776550933E+02 -0.42804870806E+02  0.82564792456E+01  0.51691143922E+02  0.10566000000E+00 0. -1.
         23    2    1    0    0    0 -0.28386526318E+02 -0.29107804735E+00  0.11584018945E+02  0.94339453727E+02  0.89218066734E+02 0.  0.
         13    1    3    3    0    0 -0.60997538530E+00  0.42513792759E+02  0.33275396993E+01  0.42648309804E+02  0.10566000000E+00 0.  1.
         22    1    1    0    0    0  0.28386526318E+02  0.29107804735E+00 -0.11584018945E+02  0.30660546273E+02  0.00000000000E+00 0. -1.
</event>
<event>
 4    1  0.2295636E-004  0.9118800E+02  0.7818608E-02  0.1130116E+00
         25   -1    0    0    0    0  0.00000000000E+00  0.00000000000E+00  0.99999998245E-14  0.12500000000E+03  0.12500000000E+03 0.  0.
        -13    1    1    0    0    0  0.35802763839E+02 -0.37350680430E+01 -0.26278265960E+02  0.44568453616E+02  0.10566000000E+00 0. -1.
         13    1    1    0    0    0  0.15707112802E+01 -0.20923305698E+02 -0.95815159796E+01  0.23066609369E+02  0.10566000000E+00 0.  1.
         22    1    1    0    0    0 -0.37373475119E+02  0.24658373741E+02  0.35859781939E+02  0.57364937016E+02  0.00000000000E+00 0.  1.
</event>
<event>
 5    1  0.2295636E-004  0.9118800E+02  0.7818608E-02  0.1130116E+00
         25   -1    0    0    0    0  0.00000000000E+00  0.00000000000E+00  0.99999998245E-14  0.12500000000E+03  0.12500000000E+03 0.  0.
        -13    1    3    3    0    0  0.11428720355E+02 -0.40449037646E+02 -0.32298242253E+02  0.53008753165E+02  0.10566000000E+00 0.  1.
         23    2    1    0    0    0 -0.16588273394E+02 -0.24877226662E+02 -0.59243292869E+01  0.94518121809E+02  0.89468041513E+02 0.  0.
         13    1    3    3    0    0 -0.28016993749E+02  0.15571810984E+02  0.26373912966E+02  0.41509368644E+02  0.10566000000E+00 0. -1.
         22    1    1    0    0    0  0.16588273394E+02  0.24877226662E+02  0.59243292869E+01  0.30481878191E+02  0.00000000000E+00 0.  1.
</event>
<event>
 5    1  0.2295636E-004  0.9118800E+02  0.7818608E-02  0.1130116E+00
         25   -1    0    0    0    0  0.00000000000E+00  0.00000000000E+00  0.99999998245E-14  0.12500000000E+03  0.12500000000E+03 0.  0.
        -13    1    3    3    0    0  0.15397285203E+02 -0.35225765230E+02 -0.34231615688E+02  0.51475679736E+02  0.10566000000E+00 0. -1.
         23    2    1    0    0    0 -0.14305097652E+01 -0.28250639205E+02  0.63949208752E+01  0.95999310582E+02  0.91514084411E+02 0.  0.
         13    1    3    3    0    0 -0.16827794968E+02  0.69751260244E+01  0.40626536563E+02  0.44523630846E+02  0.10566000000E+00 0.  1.
         22    1    1    0    0    0  0.14305097652E+01  0.28250639205E+02 -0.63949208752E+01  0.29000689418E+02  0.00000000000E+00 0.  1.
</event>
<event>
 5    1  0.2295636E-004  0.9118800E+02  0.7818608E-02  0.1130116E+00
         25   -1    0    0    0    0  0.00000000000E+00  0.00000000000E+00  0.99999998245E-14  0.12500000000E+03  0.12500000000E+03 0.  0.
        -13    1    3    3    0    0 -0.32921505640E+02 -0.45369507237E+02  0.17601201911E+02  0.58753988744E+02  0.10566000000E+00 0.  1.
         23    2    1    0    0    0 -0.11602490449E+02 -0.23550444361E+02 -0.68708902277E+01  0.97862381336E+02  0.94024440089E+02 0.  0.
         13    1    3    3    0    0  0.21319015191E+02  0.21819062876E+02 -0.24472092139E+02  0.39108392592E+02  0.10566000000E+00 0. -1.
         22    1    1    0    0    0  0.11602490449E+02  0.23550444361E+02  0.68708902277E+01  0.27137618664E+02  0.00000000000E+00 0.  1.
</event>
<event>
 5    1  0.2295636E-004  0.9118800E+02  0.7818608E-02  0.1130116E+00
         25   -1    0    0    0    0  0.00000000000E+00  0.00000000000E+00  0.99999998245E-14  0.12500000000E+03  0.12500000000E+03 0.  0.
        -13    1    3    3    0    0 -0.16755534946E+02 -0.40343635646E+02  0.40617721776E+02  0.59650376150E+02  0.10566000000E+00 0.  1.
         23    2    1    0    0    0 -0.16232896954E+02 -0.22839039790E+02  0.93993680311E+01  0.95445359054E+02  0.90754282342E+02 0.  0.
         13    1    3    3    0    0  0.52263799182E+00  0.17504595856E+02 -0.31218353745E+02  0.35794982904E+02  0.10566000000E+00 0. -1.
         22    1    1    0    0    0  0.16232896954E+02  0.22839039790E+02 -0.93993680311E+01  0.29554640946E+02  0.00000000000E+00 0.  1.
</event>
<event>
 5    1  0.2295636E-004  0.9118800E+02  0.7818608E-02  0.1130116E+00
         25   -1    0    0    0    0  0.00000000000E+00  0.00000000000E+00  0.99999998245E-14  0.12500000000E+03  0.12500000000E+03 0.  0.
        -13    1    3    3    0    0 -0.16468504623E+02 -0.17498366269E+02  0.26651727853E+02  0.35884958245E+02  0.10566000000E+00 0. -1.
         23    2    1    0    0    0  0.26540762408E+02 -0.14890566323E+02 -0.10529199690E+02  0.92797436737E+02  0.87030794459E+02 0.  0.
         13    1    3    3    0    0  0.43009267031E+02  0.26077999457E+01 -0.37180927543E+02  0.56912478492E+02  0.10566000000E+00 0.  1.
         22    1    1    0    0    0 -0.26540762408E+02  0.14890566323E+02  0.10529199690E+02  0.32202563263E+02  0.00000000000E+00 0.  1.
</event>
<event>
 5    1  0.2295636E-004  0.9118800E+02  0.7818608E-02  0.1130116E+00
         25   -1    0    0    0    0  0.00000000000E+00  0.00000000000E+00  0.99999998245E-14  0.12500000000E+03  0.12500000000E+03 0.  0.
        -13    1    3    3    0    0 -0.27614248229E+02 -0.24058134327E+02  0.49526873857E+02  0.61597588676E+02  0.10566000000E+00 0. -1.
         23    2    1    0    0    0 -0.19182137363E+02 -0.72023712927E+01  0.22247569032E+02  0.94754622273E+02  0.89797859486E+02 0.  0.
         13    1    3    3    0    0  0.84321108666E+01  0.16855763034E+02 -0.27279304826E+02  0.33157033597E+02  0.10566000000E+00 0.  1.
         22    1    1    0    0    0  0.19182137363E+02  0.72023712927E+01 -0.22247569032E+02  0.30245377727E+02  0.00000000000E+00 0. -1.
</event>
<event>
 5    1  0.2295636E-004  0.9118800E+02  0.7818608E-02  0.1130116E+00
         25   -1    0    0    0    0  0.00000000000E+00  0.00000000000E+00  0.99999998245E-14  0.12500000000E+03  0.12500000000E+03 0.  0.
        -13    1    3    3    0    0  0.86418153621E+01 -0.64215745207E+00 -0.37547305007E+02  0.38534460114E+02  0.10566000000E+00 0. -1.
         23    2    1    0    0    0  0.19991249945E+02 -0.10362981640E+02  0.18072552058E+02  0.96126853294E+02  0.91688130767E+02 0.  0.
         13    1    3    3    0    0  0.11349434582E+02 -0.97208241875E+01  0.55619857065E+02  0.57592393180E+02  0.10566000000E+00 0.  1.
         22    1    1    0    0    0 -0.19991249945E+02  0.10362981640E+02 -0.18072552058E+02  0.28873146706E+02  0.00000000000E+00 0.  1.
</event>
<event>
 5    1  0.2295636E-004  0.9118800E+02  0.7818608E-02  0.1130116E+00
         25   -1    0    0    0    0  0.00000000000E+00  0.00000000000E+00  0.99999998245E-14  0.12500000000E+03  0.12500000000E+03 0.  0.
        -13    1    3    3    0    0  0.19476451462E+02  0.54115651372E+02  0.11261464077E+02  0.58606037421E+02  0.10566000000E+00 0.  1.
         23    2    1    0    0    0  0.22708525348E+02  0.17639200095E+02  0.63413894820E+01  0.95554597574E+02  0.90904617008E+02 0.  0.
         13    1    3    3    0    0  0.32320738861E+01 -0.36476451276E+02 -0.49200745952E+01  0.36948560153E+02  0.10566000000E+00 0. -1.
         22    1    1    0    0    0 -0.22708525348E+02 -0.17639200095E+02 -0.63413894820E+01  0.29445402426E+02  0.00000000000E+00 0.  1.
</event>
<event>
 5    1  0.2295636E-004  0.9118800E+02  0.7818608E-02  0.1130116E+00
         25   -1    0    0    0    0  0.00000000000E+00  0.00000000000E+00  0.99999998245E-14  0.12500000000E+03  0.12500000000E+03 0.  0.
        -13    1    3    3    0    0 -0.24278206475E+02  0.18005142020E+02 -0.49549607865E+02  0.58041289203E+02  0.10566000000E+00 0. -1.
         23    2    1    0    0    0 -0.18109060171E+02 -0.61646396468E+01 -0.14818140747E+02  0.10080251795E+03  0.97855145435E+02 0.  0.
         13    1    3    3    0    0  0.61691463043E+01 -0.24169781666E+02  0.34731467118E+02  0.42761228749E+02  0.10566000000E+00 0.  1.
         22    1    1    0    0    0  0.18109060171E+02  0.61646396468E+01  0.14818140747E+02  0.24197482047E+02  0.00000000000E+00 0. -1.
</event>
<event>
 5    1  0.2295636E-004  0.9118800E+02  0.7818608E-02  0.1130116E+00
         25   -1    0    0    0    0  0.00000000000E+00  0.00000000000E+00  0.99999998245E-14  0.12500000000E+03  0.12500000000E+03 0.  0.
        -13    1    3    3    0    0  0.72245456556E+01 -0.48392268255E+02  0.13195098968E+02  0.50676695705E+02  0.10566000000E+00 0.  1.
         23    2    1    0    0    0 -0.11757639871E+02 -0.18458588691E+02 -0.17038241659E+02  0.97264404268E+02  0.93226075038E+02 0.  0.
         13    1    3    3    0    0 -0.18982185527E+02  0.29933679564E+02 -0.30233340626E+02  0.46587708562E+02  0.10566000000E+00 0. -1.
         22    1    1    0    0    0  0.11757639871E+02  0.18458588691E+02  0.17038241659E+02  0.27735595732E+02  0.00000000000E+00 0.  1.
</event>
<event>
 5    1  0.2295636E-004  0.9118800E+02  0.7818608E-02  0.1130116E+00
         25   -1    0    0    0    0  0.00000000000E+00  0.00000000000E+00  0.99999998245E-14  0.12500000000E+03  0.12500000000E+03 0.  0.
        -13    1    3    3    0    0  0.23624826812E+02  0.11902237484E+02 -0.42783812534E+02  0.50301704524E+02  0.10566000000E+00 0. -1.
         23    2    1    0    0    0  0.19108601778E+02 -0.17382805416E+02 -0.43944107353E+01  0.98796728606E+02  0.95258501728E+02 0.  0.
         13    1    3    3    0    0 -0.45162250338E+01 -0.29285042900E+02  0.38389401799E+02  0.48495024082E+02  0.10566000000E+00 0.  1.
         22    1    1    0    0    0 -0.19108601778E+02  0.17382805416E+02  0.43944107353E+01  0.26203271394E+02  0.00000000000E+00 0. -1.
</event>
<event>
 5    1  0.2295636E-004  0.9118800E+02  0.7818608E-02  0.1130116E+00
         25   -1    0    0    0    0  0.00000000000E+00  0.00000000000E+00  0.99999998245E-14  0.12500000000E+03  0.12500000000E+03 0.  0.
        -13    1    3    3    0    0  0.37726095197E+02 -0.92501017672E+01 -0.30140828956E+02  0.49166079524E+02  0.10566000000E+00 0. -1.
         23    2    1    0    0    0  0.12030824029E+02 -0.25911970986E+02  0.52342640566E+01  0.95955749495E+02  0.91454564532E+02 0.  0.
         13    1    3    3    0    0 -0.25695271168E+02 -0.16661869219E+02  0.35375093013E+02  0.46789669971E+02  0.10566000000E+00 0.  1.
         22    1    1    0    0    0 -0.12030824029E+02  0.25911970986E+02 -0.52342640566E+01  0.29044250505E+02  0.00000000000E+00 0.  1.
</event>
<event>
 5    1  0.2295636E-004  0.9118800E+02  0.7818608E-02  0.1130116E+00
         25   -1    0    0    0    0  0.00000000000E+00  0.00000000000E+00  0.99999998245E-14  0.12500000000E+03  0.12500000000E+03 0.  0.
        -13    1    3    3    0    0  0.23891050358E+01 -0.15022175025E+02  0.14498266703E+02  0.21013911268E+02  0.10566000000E+00 0. -1.
         23    2    1    0    0    0  0.24598547084E+02 -0.16526852414E+02 -0.37280975922E+02  0.77375462889E+02  0.60982503410E+02 0.  0.
         13    1    3    3    0    0  0.22209442048E+02 -0.15046773889E+01 -0.51779242626E+02  0.56361551620E+02  0.10566000000E+00 0.  1.
         22    1    1    0    0    0 -0.24598547084E+02  0.16526852414E+02  0.37280975922E+02  0.47624537111E+02  0.00000000000E+00 0.  1.
</event>
<event>
 5    1  0.2295636E-004  0.9118800E+02  0.7818608E-02  0.1130116E+00
         25   -1    0    0    0    0  0.00000000000E+00  0.00000000000E+00  0.99999998245E-14  0.12500000000E+03  0.12500000000E+03 0.  0.
        -13    1    3    3    0    0  0.47759131063E+02  0.34077941993E+01  0.24232514735E+02  0.53663522020E+02  0.10566000000E+00 0.  1.
         23    2    1    0    0    0  0.19256553109E+02 -0.18995068505E+02 -0.11625140712E+01  0.97926416859E+02  0.94109533070E+02 0.  0.
         13    1    3    3    0    0 -0.28502577954E+02 -0.22402862705E+02 -0.25395028806E+02  0.44262894839E+02  0.10566000000E+00 0. -1.
         22    1    1    0    0    0 -0.19256553109E+02  0.18995068505E+02  0.11625140712E+01  0.27073583141E+02  0.00000000000E+00 0.  1.
</event>
<event>
 5    1  0.2295636E-004  0.9118800E+02  0.7818608E-02  0.1130116E+00
         25   -1    0    0    0    0  0.00000000000E+00  0.00000000000E+00  0.99999998245E-14  0.12500000000E+03  0.12500000000E+03 0.  0.
        -13    1    3    3    0    0  0.14840949101E+02  0.47562477658E+02  0.73748140693E+01  0.50367073548E+02  0.10566000000E+00 0.  1.
         23    2    1    0    0    0  0.97111796078E+01  0.28810100637E+02 -0.23308033690E+02  0.86690819083E+02  0.77766990238E+02 0.  0.
         13    1    3    3    0    0 -0.51297694930E+01 -0.18752377021E+02 -0.30682847759E+02  0.36323745534E+02  0.10566000000E+00 0. -1.
         22    1    1    0    0    0 -0.97111796078E+01 -0.28810100637E+02  0.23308033690E+02  0.38309180917E+02  0.00000000000E+00 0.  1.
</event>
<event>
 5    1  0.2295636E-004  0.9118800E+02  0.7818608E-02  0.1130116E+00
         25   -1    0    0    0    0  0.00000000000E+00  0.00000000000E+00  0.99999998245E-14  0.12500000000E+03  0.12500000000E+03 0.  0.
        -13    1    3    3    0    0 -0.98327316240E+01  0.37912907181E+02  0.55767929138E+01  0.39562392817E+02  0.10566000000E+00 0.  1.
         23    2    1    0    0    0  0.20864425838E+02 -0.62523136311E+01  0.20192984078E+02  0.95298614556E+02  0.90551938903E+02 0.  0.
         13    1    3    3    0    0  0.30697157462E+02 -0.44165220812E+02  0.14616191165E+02  0.55736221740E+02  0.10566000000E+00 0. -1.
         22    1    1    0    0    0 -0.20864425838E+02  0.62523136311E+01 -0.20192984078E+02  0.29701385444E+02  0.00000000000E+00 0. -1.
</event>
<event>
 5    1  0.2295636E-004  0.9118800E+02  0.7818608E-02  0.1130116E+00
         25   -1    0    0    0    0  0.00000000000E+00  0.00000000000E+00  0.99999998245E-14  0.12500000000E+03  0.12500000000E+03 0.  0.
        -13    1    3    3    0    0 -0.25366651135E+01  0.16616237431E+02  0.31868208702E+02  0.36029542131E+02  0.10566000000E+00 0.  1.
         23    2    1    0    0    0 -0.16144368880E+02  0.10647887491E+02 -0.24193284858E+02  0.94026895752E+02  0.88779073762E+02 0.  0.
         13    1    3    3    0    0 -0.13607703766E+02 -0.59683499403E+01 -0.56061493560E+02  0.57997353621E+02  0.10566000000E+00 0. -1.
         22    1    1    0    0    0  0.16144368880E+02 -0.10647887491E+02  0.24193284858E+02  0.30973104248E+02  0.00000000000E+00 0. -1.
</event>
<event>
 5    1  0.2295636E-004  0.9118800E+02  0.7818608E-02  0.1130116E+00
         25   -1    0    0    0    0  0.00000000000E+00  0.00000000000E+00  0.99999998245E-14  0.12500000000E+03  0.12500000000E+03 0.  0.
        -13    1    3    3    0    0 -0.22789405238E+02  0.22479405105E+02  0.14317253189E+02  0.35066729928E+02  0.10566000000E+00 0.  1.
         23    2    1    0    0    0  0.27706796427E+02 -0.91557483814E+01  0.38446631724E+01  0.95567437564E+02  0.90922271149E+02 0.  0.
         13    1    3    3    0    0  0.50496201665E+02 -0.31635153486E+02 -0.10472590017E+02  0.60500707635E+02  0.10566000000E+00 0. -1.
         22    1    1    0    0    0 -0.27706796427E+02  0.91557483814E+01 -0.38446631724E+01  0.29432562436E+02  0.00000000000E+00 0. -1.
</event>
<event>
 5    1  0.2295636E-004  0.9118800E+02  0.7818608E-02  0.1130116E+00
         25   -1    0    0    0    0  0.00000000000E+00  0.00000000000E+00  0.99999998245E-14  0.12500000000E+03  0.12500000000E+03 0.  0.
        -13    1    3    3    0    0 -0.15772632608E+02 -0.43636661947E+02 -0.32092786419E+02  0.56417127802E+02  0.10566000000E+00 0. -1.
         23    2    1    0    0    0 -0.18907327895E+02 -0.54199245236E+01 -0.20760253555E+02  0.96401909895E+02  0.92062356443E+02 0.  0.
         13    1    3    3    0    0 -0.31346952873E+01  0.38216737424E+02  0.11332532864E+02  0.39984782093E+02  0.10566000000E+00 0.  1.
         22    1    1    0    0    0  0.18907327895E+02  0.54199245236E+01  0.20760253555E+02  0.28598090105E+02  0.00000000000E+00 0. -1.
</event>
<event>
 5    1  0.2295636E-004  0.9118800E+02  0.7818608E-02  0.1130116E+00
         25   -1    0    0    0    0  0.00000000000E+00  0.00000000000E+00  0.99999998245E-14  0.12500000000E+03  0.12500000000E+03 0.  0.
        -13    1    3    3    0    0  0.25183433184E+02 -0.30733208721E+02 -0.39788412125E+02  0.56230457304E+02  0.10566000000E+00 0.  1.
         23    2    1    0    0    0 -0.81674400811E+01 -0.18679241472E+02 -0.17637555392E+02  0.98042542782E+02  0.94263649917E+02 0.  0.
         13    1    3    3    0    0 -0.33350873265E+02  0.12053967249E+02  0.22150856733E+02  0.41812085478E+02  0.10566000000E+00 0. -1.
         22    1    1    0    0    0  0.81674400811E+01  0.18679241472E+02  0.17637555392E+02  0.26957457218E+02  0.00000000000E+00 0.  1.
</event>
<event>
 5    1  0.2295636E-004  0.9118800E+02  0.7818608E-02  0.1130116E+00
         25   -1    0    0    0    0  0.00000000000E+00  0.00000000000E+00  0.99999998245E-14  0.12500000000E+03  0.12500000000E+03 0.  0.
        -13    1    3    3    0    0  0.83491230186E+01  0.12542131212E+01  0.27620253729E+02  0.28882009726E+02  0.10566000000E+00 0.  1.
         23    2    1    0    0    0  0.32768155288E+02  0.27037654209E+02 -0.10764938102E+02  0.81174543489E+02  0.68327416695E+02 0.  0.
         13    1    3    3    0    0  0.24419032269E+02  0.25783441088E+02 -0.38385191831E+02  0.52292533762E+02  0.10566000000E+00 0. -1.
         22    1    1    0    0    0 -0.32768155288E+02 -0.27037654209E+02  0.10764938102E+02  0.43825456511E+02  0.00000000000E+00 0. -1.
</event>
<event>
 5    1  0.2295636E-004  0.9118800E+02  0.7818608E-02  0.1130116E+00
         25   -1    0    0    0    0  0.00000000000E+00  0.00000000000E+00  0.99999998245E-14  0.12500000000E+03  0.12500000000E+03 0.  0.
        -13    1    3    3    0    0 -0.28033791556E+02  0.30068468561E+02 -0.45793472256E+02  0.61539089495E+02  0.10566000000E+00 0. -1.
         23    2    1    0    0    0 -0.20145719484E+02  0.17333809534E+02 -0.38545400520E+02  0.78180571685E+02  0.62611044723E+02 0.  0.
         13    1    3    3    0    0  0.78880720721E+01 -0.12734659027E+02  0.72480717358E+01  0.16641482190E+02  0.10566000000E+00 0.  1.
         22    1    1    0    0    0  0.20145719484E+02 -0.17333809534E+02  0.38545400520E+02  0.46819428315E+02  0.00000000000E+00 0. -1.
</event>
<event>
 5    1  0.2295636E-004  0.9118800E+02  0.7818608E-02  0.1130116E+00
         25   -1    0    0    0    0  0.00000000000E+00  0.00000000000E+00  0.99999998245E-14  0.12500000000E+03  0.12500000000E+03 0.  0.
        -13    1    3    3    0    0 -0.36387764988E+02 -0.39744738829E+02 -0.19670145487E+02  0.57364095852E+02  0.10566000000E+00 0.  1.
         23    2    1    0    0    0 -0.21616561452E+02 -0.88981141803E+00 -0.13784879260E+02  0.99346727507E+02  0.95977507140E+02 0.  0.
         13    1    3    3    0    0  0.14771203536E+02  0.38854927411E+02  0.58852662262E+01  0.41982631654E+02  0.10566000000E+00 0. -1.
         22    1    1    0    0    0  0.21616561452E+02  0.88981141803E+00  0.13784879260E+02  0.25653272493E+02  0.00000000000E+00 0.  1.
</event>
<event>
 5    1  0.2295636E-004  0.9118800E+02  0.7818608E-02  0.1130116E+00
         25   -1    0    0    0    0  0.00000000000E+00  0.00000000000E+00  0.99999998245E-14  0.12500000000E+03  0.12500000000E+03 0.  0.
        -13    1    3    3    0    0 -0.32385241357E+02  0.34039697604E+02  0.26912015298E+02  0.54145845659E+02  0.10566000000E+00 0. -1.
         23    2    1    0    0    0 -0.13154114821E+02 -0.62020095491E+01  0.21456815965E+02  0.99079147188E+02  0.95628378617E+02 0.  0.
         13    1    3    3    0    0  0.19231126535E+02 -0.40241707153E+02 -0.54551993334E+01  0.44933301528E+02  0.10566000000E+00 0.  1.
         22    1    1    0    0    0  0.13154114821E+02  0.62020095491E+01 -0.21456815965E+02  0.25920852812E+02  0.00000000000E+00 0. -1.
</event>
<event>
 5    1  0.2295636E-004  0.9118800E+02  0.7818608E-02  0.1130116E+00
         25   -1    0    0    0    0  0.00000000000E+00  0.00000000000E+00  0.99999998245E-14  0.12500000000E+03  0.12500000000E+03 0.  0.
        -13    1    3    3    0    0  0.41933189448E+02 -0.39134192721E+02  0.24804905198E+02  0.62491374630E+02  0.10566000000E+00 0.  1.
         23    2    1    0    0    0  0.19982373450E+02 -0.19337257667E+02  0.11444657800E+02  0.94929998754E+02  0.90041655296E+02 0.  0.
         13    1    3    3    0    0 -0.21950815998E+02  0.19796935054E+02 -0.13360247398E+02  0.32438624124E+02  0.10566000000E+00 0. -1.
         22    1    1    0    0    0 -0.19982373450E+02  0.19337257667E+02 -0.11444657800E+02  0.30070001246E+02  0.00000000000E+00 0.  1.
</event>
<event>
 5    1  0.2295636E-004  0.9118800E+02  0.7818608E-02  0.1130116E+00
         25   -1    0    0    0    0  0.00000000000E+00  0.00000000000E+00  0.99999998245E-14  0.12500000000E+03  0.12500000000E+03 0.  0.
        -13    1    3    3    0    0  0.45638378223E+02 -0.35478810166E+01 -0.37951921451E+02  0.59462665029E+02  0.10566000000E+00 0. -1.
         23    2    1    0    0    0  0.27175528546E+02 -0.11615903054E+02 -0.10246390602E+02  0.93720181013E+02  0.88346167168E+02 0.  0.
         13    1    3    3    0    0 -0.18462849677E+02 -0.80680220370E+01  0.27705530848E+02  0.34257515984E+02  0.10566000000E+00 0.  1.
         22    1    1    0    0    0 -0.27175528546E+02  0.11615903054E+02  0.10246390602E+02  0.31279818987E+02  0.00000000000E+00 0. -1.
</event>
<event>
 5    1  0.2295636E-004  0.9118800E+02  0.7818608E-02  0.1130116E+00
         25   -1    0    0    0    0  0.00000000000E+00  0.00000000000E+00  0.99999998245E-14  0.12500000000E+03  0.12500000000E+03 0.  0.
        -13    1    3    3    0    0  0.25027882263E+02 -0.26871092496E+02 -0.12889950408E+01  0.36744022300E+02  0.10566000000E+00 0.  1.
         23    2    1    0    0    0  0.22710684071E+02  0.37408640308E+01 -0.35488279810E+02  0.82701214692E+02  0.71065488622E+02 0.  0.
         13    1    3    3    0    0 -0.23171981925E+01  0.30611956526E+02 -0.34199284769E+02  0.45957192392E+02  0.10566000000E+00 0. -1.
         22    1    1    0    0    0 -0.22710684071E+02 -0.37408640308E+01  0.35488279810E+02  0.42298785308E+02  0.00000000000E+00 0. -1.
</event>
<event>
 5    1  0.2295636E-004  0.9118800E+02  0.7818608E-02  0.1130116E+00
         25   -1    0    0    0    0  0.00000000000E+00  0.00000000000E+00  0.99999998245E-14  0.12500000000E+03  0.12500000000E+03 0.  0.
        -13    1    3    3    0    0 -0.43892178844E+02 -0.11507628138E+02  0.22089460068E+02  0.50466863179E+02  0.10566000000E+00 0.  1.
         23    2    1    0    0    0 -0.11458391852E+01 -0.25344124581E+02  0.13678681633E+02  0.96177371226E+02  0.91756976882E+02 0.  0.
         13    1    3    3    0    0  0.42746339658E+02 -0.13836496443E+02 -0.84107784347E+01  0.45710508047E+02  0.10566000000E+00 0. -1.
         22    1    1    0    0    0  0.11458391852E+01  0.25344124581E+02 -0.13678681633E+02  0.28822628774E+02  0.00000000000E+00 0.  1.
</event>
<event>
 5    1  0.2295636E-004  0.9118800E+02  0.7818608E-02  0.1130116E+00
         25   -1    0    0    0    0  0.00000000000E+00  0.00000000000E+00  0.99999998245E-14  0.12500000000E+03  0.12500000000E+03 0.  0.
        -13    1    3    3    0    0 -0.40173389858E+02  0.44883602666E+02  0.33114087957E+01  0.60327569429E+02  0.10566000000E+00 0.  1.
         23    2    1    0    0    0 -0.28498202763E+02  0.14745640261E+02 -0.76243378220E+00  0.92903851123E+02  0.87183500623E+02 0.  0.
         13    1    3    3    0    0  0.11675187095E+02 -0.30137962405E+02 -0.40738425779E+01  0.32576281694E+02  0.10566000000E+00 0. -1.
         22    1    1    0    0    0  0.28498202763E+02 -0.14745640261E+02  0.76243378220E+00  0.32096148877E+02  0.00000000000E+00 0.  1.
</event>
<event>
 5    1  0.2295636E-004  0.9118800E+02  0.7818608E-02  0.1130116E+00
         25   -1    0    0    0    0  0.00000000000E+00  0.00000000000E+00  0.99999998245E-14  0.12500000000E+03  0.12500000000E+03 0.  0.
        -13    1    3    3    0    0  0.21910270056E+02  0.27492956657E+02 -0.19689224726E+02  0.40293911873E+02  0.10566000000E+00 0. -1.
         23    2    1    0    0    0 -0.80304203140E+01  0.12217563548E+02  0.24895233561E+02  0.96129094861E+02  0.91691186683E+02 0.  0.
         13    1    3    3    0    0 -0.29940690370E+02 -0.15275393109E+02  0.44584458288E+02  0.55835182988E+02  0.10566000000E+00 0.  1.
         22    1    1    0    0    0  0.80304203140E+01 -0.12217563548E+02 -0.24895233561E+02  0.28870905139E+02  0.00000000000E+00 0.  1.
</event>
<event>
 5    1  0.2295636E-004  0.9118800E+02  0.7818608E-02  0.1130116E+00
         25   -1    0    0    0    0  0.00000000000E+00  0.00000000000E+00  0.99999998245E-14  0.12500000000E+03  0.12500000000E+03 0.  0.
        -13    1    3    3    0    0 -0.68636018711E+01  0.40460286133E+01  0.38252259023E+02  0.39073339537E+02  0.10566000000E+00 0.  1.
         23    2    1    0    0    0 -0.24494311577E+01  0.25788160079E+02 -0.13794755192E+02  0.95651674936E+02  0.91038007085E+02 0.  0.
         13    1    3    3    0    0  0.44141707134E+01  0.21742131465E+02 -0.52047014215E+02  0.56578335399E+02  0.10566000000E+00 0. -1.
         22    1    1    0    0    0  0.24494311577E+01 -0.25788160079E+02  0.13794755192E+02  0.29348325064E+02  0.00000000000E+00 0. -1.
</event>
<event>
 5    1  0.2295636E-004  0.9118800E+02  0.7818608E-02  0.1130116E+00
         25   -1    0    0    0    0  0.00000000000E+00  0.00000000000E+00  0.99999998245E-14  0.12500000000E+03  0.12500000000E+03 0.  0.
        -13    1    3    3    0    0 -0.52508750931E+02 -0.29662478042E+02  0.59704886412E+01  0.60602717980E+02  0.10566000000E+00 0.  1.
         23    2    1    0    0    0 -0.22745327616E+02 -0.20666477412E+02 -0.55674132098E+01  0.93767816170E+02  0.88413539927E+02 0.  0.
         13    1    3    3    0    0  0.29763423315E+02  0.89960006299E+01 -0.11537901851E+02  0.33165098190E+02  0.10566000000E+00 0. -1.
         22    1    1    0    0    0  0.22745327616E+02  0.20666477412E+02  0.55674132098E+01  0.31232183830E+02  0.00000000000E+00 0.  1.
</event>
<event>
 5    1  0.2295636E-004  0.9118800E+02  0.7818608E-02  0.1130116E+00
         25   -1    0    0    0    0  0.00000000000E+00  0.00000000000E+00  0.99999998245E-14  0.12500000000E+03  0.12500000000E+03 0.  0.
        -13    1    3    3    0    0 -0.29600169094E+02  0.43688552049E+02 -0.21429787832E+02  0.56957058923E+02  0.10566000000E+00 0.  1.
         23    2    1    0    0    0 -0.61032262854E+01  0.28273059661E+02  0.51296661087E+01  0.95624351104E+02  0.91000482284E+02 0.  0.
         13    1    3    3    0    0  0.23496942809E+02 -0.15415492388E+02  0.26559453941E+02  0.38667292181E+02  0.10566000000E+00 0. -1.
         22    1    1    0    0    0  0.61032262854E+01 -0.28273059661E+02 -0.51296661087E+01  0.29375648896E+02  0.00000000000E+00 0.  1.
</event>
<event>
 5    1  0.2295636E-004  0.9118800E+02  0.7818608E-02  0.1130116E+00
         25   -1    0    0    0    0  0.00000000000E+00  0.00000000000E+00  0.99999998245E-14  0.12500000000E+03  0.12500000000E+03 0.  0.
        -13    1    3    3    0    0  0.99738707471E+01 -0.74693161741E+01  0.55979941498E+02  0.57350098482E+02  0.10566000000E+00 0.  1.
         23    2    1    0    0    0  0.76006864921E+01  0.14058316656E+02  0.28334713428E+02  0.92469050315E+02  0.86557856829E+02 0.  0.
         13    1    3    3    0    0 -0.23731842550E+01  0.21527632830E+02 -0.27645228070E+02  0.35118951833E+02  0.10566000000E+00 0. -1.
         22    1    1    0    0    0 -0.76006864921E+01 -0.14058316656E+02 -0.28334713428E+02  0.32530949685E+02  0.00000000000E+00 0.  1.
</event>
<event>
 5    1  0.2295636E-004  0.9118800E+02  0.7818608E-02  0.1130116E+00
         25   -1    0    0    0    0  0.00000000000E+00  0.00000000000E+00  0.99999998245E-14  0.12500000000E+03  0.12500000000E+03 0.  0.
        -13    1    3    3    0    0  0.21023893788E+02 -0.32270248856E+01  0.42130283657E+02  0.47195230317E+02  0.10566000000E+00 0.  1.
         23    2    1    0    0    0 -0.13954083279E+02  0.19221646553E+02  0.17369372283E+02  0.95574106133E+02  0.90931438641E+02 0.  0.
         13    1    3    3    0    0 -0.34977977067E+02  0.22448671439E+02 -0.24760911375E+02  0.48378875816E+02  0.10566000000E+00 0. -1.
         22    1    1    0    0    0  0.13954083279E+02 -0.19221646553E+02 -0.17369372283E+02  0.29425893867E+02  0.00000000000E+00 0.  1.
</event>
<event>
 5    1  0.2295636E-004  0.9118800E+02  0.7818608E-02  0.1130116E+00
         25   -1    0    0    0    0  0.00000000000E+00  0.00000000000E+00  0.99999998245E-14  0.12500000000E+03  0.12500000000E+03 0.  0.
        -13    1    3    3    0    0  0.19383779547E+01  0.18829725128E+02  0.37690962886E+02  0.42177431226E+02  0.10566000000E+00 0. -1.
         23    2    1    0    0    0 -0.19662219483E+02 -0.19630082018E+02  0.57783179355E+01  0.96621628779E+02  0.92360203522E+02 0.  0.
         13    1    3    3    0    0 -0.21600597437E+02 -0.38459807146E+02 -0.31912644951E+02  0.54444197553E+02  0.10566000000E+00 0.  1.
         22    1    1    0    0    0  0.19662219483E+02  0.19630082018E+02 -0.57783179355E+01  0.28378371221E+02  0.00000000000E+00 0.  1.
</event>
<event>
 5    1  0.2295636E-004  0.9118800E+02  0.7818608E-02  0.1130116E+00
         25   -1    0    0    0    0  0.00000000000E+00  0.00000000000E+00  0.99999998245E-14  0.12500000000E+03  0.12500000000E+03 0.  0.
        -13    1    3    3    0    0  0.29500898163E+02  0.11940176168E+02 -0.25216179653E+02  0.40604650961E+02  0.10566000000E+00 0. -1.
         23    2    1    0    0    0 -0.23104912318E+02  0.15451179106E+02 -0.77696963133E+01  0.96139229224E+02  0.91705001533E+02 0.  0.
         13    1    3    3    0    0 -0.52605810480E+02  0.35110029374E+01  0.17446483340E+02  0.55534578263E+02  0.10566000000E+00 0.  1.
         22    1    1    0    0    0  0.23104912318E+02 -0.15451179106E+02  0.77696963133E+01  0.28860770776E+02  0.00000000000E+00 0.  1.
</event>
<event>
 5    1  0.2295636E-004  0.9118800E+02  0.7818608E-02  0.1130116E+00
         25   -1    0    0    0    0  0.00000000000E+00  0.00000000000E+00  0.99999998245E-14  0.12500000000E+03  0.12500000000E+03 0.  0.
        -13    1    3    3    0    0 -0.74226001528E+01 -0.17087526127E+02 -0.48582115604E+02  0.52031833167E+02  0.10566000000E+00 0.  1.
         23    2    1    0    0    0  0.21794454942E+02 -0.34811959291E+01 -0.17173982275E+02  0.97034616783E+02  0.92917459046E+02 0.  0.
         13    1    3    3    0    0  0.29217055095E+02  0.13606330198E+02  0.31408133329E+02  0.45002783615E+02  0.10566000000E+00 0. -1.
         22    1    1    0    0    0 -0.21794454942E+02  0.34811959291E+01  0.17173982275E+02  0.27965383217E+02  0.00000000000E+00 0.  1.
</event>
<event>
 5    1  0.2295636E-004  0.9118800E+02  0.7818608E-02  0.1130116E+00
         25   -1    0    0    0    0  0.00000000000E+00  0.00000000000E+00  0.99999998245E-14  0.12500000000E+03  0.12500000000E+03 0.  0.
        -13    1    3    3    0    0 -0.34120109720E+02 -0.34732922018E+02  0.85276747190E+01  0.49429648587E+02  0.10566000000E+00 0. -1.
         23    2    1    0    0    0 -0.24540995458E+01 -0.53321749239E+01  0.27687230635E+02  0.96697395275E+02  0.92462688793E+02 0.  0.
         13    1    3    3    0    0  0.31666010175E+02  0.29400747094E+02  0.19159555916E+02  0.47267746688E+02  0.10566000000E+00 0.  1.
         22    1    1    0    0    0  0.24540995458E+01  0.53321749239E+01 -0.27687230635E+02  0.28302604725E+02  0.00000000000E+00 0.  1.
</event>
<event>
 5    1  0.2295636E-004  0.9118800E+02  0.7818608E-02  0.1130116E+00
         25   -1    0    0    0    0  0.00000000000E+00  0.00000000000E+00  0.99999998245E-14  0.12500000000E+03  0.12500000000E+03 0.  0.
        -13    1    3    3    0    0  0.14285586473E+02 -0.64707813783E+01 -0.29150507900E+02  0.33101544788E+02  0.10566000000E+00 0.  1.
         23    2    1    0    0    0 -0.19367371086E+02  0.72468327941E+01  0.21322816890E+02  0.95296899683E+02  0.90549571621E+02 0.  0.
         13    1    3    3    0    0 -0.33652957559E+02  0.13717614172E+02  0.50473324790E+02  0.62195354894E+02  0.10566000000E+00 0. -1.
         22    1    1    0    0    0  0.19367371086E+02 -0.72468327941E+01 -0.21322816890E+02  0.29703100317E+02  0.00000000000E+00 0. -1.
</event>
<event>
 5    1  0.2295636E-004  0.9118800E+02  0.7818608E-02  0.1130116E+00
         25   -1    0    0    0    0  0.00000000000E+00  0.00000000000E+00  0.99999998245E-14  0.12500000000E+03  0.12500000000E+03 0.  0.
        -13    1    3    3    0    0  0.29836195152E+02 -0.83995117831E+01 -0.17165221402E+02  0.35431713608E+02  0.10566000000E+00 0.  1.
         23    2    1    0    0    0 -0.64334266187E-01  0.25078398684E+02  0.19373378114E+02  0.93309970038E+02  0.87763845116E+02 0.  0.
         13    1    3    3    0    0 -0.29900529419E+02  0.33477910467E+02  0.36538599516E+02  0.57878256430E+02  0.10566000000E+00 0. -1.
         22    1    1    0    0    0  0.64334266187E-01 -0.25078398684E+02 -0.19373378114E+02  0.31690029962E+02  0.00000000000E+00 0. -1.
</event>
<event>
 5    1  0.2295636E-004  0.9118800E+02  0.7818608E-02  0.1130116E+00
         25   -1    0    0    0    0  0.00000000000E+00  0.00000000000E+00  0.99999998245E-14  0.12500000000E+03  0.12500000000E+03 0.  0.
        -13    1    3    3    0    0  0.32967564616E+02 -0.16960715018E+02  0.28003429255E+02  0.46462128500E+02  0.10566000000E+00 0.  1.
         23    2    1    0    0    0  0.28382025050E+02  0.20616606254E+02  0.17765420029E+02  0.85678327245E+02  0.76122150596E+02 0.  0.
         13    1    3    3    0    0 -0.45855395658E+01  0.37577321272E+02 -0.10238009226E+02  0.39216198746E+02  0.10566000000E+00 0. -1.
         22    1    1    0    0    0 -0.28382025050E+02 -0.20616606254E+02 -0.17765420029E+02  0.39321672755E+02  0.00000000000E+00 0.  1.
</event>
<event>
 5    1  0.2295636E-004  0.9118800E+02  0.7818608E-02  0.1130116E+00
         25   -1    0    0    0    0  0.00000000000E+00  0.00000000000E+00  0.99999998245E-14  0.12500000000E+03  0.12500000000E+03 0.  0.
        -13    1    3    3    0    0  0.10862908253E+02  0.15144741381E+02  0.11712698171E+02  0.22012824210E+02  0.10566000000E+00 0.  1.
         23    2    1    0    0    0 -0.17420069685E+02 -0.35479800431E+02 -0.10487726266E+02  0.84106632950E+02  0.73495974295E+02 0.  0.
         13    1    3    3    0    0 -0.28282977937E+02 -0.50624541812E+02 -0.22200424437E+02  0.62093808741E+02  0.10566000000E+00 0. -1.
         22    1    1    0    0    0  0.17420069685E+02  0.35479800431E+02  0.10487726266E+02  0.40893367050E+02  0.00000000000E+00 0. -1.
</event>
<event>
 5    1  0.2295636E-004  0.9118800E+02  0.7818608E-02  0.1130116E+00
         25   -1    0    0    0    0  0.00000000000E+00  0.00000000000E+00  0.99999998245E-14  0.12500000000E+03  0.12500000000E+03 0.  0.
        -13    1    3    3    0    0  0.15147945453E+02 -0.25368411669E+02  0.15092431649E+02  0.33178445099E+02  0.10566000000E+00 0. -1.
         23    2    1    0    0    0 -0.29121646374E+01  0.26264033937E+02  0.24831517723E+02  0.88738664477E+02  0.80991765750E+02 0.  0.
         13    1    3    3    0    0 -0.18060110090E+02  0.51632445606E+02  0.97390860734E+01  0.55560219378E+02  0.10566000000E+00 0.  1.
         22    1    1    0    0    0  0.29121646374E+01 -0.26264033937E+02 -0.24831517723E+02  0.36261335523E+02  0.00000000000E+00 0.  1.
</event>
<event>
 5    1  0.2295636E-004  0.9118800E+02  0.7818608E-02  0.1130116E+00
         25   -1    0    0    0    0  0.00000000000E+00  0.00000000000E+00  0.99999998245E-14  0.12500000000E+03  0.12500000000E+03 0.  0.
        -13    1    3    3    0    0  0.15588714751E+01 -0.32948368080E+02  0.20911296859E+02  0.39055326650E+02  0.10566000000E+00 0.  1.
         23    2    1    0    0    0  0.47026863825E+01  0.24526449917E+02  0.11969251687E+02  0.97306589399E+02  0.93282620835E+02 0.  0.
         13    1    3    3    0    0  0.31438149074E+01  0.57474817997E+02 -0.89420451715E+01  0.58251262749E+02  0.10566000000E+00 0. -1.
         22    1    1    0    0    0 -0.47026863825E+01 -0.24526449917E+02 -0.11969251687E+02  0.27693410601E+02  0.00000000000E+00 0. -1.
</event>
<event>
 5    1  0.2295636E-004  0.9118800E+02  0.7818608E-02  0.1130116E+00
         25   -1    0    0    0    0  0.00000000000E+00  0.00000000000E+00  0.99999998245E-14  0.12500000000E+03  0.12500000000E+03 0.  0.
        -13    1    3    3    0    0  0.32271219948E+02 -0.37609598139E+01  0.24823833220E+02  0.40887777091E+02  0.10566000000E+00 0. -1.
         23    2    1    0    0    0 -0.53112038248E+01 -0.27084420092E+02 -0.83353337744E+01  0.96168550384E+02  0.91744959513E+02 0.  0.
         13    1    3    3    0    0 -0.37582423773E+02 -0.23323460278E+02 -0.33159166995E+02  0.55280773293E+02  0.10566000000E+00 0.  1.
         22    1    1    0    0    0  0.53112038248E+01  0.27084420092E+02  0.83353337744E+01  0.28831449616E+02  0.00000000000E+00 0.  1.
</event>
<event>
 5    1  0.2295636E-004  0.9118800E+02  0.7818608E-02  0.1130116E+00
         25   -1    0    0    0    0  0.00000000000E+00  0.00000000000E+00  0.99999998245E-14  0.12500000000E+03  0.12500000000E+03 0.  0.
        -13    1    3    3    0    0  0.31680507783E+02  0.30743942856E+02 -0.18965830105E+02  0.48047460613E+02  0.10566000000E+00 0.  1.
         23    2    1    0    0    0 -0.14257123242E+02  0.22027260831E+02 -0.14509602196E+02  0.95016765706E+02  0.90162028740E+02 0.  0.
         13    1    3    3    0    0 -0.45937631025E+02 -0.87166820248E+01  0.44562279093E+01  0.46969305093E+02  0.10566000000E+00 0. -1.
         22    1    1    0    0    0  0.14257123242E+02 -0.22027260831E+02  0.14509602196E+02  0.29983234294E+02  0.00000000000E+00 0. -1.
</event>
<event>
 5    1  0.2295636E-004  0.9118800E+02  0.7818608E-02  0.1130116E+00
         25   -1    0    0    0    0  0.00000000000E+00  0.00000000000E+00  0.99999998245E-14  0.12500000000E+03  0.12500000000E+03 0.  0.
        -13    1    3    3    0    0  0.34213859029E+02 -0.19754295359E+02  0.24585823118E+02  0.46532721791E+02  0.10566000000E+00 0. -1.
         23    2    1    0    0    0  0.59755960416E+01 -0.24334251291E+02 -0.15317963191E+02  0.95631589586E+02  0.91010424658E+02 0.  0.
         13    1    3    3    0    0 -0.28238262988E+02 -0.45799559316E+01 -0.39903786310E+02  0.49098867795E+02  0.10566000000E+00 0.  1.
         22    1    1    0    0    0 -0.59755960416E+01  0.24334251291E+02  0.15317963191E+02  0.29368410414E+02  0.00000000000E+00 0.  1.
</event>
<event>
 5    1  0.2295636E-004  0.9118800E+02  0.7818608E-02  0.1130116E+00
         25   -1    0    0    0    0  0.00000000000E+00  0.00000000000E+00  0.99999998245E-14  0.12500000000E+03  0.12500000000E+03 0.  0.
        -13    1    3    3    0    0 -0.45101670730E+02  0.26027871738E+02  0.16438025842E+02  0.54606141298E+02  0.10566000000E+00 0.  1.
         23    2    1    0    0    0 -0.29896925935E+02 -0.14869584785E+01 -0.75253574559E+01  0.94134675918E+02  0.88930697622E+02 0.  0.
         13    1    3    3    0    0  0.15204744795E+02 -0.27514830216E+02 -0.23963383298E+02  0.39528534620E+02  0.10566000000E+00 0. -1.
         22    1    1    0    0    0  0.29896925935E+02  0.14869584785E+01  0.75253574559E+01  0.30865324082E+02  0.00000000000E+00 0.  1.
</event>
<event>
 5    1  0.2295636E-004  0.9118800E+02  0.7818608E-02  0.1130116E+00
         25   -1    0    0    0    0  0.00000000000E+00  0.00000000000E+00  0.99999998245E-14  0.12500000000E+03  0.12500000000E+03 0.  0.
        -13    1    3    3    0    0 -0.41834790896E+01 -0.20423017330E+02 -0.44485811270E+02  0.49128400163E+02  0.10566000000E+00 0.  1.
         23    2    1    0    0    0  0.37051571298E+00 -0.28732768241E+02  0.16404670933E+01  0.96218054532E+02  0.91812382786E+02 0.  0.
         13    1    3    3    0    0  0.45539948025E+01 -0.83097509104E+01  0.46126278364E+02  0.47089654369E+02  0.10566000000E+00 0. -1.
         22    1    1    0    0    0 -0.37051571298E+00  0.28732768241E+02 -0.16404670933E+01  0.28781945468E+02  0.00000000000E+00 0.  1.
</event>
<event>
 5    1  0.2295636E-004  0.9118800E+02  0.7818608E-02  0.1130116E+00
         25   -1    0    0    0    0  0.00000000000E+00  0.00000000000E+00  0.99999998245E-14  0.12500000000E+03  0.12500000000E+03 0.  0.
        -13    1    3    3    0    0  0.17427900356E+02  0.48954046197E+02 -0.26122866356E+01  0.52029468144E+02  0.10566000000E+00 0.  1.
         23    2    1    0    0    0 -0.17406773180E+02  0.24043379754E+02 -0.48974655607E+01  0.94915701247E+02  0.90021804646E+02 0.  0.
         13    1    3    3    0    0 -0.34834673536E+02 -0.24910666443E+02 -0.22851789250E+01  0.42886233103E+02  0.10566000000E+00 0. -1.
         22    1    1    0    0    0  0.17406773180E+02 -0.24043379754E+02  0.48974655607E+01  0.30084298753E+02  0.00000000000E+00 0.  1.
</event>
<event>
 5    1  0.2295636E-004  0.9118800E+02  0.7818608E-02  0.1130116E+00
         25   -1    0    0    0    0  0.00000000000E+00  0.00000000000E+00  0.99999998245E-14  0.12500000000E+03  0.12500000000E+03 0.  0.
        -13    1    3    3    0    0 -0.29271487043E+02 -0.44040738479E+01  0.27370620268E+02  0.40315974974E+02  0.10566000000E+00 0.  1.
         23    2    1    0    0    0  0.10555537791E+02 -0.26277122327E+02 -0.51824505514E+01  0.96211732780E+02  0.91803775494E+02 0.  0.
         13    1    3    3    0    0  0.39827024834E+02 -0.21873048479E+02 -0.32553070819E+02  0.55895757806E+02  0.10566000000E+00 0. -1.
         22    1    1    0    0    0 -0.10555537791E+02  0.26277122327E+02  0.51824505514E+01  0.28788267220E+02  0.00000000000E+00 0. -1.
</event>
<event>
 5    1  0.2295636E-004  0.9118800E+02  0.7818608E-02  0.1130116E+00
         25   -1    0    0    0    0  0.00000000000E+00  0.00000000000E+00  0.99999998245E-14  0.12500000000E+03  0.12500000000E+03 0.  0.
        -13    1    3    3    0    0 -0.42015825373E+02 -0.16677394569E+02  0.26932492050E+02  0.52619724091E+02  0.10566000000E+00 0.  1.
         23    2    1    0    0    0 -0.34586297024E+01 -0.24716596513E+02  0.20862659542E+02  0.92471200056E+02  0.86560961259E+02 0.  0.
         13    1    3    3    0    0  0.38557195671E+02 -0.80392019442E+01 -0.60698325083E+01  0.39851475965E+02  0.10566000000E+00 0. -1.
         22    1    1    0    0    0  0.34586297024E+01  0.24716596513E+02 -0.20862659542E+02  0.32528799944E+02  0.00000000000E+00 0. -1.
</event>
<event>
 5    1  0.2295636E-004  0.9118800E+02  0.7818608E-02  0.1130116E+00
         25   -1    0    0    0    0  0.00000000000E+00  0.00000000000E+00  0.99999998245E-14  0.12500000000E+03  0.12500000000E+03 0.  0.
        -13    1    3    3    0    0 -0.31214097385E+02 -0.23834320569E+02  0.16720122765E+02  0.42684521572E+02  0.10566000000E+00 0. -1.
         23    2    1    0    0    0 -0.35545850525E+02  0.17093803070E+02  0.82712837309E+01  0.84699631174E+02  0.74497703277E+02 0.  0.
         13    1    3    3    0    0 -0.43317531398E+01  0.40928123639E+02 -0.84488390338E+01  0.42015109603E+02  0.10566000000E+00 0.  1.
         22    1    1    0    0    0  0.35545850525E+02 -0.17093803070E+02 -0.82712837309E+01  0.40300368826E+02  0.00000000000E+00 0.  1.
</event>
<event>
 5    1  0.2295636E-004  0.9118800E+02  0.7818608E-02  0.1130116E+00
         25   -1    0    0    0    0  0.00000000000E+00  0.00000000000E+00  0.99999998245E-14  0.12500000000E+03  0.12500000000E+03 0.  0.
        -13    1    3    3    0    0  0.38286470862E+02 -0.21932983660E+02 -0.97487212448E+00  0.44134693417E+02  0.10566000000E+00 0.  1.
         23    2    1    0    0    0 -0.13631720004E+01 -0.18499520097E+02 -0.27403329827E+02  0.91908717654E+02  0.85744850653E+02 0.  0.
         13    1    3    3    0    0 -0.39649642863E+02  0.34334635633E+01 -0.26428457702E+02  0.47774024236E+02  0.10566000000E+00 0. -1.
         22    1    1    0    0    0  0.13631720004E+01  0.18499520097E+02  0.27403329827E+02  0.33091282346E+02  0.00000000000E+00 0.  1.
</event>
<event>
 5    1  0.2295636E-004  0.9118800E+02  0.7818608E-02  0.1130116E+00
         25   -1    0    0    0    0  0.00000000000E+00  0.00000000000E+00  0.99999998245E-14  0.12500000000E+03  0.12500000000E+03 0.  0.
        -13    1    3    3    0    0  0.16909180019E+02 -0.19021730677E+02  0.54926032702E+02  0.60536161418E+02  0.10566000000E+00 0.  1.
         23    2    1    0    0    0 -0.99374489644E+00 -0.43453954215E+01  0.30448406293E+02  0.94227034006E+02  0.89060420511E+02 0.  0.
         13    1    3    3    0    0 -0.17902924916E+02  0.14676335256E+02 -0.24477626409E+02  0.33690872588E+02  0.10566000000E+00 0. -1.
         22    1    1    0    0    0  0.99374489644E+00  0.43453954215E+01 -0.30448406293E+02  0.30772965994E+02  0.00000000000E+00 0.  1.
</event>
<event>
 5    1  0.2295636E-004  0.9118800E+02  0.7818608E-02  0.1130116E+00
         25   -1    0    0    0    0  0.00000000000E+00  0.00000000000E+00  0.99999998245E-14  0.12500000000E+03  0.12500000000E+03 0.  0.
        -13    1    3    3    0    0 -0.46521995599E+02 -0.13556834718E+01 -0.32836404445E+02  0.56959411629E+02  0.10566000000E+00 0. -1.
         23    2    1    0    0    0 -0.10539817079E+02  0.12102990420E+02 -0.23581279321E+02  0.96475504288E+02  0.92162226927E+02 0.  0.
         13    1    3    3    0    0  0.35982178520E+02  0.13458673892E+02  0.92551251238E+01  0.39516092660E+02  0.10566000000E+00 0.  1.
         22    1    1    0    0    0  0.10539817079E+02 -0.12102990420E+02  0.23581279321E+02  0.28524495712E+02  0.00000000000E+00 0. -1.
</event>
<event>
 5    1  0.2295636E-004  0.9118800E+02  0.7818608E-02  0.1130116E+00
         25   -1    0    0    0    0  0.00000000000E+00  0.00000000000E+00  0.99999998245E-14  0.12500000000E+03  0.12500000000E+03 0.  0.
        -13    1    3    3    0    0  0.61720718869E+01  0.29202518767E+02  0.23904347200E+02  0.38240169362E+02  0.10566000000E+00 0. -1.
         23    2    1    0    0    0 -0.39837093117E+00 -0.22135065304E+02 -0.10610979334E+02  0.10044979231E+03  0.97403532156E+02 0.  0.
         13    1    3    3    0    0 -0.65704428181E+01 -0.51337584071E+02 -0.34515326534E+02  0.62209622944E+02  0.10566000000E+00 0.  1.
         22    1    1    0    0    0  0.39837093117E+00  0.22135065304E+02  0.10610979334E+02  0.24550207694E+02  0.00000000000E+00 0.  1.
</event>
<event>
 5    1  0.2295636E-004  0.9118800E+02  0.7818608E-02  0.1130116E+00
         25   -1    0    0    0    0  0.00000000000E+00  0.00000000000E+00  0.99999998245E-14  0.12500000000E+03  0.12500000000E+03 0.  0.
        -13    1    3    3    0    0  0.26566063660E+02  0.22018869765E+02  0.24444554059E+01  0.34591514717E+02  0.10566000000E+00 0.  1.
         23    2    1    0    0    0 -0.28747354449E+02 -0.43810892380E+01  0.32022684137E+00  0.95918960198E+02  0.91404267130E+02 0.  0.
         13    1    3    3    0    0 -0.55313418109E+02 -0.26399959003E+02 -0.21242285645E+01  0.61327445482E+02  0.10566000000E+00 0. -1.
         22    1    1    0    0    0  0.28747354449E+02  0.43810892380E+01 -0.32022684137E+00  0.29081039802E+02  0.00000000000E+00 0. -1.
</event>
<event>
 5    1  0.2295636E-004  0.9118800E+02  0.7818608E-02  0.1130116E+00
         25   -1    0    0    0    0  0.00000000000E+00  0.00000000000E+00  0.99999998245E-14  0.12500000000E+03  0.12500000000E+03 0.  0.
        -13    1    3    3    0    0  0.55715050241E+01  0.46198392068E+02 -0.22788935412E+02  0.51813896197E+02  0.10566000000E+00 0.  1.
         23    2    1    0    0    0 -0.18304946865E+02  0.22552241357E+02  0.51321804582E+01  0.95504001183E+02  0.90835016903E+02 0.  0.
         13    1    3    3    0    0 -0.23876451889E+02 -0.23646150711E+02  0.27921115870E+02  0.43690104986E+02  0.10566000000E+00 0. -1.
         22    1    1    0    0    0  0.18304946865E+02 -0.22552241357E+02 -0.51321804582E+01  0.29495998817E+02  0.00000000000E+00 0. -1.
</event>
<event>
 5    1  0.2295636E-004  0.9118800E+02  0.7818608E-02  0.1130116E+00
         25   -1    0    0    0    0  0.00000000000E+00  0.00000000000E+00  0.99999998245E-14  0.12500000000E+03  0.12500000000E+03 0.  0.
        -13    1    3    3    0    0 -0.82037917754E+01  0.16419356806E+02  0.13931933371E+02  0.23043598003E+02  0.10566000000E+00 0. -1.
         23    2    1    0    0    0  0.42866014773E+02  0.12152591458E+02 -0.95780587256E+01  0.79426763220E+02  0.65051447370E+02 0.  0.
         13    1    3    3    0    0  0.51069806549E+02 -0.42667653484E+01 -0.23509992096E+02  0.56383165217E+02  0.10566000000E+00 0.  1.
         22    1    1    0    0    0 -0.42866014773E+02 -0.12152591458E+02  0.95780587256E+01  0.45573236780E+02  0.00000000000E+00 0.  1.
</event>
<event>
 5    1  0.2295636E-004  0.9118800E+02  0.7818608E-02  0.1130116E+00
         25   -1    0    0    0    0  0.00000000000E+00  0.00000000000E+00  0.99999998245E-14  0.12500000000E+03  0.12500000000E+03 0.  0.
        -13    1    3    3    0    0  0.22066017986E+02 -0.20391210517E+02  0.29313314388E+02  0.41976090583E+02  0.10566000000E+00 0. -1.
         23    2    1    0    0    0  0.19442535139E+02 -0.13161454198E+01 -0.21301468907E+02  0.96129652080E+02  0.91691946320E+02 0.  0.
         13    1    3    3    0    0 -0.26234828474E+01  0.19075065098E+02 -0.50614783296E+02  0.54153561497E+02  0.10566000000E+00 0.  1.
         22    1    1    0    0    0 -0.19442535139E+02  0.13161454198E+01  0.21301468907E+02  0.28870347920E+02  0.00000000000E+00 0.  1.
</event>
<event>
 5    1  0.2295636E-004  0.9118800E+02  0.7818608E-02  0.1130116E+00
         25   -1    0    0    0    0  0.00000000000E+00  0.00000000000E+00  0.99999998245E-14  0.12500000000E+03  0.12500000000E+03 0.  0.
        -13    1    3    3    0    0 -0.36138872011E+02  0.33492175305E+02  0.30322266353E+02  0.57854946874E+02  0.10566000000E+00 0.  1.
         23    2    1    0    0    0 -0.24546895096E+02  0.10765678502E+02 -0.90736837605E+00  0.98180730624E+02  0.94446718609E+02 0.  0.
         13    1    3    3    0    0  0.11591976915E+02 -0.22726496803E+02 -0.31229634729E+02  0.40325783750E+02  0.10566000000E+00 0. -1.
         22    1    1    0    0    0  0.24546895096E+02 -0.10765678502E+02  0.90736837605E+00  0.26819269376E+02  0.00000000000E+00 0.  1.
</event>
<event>
 5    1  0.2295636E-004  0.9118800E+02  0.7818608E-02  0.1130116E+00
         25   -1    0    0    0    0  0.00000000000E+00  0.00000000000E+00  0.99999998245E-14  0.12500000000E+03  0.12500000000E+03 0.  0.
        -13    1    3    3    0    0 -0.56349013706E+02  0.41218786736E+01 -0.84761438934E+01  0.57131929854E+02  0.10566000000E+00 0.  1.
         23    2    1    0    0    0 -0.17057176094E+02  0.12699069229E+02 -0.16428538546E+02  0.98127886307E+02  0.94376753370E+02 0.  0.
         13    1    3    3    0    0  0.39291837612E+02  0.85771905557E+01 -0.79523946523E+01  0.40995956453E+02  0.10566000000E+00 0. -1.
         22    1    1    0    0    0  0.17057176094E+02 -0.12699069229E+02  0.16428538546E+02  0.26872113693E+02  0.00000000000E+00 0.  1.
</event>
<event>
 5    1  0.2295636E-004  0.9118800E+02  0.7818608E-02  0.1130116E+00
         25   -1    0    0    0    0  0.00000000000E+00  0.00000000000E+00  0.99999998245E-14  0.12500000000E+03  0.12500000000E+03 0.  0.
        -13    1    3    3    0    0 -0.30452480006E+02 -0.17625532053E+01 -0.26486574095E+02  0.40398142329E+02  0.10566000000E+00 0. -1.
         23    2    1    0    0    0  0.50608690789E+01  0.62862129858E+01  0.22304915867E+02  0.10128000545E+03  0.98463198012E+02 0.  0.
         13    1    3    3    0    0  0.35513349085E+02  0.80487661911E+01  0.48791489963E+02  0.60881863122E+02  0.10566000000E+00 0.  1.
         22    1    1    0    0    0 -0.50608690789E+01 -0.62862129858E+01 -0.22304915867E+02  0.23719994549E+02  0.00000000000E+00 0.  1.
</event>
<event>
 5    1  0.2295636E-004  0.9118800E+02  0.7818608E-02  0.1130116E+00
         25   -1    0    0    0    0  0.00000000000E+00  0.00000000000E+00  0.99999998245E-14  0.12500000000E+03  0.12500000000E+03 0.  0.
        -13    1    3    3    0    0 -0.72960660810E+01 -0.14036910976E+01  0.46866737876E+02  0.47452136012E+02  0.10566000000E+00 0. -1.
         23    2    1    0    0    0 -0.27018973066E+01  0.26717356640E+02  0.56514547634E+01  0.97558128056E+02  0.93619079326E+02 0.  0.
         13    1    3    3    0    0  0.45941687744E+01  0.28121047737E+02 -0.41215283113E+02  0.50105992043E+02  0.10566000000E+00 0.  1.
         22    1    1    0    0    0  0.27018973066E+01 -0.26717356640E+02 -0.56514547634E+01  0.27441871944E+02  0.00000000000E+00 0. -1.
</event>
<event>
 5    1  0.2295636E-004  0.9118800E+02  0.7818608E-02  0.1130116E+00
         25   -1    0    0    0    0  0.00000000000E+00  0.00000000000E+00  0.99999998245E-14  0.12500000000E+03  0.12500000000E+03 0.  0.
        -13    1    3    3    0    0  0.27177763869E+02 -0.18119872603E+02  0.26210240900E+02  0.41880168626E+02  0.10566000000E+00 0.  1.
         23    2    1    0    0    0  0.13426932398E+02  0.27376596108E+02  0.43363230769E+01  0.94201230124E+02  0.89024196323E+02 0.  0.
         13    1    3    3    0    0 -0.13750831472E+02  0.45496468710E+02 -0.21873917823E+02  0.52321061498E+02  0.10566000000E+00 0. -1.
         22    1    1    0    0    0 -0.13426932398E+02 -0.27376596108E+02 -0.43363230769E+01  0.30798769876E+02  0.00000000000E+00 0. -1.
</event>
<event>
 5    1  0.2295636E-004  0.9118800E+02  0.7818608E-02  0.1130116E+00
         25   -1    0    0    0    0  0.00000000000E+00  0.00000000000E+00  0.99999998245E-14  0.12500000000E+03  0.12500000000E+03 0.  0.
        -13    1    3    3    0    0 -0.35215401159E+02  0.24659514363E+01  0.34614535508E+02  0.49440698091E+02  0.10566000000E+00 0. -1.
         23    2    1    0    0    0  0.10390394280E+02  0.71728089218E+01  0.26007554020E+02  0.96089753595E+02  0.91637538153E+02 0.  0.
         13    1    3    3    0    0  0.45605795439E+02  0.47068574855E+01 -0.86069814878E+01  0.46649055504E+02  0.10566000000E+00 0.  1.
         22    1    1    0    0    0 -0.10390394280E+02 -0.71728089218E+01 -0.26007554020E+02  0.28910246405E+02  0.00000000000E+00 0. -1.
</event>
<event>
 5    1  0.2295636E-004  0.9118800E+02  0.7818608E-02  0.1130116E+00
         25   -1    0    0    0    0  0.00000000000E+00  0.00000000000E+00  0.99999998245E-14  0.12500000000E+03  0.12500000000E+03 0.  0.
        -13    1    3    3    0    0  0.25985269943E+02 -0.26488118658E+02  0.42182230373E+01  0.37345136949E+02  0.10566000000E+00 0.  1.
         23    2    1    0    0    0  0.95290049352E+01  0.27353802865E+02 -0.79855722871E+01  0.94953339105E+02  0.90074051625E+02 0.  0.
         13    1    3    3    0    0 -0.16456265008E+02  0.53841921523E+02 -0.12203795324E+02  0.57608202156E+02  0.10566000000E+00 0. -1.
         22    1    1    0    0    0 -0.95290049352E+01 -0.27353802865E+02  0.79855722871E+01  0.30046660895E+02  0.00000000000E+00 0. -1.
</event>
<event>
 5    1  0.2295636E-004  0.9118800E+02  0.7818608E-02  0.1130116E+00
         25   -1    0    0    0    0  0.00000000000E+00  0.00000000000E+00  0.99999998245E-14  0.12500000000E+03  0.12500000000E+03 0.  0.
        -13    1    3    3    0    0  0.56492290735E+01 -0.24796762634E+02  0.38956413302E+02  0.46523182690E+02  0.10566000000E+00 0.  1.
         23    2    1    0    0    0 -0.12955013702E+02  0.17576790402E+02  0.11808610226E+02  0.10017623686E+03  0.97051837775E+02 0.  0.
         13    1    3    3    0    0 -0.18604242776E+02  0.42373553036E+02 -0.27147803075E+02  0.53653054172E+02  0.10566000000E+00 0. -1.
         22    1    1    0    0    0  0.12955013702E+02 -0.17576790402E+02 -0.11808610226E+02  0.24823763138E+02  0.00000000000E+00 0. -1.
</event>
<event>
 5    1  0.2295636E-004  0.9118800E+02  0.7818608E-02  0.1130116E+00
         25   -1    0    0    0    0  0.00000000000E+00  0.00000000000E+00  0.99999998245E-14  0.12500000000E+03  0.12500000000E+03 0.  0.
        -13    1    3    3    0    0 -0.57147867976E+02 -0.11737944976E+02  0.39625221245E+01  0.58475387233E+02  0.10566000000E+00 0.  1.
         23    2    1    0    0    0 -0.20946873593E+02 -0.20219639987E+02  0.36521473468E+01  0.95658160679E+02  0.91046911917E+02 0.  0.
         13    1    3    3    0    0  0.36200994383E+02 -0.84816950107E+01 -0.31037477778E+00  0.37182773445E+02  0.10566000000E+00 0. -1.
         22    1    1    0    0    0  0.20946873593E+02  0.20219639987E+02 -0.36521473468E+01  0.29341839321E+02  0.00000000000E+00 0.  1.
</event>
<event>
 5    1  0.2295636E-004  0.9118800E+02  0.7818608E-02  0.1130116E+00
         25   -1    0    0    0    0  0.00000000000E+00  0.00000000000E+00  0.99999998245E-14  0.12500000000E+03  0.12500000000E+03 0.  0.
        -13    1    3    3    0    0  0.19102747990E+02  0.54768955239E+02 -0.19369882567E+01  0.58037199504E+02  0.10566000000E+00 0.  1.
         23    2    1    0    0    0  0.23010244033E+02  0.17185336970E+02 -0.45877967168E+01  0.95916413289E+02  0.91400784036E+02 0.  0.
         13    1    3    3    0    0  0.39074960433E+01 -0.37583618269E+02 -0.26508084601E+01  0.37879213786E+02  0.10566000000E+00 0. -1.
         22    1    1    0    0    0 -0.23010244033E+02 -0.17185336970E+02  0.45877967168E+01  0.29083586711E+02  0.00000000000E+00 0.  1.
</event>
<event>
 5    1  0.2295636E-004  0.9118800E+02  0.7818608E-02  0.1130116E+00
         25   -1    0    0    0    0  0.00000000000E+00  0.00000000000E+00  0.99999998245E-14  0.12500000000E+03  0.12500000000E+03 0.  0.
        -13    1    3    3    0    0  0.40975497387E+02  0.43179125234E+02  0.55808895852E+01  0.59787839354E+02  0.10566000000E+00 0. -1.
         23    2    1    0    0    0  0.75111805691E+01  0.26536474554E+02  0.31584229992E+01  0.97240714146E+02  0.93194305279E+02 0.  0.
         13    1    3    3    0    0 -0.33464316818E+02 -0.16642650680E+02 -0.24224665860E+01  0.37452874791E+02  0.10566000000E+00 0.  1.
         22    1    1    0    0    0 -0.75111805691E+01 -0.26536474554E+02 -0.31584229992E+01  0.27759285854E+02  0.00000000000E+00 0. -1.
</event>
<event>
 5    1  0.2295636E-004  0.9118800E+02  0.7818608E-02  0.1130116E+00
         25   -1    0    0    0    0  0.00000000000E+00  0.00000000000E+00  0.99999998245E-14  0.12500000000E+03  0.12500000000E+03 0.  0.
        -13    1    3    3    0    0 -0.28019368899E+02 -0.45205889226E+02  0.26517671775E+02  0.59429416409E+02  0.10566000000E+00 0. -1.
         23    2    1    0    0    0 -0.27515015717E+02 -0.18475845548E+02  0.16474902300E+02  0.87988442827E+02  0.79825501606E+02 0.  0.
         13    1    3    3    0    0  0.50435318263E+00  0.26730043679E+02 -0.10042769475E+02  0.28559026418E+02  0.10566000000E+00 0.  1.
         22    1    1    0    0    0  0.27515015717E+02  0.18475845548E+02 -0.16474902300E+02  0.37011557173E+02  0.00000000000E+00 0. -1.
</event>
<event>
 5    1  0.2295636E-004  0.9118800E+02  0.7818608E-02  0.1130116E+00
         25   -1    0    0    0    0  0.00000000000E+00  0.00000000000E+00  0.99999998245E-14  0.12500000000E+03  0.12500000000E+03 0.  0.
        -13    1    3    3    0    0 -0.82544614522E+01  0.13760298538E+02 -0.32158232484E+02  0.35939463410E+02  0.10566000000E+00 0. -1.
         23    2    1    0    0    0  0.58698929387E+01  0.14163868856E+02  0.25468109796E+02  0.95272984666E+02  0.90516551892E+02 0.  0.
         13    1    3    3    0    0  0.14124354391E+02  0.40357031764E+00  0.57626342280E+02  0.59333521255E+02  0.10566000000E+00 0.  1.
         22    1    1    0    0    0 -0.58698929387E+01 -0.14163868856E+02 -0.25468109796E+02  0.29727015334E+02  0.00000000000E+00 0.  1.
</event>
<event>
 5    1  0.2295636E-004  0.9118800E+02  0.7818608E-02  0.1130116E+00
         25   -1    0    0    0    0  0.00000000000E+00  0.00000000000E+00  0.99999998245E-14  0.12500000000E+03  0.12500000000E+03 0.  0.
        -13    1    3    3    0    0 -0.21973487750E+02  0.31904985446E+02 -0.45918406356E+01  0.39011003892E+02  0.10566000000E+00 0.  1.
         23    2    1    0    0    0 -0.20486439797E+00 -0.72697188132E+01  0.29052531421E+02  0.95051037363E+02  0.90209530211E+02 0.  0.
         13    1    3    3    0    0  0.21768623352E+02 -0.39174704259E+02  0.33644372057E+02  0.56040033472E+02  0.10566000000E+00 0. -1.
         22    1    1    0    0    0  0.20486439797E+00  0.72697188132E+01 -0.29052531421E+02  0.29948962637E+02  0.00000000000E+00 0. -1.
</event>
<event>
 5    1  0.2295636E-004  0.9118800E+02  0.7818608E-02  0.1130116E+00
         25   -1    0    0    0    0  0.00000000000E+00  0.00000000000E+00  0.99999998245E-14  0.12500000000E+03  0.12500000000E+03 0.  0.
        -13    1    3    3    0    0  0.27170634247E+02  0.10640868225E+02 -0.47260630279E+02  0.55543224433E+02  0.10566000000E+00 0. -1.
         23    2    1    0    0    0  0.68612073996E+00  0.21977762238E+02 -0.22638010752E+02  0.93440970778E+02  0.87950228507E+02 0.  0.
         13    1    3    3    0    0 -0.26484513507E+02  0.11336894013E+02  0.24622619528E+02  0.37897746345E+02  0.10566000000E+00 0.  1.
         22    1    1    0    0    0 -0.68612073996E+00 -0.21977762238E+02  0.22638010752E+02  0.31559029222E+02  0.00000000000E+00 0. -1.
</event>
<event>
 5    1  0.2295636E-004  0.9118800E+02  0.7818608E-02  0.1130116E+00
         25   -1    0    0    0    0  0.00000000000E+00  0.00000000000E+00  0.99999998245E-14  0.12500000000E+03  0.12500000000E+03 0.  0.
        -13    1    3    3    0    0 -0.41902238784E+02 -0.14164297789E+02 -0.34675540819E+02  0.56203462901E+02  0.10566000000E+00 0.  1.
         23    2    1    0    0    0 -0.71063185273E+01 -0.22531140424E+02 -0.14247109259E+02  0.97411376002E+02  0.93422930807E+02 0.  0.
         13    1    3    3    0    0  0.34795920256E+02 -0.83668426352E+01  0.20428431560E+02  0.41207913102E+02  0.10566000000E+00 0. -1.
         22    1    1    0    0    0  0.71063185273E+01  0.22531140424E+02  0.14247109259E+02  0.27588623998E+02  0.00000000000E+00 0.  1.
</event>
<event>
 5    1  0.2295636E-004  0.9118800E+02  0.7818608E-02  0.1130116E+00
         25   -1    0    0    0    0  0.00000000000E+00  0.00000000000E+00  0.99999998245E-14  0.12500000000E+03  0.12500000000E+03 0.  0.
        -13    1    3    3    0    0  0.31876764902E+01  0.43851726876E+02 -0.98137362118E+01  0.45049481838E+02  0.10566000000E+00 0.  1.
         23    2    1    0    0    0 -0.27855837168E+02  0.40215682700E+01 -0.86284529025E+01  0.95562424095E+02  0.90915378367E+02 0.  0.
         13    1    3    3    0    0 -0.31043513658E+02 -0.39830158606E+02  0.11852833093E+01  0.50512942256E+02  0.10566000000E+00 0. -1.
         22    1    1    0    0    0  0.27855837168E+02 -0.40215682700E+01  0.86284529025E+01  0.29437575905E+02  0.00000000000E+00 0.  1.
</event>
<event>
 5    1  0.2295636E-004  0.9118800E+02  0.7818608E-02  0.1130116E+00
         25   -1    0    0    0    0  0.00000000000E+00  0.00000000000E+00  0.99999998245E-14  0.12500000000E+03  0.12500000000E+03 0.  0.
        -13    1    3    3    0    0  0.11236679405E+02 -0.49720260058E+02 -0.16236053421E+02  0.53497549655E+02  0.10566000000E+00 0.  1.
         23    2    1    0    0    0 -0.17412232487E+02 -0.22525458985E+02  0.80566540319E+00  0.96517878600E+02  0.92219681468E+02 0.  0.
         13    1    3    3    0    0 -0.28648911893E+02  0.27194801073E+02  0.17041718825E+02  0.43020328946E+02  0.10566000000E+00 0. -1.
         22    1    1    0    0    0  0.17412232487E+02  0.22525458985E+02 -0.80566540319E+00  0.28482121400E+02  0.00000000000E+00 0.  1.
</event>
<event>
 5    1  0.2295636E-004  0.9118800E+02  0.7818608E-02  0.1130116E+00
         25   -1    0    0    0    0  0.00000000000E+00  0.00000000000E+00  0.99999998245E-14  0.12500000000E+03  0.12500000000E+03 0.  0.
        -13    1    3    3    0    0  0.16859611948E+02  0.33150443225E+02  0.20301401594E+02  0.42371647027E+02  0.10566000000E+00 0. -1.
         23    2    1    0    0    0  0.10211310580E+02 -0.20736766797E+02  0.16102291228E+02  0.96829658438E+02  0.92641322365E+02 0.  0.
         13    1    3    3    0    0 -0.66483013680E+01 -0.53887210021E+02 -0.41991103657E+01  0.54458011411E+02  0.10566000000E+00 0.  1.
         22    1    1    0    0    0 -0.10211310580E+02  0.20736766797E+02 -0.16102291228E+02  0.28170341562E+02  0.00000000000E+00 0.  1.
</event>
<event>
 5    1  0.2295636E-004  0.9118800E+02  0.7818608E-02  0.1130116E+00
         25   -1    0    0    0    0  0.00000000000E+00  0.00000000000E+00  0.99999998245E-14  0.12500000000E+03  0.12500000000E+03 0.  0.
        -13    1    3    3    0    0 -0.40747723659E+02 -0.20571839390E+02 -0.13622647363E+02  0.47635755946E+02  0.10566000000E+00 0.  1.
         23    2    1    0    0    0 -0.63407158716E+01  0.94956599543E+01 -0.27362744479E+02  0.95350513982E+02  0.90623553757E+02 0.  0.
         13    1    3    3    0    0  0.34407007788E+02  0.30067499344E+02 -0.13740097115E+02  0.47714758036E+02  0.10566000000E+00 0. -1.
         22    1    1    0    0    0  0.63407158716E+01 -0.94956599543E+01  0.27362744479E+02  0.29649486018E+02  0.00000000000E+00 0. -1.
</event>
<event>
 5    1  0.2295636E-004  0.9118800E+02  0.7818608E-02  0.1130116E+00
         25   -1    0    0    0    0  0.00000000000E+00  0.00000000000E+00  0.99999998245E-14  0.12500000000E+03  0.12500000000E+03 0.  0.
        -13    1    3    3    0    0 -0.35924785888E+02  0.24558300666E+02  0.13243715803E+02  0.45487443817E+02  0.10566000000E+00 0.  1.
         23    2    1    0    0    0  0.14444544136E+02  0.65697958494E+01  0.20078900793E+02  0.99407631414E+02  0.96056794937E+02 0.  0.
         13    1    3    3    0    0  0.50369330024E+02 -0.17988504817E+02  0.68351849895E+01  0.53920187597E+02  0.10566000000E+00 0. -1.
         22    1    1    0    0    0 -0.14444544136E+02 -0.65697958494E+01 -0.20078900793E+02  0.25592368586E+02  0.00000000000E+00 0. -1.
</event>
<event>
 5    1  0.2295636E-004  0.9118800E+02  0.7818608E-02  0.1130116E+00
         25   -1    0    0    0    0  0.00000000000E+00  0.00000000000E+00  0.99999998245E-14  0.12500000000E+03  0.12500000000E+03 0.  0.
        -13    1    3    3    0    0 -0.12740270980E+01  0.38345726748E+02 -0.17626029598E+01  0.38407497160E+02  0.10566000000E+00 0.  1.
         23    2    1    0    0    0 -0.23375441608E+02 -0.15715234609E+02 -0.92152755285E+00  0.96817929774E+02  0.92625495645E+02 0.  0.
         13    1    3    3    0    0 -0.22101414510E+02 -0.54060961358E+02  0.84107540698E+00  0.58410432614E+02  0.10566000000E+00 0. -1.
         22    1    1    0    0    0  0.23375441608E+02  0.15715234609E+02  0.92152755285E+00  0.28182070226E+02  0.00000000000E+00 0. -1.
</event>
<event>
 5    1  0.2295636E-004  0.9118800E+02  0.7818608E-02  0.1130116E+00
         25   -1    0    0    0    0  0.00000000000E+00  0.00000000000E+00  0.99999998245E-14  0.12500000000E+03  0.12500000000E+03 0.  0.
        -13    1    3    3    0    0 -0.42204092455E+02 -0.19182879560E+02 -0.17204934680E+02  0.49448854684E+02  0.10566000000E+00 0. -1.
         23    2    1    0    0    0 -0.24796444606E+02  0.12560193546E+02  0.10759072363E+02  0.95194299788E+02  0.90407825696E+02 0.  0.
         13    1    3    3    0    0  0.17407647849E+02  0.31743073106E+02  0.27964007043E+02  0.45745445105E+02  0.10566000000E+00 0.  1.
         22    1    1    0    0    0  0.24796444606E+02 -0.12560193546E+02 -0.10759072363E+02  0.29805700212E+02  0.00000000000E+00 0. -1.
</event>
<event>
 5    1  0.2295636E-004  0.9118800E+02  0.7818608E-02  0.1130116E+00
         25   -1    0    0    0    0  0.00000000000E+00  0.00000000000E+00  0.99999998245E-14  0.12500000000E+03  0.12500000000E+03 0.  0.
        -13    1    3    3    0    0 -0.23518511352E+02 -0.36496006586E+01  0.30419007843E+02  0.38623401758E+02  0.10566000000E+00 0.  1.
         23    2    1    0    0    0  0.27901189902E+02  0.59488420100E+01  0.11269060974E+02  0.94326609994E+02  0.89200070059E+02 0.  0.
         13    1    3    3    0    0  0.51419701254E+02  0.95984426686E+01 -0.19149946869E+02  0.55703208236E+02  0.10566000000E+00 0. -1.
         22    1    1    0    0    0 -0.27901189902E+02 -0.59488420100E+01 -0.11269060974E+02  0.30673390006E+02  0.00000000000E+00 0. -1.
</event>
<event>
 5    1  0.2295636E-004  0.9118800E+02  0.7818608E-02  0.1130116E+00
         25   -1    0    0    0    0  0.00000000000E+00  0.00000000000E+00  0.99999998245E-14  0.12500000000E+03  0.12500000000E+03 0.  0.
        -13    1    3    3    0    0  0.23208680977E+01 -0.34070092650E+02 -0.24733750938E+02  0.42165474518E+02  0.10566000000E+00 0. -1.
         23    2    1    0    0    0  0.29405228645E+02  0.24069248517E+01  0.29193924763E+01  0.95352342228E+02  0.90626075481E+02 0.  0.
         13    1    3    3    0    0  0.27084360548E+02  0.36477017501E+02  0.27653143414E+02  0.53186867710E+02  0.10566000000E+00 0.  1.
         22    1    1    0    0    0 -0.29405228645E+02 -0.24069248517E+01 -0.29193924763E+01  0.29647657772E+02  0.00000000000E+00 0.  1.
</event>
<event>
 5    1  0.2295636E-004  0.9118800E+02  0.7818608E-02  0.1130116E+00
         25   -1    0    0    0    0  0.00000000000E+00  0.00000000000E+00  0.99999998245E-14  0.12500000000E+03  0.12500000000E+03 0.  0.
        -13    1    3    3    0    0 -0.27782603257E+02  0.16998701512E+02  0.27492697433E+02  0.42622628649E+02  0.10566000000E+00 0.  1.
         23    2    1    0    0    0 -0.11932912590E+02  0.24376848588E+01 -0.23809180451E+02  0.98256518848E+02  0.94546970930E+02 0.  0.
         13    1    3    3    0    0  0.15849690667E+02 -0.14561016653E+02 -0.51301877884E+02  0.55633890199E+02  0.10566000000E+00 0. -1.
         22    1    1    0    0    0  0.11932912590E+02 -0.24376848588E+01  0.23809180451E+02  0.26743481152E+02  0.00000000000E+00 0. -1.
</event>
<event>
 5    1  0.2295636E-004  0.9118800E+02  0.7818608E-02  0.1130116E+00
         25   -1    0    0    0    0  0.00000000000E+00  0.00000000000E+00  0.99999998245E-14  0.12500000000E+03  0.12500000000E+03 0.  0.
        -13    1    3    3    0    0  0.78627134009E+01 -0.38698731110E+02  0.34014361284E+02  0.52119113473E+02  0.10566000000E+00 0. -1.
         23    2    1    0    0    0 -0.12932678548E+01 -0.29935882485E+02 -0.63019746784E+01  0.94380651759E+02  0.89275769051E+02 0.  0.
         13    1    3    3    0    0 -0.91559812557E+01  0.87628486251E+01 -0.40316335963E+02  0.42261538286E+02  0.10566000000E+00 0.  1.
         22    1    1    0    0    0  0.12932678548E+01  0.29935882485E+02  0.63019746784E+01  0.30619348241E+02  0.00000000000E+00 0. -1.
</event>
<event>
 5    1  0.2295636E-004  0.9118800E+02  0.7818608E-02  0.1130116E+00
         25   -1    0    0    0    0  0.00000000000E+00  0.00000000000E+00  0.99999998245E-14  0.12500000000E+03  0.12500000000E+03 0.  0.
        -13    1    3    3    0    0 -0.38585028082E+02  0.27168893975E+01 -0.34012303061E+02  0.51507609181E+02  0.10566000000E+00 0. -1.
         23    2    1    0    0    0  0.59162120171E+01 -0.73599981161E+01 -0.25346966256E+02  0.97951158338E+02  0.94142389945E+02 0.  0.
         13    1    3    3    0    0  0.44501240099E+02 -0.10076887514E+02  0.86653368051E+01  0.46443549157E+02  0.10566000000E+00 0.  1.
         22    1    1    0    0    0 -0.59162120171E+01  0.73599981161E+01  0.25346966256E+02  0.27048841662E+02  0.00000000000E+00 0. -1.
</event>
<event>
 5    1  0.2295636E-004  0.9118800E+02  0.7818608E-02  0.1130116E+00
         25   -1    0    0    0    0  0.00000000000E+00  0.00000000000E+00  0.99999998245E-14  0.12500000000E+03  0.12500000000E+03 0.  0.
        -13    1    3    3    0    0 -0.15072161022E+02  0.33180771485E+02 -0.10611052630E+01  0.36459165413E+02  0.10566000000E+00 0.  1.
         23    2    1    0    0    0 -0.10939968238E+02 -0.26316960518E+02 -0.42454580730E+01  0.96185260192E+02  0.91767723345E+02 0.  0.
         13    1    3    3    0    0  0.41321927833E+01 -0.59497732003E+02 -0.31843528100E+01  0.59726094779E+02  0.10566000000E+00 0. -1.
         22    1    1    0    0    0  0.10939968238E+02  0.26316960518E+02  0.42454580730E+01  0.28814739808E+02  0.00000000000E+00 0. -1.
</event>
<event>
 5    1  0.2295636E-004  0.9118800E+02  0.7818608E-02  0.1130116E+00
         25   -1    0    0    0    0  0.00000000000E+00  0.00000000000E+00  0.99999998245E-14  0.12500000000E+03  0.12500000000E+03 0.  0.
        -13    1    3    3    0    0 -0.31336457021E+02 -0.23143384911E+02  0.18727715612E+02  0.43224163380E+02  0.10566000000E+00 0.  1.
         23    2    1    0    0    0  0.21380514246E+02 -0.14143015334E+02  0.10342007974E+02  0.97357489240E+02  0.93350802407E+02 0.  0.
         13    1    3    3    0    0  0.52716971267E+02  0.90003695769E+01 -0.83857076376E+01  0.54133325861E+02  0.10566000000E+00 0. -1.
         22    1    1    0    0    0 -0.21380514246E+02  0.14143015334E+02 -0.10342007974E+02  0.27642510760E+02  0.00000000000E+00 0. -1.
</event>
<event>
 5    1  0.2295636E-004  0.9118800E+02  0.7818608E-02  0.1130116E+00
         25   -1    0    0    0    0  0.00000000000E+00  0.00000000000E+00  0.99999998245E-14  0.12500000000E+03  0.12500000000E+03 0.  0.
        -13    1    3    3    0    0  0.37574463676E+02  0.11500119894E+02  0.11043969368E+02  0.40817563641E+02  0.10566000000E+00 0.  1.
         23    2    1    0    0    0 -0.11287883564E+02 -0.68685346030E+01  0.26609964399E+02  0.95290013661E+02  0.90540065249E+02 0.  0.
         13    1    3    3    0    0 -0.48862347240E+02 -0.18368654497E+02  0.15565995031E+02  0.54472450020E+02  0.10566000000E+00 0. -1.
         22    1    1    0    0    0  0.11287883564E+02  0.68685346030E+01 -0.26609964399E+02  0.29709986339E+02  0.00000000000E+00 0. -1.
</event>
<event>
 5    1  0.2295636E-004  0.9118800E+02  0.7818608E-02  0.1130116E+00
         25   -1    0    0    0    0  0.00000000000E+00  0.00000000000E+00  0.99999998245E-14  0.12500000000E+03  0.12500000000E+03 0.  0.
        -13    1    3    3    0    0  0.56525448872E+02 -0.10351095544E+02 -0.40864399124E+01  0.57610604096E+02  0.10566000000E+00 0.  1.
         23    2    1    0    0    0  0.26298061814E+02  0.40483017569E+01 -0.16920127631E+02  0.93467992114E+02  0.87988624426E+02 0.  0.
         13    1    3    3    0    0 -0.30227387058E+02  0.14399397301E+02 -0.12833687718E+02  0.35857388018E+02  0.10566000000E+00 0. -1.
         22    1    1    0    0    0 -0.26298061814E+02 -0.40483017569E+01  0.16920127631E+02  0.31532007886E+02  0.00000000000E+00 0.  1.
</event>
<event>
 5    1  0.2295636E-004  0.9118800E+02  0.7818608E-02  0.1130116E+00
         25   -1    0    0    0    0  0.00000000000E+00  0.00000000000E+00  0.99999998245E-14  0.12500000000E+03  0.12500000000E+03 0.  0.
        -13    1    3    3    0    0 -0.33711074491E+02  0.41696274263E+02 -0.30558440106E+02  0.61715842832E+02  0.10566000000E+00 0. -1.
         23    2    1    0    0    0 -0.93934788963E+01  0.14890389113E+02 -0.31519999945E+01  0.10711435666E+03  0.10561055423E+03 0.  0.
         13    1    3    3    0    0  0.24317595594E+02 -0.26805885150E+02  0.27406440112E+02  0.45398513828E+02  0.10566000000E+00 0.  1.
         22    1    1    0    0    0  0.93934788963E+01 -0.14890389113E+02  0.31519999945E+01  0.17885643340E+02  0.00000000000E+00 0. -1.
</event>
<event>
 5    1  0.2295636E-004  0.9118800E+02  0.7818608E-02  0.1130116E+00
         25   -1    0    0    0    0  0.00000000000E+00  0.00000000000E+00  0.99999998245E-14  0.12500000000E+03  0.12500000000E+03 0.  0.
        -13    1    3    3    0    0  0.32530101082E+02  0.13287185278E+02  0.10381477802E+02  0.36640728901E+02  0.10566000000E+00 0. -1.
         23    2    1    0    0    0 -0.24220070857E+02  0.17713451550E+02 -0.21161822414E+01  0.94919168472E+02  0.90026618941E+02 0.  0.
         13    1    3    3    0    0 -0.56750171939E+02  0.44262662711E+01 -0.12497660043E+02  0.58278439571E+02  0.10566000000E+00 0.  1.
         22    1    1    0    0    0  0.24220070857E+02 -0.17713451550E+02  0.21161822414E+01  0.30080831528E+02  0.00000000000E+00 0.  1.
</event>
<event>
 5    1  0.2295636E-004  0.9118800E+02  0.7818608E-02  0.1130116E+00
         25   -1    0    0    0    0  0.00000000000E+00  0.00000000000E+00  0.99999998245E-14  0.12500000000E+03  0.12500000000E+03 0.  0.
        -13    1    3    3    0    0 -0.47415303793E+02 -0.22189239930E+02 -0.84773690426E+01  0.53032540505E+02  0.10566000000E+00 0. -1.
         23    2    1    0    0    0 -0.25063528102E+02 -0.11658169646E+02  0.20108822298E+02  0.90817283686E+02  0.84138700498E+02 0.  0.
         13    1    3    3    0    0  0.22351775692E+02  0.10531070284E+02  0.28586191340E+02  0.37784743181E+02  0.10566000000E+00 0.  1.
         22    1    1    0    0    0  0.25063528102E+02  0.11658169646E+02 -0.20108822298E+02  0.34182716314E+02  0.00000000000E+00 0. -1.
</event>
<event>
 5    1  0.2295636E-004  0.9118800E+02  0.7818608E-02  0.1130116E+00
         25   -1    0    0    0    0  0.00000000000E+00  0.00000000000E+00  0.99999998245E-14  0.12500000000E+03  0.12500000000E+03 0.  0.
        -13    1    3    3    0    0 -0.41474759836E+02 -0.21057875303E+01  0.42208546630E+02  0.59212858546E+02  0.10566000000E+00 0.  1.
         23    2    1    0    0    0 -0.11774078318E+02  0.10173608394E+02  0.24687707505E+02  0.95817571557E+02  0.91265507664E+02 0.  0.
         13    1    3    3    0    0  0.29700681518E+02  0.12279395925E+02 -0.17520839125E+02  0.36604713010E+02  0.10566000000E+00 0. -1.
         22    1    1    0    0    0  0.11774078318E+02 -0.10173608394E+02 -0.24687707505E+02  0.29182428443E+02  0.00000000000E+00 0.  1.
</event>
<event>
 5    1  0.2295636E-004  0.9118800E+02  0.7818608E-02  0.1130116E+00
         25   -1    0    0    0    0  0.00000000000E+00  0.00000000000E+00  0.99999998245E-14  0.12500000000E+03  0.12500000000E+03 0.  0.
        -13    1    3    3    0    0  0.57016097655E+02  0.14929457259E+02 -0.20561993348E+02  0.62422198137E+02  0.10566000000E+00 0.  1.
         23    2    1    0    0    0  0.26824815947E+02  0.47592162452E+01 -0.96628630235E+01  0.96093395016E+02  0.91642505171E+02 0.  0.
         13    1    3    3    0    0 -0.30191281707E+02 -0.10170241014E+02  0.10899130324E+02  0.33671196879E+02  0.10566000000E+00 0. -1.
         22    1    1    0    0    0 -0.26824815947E+02 -0.47592162452E+01  0.96628630235E+01  0.28906604984E+02  0.00000000000E+00 0.  1.
</event>
<event>
 5    1  0.2295636E-004  0.9118800E+02  0.7818608E-02  0.1130116E+00
         25   -1    0    0    0    0  0.00000000000E+00  0.00000000000E+00  0.99999998245E-14  0.12500000000E+03  0.12500000000E+03 0.  0.
        -13    1    3    3    0    0 -0.10833354938E+02  0.12739959415E+02  0.47232129918E+02  0.50105422917E+02  0.10566000000E+00 0.  1.
         23    2    1    0    0    0 -0.24327836674E+02 -0.10770334231E+02  0.91198124286E+01  0.96875016170E+02  0.92702502892E+02 0.  0.
         13    1    3    3    0    0 -0.13494481736E+02 -0.23510293646E+02 -0.38112317489E+02  0.46769593253E+02  0.10566000000E+00 0. -1.
         22    1    1    0    0    0  0.24327836674E+02  0.10770334231E+02 -0.91198124286E+01  0.28124983830E+02  0.00000000000E+00 0. -1.
</event>
<event>
 5    1  0.2295636E-004  0.9118800E+02  0.7818608E-02  0.1130116E+00
         25   -1    0    0    0    0  0.00000000000E+00  0.00000000000E+00  0.99999998245E-14  0.12500000000E+03  0.12500000000E+03 0.  0.
        -13    1    3    3    0    0 -0.39603979080E+02  0.34709854542E+02  0.25494140356E+02  0.58508217524E+02  0.10566000000E+00 0.  1.
         23    2    1    0    0    0 -0.28415746865E+02  0.55712936444E+01  0.56441299457E+01  0.95498301987E+02  0.90827173780E+02 0.  0.
         13    1    3    3    0    0  0.11188232214E+02 -0.29138560898E+02 -0.19850010411E+02  0.36990084463E+02  0.10566000000E+00 0. -1.
         22    1    1    0    0    0  0.28415746865E+02 -0.55712936444E+01 -0.56441299457E+01  0.29501698013E+02  0.00000000000E+00 0.  1.
</event>
<event>
 5    1  0.2295636E-004  0.9118800E+02  0.7818608E-02  0.1130116E+00
         25   -1    0    0    0    0  0.00000000000E+00  0.00000000000E+00  0.99999998245E-14  0.12500000000E+03  0.12500000000E+03 0.  0.
        -13    1    3    3    0    0  0.19913811800E+02 -0.10814118044E+02  0.24153897776E+02  0.33119888154E+02  0.10566000000E+00 0. -1.
         23    2    1    0    0    0 -0.24001597263E+02  0.29104117738E+01 -0.17475762487E+02  0.95167979579E+02  0.90371427425E+02 0.  0.
         13    1    3    3    0    0 -0.43915409063E+02  0.13724529817E+02 -0.41629660263E+02  0.62048091426E+02  0.10566000000E+00 0.  1.
         22    1    1    0    0    0  0.24001597263E+02 -0.29104117738E+01  0.17475762487E+02  0.29832020421E+02  0.00000000000E+00 0.  1.
</event>
<event>
 5    1  0.2295636E-004  0.9118800E+02  0.7818608E-02  0.1130116E+00
         25   -1    0    0    0    0  0.00000000000E+00  0.00000000000E+00  0.99999998245E-14  0.12500000000E+03  0.12500000000E+03 0.  0.
        -13    1    3    3    0    0  0.37849369742E+02  0.67956410930E+01 -0.44739860467E+02  0.58995099851E+02  0.10566000000E+00 0.  1.
         23    2    1    0    0    0  0.27742024984E+02 -0.10394504496E+01 -0.10892356090E+02  0.95178131705E+02  0.90385468557E+02 0.  0.
         13    1    3    3    0    0 -0.10107344758E+02 -0.78350915426E+01  0.33847504377E+02  0.36183031854E+02  0.10566000000E+00 0. -1.
         22    1    1    0    0    0 -0.27742024984E+02  0.10394504496E+01  0.10892356090E+02  0.29821868295E+02  0.00000000000E+00 0.  1.
</event>
<event>
 5    1  0.2295636E-004  0.9118800E+02  0.7818608E-02  0.1130116E+00
         25   -1    0    0    0    0  0.00000000000E+00  0.00000000000E+00  0.99999998245E-14  0.12500000000E+03  0.12500000000E+03 0.  0.
        -13    1    3    3    0    0  0.50650395102E+02 -0.11041405693E+02 -0.12339895164E+02  0.53288454100E+02  0.10566000000E+00 0.  1.
         23    2    1    0    0    0  0.23300093242E+02  0.13608853035E+02  0.98469950322E+01  0.96276167784E+02  0.91891468298E+02 0.  0.
         13    1    3    3    0    0 -0.27350301860E+02  0.24650258728E+02  0.22186890196E+02  0.42987713684E+02  0.10566000000E+00 0. -1.
         22    1    1    0    0    0 -0.23300093242E+02 -0.13608853035E+02 -0.98469950322E+01  0.28723832216E+02  0.00000000000E+00 0. -1.
</event>
<event>
 5    1  0.2295636E-004  0.9118800E+02  0.7818608E-02  0.1130116E+00
         25   -1    0    0    0    0  0.00000000000E+00  0.00000000000E+00  0.99999998245E-14  0.12500000000E+03  0.12500000000E+03 0.  0.
        -13    1    3    3    0    0  0.37880715727E+01 -0.52600592211E+02  0.58648449245E+00  0.52740183117E+02  0.10566000000E+00 0. -1.
         23    2    1    0    0    0  0.78349165156E+01 -0.20934561105E+02 -0.23376134890E+02  0.92656755762E+02  0.86828503042E+02 0.  0.
         13    1    3    3    0    0  0.40468449429E+01  0.31666031106E+02 -0.23962619382E+02  0.39916572645E+02  0.10566000000E+00 0.  1.
         22    1    1    0    0    0 -0.78349165156E+01  0.20934561105E+02  0.23376134890E+02  0.32343244238E+02  0.00000000000E+00 0. -1.
</event>
<event>
 5    1  0.2295636E-004  0.9118800E+02  0.7818608E-02  0.1130116E+00
         25   -1    0    0    0    0  0.00000000000E+00  0.00000000000E+00  0.99999998245E-14  0.12500000000E+03  0.12500000000E+03 0.  0.
        -13    1    3    3    0    0 -0.57052935093E+01  0.61630891031E+01  0.31260887839E+02  0.32369558444E+02  0.10566000000E+00 0.  1.
         23    2    1    0    0    0 -0.91846244038E+01 -0.32293911083E+02 -0.11051751979E+02  0.89653214570E+02  0.82391162405E+02 0.  0.
         13    1    3    3    0    0 -0.34793308945E+01 -0.38457000186E+02 -0.42312639818E+02  0.57283656126E+02  0.10566000000E+00 0. -1.
         22    1    1    0    0    0  0.91846244038E+01  0.32293911083E+02  0.11051751979E+02  0.35346785430E+02  0.00000000000E+00 0. -1.
</event>
<event>
 5    1  0.2295636E-004  0.9118800E+02  0.7818608E-02  0.1130116E+00
         25   -1    0    0    0    0  0.00000000000E+00  0.00000000000E+00  0.99999998245E-14  0.12500000000E+03  0.12500000000E+03 0.  0.
        -13    1    3    3    0    0 -0.30922277623E+02  0.35459536470E+02  0.13070508872E+02  0.48830475589E+02  0.10566000000E+00 0.  1.
         23    2    1    0    0    0 -0.27414153371E+02 -0.93956994434E+01 -0.10940384219E+01  0.95999794947E+02  0.91514746007E+02 0.  0.
         13    1    3    3    0    0  0.35081242519E+01 -0.44855235913E+02 -0.14164547294E+02  0.47169319358E+02  0.10566000000E+00 0. -1.
         22    1    1    0    0    0  0.27414153371E+02  0.93956994434E+01  0.10940384219E+01  0.29000205053E+02  0.00000000000E+00 0. -1.
</event>
<event>
 5    1  0.2295636E-004  0.9118800E+02  0.7818608E-02  0.1130116E+00
         25   -1    0    0    0    0  0.00000000000E+00  0.00000000000E+00  0.99999998245E-14  0.12500000000E+03  0.12500000000E+03 0.  0.
        -13    1    3    3    0    0 -0.89457342876E+01  0.36191847530E+02 -0.12631790620E+02  0.39363044698E+02  0.10566000000E+00 0.  1.
         23    2    1    0    0    0 -0.14127560299E+02 -0.19337151121E+02 -0.17490731660E+02  0.95344662074E+02  0.90615481671E+02 0.  0.
         13    1    3    3    0    0 -0.51818260117E+01 -0.55528998651E+02 -0.48589410394E+01  0.55981617376E+02  0.10566000000E+00 0. -1.
         22    1    1    0    0    0  0.14127560299E+02  0.19337151121E+02  0.17490731660E+02  0.29655337926E+02  0.00000000000E+00 0. -1.
</event>
<event>
 5    1  0.2295636E-004  0.9118800E+02  0.7818608E-02  0.1130116E+00
         25   -1    0    0    0    0  0.00000000000E+00  0.00000000000E+00  0.99999998245E-14  0.12500000000E+03  0.12500000000E+03 0.  0.
        -13    1    3    3    0    0  0.22713618326E+02  0.17629523729E+02 -0.18892782323E+02  0.34404315897E+02  0.10566000000E+00 0. -1.
         23    2    1    0    0    0 -0.25312801124E+02 -0.43774376516E+01  0.13098973871E+02  0.96164553452E+02  0.91739513640E+02 0.  0.
         13    1    3    3    0    0 -0.48026419450E+02 -0.22006961381E+02  0.31991756194E+02  0.61760237555E+02  0.10566000000E+00 0.  1.
         22    1    1    0    0    0  0.25312801124E+02  0.43774376516E+01 -0.13098973871E+02  0.28835446548E+02  0.00000000000E+00 0.  1.
</event>
<event>
 5    1  0.2295636E-004  0.9118800E+02  0.7818608E-02  0.1130116E+00
         25   -1    0    0    0    0  0.00000000000E+00  0.00000000000E+00  0.99999998245E-14  0.12500000000E+03  0.12500000000E+03 0.  0.
        -13    1    3    3    0    0  0.17310975943E+02 -0.82985528845E+01  0.32300167454E+02  0.37574563866E+02  0.10566000000E+00 0.  1.
         23    2    1    0    0    0 -0.16095450510E+02  0.27451296895E+02  0.80891849396E+01  0.92165991086E+02  0.86119090634E+02 0.  0.
         13    1    3    3    0    0 -0.33406426453E+02  0.35749849780E+02 -0.24210982515E+02  0.54591427221E+02  0.10566000000E+00 0. -1.
         22    1    1    0    0    0  0.16095450510E+02 -0.27451296895E+02 -0.80891849396E+01  0.32834008914E+02  0.00000000000E+00 0. -1.
</event>
<event>
 5    1  0.2295636E-004  0.9118800E+02  0.7818608E-02  0.1130116E+00
         25   -1    0    0    0    0  0.00000000000E+00  0.00000000000E+00  0.99999998245E-14  0.12500000000E+03  0.12500000000E+03 0.  0.
        -13    1    3    3    0    0 -0.30021263452E+02 -0.27576051469E+02 -0.89061868507E+01  0.41725845733E+02  0.10566000000E+00 0.  1.
         23    2    1    0    0    0 -0.72692573141E+01 -0.32994477841E+01  0.30599793836E+02  0.93376024279E+02  0.87857874262E+02 0.  0.
         13    1    3    3    0    0  0.22752006138E+02  0.24276603685E+02  0.39505980687E+02  0.51650178546E+02  0.10566000000E+00 0. -1.
         22    1    1    0    0    0  0.72692573141E+01  0.32994477841E+01 -0.30599793836E+02  0.31623975721E+02  0.00000000000E+00 0. -1.
</event>
<event>
 5    1  0.2295636E-004  0.9118800E+02  0.7818608E-02  0.1130116E+00
         25   -1    0    0    0    0  0.00000000000E+00  0.00000000000E+00  0.99999998245E-14  0.12500000000E+03  0.12500000000E+03 0.  0.
        -13    1    3    3    0    0  0.36649577440E+02  0.37439895701E+01 -0.49974472892E+02  0.62085973370E+02  0.10566000000E+00 0.  1.
         23    2    1    0    0    0  0.14971658884E+02 -0.22905116070E+01 -0.25566351181E+02  0.95284089685E+02  0.90531886213E+02 0.  0.
         13    1    3    3    0    0 -0.21677918556E+02 -0.60345011772E+01  0.24408121711E+02  0.33198116315E+02  0.10566000000E+00 0. -1.
         22    1    1    0    0    0 -0.14971658884E+02  0.22905116070E+01  0.25566351181E+02  0.29715910315E+02  0.00000000000E+00 0.  1.
</event>
<event>
 5    1  0.2295636E-004  0.9118800E+02  0.7818608E-02  0.1130116E+00
         25   -1    0    0    0    0  0.00000000000E+00  0.00000000000E+00  0.99999998245E-14  0.12500000000E+03  0.12500000000E+03 0.  0.
        -13    1    3    3    0    0  0.21055914800E+02  0.18341918716E+02 -0.54485385206E+02  0.61224553043E+02  0.10566000000E+00 0.  1.
         23    2    1    0    0    0  0.20404213299E+02  0.12624942835E+02 -0.28956118372E+02  0.87394443321E+02  0.78889865194E+02 0.  0.
         13    1    3    3    0    0 -0.65170150106E+00 -0.57169758811E+01  0.25529266834E+02  0.26169890278E+02  0.10566000000E+00 0. -1.
         22    1    1    0    0    0 -0.20404213299E+02 -0.12624942835E+02  0.28956118372E+02  0.37605556679E+02  0.00000000000E+00 0.  1.
</event>
<event>
 5    1  0.2295636E-004  0.9118800E+02  0.7818608E-02  0.1130116E+00
         25   -1    0    0    0    0  0.00000000000E+00  0.00000000000E+00  0.99999998245E-14  0.12500000000E+03  0.12500000000E+03 0.  0.
        -13    1    3    3    0    0  0.58896699313E+01 -0.33488152011E+02 -0.31438982945E+02  0.46309452055E+02  0.10566000000E+00 0.  1.
         23    2    1    0    0    0  0.51027920389E+01  0.21062044596E+01  0.17398380448E+02  0.10674682970E+03  0.10517465201E+03 0.  0.
         13    1    3    3    0    0 -0.78687789237E+00  0.35594356471E+02  0.48837363392E+02  0.60437377644E+02  0.10566000000E+00 0. -1.
         22    1    1    0    0    0 -0.51027920389E+01 -0.21062044596E+01 -0.17398380448E+02  0.18253170300E+02  0.00000000000E+00 0.  1.
</event>
<event>
 5    1  0.2295636E-004  0.9118800E+02  0.7818608E-02  0.1130116E+00
         25   -1    0    0    0    0  0.00000000000E+00  0.00000000000E+00  0.99999998245E-14  0.12500000000E+03  0.12500000000E+03 0.  0.
        -13    1    3    3    0    0 -0.22558202397E+02 -0.15813783626E+02 -0.48350802773E+02  0.55648535837E+02  0.10566000000E+00 0. -1.
         23    2    1    0    0    0 -0.22061338580E+02 -0.17249473693E+02 -0.82117815089E+01  0.95816436849E+02  0.91263953521E+02 0.  0.
         13    1    3    3    0    0  0.49686381758E+00 -0.14356900670E+01  0.40139021264E+02  0.40167901012E+02  0.10566000000E+00 0.  1.
         22    1    1    0    0    0  0.22061338580E+02  0.17249473693E+02  0.82117815089E+01  0.29183563151E+02  0.00000000000E+00 0. -1.
</event>
<event>
 5    1  0.2295636E-004  0.9118800E+02  0.7818608E-02  0.1130116E+00
         25   -1    0    0    0    0  0.00000000000E+00  0.00000000000E+00  0.99999998245E-14  0.12500000000E+03  0.12500000000E+03 0.  0.
        -13    1    3    3    0    0  0.13366885620E+02 -0.26338753246E+02 -0.15294246978E+02  0.33261519935E+02  0.10566000000E+00 0.  1.
         23    2    1    0    0    0 -0.10683564447E+02  0.20932804471E+02  0.17570510728E+02  0.95656453868E+02  0.91044568576E+02 0.  0.
         13    1    3    3    0    0 -0.24050450067E+02  0.47271557717E+02  0.32864757706E+02  0.62394933933E+02  0.10566000000E+00 0. -1.
         22    1    1    0    0    0  0.10683564447E+02 -0.20932804471E+02 -0.17570510728E+02  0.29343546132E+02  0.00000000000E+00 0. -1.
</event>
<event>
 5    1  0.2295636E-004  0.9118800E+02  0.7818608E-02  0.1130116E+00
         25   -1    0    0    0    0  0.00000000000E+00  0.00000000000E+00  0.99999998245E-14  0.12500000000E+03  0.12500000000E+03 0.  0.
        -13    1    3    3    0    0 -0.33261137215E+02 -0.32407747768E+01  0.28073659551E+02  0.43645703048E+02  0.10566000000E+00 0. -1.
         23    2    1    0    0    0  0.16228647302E+02  0.94626569687E+01  0.23456330335E+02  0.94948206327E+02  0.90066928347E+02 0.  0.
         13    1    3    3    0    0  0.49489784516E+02  0.12703431746E+02 -0.46173292154E+01  0.51302503279E+02  0.10566000000E+00 0.  1.
         22    1    1    0    0    0 -0.16228647302E+02 -0.94626569687E+01 -0.23456330335E+02  0.30051793673E+02  0.00000000000E+00 0.  1.
</event>
<event>
 5    1  0.2295636E-004  0.9118800E+02  0.7818608E-02  0.1130116E+00
         25   -1    0    0    0    0  0.00000000000E+00  0.00000000000E+00  0.99999998245E-14  0.12500000000E+03  0.12500000000E+03 0.  0.
        -13    1    3    3    0    0 -0.36076840238E+02 -0.55738530652E+01  0.14272838130E+02  0.39196062454E+02  0.10566000000E+00 0.  1.
         23    2    1    0    0    0  0.15846747704E+02 -0.19766028491E+02 -0.93711169424E+01  0.97988277955E+02  0.94191663584E+02 0.  0.
         13    1    3    3    0    0  0.51923587942E+02 -0.14192175425E+02 -0.23643955072E+02  0.58792215501E+02  0.10566000000E+00 0. -1.
         22    1    1    0    0    0 -0.15846747704E+02  0.19766028491E+02  0.93711169424E+01  0.27011722045E+02  0.00000000000E+00 0. -1.
</event>
<event>
 5    1  0.2295636E-004  0.9118800E+02  0.7818608E-02  0.1130116E+00
         25   -1    0    0    0    0  0.00000000000E+00  0.00000000000E+00  0.99999998245E-14  0.12500000000E+03  0.12500000000E+03 0.  0.
        -13    1    3    3    0    0  0.47088302623E+02  0.38633669404E+02  0.50184883228E+01  0.61115178513E+02  0.10566000000E+00 0.  1.
         23    2    1    0    0    0  0.22089192324E+02  0.17966261532E+02 -0.69532121864E+01  0.95690170067E+02  0.91090847602E+02 0.  0.
         13    1    3    3    0    0 -0.24999110299E+02 -0.20667407872E+02 -0.11971700509E+02  0.34574991554E+02  0.10566000000E+00 0. -1.
         22    1    1    0    0    0 -0.22089192324E+02 -0.17966261532E+02  0.69532121864E+01  0.29309829933E+02  0.00000000000E+00 0.  1.
</event>
<event>
 5    1  0.2295636E-004  0.9118800E+02  0.7818608E-02  0.1130116E+00
         25   -1    0    0    0    0  0.00000000000E+00  0.00000000000E+00  0.99999998245E-14  0.12500000000E+03  0.12500000000E+03 0.  0.
        -13    1    3    3    0    0  0.13684208358E+02  0.59039707725E+02 -0.12141060256E+02  0.61809070166E+02  0.10566000000E+00 0.  1.
         23    2    1    0    0    0  0.10306695566E+02  0.24501579101E+02 -0.10075093346E+02  0.96573553548E+02  0.92295115727E+02 0.  0.
         13    1    3    3    0    0 -0.33775127927E+01 -0.34538128624E+02  0.20659669100E+01  0.34764483382E+02  0.10566000000E+00 0. -1.
         22    1    1    0    0    0 -0.10306695566E+02 -0.24501579101E+02  0.10075093346E+02  0.28426446452E+02  0.00000000000E+00 0.  1.
</event>
<event>
 5    1  0.2295636E-004  0.9118800E+02  0.7818608E-02  0.1130116E+00
         25   -1    0    0    0    0  0.00000000000E+00  0.00000000000E+00  0.99999998245E-14  0.12500000000E+03  0.12500000000E+03 0.  0.
        -13    1    3    3    0    0 -0.12821155483E+02  0.47654273134E+02 -0.70200678580E+01  0.49845805166E+02  0.10566000000E+00 0.  1.
         23    2    1    0    0    0  0.11592750620E+02  0.91200621236E+01 -0.22567414617E+02  0.98039740310E+02  0.94259933575E+02 0.  0.
         13    1    3    3    0    0  0.24413906103E+02 -0.38534211011E+02 -0.15547346759E+02  0.48193935144E+02  0.10566000000E+00 0. -1.
         22    1    1    0    0    0 -0.11592750620E+02 -0.91200621236E+01  0.22567414617E+02  0.26960259690E+02  0.00000000000E+00 0. -1.
</event>
<event>
 5    1  0.2295636E-004  0.9118800E+02  0.7818608E-02  0.1130116E+00
         25   -1    0    0    0    0  0.00000000000E+00  0.00000000000E+00  0.99999998245E-14  0.12500000000E+03  0.12500000000E+03 0.  0.
        -13    1    3    3    0    0 -0.59855032930E+02 -0.12112894702E+02  0.74825071980E+01  0.61525167721E+02  0.10566000000E+00 0. -1.
         23    2    1    0    0    0 -0.25380894125E+02  0.25179145288E+01  0.45660303335E+01  0.99089031026E+02  0.95641297338E+02 0.  0.
         13    1    3    3    0    0  0.34474138805E+02  0.14630809231E+02 -0.29164768645E+01  0.37563863305E+02  0.10566000000E+00 0.  1.
         22    1    1    0    0    0  0.25380894125E+02 -0.25179145288E+01 -0.45660303335E+01  0.25910968974E+02  0.00000000000E+00 0. -1.
</event>
<event>
 4    1  0.2295636E-004  0.9118800E+02  0.7818608E-02  0.1130116E+00
         25   -1    0    0    0    0  0.00000000000E+00  0.00000000000E+00  0.99999998245E-14  0.12500000000E+03  0.12500000000E+03 0.  0.
        -13    1    1    0    0    0 -0.66972348323E+01 -0.10811074669E+02  0.23763787884E+01  0.12937953087E+02  0.10566000000E+00 0. -1.
         13    1    1    0    0    0 -0.77485315717E+01  0.54215381048E+02  0.23398363577E+02  0.59555368069E+02  0.10566000000E+00 0.  1.
         22    1    1    0    0    0  0.14445766404E+02 -0.43404306379E+02 -0.25774742365E+02  0.52506678844E+02  0.00000000000E+00 0.  1.
</event>
<event>
 5    1  0.2295636E-004  0.9118800E+02  0.7818608E-02  0.1130116E+00
         25   -1    0    0    0    0  0.00000000000E+00  0.00000000000E+00  0.99999998245E-14  0.12500000000E+03  0.12500000000E+03 0.  0.
        -13    1    3    3    0    0  0.40579046810E+02  0.35012852838E+02  0.26036086244E+02  0.59585634634E+02  0.10566000000E+00 0. -1.
         23    2    1    0    0    0  0.27664182952E+02  0.88695810315E+01  0.50469894945E+01  0.95513586366E+02  0.90848206319E+02 0.  0.
         13    1    3    3    0    0 -0.12914863859E+02 -0.26143271806E+02 -0.20989096749E+02  0.35927951731E+02  0.10566000000E+00 0.  1.
         22    1    1    0    0    0 -0.27664182952E+02 -0.88695810315E+01 -0.50469894945E+01  0.29486413634E+02  0.00000000000E+00 0. -1.
</event>
<event>
 5    1  0.2295636E-004  0.9118800E+02  0.7818608E-02  0.1130116E+00
         25   -1    0    0    0    0  0.00000000000E+00  0.00000000000E+00  0.99999998245E-14  0.12500000000E+03  0.12500000000E+03 0.  0.
        -13    1    3    3    0    0  0.36500844639E+02 -0.39099664213E+02 -0.31759944283E+02  0.62207721593E+02  0.10566000000E+00 0.  1.
         23    2    1    0    0    0  0.13682651659E+02 -0.19148742050E+02 -0.17300973631E+02  0.95790190567E+02  0.91227998124E+02 0.  0.
         13    1    3    3    0    0 -0.22818192980E+02  0.19950922163E+02  0.14458970651E+02  0.33582468973E+02  0.10566000000E+00 0. -1.
         22    1    1    0    0    0 -0.13682651659E+02  0.19148742050E+02  0.17300973631E+02  0.29209809433E+02  0.00000000000E+00 0.  1.
</event>
<event>
 5    1  0.2295636E-004  0.9118800E+02  0.7818608E-02  0.1130116E+00
         25   -1    0    0    0    0  0.00000000000E+00  0.00000000000E+00  0.99999998245E-14  0.12500000000E+03  0.12500000000E+03 0.  0.
        -13    1    3    3    0    0  0.53758526556E+02  0.21319705155E+01 -0.88545907471E+01  0.54524667969E+02  0.10566000000E+00 0. -1.
         23    2    1    0    0    0  0.23826529152E+02 -0.14578149507E+02  0.11943573810E+02  0.94621144033E+02  0.89611863101E+02 0.  0.
         13    1    3    3    0    0 -0.29931997405E+02 -0.16710120023E+02  0.20798164557E+02  0.40096476064E+02  0.10566000000E+00 0.  1.
         22    1    1    0    0    0 -0.23826529152E+02  0.14578149507E+02 -0.11943573810E+02  0.30378855967E+02  0.00000000000E+00 0. -1.
</event>
<event>
 5    1  0.2295636E-004  0.9118800E+02  0.7818608E-02  0.1130116E+00
         25   -1    0    0    0    0  0.00000000000E+00  0.00000000000E+00  0.99999998245E-14  0.12500000000E+03  0.12500000000E+03 0.  0.
        -13    1    3    3    0    0  0.56132442604E+01  0.54220414106E+02  0.15808201479E+02  0.56756252651E+02  0.10566000000E+00 0. -1.
         23    2    1    0    0    0 -0.13247641163E+02  0.36039647657E+02  0.17060362505E+02  0.82983191834E+02  0.71559750967E+02 0.  0.
         13    1    3    3    0    0 -0.18860885423E+02 -0.18180766449E+02  0.12521610258E+01  0.26226939183E+02  0.10566000000E+00 0.  1.
         22    1    1    0    0    0  0.13247641163E+02 -0.36039647657E+02 -0.17060362505E+02  0.42016808166E+02  0.00000000000E+00 0. -1.
</event>
<event>
 5    1  0.2295636E-004  0.9118800E+02  0.7818608E-02  0.1130116E+00
         25   -1    0    0    0    0  0.00000000000E+00  0.00000000000E+00  0.99999998245E-14  0.12500000000E+03  0.12500000000E+03 0.  0.
        -13    1    3    3    0    0  0.28457862849E+02  0.43929137244E+02 -0.27535312114E+02  0.59142401322E+02  0.10566000000E+00 0.  1.
         23    2    1    0    0    0  0.26369485739E+02  0.14165854418E+02 -0.15198192820E+02  0.91429085884E+02  0.85042762602E+02 0.  0.
         13    1    3    3    0    0 -0.20883771097E+01 -0.29763282826E+02  0.12337119293E+02  0.32286684562E+02  0.10566000000E+00 0. -1.
         22    1    1    0    0    0 -0.26369485739E+02 -0.14165854418E+02  0.15198192820E+02  0.33570914116E+02  0.00000000000E+00 0.  1.
</event>
<event>
 5    1  0.2295636E-004  0.9118800E+02  0.7818608E-02  0.1130116E+00
         25   -1    0    0    0    0  0.00000000000E+00  0.00000000000E+00  0.99999998245E-14  0.12500000000E+03  0.12500000000E+03 0.  0.
        -13    1    3    3    0    0  0.28445103854E+02  0.44167516976E+02  0.45622109007E+01  0.52732517685E+02  0.10566000000E+00 0. -1.
         23    2    1    0    0    0  0.19696288175E+01  0.20320183098E+02 -0.20322345105E+02  0.96193976509E+02  0.91779595375E+02 0.  0.
         13    1    3    3    0    0 -0.26475475037E+02 -0.23847333878E+02 -0.24884556005E+02  0.43461458824E+02  0.10566000000E+00 0.  1.
         22    1    1    0    0    0 -0.19696288175E+01 -0.20320183098E+02  0.20322345105E+02  0.28806023491E+02  0.00000000000E+00 0. -1.
</event>
<event>
 5    1  0.2295636E-004  0.9118800E+02  0.7818608E-02  0.1130116E+00
         25   -1    0    0    0    0  0.00000000000E+00  0.00000000000E+00  0.99999998245E-14  0.12500000000E+03  0.12500000000E+03 0.  0.
        -13    1    3    3    0    0  0.16587092884E+02 -0.31669155028E+02 -0.84677262155E+01  0.36739360118E+02  0.10566000000E+00 0. -1.
         23    2    1    0    0    0  0.29770449757E+02  0.18638401443E+00  0.25988285286E+02  0.85481581638E+02  0.75798386589E+02 0.  0.
         13    1    3    3    0    0  0.13183356873E+02  0.31855539043E+02  0.34456011501E+02  0.48742221521E+02  0.10566000000E+00 0.  1.
         22    1    1    0    0    0 -0.29770449757E+02 -0.18638401443E+00 -0.25988285286E+02  0.39518418362E+02  0.00000000000E+00 0.  1.
</event>
<event>
 5    1  0.2295636E-004  0.9118800E+02  0.7818608E-02  0.1130116E+00
         25   -1    0    0    0    0  0.00000000000E+00  0.00000000000E+00  0.99999998245E-14  0.12500000000E+03  0.12500000000E+03 0.  0.
        -13    1    3    3    0    0  0.24109177439E+02  0.74260040216E+01  0.29607868282E+02  0.38897750587E+02  0.10566000000E+00 0.  1.
         23    2    1    0    0    0 -0.14881231542E+02 -0.23705034425E+02 -0.18612903042E+00  0.97010459930E+02  0.92884955631E+02 0.  0.
         13    1    3    3    0    0 -0.38990408982E+02 -0.31131038447E+02 -0.29793997312E+02  0.58112709343E+02  0.10566000000E+00 0. -1.
         22    1    1    0    0    0  0.14881231542E+02  0.23705034425E+02  0.18612903042E+00  0.27989540070E+02  0.00000000000E+00 0. -1.
</event>
<event>
 5    1  0.2295636E-004  0.9118800E+02  0.7818608E-02  0.1130116E+00
         25   -1    0    0    0    0  0.00000000000E+00  0.00000000000E+00  0.99999998245E-14  0.12500000000E+03  0.12500000000E+03 0.  0.
        -13    1    3    3    0    0 -0.43567245351E+02 -0.12649663165E+00 -0.36529411916E+02  0.56855342474E+02  0.10566000000E+00 0.  1.
         23    2    1    0    0    0 -0.22883810025E+02 -0.16373502064E+02 -0.78114859787E+01  0.95797608929E+02  0.91238162148E+02 0.  0.
         13    1    3    3    0    0  0.20683435327E+02 -0.16247005432E+02  0.28717925937E+02  0.38942266454E+02  0.10566000000E+00 0. -1.
         22    1    1    0    0    0  0.22883810025E+02  0.16373502064E+02  0.78114859787E+01  0.29202391071E+02  0.00000000000E+00 0. -1.
</event>
<event>
 5    1  0.2295636E-004  0.9118800E+02  0.7818608E-02  0.1130116E+00
         25   -1    0    0    0    0  0.00000000000E+00  0.00000000000E+00  0.99999998245E-14  0.12500000000E+03  0.12500000000E+03 0.  0.
        -13    1    3    3    0    0 -0.20898674437E+02 -0.39459507108E+01  0.28695554777E+02  0.35717938745E+02  0.10566000000E+00 0. -1.
         23    2    1    0    0    0  0.29579232683E+02 -0.11148188857E+02  0.18669249394E+01  0.93334584644E+02  0.87798896126E+02 0.  0.
         13    1    3    3    0    0  0.50477907121E+02 -0.72022381465E+01 -0.26828629837E+02  0.57616645899E+02  0.10566000000E+00 0.  1.
         22    1    1    0    0    0 -0.29579232683E+02  0.11148188857E+02 -0.18669249394E+01  0.31665415356E+02  0.00000000000E+00 0.  1.
</event>
<event>
 5    1  0.2295636E-004  0.9118800E+02  0.7818608E-02  0.1130116E+00
         25   -1    0    0    0    0  0.00000000000E+00  0.00000000000E+00  0.99999998245E-14  0.12500000000E+03  0.12500000000E+03 0.  0.
        -13    1    3    3    0    0  0.40058460836E+01  0.57499330511E+02 -0.18140169360E+02  0.60425960651E+02  0.10566000000E+00 0. -1.
         23    2    1    0    0    0  0.10894555570E+02  0.27992029025E+02 -0.16643323401E+01  0.94916532246E+02  0.90022958524E+02 0.  0.
         13    1    3    3    0    0  0.68887094867E+01 -0.29507301487E+02  0.16475837020E+02  0.34490571595E+02  0.10566000000E+00 0.  1.
         22    1    1    0    0    0 -0.10894555570E+02 -0.27992029025E+02  0.16643323401E+01  0.30083467754E+02  0.00000000000E+00 0. -1.
</event>
<event>
 5    1  0.2295636E-004  0.9118800E+02  0.7818608E-02  0.1130116E+00
         25   -1    0    0    0    0  0.00000000000E+00  0.00000000000E+00  0.99999998245E-14  0.12500000000E+03  0.12500000000E+03 0.  0.
        -13    1    3    3    0    0 -0.18536689144E+02  0.51371594960E+02 -0.18221316664E+02  0.57573233001E+02  0.10566000000E+00 0. -1.
         23    2    1    0    0    0  0.85254672150E+01  0.27595483046E+02 -0.74546554942E+01  0.95171051572E+02  0.90375676446E+02 0.  0.
         13    1    3    3    0    0  0.27062156358E+02 -0.23776111914E+02  0.10766661170E+02  0.37597818571E+02  0.10566000000E+00 0.  1.
         22    1    1    0    0    0 -0.85254672150E+01 -0.27595483046E+02  0.74546554942E+01  0.29828948428E+02  0.00000000000E+00 0. -1.
</event>
<event>
 5    1  0.2295636E-004  0.9118800E+02  0.7818608E-02  0.1130116E+00
         25   -1    0    0    0    0  0.00000000000E+00  0.00000000000E+00  0.99999998245E-14  0.12500000000E+03  0.12500000000E+03 0.  0.
        -13    1    3    3    0    0 -0.31072079290E+02  0.27272100963E+02  0.51009205572E+01  0.41656597999E+02  0.10566000000E+00 0.  1.
         23    2    1    0    0    0  0.21081471926E+02  0.11397152556E+02  0.14518365042E+02  0.96980248602E+02  0.92844289810E+02 0.  0.
         13    1    3    3    0    0  0.52153551216E+02 -0.15874948406E+02  0.94174444843E+01  0.55323650602E+02  0.10566000000E+00 0. -1.
         22    1    1    0    0    0 -0.21081471926E+02 -0.11397152556E+02 -0.14518365042E+02  0.28019751398E+02  0.00000000000E+00 0. -1.
</event>
<event>
 5    1  0.2295636E-004  0.9118800E+02  0.7818608E-02  0.1130116E+00
         25   -1    0    0    0    0  0.00000000000E+00  0.00000000000E+00  0.99999998245E-14  0.12500000000E+03  0.12500000000E+03 0.  0.
        -13    1    3    3    0    0 -0.35932646752E+02 -0.20808742383E+02 -0.43041041734E+02  0.59805529006E+02  0.10566000000E+00 0. -1.
         23    2    1    0    0    0 -0.14961229348E+02 -0.20905920237E+02 -0.13704342975E+02  0.95867459758E+02  0.91333810495E+02 0.  0.
         13    1    3    3    0    0  0.20971417403E+02 -0.97177853736E-01  0.29336698759E+02  0.36061930752E+02  0.10566000000E+00 0.  1.
         22    1    1    0    0    0  0.14961229348E+02  0.20905920237E+02  0.13704342975E+02  0.29132540242E+02  0.00000000000E+00 0. -1.
</event>
<event>
 5    1  0.2295636E-004  0.9118800E+02  0.7818608E-02  0.1130116E+00
         25   -1    0    0    0    0  0.00000000000E+00  0.00000000000E+00  0.99999998245E-14  0.12500000000E+03  0.12500000000E+03 0.  0.
        -13    1    3    3    0    0 -0.35887477242E+02 -0.61898118054E+01  0.77623541185E+01  0.37235602567E+02  0.10566000000E+00 0.  1.
         23    2    1    0    0    0  0.20919821367E+02  0.10378458104E+02  0.15584534303E+02  0.96924583207E+02  0.92769314980E+02 0.  0.
         13    1    3    3    0    0  0.56807298609E+02  0.16568269909E+02  0.78221801849E+01  0.59688980641E+02  0.10566000000E+00 0. -1.
         22    1    1    0    0    0 -0.20919821367E+02 -0.10378458104E+02 -0.15584534303E+02  0.28075416793E+02  0.00000000000E+00 0. -1.
</event>
<event>
 5    1  0.2295636E-004  0.9118800E+02  0.7818608E-02  0.1130116E+00
         25   -1    0    0    0    0  0.00000000000E+00  0.00000000000E+00  0.99999998245E-14  0.12500000000E+03  0.12500000000E+03 0.  0.
        -13    1    3    3    0    0  0.14610878297E+02  0.39805733638E+02 -0.97379346706E+00  0.42413837752E+02  0.10566000000E+00 0.  1.
         23    2    1    0    0    0 -0.37219545616E+01 -0.16066310586E+01 -0.29029572535E+02  0.95688734407E+02  0.91088877486E+02 0.  0.
         13    1    3    3    0    0 -0.18332832859E+02 -0.41412364697E+02 -0.28055779068E+02  0.53274896655E+02  0.10566000000E+00 0. -1.
         22    1    1    0    0    0  0.37219545616E+01  0.16066310586E+01  0.29029572535E+02  0.29311265593E+02  0.00000000000E+00 0. -1.
</event>
<event>
 5    1  0.2295636E-004  0.9118800E+02  0.7818608E-02  0.1130116E+00
         25   -1    0    0    0    0  0.00000000000E+00  0.00000000000E+00  0.99999998245E-14  0.12500000000E+03  0.12500000000E+03 0.  0.
        -13    1    3    3    0    0 -0.44913808830E+02 -0.33550940007E+02  0.26435320278E+02  0.61981877361E+02  0.10566000000E+00 0. -1.
         23    2    1    0    0    0 -0.18564004019E+02 -0.20691807703E+02  0.14596026986E+02  0.93602274685E+02  0.88179185022E+02 0.  0.
         13    1    3    3    0    0  0.26349804811E+02  0.12859132304E+02 -0.11839293292E+02  0.31620397324E+02  0.10566000000E+00 0.  1.
         22    1    1    0    0    0  0.18564004019E+02  0.20691807703E+02 -0.14596026986E+02  0.31397725315E+02  0.00000000000E+00 0. -1.
</event>
<event>
 5    1  0.2295636E-004  0.9118800E+02  0.7818608E-02  0.1130116E+00
         25   -1    0    0    0    0  0.00000000000E+00  0.00000000000E+00  0.99999998245E-14  0.12500000000E+03  0.12500000000E+03 0.  0.
        -13    1    3    3    0    0  0.34469643694E+02 -0.24888253316E+02  0.44638972890E+02  0.61646010043E+02  0.10566000000E+00 0.  1.
         23    2    1    0    0    0  0.21353609342E+02 -0.68202580466E+01  0.19282216948E+02  0.95431495774E+02  0.90735185807E+02 0.  0.
         13    1    3    3    0    0 -0.13116034352E+02  0.18067995269E+02 -0.25356755942E+02  0.33785485731E+02  0.10566000000E+00 0. -1.
         22    1    1    0    0    0 -0.21353609342E+02  0.68202580466E+01 -0.19282216948E+02  0.29568504226E+02  0.00000000000E+00 0.  1.
</event>
<event>
 5    1  0.2295636E-004  0.9118800E+02  0.7818608E-02  0.1130116E+00
         25   -1    0    0    0    0  0.00000000000E+00  0.00000000000E+00  0.99999998245E-14  0.12500000000E+03  0.12500000000E+03 0.  0.
        -13    1    3    3    0    0  0.41129090262E+02  0.41881470716E+01  0.23206595641E+02  0.47409913383E+02  0.10566000000E+00 0.  1.
         23    2    1    0    0    0  0.20582680965E+02  0.11348821908E+02 -0.18922019689E+02  0.94825750324E+02  0.89896816300E+02 0.  0.
         13    1    3    3    0    0 -0.20546409297E+02  0.71606748368E+01 -0.42128615331E+02  0.47415836941E+02  0.10566000000E+00 0. -1.
         22    1    1    0    0    0 -0.20582680965E+02 -0.11348821908E+02  0.18922019689E+02  0.30174249676E+02  0.00000000000E+00 0.  1.
</event>
<event>
 5    1  0.2295636E-004  0.9118800E+02  0.7818608E-02  0.1130116E+00
         25   -1    0    0    0    0  0.00000000000E+00  0.00000000000E+00  0.99999998245E-14  0.12500000000E+03  0.12500000000E+03 0.  0.
        -13    1    3    3    0    0 -0.24339143635E+02 -0.17437645296E+02 -0.36217257381E+02  0.46991129829E+02  0.10566000000E+00 0. -1.
         23    2    1    0    0    0  0.14655706334E+02  0.67951175944E+01 -0.26569363633E+02  0.93905073804E+02  0.88607383727E+02 0.  0.
         13    1    3    3    0    0  0.38994849969E+02  0.24232762891E+02  0.96478937481E+01  0.46913943974E+02  0.10566000000E+00 0.  1.
         22    1    1    0    0    0 -0.14655706334E+02 -0.67951175944E+01  0.26569363633E+02  0.31094926196E+02  0.00000000000E+00 0.  1.
</event>
<event>
 5    1  0.2295636E-004  0.9118800E+02  0.7818608E-02  0.1130116E+00
         25   -1    0    0    0    0  0.00000000000E+00  0.00000000000E+00  0.99999998245E-14  0.12500000000E+03  0.12500000000E+03 0.  0.
        -13    1    3    3    0    0 -0.51598376679E+02  0.14581206287E+02 -0.23288549146E+02  0.58458290585E+02  0.10566000000E+00 0.  1.
         23    2    1    0    0    0 -0.14769834539E+02  0.95685822647E+00 -0.22906118343E+02  0.97728149173E+02  0.93845816600E+02 0.  0.
         13    1    3    3    0    0  0.36828542140E+02 -0.13624348060E+02  0.38243080350E+00  0.39269858588E+02  0.10566000000E+00 0. -1.
         22    1    1    0    0    0  0.14769834539E+02 -0.95685822647E+00  0.22906118343E+02  0.27271850827E+02  0.00000000000E+00 0.  1.
</event>
<event>
 5    1  0.2295636E-004  0.9118800E+02  0.7818608E-02  0.1130116E+00
         25   -1    0    0    0    0  0.00000000000E+00  0.00000000000E+00  0.99999998245E-14  0.12500000000E+03  0.12500000000E+03 0.  0.
        -13    1    3    3    0    0 -0.28015649290E+02  0.31303105991E+02  0.29522431413E+02  0.51345361722E+02  0.10566000000E+00 0.  1.
         23    2    1    0    0    0 -0.26181180749E+02 -0.76900264982E+01  0.55525703311E+01  0.97153604000E+02  0.93077392528E+02 0.  0.
         13    1    3    3    0    0  0.18344685410E+01 -0.38993132489E+02 -0.23969861082E+02  0.45808242277E+02  0.10566000000E+00 0. -1.
         22    1    1    0    0    0  0.26181180749E+02  0.76900264982E+01 -0.55525703311E+01  0.27846396000E+02  0.00000000000E+00 0.  1.
</event>
<event>
 5    1  0.2295636E-004  0.9118800E+02  0.7818608E-02  0.1130116E+00
         25   -1    0    0    0    0  0.00000000000E+00  0.00000000000E+00  0.99999998245E-14  0.12500000000E+03  0.12500000000E+03 0.  0.
        -13    1    3    3    0    0 -0.14210861444E+01 -0.29491492738E+02  0.46438768057E+02  0.55030336837E+02  0.10566000000E+00 0.  1.
         23    2    1    0    0    0  0.20234799504E+02 -0.18245740164E+02  0.18814201200E+02  0.91889151145E+02  0.85716321587E+02 0.  0.
         13    1    3    3    0    0  0.21655885648E+02  0.11245752574E+02 -0.27624566857E+02  0.36858814308E+02  0.10566000000E+00 0. -1.
         22    1    1    0    0    0 -0.20234799504E+02  0.18245740164E+02 -0.18814201200E+02  0.33110848855E+02  0.00000000000E+00 0.  1.
</event>
<event>
 5    1  0.2295636E-004  0.9118800E+02  0.7818608E-02  0.1130116E+00
         25   -1    0    0    0    0  0.00000000000E+00  0.00000000000E+00  0.99999998245E-14  0.12500000000E+03  0.12500000000E+03 0.  0.
        -13    1    3    3    0    0  0.23733962809E+02  0.22215604128E+02  0.15739649569E+02  0.36118994864E+02  0.10566000000E+00 0.  1.
         23    2    1    0    0    0 -0.18774598666E+02 -0.19790480054E+02  0.90726417447E+01  0.96251756852E+02  0.91858256097E+02 0.  0.
         13    1    3    3    0    0 -0.42508561475E+02 -0.42006084182E+02 -0.66670078241E+01  0.60132761988E+02  0.10566000000E+00 0. -1.
         22    1    1    0    0    0  0.18774598666E+02  0.19790480054E+02 -0.90726417447E+01  0.28748243148E+02  0.00000000000E+00 0. -1.
</event>
<event>
 5    1  0.2295636E-004  0.9118800E+02  0.7818608E-02  0.1130116E+00
         25   -1    0    0    0    0  0.00000000000E+00  0.00000000000E+00  0.99999998245E-14  0.12500000000E+03  0.12500000000E+03 0.  0.
        -13    1    3    3    0    0 -0.59374622738E+01 -0.49912283940E+02 -0.23125723465E+02  0.55329014054E+02  0.10566000000E+00 0.  1.
         23    2    1    0    0    0 -0.15748935548E+02 -0.23990702088E+02  0.61570632756E+01  0.95648812874E+02  0.91034077237E+02 0.  0.
         13    1    3    3    0    0 -0.98114732742E+01  0.25921581852E+02  0.29282786741E+02  0.40319798820E+02  0.10566000000E+00 0. -1.
         22    1    1    0    0    0  0.15748935548E+02  0.23990702088E+02 -0.61570632756E+01  0.29351187126E+02  0.00000000000E+00 0.  1.
</event>
<event>
 5    1  0.2295636E-004  0.9118800E+02  0.7818608E-02  0.1130116E+00
         25   -1    0    0    0    0  0.00000000000E+00  0.00000000000E+00  0.99999998245E-14  0.12500000000E+03  0.12500000000E+03 0.  0.
        -13    1    3    3    0    0 -0.29470057834E+02  0.12434192466E+02 -0.35693274339E+02  0.47928221833E+02  0.10566000000E+00 0.  1.
         23    2    1    0    0    0  0.82695974971E+01 -0.13007324064E+02 -0.26472340892E+02  0.94367312322E+02  0.89257089806E+02 0.  0.
         13    1    3    3    0    0  0.37739655331E+02 -0.25441516529E+02  0.92209334468E+01  0.46439090489E+02  0.10566000000E+00 0. -1.
         22    1    1    0    0    0 -0.82695974971E+01  0.13007324064E+02  0.26472340892E+02  0.30632687678E+02  0.00000000000E+00 0. -1.
</event>
<event>
 5    1  0.2295636E-004  0.9118800E+02  0.7818608E-02  0.1130116E+00
         25   -1    0    0    0    0  0.00000000000E+00  0.00000000000E+00  0.99999998245E-14  0.12500000000E+03  0.12500000000E+03 0.  0.
        -13    1    3    3    0    0 -0.28651372674E+02 -0.15736124514E+02 -0.36239215070E+02  0.48803879393E+02  0.10566000000E+00 0.  1.
         23    2    1    0    0    0 -0.10022914710E+02 -0.27284084291E+02  0.50005543252E+01  0.95506176606E+02  0.90838010499E+02 0.  0.
         13    1    3    3    0    0  0.18628457965E+02 -0.11547959777E+02  0.41239769395E+02  0.46702297213E+02  0.10566000000E+00 0. -1.
         22    1    1    0    0    0  0.10022914710E+02  0.27284084291E+02 -0.50005543252E+01  0.29493823394E+02  0.00000000000E+00 0. -1.
</event>
<event>
 5    1  0.2295636E-004  0.9118800E+02  0.7818608E-02  0.1130116E+00
         25   -1    0    0    0    0  0.00000000000E+00  0.00000000000E+00  0.99999998245E-14  0.12500000000E+03  0.12500000000E+03 0.  0.
        -13    1    3    3    0    0 -0.15141120225E+02 -0.48212620750E+01 -0.37103661898E+02  0.40363237977E+02  0.10566000000E+00 0.  1.
         23    2    1    0    0    0  0.18282910805E+02  0.22467053061E+02 -0.20407545357E+01  0.95962128524E+02  0.91463282967E+02 0.  0.
         13    1    3    3    0    0  0.33424031031E+02  0.27288315136E+02  0.35062907363E+02  0.55598890547E+02  0.10566000000E+00 0. -1.
         22    1    1    0    0    0 -0.18282910805E+02 -0.22467053061E+02  0.20407545357E+01  0.29037871476E+02  0.00000000000E+00 0. -1.
</event>
<event>
 5    1  0.2295636E-004  0.9118800E+02  0.7818608E-02  0.1130116E+00
         25   -1    0    0    0    0  0.00000000000E+00  0.00000000000E+00  0.99999998245E-14  0.12500000000E+03  0.12500000000E+03 0.  0.
        -13    1    3    3    0    0  0.53245442958E+01  0.71418294769E+01 -0.58591765138E+02  0.59265188823E+02  0.10566000000E+00 0. -1.
         23    2    1    0    0    0  0.24951783750E+01  0.16914150426E+02 -0.22635984990E+02  0.96632726317E+02  0.92375221673E+02 0.  0.
         13    1    3    3    0    0 -0.28293659209E+01  0.97723209492E+01  0.35955780148E+02  0.37367537494E+02  0.10566000000E+00 0.  1.
         22    1    1    0    0    0 -0.24951783750E+01 -0.16914150426E+02  0.22635984990E+02  0.28367273683E+02  0.00000000000E+00 0. -1.
</event>
<event>
 5    1  0.2295636E-004  0.9118800E+02  0.7818608E-02  0.1130116E+00
         25   -1    0    0    0    0  0.00000000000E+00  0.00000000000E+00  0.99999998245E-14  0.12500000000E+03  0.12500000000E+03 0.  0.
        -13    1    3    3    0    0  0.11823318827E+02 -0.15123659758E+02 -0.49499914189E+02  0.53092076823E+02  0.10566000000E+00 0.  1.
         23    2    1    0    0    0  0.19124434203E+02 -0.20628327101E+02 -0.77631081877E+01  0.95818880911E+02  0.91267300977E+02 0.  0.
         13    1    3    3    0    0  0.73011153764E+01 -0.55046673430E+01  0.41736806002E+02  0.42726804088E+02  0.10566000000E+00 0. -1.
         22    1    1    0    0    0 -0.19124434203E+02  0.20628327101E+02  0.77631081877E+01  0.29181119089E+02  0.00000000000E+00 0.  1.
</event>
<event>
 5    1  0.2295636E-004  0.9118800E+02  0.7818608E-02  0.1130116E+00
         25   -1    0    0    0    0  0.00000000000E+00  0.00000000000E+00  0.99999998245E-14  0.12500000000E+03  0.12500000000E+03 0.  0.
        -13    1    3    3    0    0 -0.86877803705E+01 -0.32447129040E+02 -0.29241867631E+02  0.44535285979E+02  0.10566000000E+00 0.  1.
         23    2    1    0    0    0  0.17953620451E+02 -0.93596923309E+01  0.14042902132E+02  0.10035980057E+03  0.97287975320E+02 0.  0.
         13    1    3    3    0    0  0.26641400821E+02  0.23087436709E+02  0.43284769763E+02  0.55824514588E+02  0.10566000000E+00 0. -1.
         22    1    1    0    0    0 -0.17953620451E+02  0.93596923309E+01 -0.14042902132E+02  0.24640199433E+02  0.00000000000E+00 0. -1.
</event>
<event>
 5    1  0.2295636E-004  0.9118800E+02  0.7818608E-02  0.1130116E+00
         25   -1    0    0    0    0  0.00000000000E+00  0.00000000000E+00  0.99999998245E-14  0.12500000000E+03  0.12500000000E+03 0.  0.
        -13    1    3    3    0    0 -0.30920626175E+02 -0.16050530296E+02 -0.17894699529E+02  0.39165496053E+02  0.10566000000E+00 0. -1.
         23    2    1    0    0    0  0.18283593347E+02 -0.13221873130E+02  0.14532079835E+02  0.98161798513E+02  0.94421658682E+02 0.  0.
         13    1    3    3    0    0  0.49204219521E+02  0.28286571663E+01  0.32426779363E+02  0.58996302460E+02  0.10566000000E+00 0.  1.
         22    1    1    0    0    0 -0.18283593347E+02  0.13221873130E+02 -0.14532079835E+02  0.26838201487E+02  0.00000000000E+00 0.  1.
</event>
<event>
 5    1  0.2295636E-004  0.9118800E+02  0.7818608E-02  0.1130116E+00
         25   -1    0    0    0    0  0.00000000000E+00  0.00000000000E+00  0.99999998245E-14  0.12500000000E+03  0.12500000000E+03 0.  0.
        -13    1    3    3    0    0  0.45944933360E+02 -0.86570643999E+00  0.28112481711E+02  0.53870299248E+02  0.10566000000E+00 0.  1.
         23    2    1    0    0    0  0.13608904636E+02 -0.22487050424E+02  0.89438484335E+01  0.97235595685E+02  0.93187439718E+02 0.  0.
         13    1    3    3    0    0 -0.32336028724E+02 -0.21621343984E+02 -0.19168633278E+02  0.43365296437E+02  0.10566000000E+00 0. -1.
         22    1    1    0    0    0 -0.13608904636E+02  0.22487050424E+02 -0.89438484335E+01  0.27764404315E+02  0.00000000000E+00 0.  1.
</event>
<event>
 5    1  0.2295636E-004  0.9118800E+02  0.7818608E-02  0.1130116E+00
         25   -1    0    0    0    0  0.00000000000E+00  0.00000000000E+00  0.99999998245E-14  0.12500000000E+03  0.12500000000E+03 0.  0.
        -13    1    3    3    0    0 -0.14932356661E+02  0.48794056473E+02  0.35155822919E+02  0.61965944451E+02  0.10566000000E+00 0.  1.
         23    2    1    0    0    0 -0.31909108853E+01  0.28710290448E+02  0.16949141319E+02  0.91507671307E+02  0.85158192951E+02 0.  0.
         13    1    3    3    0    0  0.11741445776E+02 -0.20083766026E+02 -0.18206681600E+02  0.29541726856E+02  0.10566000000E+00 0. -1.
         22    1    1    0    0    0  0.31909108853E+01 -0.28710290448E+02 -0.16949141319E+02  0.33492328693E+02  0.00000000000E+00 0.  1.
</event>
<event>
 5    1  0.2295636E-004  0.9118800E+02  0.7818608E-02  0.1130116E+00
         25   -1    0    0    0    0  0.00000000000E+00  0.00000000000E+00  0.99999998245E-14  0.12500000000E+03  0.12500000000E+03 0.  0.
        -13    1    3    3    0    0 -0.92927706662E+01 -0.52419578719E+02 -0.27515159462E+02  0.59927147304E+02  0.10566000000E+00 0.  1.
         23    2    1    0    0    0 -0.14390091482E+02 -0.19633587101E+02 -0.18828881605E+02  0.94225347154E+02  0.89058052912E+02 0.  0.
         13    1    3    3    0    0 -0.50973208159E+01  0.32785991618E+02  0.86862778568E+01  0.34298199850E+02  0.10566000000E+00 0. -1.
         22    1    1    0    0    0  0.14390091482E+02  0.19633587101E+02  0.18828881605E+02  0.30774652846E+02  0.00000000000E+00 0.  1.
</event>
<event>
 5    1  0.2295636E-004  0.9118800E+02  0.7818608E-02  0.1130116E+00
         25   -1    0    0    0    0  0.00000000000E+00  0.00000000000E+00  0.99999998245E-14  0.12500000000E+03  0.12500000000E+03 0.  0.
        -13    1    3    3    0    0  0.38672251034E+02 -0.13044666932E+02 -0.43444094153E+02  0.59607942560E+02  0.10566000000E+00 0.  1.
         23    2    1    0    0    0  0.12319968623E+02  0.38003668458E+01 -0.27308052528E+02  0.94801421425E+02  0.89862981012E+02 0.  0.
         13    1    3    3    0    0 -0.26352282411E+02  0.16845033778E+02  0.16136041625E+02  0.35193478865E+02  0.10566000000E+00 0. -1.
         22    1    1    0    0    0 -0.12319968623E+02 -0.38003668458E+01  0.27308052528E+02  0.30198578575E+02  0.00000000000E+00 0.  1.
</event>
<event>
 5    1  0.2295636E-004  0.9118800E+02  0.7818608E-02  0.1130116E+00
         25   -1    0    0    0    0  0.00000000000E+00  0.00000000000E+00  0.99999998245E-14  0.12500000000E+03  0.12500000000E+03 0.  0.
        -13    1    3    3    0    0 -0.41138957335E+02 -0.25938752345E+02  0.26967024264E+02  0.55609929379E+02  0.10566000000E+00 0.  1.
         23    2    1    0    0    0 -0.28462992502E+02 -0.18866525344E+01 -0.32873583782E+01  0.96285750487E+02  0.91904502729E+02 0.  0.
         13    1    3    3    0    0  0.12675964833E+02  0.24052099811E+02 -0.30254382642E+02  0.40675821108E+02  0.10566000000E+00 0. -1.
         22    1    1    0    0    0  0.28462992502E+02  0.18866525344E+01  0.32873583782E+01  0.28714249513E+02  0.00000000000E+00 0.  1.
</event>
<event>
 5    1  0.2295636E-004  0.9118800E+02  0.7818608E-02  0.1130116E+00
         25   -1    0    0    0    0  0.00000000000E+00  0.00000000000E+00  0.99999998245E-14  0.12500000000E+03  0.12500000000E+03 0.  0.
        -13    1    3    3    0    0 -0.30197714717E+02 -0.47489217772E+02 -0.19236107672E+02  0.59474084954E+02  0.10566000000E+00 0.  1.
         23    2    1    0    0    0 -0.24891088625E+02 -0.13660044823E+02 -0.84138330097E+01  0.95386562114E+02  0.90673262478E+02 0.  0.
         13    1    3    3    0    0  0.53066260914E+01  0.33829172949E+02  0.10822274662E+02  0.35912477160E+02  0.10566000000E+00 0. -1.
         22    1    1    0    0    0  0.24891088625E+02  0.13660044823E+02  0.84138330097E+01  0.29613437886E+02  0.00000000000E+00 0.  1.
</event>
<event>
 5    1  0.2295636E-004  0.9118800E+02  0.7818608E-02  0.1130116E+00
         25   -1    0    0    0    0  0.00000000000E+00  0.00000000000E+00  0.99999998245E-14  0.12500000000E+03  0.12500000000E+03 0.  0.
        -13    1    3    3    0    0  0.42941002835E+02  0.26807526815E+02 -0.23408873139E+02  0.55772392131E+02  0.10566000000E+00 0. -1.
         23    2    1    0    0    0  0.25430526905E+02  0.12558623260E+02  0.89774245331E+01  0.95250632476E+02  0.90485679083E+02 0.  0.
         13    1    3    3    0    0 -0.17510475930E+02 -0.14248903555E+02  0.32386297672E+02  0.39478240345E+02  0.10566000000E+00 0.  1.
         22    1    1    0    0    0 -0.25430526905E+02 -0.12558623260E+02 -0.89774245331E+01  0.29749367524E+02  0.00000000000E+00 0. -1.
</event>
<event>
 5    1  0.2295636E-004  0.9118800E+02  0.7818608E-02  0.1130116E+00
         25   -1    0    0    0    0  0.00000000000E+00  0.00000000000E+00  0.99999998245E-14  0.12500000000E+03  0.12500000000E+03 0.  0.
        -13    1    3    3    0    0 -0.26904110140E+02  0.46736123719E+02  0.31140682156E+02  0.62272382738E+02  0.10566000000E+00 0. -1.
         23    2    1    0    0    0 -0.15111431661E+02  0.18924757406E+02  0.12901011144E+02  0.97560286112E+02  0.93621960714E+02 0.  0.
         13    1    3    3    0    0  0.11792678480E+02 -0.27811366312E+02 -0.18239671012E+02  0.35287903374E+02  0.10566000000E+00 0.  1.
         22    1    1    0    0    0  0.15111431661E+02 -0.18924757406E+02 -0.12901011144E+02  0.27439713888E+02  0.00000000000E+00 0. -1.
</event>
<event>
 5    1  0.2295636E-004  0.9118800E+02  0.7818608E-02  0.1130116E+00
         25   -1    0    0    0    0  0.00000000000E+00  0.00000000000E+00  0.99999998245E-14  0.12500000000E+03  0.12500000000E+03 0.  0.
        -13    1    3    3    0    0 -0.51008133376E+02  0.24428881259E+02  0.43226681307E+01  0.56721217670E+02  0.10566000000E+00 0.  1.
         23    2    1    0    0    0 -0.27049202701E+02 -0.26267164170E+01 -0.10612412820E+02  0.95824971092E+02  0.91275641729E+02 0.  0.
         13    1    3    3    0    0  0.23958930675E+02 -0.27055597676E+02 -0.14935080950E+02  0.39103753423E+02  0.10566000000E+00 0. -1.
         22    1    1    0    0    0  0.27049202701E+02  0.26267164170E+01  0.10612412820E+02  0.29175028908E+02  0.00000000000E+00 0.  1.
</event>
<event>
 5    1  0.2295636E-004  0.9118800E+02  0.7818608E-02  0.1130116E+00
         25   -1    0    0    0    0  0.00000000000E+00  0.00000000000E+00  0.99999998245E-14  0.12500000000E+03  0.12500000000E+03 0.  0.
        -13    1    3    3    0    0 -0.21058495674E+02  0.41604641312E+02  0.16055953837E+02  0.49317453669E+02  0.10566000000E+00 0. -1.
         23    2    1    0    0    0 -0.16328452096E+02  0.11872100714E+02 -0.20198165754E+02  0.96442496205E+02  0.92117447051E+02 0.  0.
         13    1    3    3    0    0  0.47300435785E+01 -0.29732540597E+02 -0.36254119591E+02  0.47125042536E+02  0.10566000000E+00 0.  1.
         22    1    1    0    0    0  0.16328452096E+02 -0.11872100714E+02  0.20198165754E+02  0.28557503795E+02  0.00000000000E+00 0. -1.
</event>
<event>
 5    1  0.2295636E-004  0.9118800E+02  0.7818608E-02  0.1130116E+00
         25   -1    0    0    0    0  0.00000000000E+00  0.00000000000E+00  0.99999998245E-14  0.12500000000E+03  0.12500000000E+03 0.  0.
        -13    1    3    3    0    0  0.19825052492E+02  0.34835352512E+02 -0.14725683751E+02  0.42701187535E+02  0.10566000000E+00 0. -1.
         23    2    1    0    0    0 -0.25077499307E+02  0.50491771483E+01 -0.12238424819E+02  0.96642387205E+02  0.92388293638E+02 0.  0.
         13    1    3    3    0    0 -0.44902551799E+02 -0.29786175363E+02  0.24872589320E+01  0.53941199670E+02  0.10566000000E+00 0.  1.
         22    1    1    0    0    0  0.25077499307E+02 -0.50491771483E+01  0.12238424819E+02  0.28357612795E+02  0.00000000000E+00 0.  1.
</event>
<event>
 5    1  0.2295636E-004  0.9118800E+02  0.7818608E-02  0.1130116E+00
         25   -1    0    0    0    0  0.00000000000E+00  0.00000000000E+00  0.99999998245E-14  0.12500000000E+03  0.12500000000E+03 0.  0.
        -13    1    3    3    0    0 -0.10484536300E+02  0.29855656053E+01  0.34215976941E+02  0.35910769213E+02  0.10566000000E+00 0.  1.
         23    2    1    0    0    0  0.36050521591E+01  0.15335602554E+02 -0.23565313172E+02  0.96653905178E+02  0.92403875971E+02 0.  0.
         13    1    3    3    0    0  0.14089588460E+02  0.12350036949E+02 -0.57781290113E+02  0.60743135964E+02  0.10566000000E+00 0. -1.
         22    1    1    0    0    0 -0.36050521591E+01 -0.15335602554E+02  0.23565313172E+02  0.28346094822E+02  0.00000000000E+00 0. -1.
</event>
<event>
 5    1  0.2295636E-004  0.9118800E+02  0.7818608E-02  0.1130116E+00
         25   -1    0    0    0    0  0.00000000000E+00  0.00000000000E+00  0.99999998245E-14  0.12500000000E+03  0.12500000000E+03 0.  0.
        -13    1    3    3    0    0 -0.29733538632E+02  0.25753419648E+02 -0.34168969012E+02  0.52104237357E+02  0.10566000000E+00 0. -1.
         23    2    1    0    0    0 -0.27816936290E+02  0.88783200355E+01  0.55280831528E+01  0.95281887433E+02  0.90528845448E+02 0.  0.
         13    1    3    3    0    0  0.19166023418E+01 -0.16875099612E+02  0.39697052165E+02  0.43177650076E+02  0.10566000000E+00 0.  1.
         22    1    1    0    0    0  0.27816936290E+02 -0.88783200355E+01 -0.55280831528E+01  0.29718112567E+02  0.00000000000E+00 0. -1.
</event>
<event>
 5    1  0.2295636E-004  0.9118800E+02  0.7818608E-02  0.1130116E+00
         25   -1    0    0    0    0  0.00000000000E+00  0.00000000000E+00  0.99999998245E-14  0.12500000000E+03  0.12500000000E+03 0.  0.
        -13    1    3    3    0    0  0.33110934396E+02  0.32777407437E+02 -0.39800749892E+02  0.61276449562E+02  0.10566000000E+00 0.  1.
         23    2    1    0    0    0  0.14039921568E+02  0.21627282649E+02 -0.12650293187E+02  0.96279124837E+02  0.91895490691E+02 0.  0.
         13    1    3    3    0    0 -0.19071012828E+02 -0.11150124788E+02  0.27150456705E+02  0.35002675275E+02  0.10566000000E+00 0. -1.
         22    1    1    0    0    0 -0.14039921568E+02 -0.21627282649E+02  0.12650293187E+02  0.28720875163E+02  0.00000000000E+00 0.  1.
</event>
<event>
 5    1  0.2295636E-004  0.9118800E+02  0.7818608E-02  0.1130116E+00
         25   -1    0    0    0    0  0.00000000000E+00  0.00000000000E+00  0.99999998245E-14  0.12500000000E+03  0.12500000000E+03 0.  0.
        -13    1    3    3    0    0 -0.12535530555E+02  0.14090478639E+02 -0.17211898944E+02  0.25533149901E+02  0.10566000000E+00 0.  1.
         23    2    1    0    0    0  0.28062122053E+02 -0.27813319398E+02 -0.46274171012E+01  0.85219647826E+02  0.75365190615E+02 0.  0.
         13    1    3    3    0    0  0.40597652608E+02 -0.41903798037E+02  0.12584481843E+02  0.59686497925E+02  0.10566000000E+00 0. -1.
         22    1    1    0    0    0 -0.28062122053E+02  0.27813319398E+02  0.46274171012E+01  0.39780352174E+02  0.00000000000E+00 0. -1.
</event>
<event>
 5    1  0.2295636E-004  0.9118800E+02  0.7818608E-02  0.1130116E+00
         25   -1    0    0    0    0  0.00000000000E+00  0.00000000000E+00  0.99999998245E-14  0.12500000000E+03  0.12500000000E+03 0.  0.
        -13    1    3    3    0    0 -0.17064850915E+02  0.18304003015E+02  0.26458986195E+02  0.36418879411E+02  0.10566000000E+00 0.  1.
         23    2    1    0    0    0 -0.11299873241E+02 -0.11495165410E+02 -0.24465104190E+02  0.95702094168E+02  0.91107209057E+02 0.  0.
         13    1    3    3    0    0  0.57649776735E+01 -0.29799168425E+02 -0.50924090385E+02  0.59283214757E+02  0.10566000000E+00 0. -1.
         22    1    1    0    0    0  0.11299873241E+02  0.11495165410E+02  0.24465104190E+02  0.29297905832E+02  0.00000000000E+00 0. -1.
</event>
<event>
 5    1  0.2295636E-004  0.9118800E+02  0.7818608E-02  0.1130116E+00
         25   -1    0    0    0    0  0.00000000000E+00  0.00000000000E+00  0.99999998245E-14  0.12500000000E+03  0.12500000000E+03 0.  0.
        -13    1    3    3    0    0 -0.34716941732E+02 -0.28425518252E+02  0.28961489448E+02  0.53404636186E+02  0.10566000000E+00 0. -1.
         23    2    1    0    0    0 -0.25932113383E+02  0.38706507491E+01 -0.16048530944E+01  0.98731539916E+02  0.95172921459E+02 0.  0.
         13    1    3    3    0    0  0.87848283492E+01  0.32296169001E+02 -0.30566342542E+02  0.45326903730E+02  0.10566000000E+00 0.  1.
         22    1    1    0    0    0  0.25932113383E+02 -0.38706507491E+01  0.16048530944E+01  0.26268460084E+02  0.00000000000E+00 0. -1.
</event>
<event>
 5    1  0.2295636E-004  0.9118800E+02  0.7818608E-02  0.1130116E+00
         25   -1    0    0    0    0  0.00000000000E+00  0.00000000000E+00  0.99999998245E-14  0.12500000000E+03  0.12500000000E+03 0.  0.
        -13    1    3    3    0    0  0.31149871512E+02  0.20246714219E+02 -0.55776174668E+01  0.37568136932E+02  0.10566000000E+00 0. -1.
         23    2    1    0    0    0 -0.19882296481E+02  0.74579156631E+00 -0.22695134395E+02  0.94818365789E+02  0.89886547644E+02 0.  0.
         13    1    3    3    0    0 -0.51032167993E+02 -0.19500922653E+02 -0.17117516928E+02  0.57250228857E+02  0.10566000000E+00 0.  1.
         22    1    1    0    0    0  0.19882296481E+02 -0.74579156631E+00  0.22695134395E+02  0.30181634211E+02  0.00000000000E+00 0.  1.
</event>
<event>
 5    1  0.2295636E-004  0.9118800E+02  0.7818608E-02  0.1130116E+00
         25   -1    0    0    0    0  0.00000000000E+00  0.00000000000E+00  0.99999998245E-14  0.12500000000E+03  0.12500000000E+03 0.  0.
        -13    1    3    3    0    0  0.11805501706E+02 -0.13591820225E+02 -0.34869507534E+02  0.39242848613E+02  0.10566000000E+00 0. -1.
         23    2    1    0    0    0 -0.25293550581E+02  0.12172489684E+02  0.98633512160E+00  0.96912528361E+02  0.92753070517E+02 0.  0.
         13    1    3    3    0    0 -0.37099052287E+02  0.25764309909E+02  0.35855842656E+02  0.57669679748E+02  0.10566000000E+00 0.  1.
         22    1    1    0    0    0  0.25293550581E+02 -0.12172489684E+02 -0.98633512160E+00  0.28087471639E+02  0.00000000000E+00 0.  1.
</event>
<event>
 5    1  0.2295636E-004  0.9118800E+02  0.7818608E-02  0.1130116E+00
         25   -1    0    0    0    0  0.00000000000E+00  0.00000000000E+00  0.99999998245E-14  0.12500000000E+03  0.12500000000E+03 0.  0.
        -13    1    3    3    0    0 -0.48990267639E+01  0.24069361584E+02 -0.27025714683E+02  0.36520337464E+02  0.10566000000E+00 0.  1.
         23    2    1    0    0    0  0.59336151723E+01  0.80742107515E+01  0.28224014672E+02  0.95050113982E+02  0.90208250707E+02 0.  0.
         13    1    3    3    0    0  0.10832641936E+02 -0.15995150832E+02  0.55249729355E+02  0.58529776519E+02  0.10566000000E+00 0. -1.
         22    1    1    0    0    0 -0.59336151723E+01 -0.80742107515E+01 -0.28224014672E+02  0.29949886018E+02  0.00000000000E+00 0. -1.
</event>
<event>
 5    1  0.2295636E-004  0.9118800E+02  0.7818608E-02  0.1130116E+00
         25   -1    0    0    0    0  0.00000000000E+00  0.00000000000E+00  0.99999998245E-14  0.12500000000E+03  0.12500000000E+03 0.  0.
        -13    1    3    3    0    0 -0.40083447824E+02  0.38080265651E+02  0.25988386542E+02  0.61091708280E+02  0.10566000000E+00 0.  1.
         23    2    1    0    0    0 -0.22992332291E+02  0.14744833959E+02  0.40675045606E+01  0.97384749394E+02  0.93387297576E+02 0.  0.
         13    1    3    3    0    0  0.17091115533E+02 -0.23335431692E+02 -0.21920881981E+02  0.36293041114E+02  0.10566000000E+00 0. -1.
         22    1    1    0    0    0  0.22992332291E+02 -0.14744833959E+02 -0.40675045606E+01  0.27615250606E+02  0.00000000000E+00 0.  1.
</event>
<event>
 5    1  0.2295636E-004  0.9118800E+02  0.7818608E-02  0.1130116E+00
         25   -1    0    0    0    0  0.00000000000E+00  0.00000000000E+00  0.99999998245E-14  0.12500000000E+03  0.12500000000E+03 0.  0.
        -13    1    3    3    0    0  0.15548880425E+02  0.12002373039E+02  0.38335744463E+02  0.43075110083E+02  0.10566000000E+00 0. -1.
         23    2    1    0    0    0 -0.23635966663E+02 -0.97296553461E+01  0.23509532693E+02  0.90272154678E+02  0.83324898257E+02 0.  0.
         13    1    3    3    0    0 -0.39184847089E+02 -0.21732028385E+02 -0.14826211771E+02  0.47197044596E+02  0.10566000000E+00 0.  1.
         22    1    1    0    0    0  0.23635966663E+02  0.97296553461E+01 -0.23509532693E+02  0.34727845322E+02  0.00000000000E+00 0.  1.
</event>
<event>
 5    1  0.2295636E-004  0.9118800E+02  0.7818608E-02  0.1130116E+00
         25   -1    0    0    0    0  0.00000000000E+00  0.00000000000E+00  0.99999998245E-14  0.12500000000E+03  0.12500000000E+03 0.  0.
        -13    1    3    3    0    0  0.15733054344E+02 -0.46653835800E+02 -0.14292550092E+02  0.51267899762E+02  0.10566000000E+00 0.  1.
         23    2    1    0    0    0 -0.18260053425E+02 -0.23984121805E+02  0.85344473104E+00  0.94843806312E+02  0.89921919342E+02 0.  0.
         13    1    3    3    0    0 -0.33993107769E+02  0.22669713995E+02  0.15145994823E+02  0.43575906550E+02  0.10566000000E+00 0. -1.
         22    1    1    0    0    0  0.18260053425E+02  0.23984121805E+02 -0.85344473104E+00  0.30156193688E+02  0.00000000000E+00 0.  1.
</event>
<event>
 5    1  0.2295636E-004  0.9118800E+02  0.7818608E-02  0.1130116E+00
         25   -1    0    0    0    0  0.00000000000E+00  0.00000000000E+00  0.99999998245E-14  0.12500000000E+03  0.12500000000E+03 0.  0.
        -13    1    3    3    0    0 -0.30311388951E+02  0.25231011968E+02 -0.46524147247E+02  0.60990914948E+02  0.10566000000E+00 0.  1.
         23    2    1    0    0    0 -0.15151888958E+02  0.20795179500E+01 -0.23356017612E+02  0.97082125930E+02  0.92981350186E+02 0.  0.
         13    1    3    3    0    0  0.15159499994E+02 -0.23151494018E+02  0.23168129635E+02  0.36091210982E+02  0.10566000000E+00 0. -1.
         22    1    1    0    0    0  0.15151888958E+02 -0.20795179500E+01  0.23356017612E+02  0.27917874070E+02  0.00000000000E+00 0.  1.
</event>
<event>
 5    1  0.2295636E-004  0.9118800E+02  0.7818608E-02  0.1130116E+00
         25   -1    0    0    0    0  0.00000000000E+00  0.00000000000E+00  0.99999998245E-14  0.12500000000E+03  0.12500000000E+03 0.  0.
        -13    1    3    3    0    0  0.21349959756E+02  0.36651832734E+02  0.30812976517E+02  0.52427362228E+02  0.10566000000E+00 0. -1.
         23    2    1    0    0    0  0.14990428351E+02 -0.63892241336E+01  0.23280654946E+02  0.96583032852E+02  0.92307953140E+02 0.  0.
         13    1    3    3    0    0 -0.63595314050E+01 -0.43041056867E+02 -0.75323215705E+01  0.44155670624E+02  0.10566000000E+00 0.  1.
         22    1    1    0    0    0 -0.14990428351E+02  0.63892241336E+01 -0.23280654946E+02  0.28416967148E+02  0.00000000000E+00 0.  1.
</event>
<event>
 5    1  0.2295636E-004  0.9118800E+02  0.7818608E-02  0.1130116E+00
         25   -1    0    0    0    0  0.00000000000E+00  0.00000000000E+00  0.99999998245E-14  0.12500000000E+03  0.12500000000E+03 0.  0.
        -13    1    3    3    0    0 -0.29238189333E+02 -0.15164481727E+02  0.46120530718E+02  0.56674048199E+02  0.10566000000E+00 0. -1.
         23    2    1    0    0    0 -0.19223660493E+02  0.11056161220E+02  0.17613476260E+02  0.96680000536E+02  0.92439169912E+02 0.  0.
         13    1    3    3    0    0  0.10014528840E+02  0.26220642948E+02 -0.28507054458E+02  0.40005952337E+02  0.10566000000E+00 0.  1.
         22    1    1    0    0    0  0.19223660493E+02 -0.11056161220E+02 -0.17613476260E+02  0.28319999464E+02  0.00000000000E+00 0. -1.
</event>
<event>
 5    1  0.2295636E-004  0.9118800E+02  0.7818608E-02  0.1130116E+00
         25   -1    0    0    0    0  0.00000000000E+00  0.00000000000E+00  0.99999998245E-14  0.12500000000E+03  0.12500000000E+03 0.  0.
        -13    1    3    3    0    0  0.55865138860E+02 -0.29412317957E+01  0.16769397355E+01  0.55967739594E+02  0.10566000000E+00 0. -1.
         23    2    1    0    0    0  0.20804163879E+02 -0.15874912755E+02  0.14004540705E+02  0.95319143374E+02  0.90580272927E+02 0.  0.
         13    1    3    3    0    0 -0.35060974981E+02 -0.12933680959E+02  0.12327600970E+02  0.39351403780E+02  0.10566000000E+00 0.  1.
         22    1    1    0    0    0 -0.20804163879E+02  0.15874912755E+02 -0.14004540705E+02  0.29680856626E+02  0.00000000000E+00 0. -1.
</event>
<event>
 5    1  0.2295636E-004  0.9118800E+02  0.7818608E-02  0.1130116E+00
         25   -1    0    0    0    0  0.00000000000E+00  0.00000000000E+00  0.99999998245E-14  0.12500000000E+03  0.12500000000E+03 0.  0.
        -13    1    3    3    0    0  0.13110836257E+02 -0.32893661689E+02  0.38438274835E+02  0.52262789277E+02  0.10566000000E+00 0.  1.
         23    2    1    0    0    0  0.22984124532E+02 -0.21352410095E+02 -0.37620612089E-01  0.93628088794E+02  0.88215770691E+02 0.  0.
         13    1    3    3    0    0  0.98732882751E+01  0.11541251594E+02 -0.38475895447E+02  0.41365299518E+02  0.10566000000E+00 0. -1.
         22    1    1    0    0    0 -0.22984124532E+02  0.21352410095E+02  0.37620612089E-01  0.31371911206E+02  0.00000000000E+00 0.  1.
</event>
<event>
 5    1  0.2295636E-004  0.9118800E+02  0.7818608E-02  0.1130116E+00
         25   -1    0    0    0    0  0.00000000000E+00  0.00000000000E+00  0.99999998245E-14  0.12500000000E+03  0.12500000000E+03 0.  0.
        -13    1    3    3    0    0  0.90671691494E+01  0.33031928484E+02 -0.14784828935E+01  0.34285841560E+02  0.10566000000E+00 0. -1.
         23    2    1    0    0    0 -0.68494233791E+00 -0.15609153631E+02  0.28678238657E+02  0.92341828043E+02  0.86373937104E+02 0.  0.
         13    1    3    3    0    0 -0.97521114873E+01 -0.48641082116E+02  0.30156721551E+02  0.58055986483E+02  0.10566000000E+00 0.  1.
         22    1    1    0    0    0  0.68494233791E+00  0.15609153631E+02 -0.28678238657E+02  0.32658171957E+02  0.00000000000E+00 0.  1.
</event>
<event>
 5    1  0.2295636E-004  0.9118800E+02  0.7818608E-02  0.1130116E+00
         25   -1    0    0    0    0  0.00000000000E+00  0.00000000000E+00  0.99999998245E-14  0.12500000000E+03  0.12500000000E+03 0.  0.
        -13    1    3    3    0    0  0.30167281794E+02 -0.19241360876E+02  0.34080375056E+02  0.49414350013E+02  0.10566000000E+00 0. -1.
         23    2    1    0    0    0 -0.20877802036E+01 -0.29143684526E+02  0.24232097304E+01  0.95681317913E+02  0.91078699367E+02 0.  0.
         13    1    3    3    0    0 -0.32255061998E+02 -0.99023236492E+01 -0.31657165326E+02  0.46266967900E+02  0.10566000000E+00 0.  1.
         22    1    1    0    0    0  0.20877802036E+01  0.29143684526E+02 -0.24232097304E+01  0.29318682087E+02  0.00000000000E+00 0. -1.
</event>
<event>
 5    1  0.2295636E-004  0.9118800E+02  0.7818608E-02  0.1130116E+00
         25   -1    0    0    0    0  0.00000000000E+00  0.00000000000E+00  0.99999998245E-14  0.12500000000E+03  0.12500000000E+03 0.  0.
        -13    1    3    3    0    0 -0.44953661859E+02  0.19470902914E+02 -0.20264474330E+02  0.53015166309E+02  0.10566000000E+00 0. -1.
         23    2    1    0    0    0 -0.82366516339E+01 -0.96018790373E+00 -0.28050673708E+02  0.95749278873E+02  0.91171923958E+02 0.  0.
         13    1    3    3    0    0  0.36717010225E+02 -0.20431090818E+02 -0.77861993782E+01  0.42734112564E+02  0.10566000000E+00 0.  1.
         22    1    1    0    0    0  0.82366516339E+01  0.96018790373E+00  0.28050673708E+02  0.29250721127E+02  0.00000000000E+00 0. -1.
</event>
<event>
 5    1  0.2295636E-004  0.9118800E+02  0.7818608E-02  0.1130116E+00
         25   -1    0    0    0    0  0.00000000000E+00  0.00000000000E+00  0.99999998245E-14  0.12500000000E+03  0.12500000000E+03 0.  0.
        -13    1    3    3    0    0  0.32163769999E+02  0.15342332718E+02 -0.21325195312E+01  0.35699496878E+02  0.10566000000E+00 0.  1.
         23    2    1    0    0    0 -0.55523458483E+01 -0.95103204647E+01 -0.32869979923E+02  0.90334306297E+02  0.83418083017E+02 0.  0.
         13    1    3    3    0    0 -0.37716115848E+02 -0.24852653182E+02 -0.30737460392E+02  0.54634809419E+02  0.10566000000E+00 0. -1.
         22    1    1    0    0    0  0.55523458483E+01  0.95103204647E+01  0.32869979923E+02  0.34665693703E+02  0.00000000000E+00 0. -1.
</event>
<event>
 5    1  0.2295636E-004  0.9118800E+02  0.7818608E-02  0.1130116E+00
         25   -1    0    0    0    0  0.00000000000E+00  0.00000000000E+00  0.99999998245E-14  0.12500000000E+03  0.12500000000E+03 0.  0.
        -13    1    3    3    0    0  0.40307213859E+02 -0.51618473414E+01  0.77514999306E+01  0.41369228567E+02  0.10566000000E+00 0.  1.
         23    2    1    0    0    0 -0.38611463594E+01  0.20642168502E+02  0.22116522556E+02  0.94501669854E+02  0.89445052762E+02 0.  0.
         13    1    3    3    0    0 -0.44168360218E+02  0.25804015844E+02  0.14365022626E+02  0.53132441287E+02  0.10566000000E+00 0. -1.
         22    1    1    0    0    0  0.38611463594E+01 -0.20642168502E+02 -0.22116522556E+02  0.30498330146E+02  0.00000000000E+00 0. -1.
</event>
<event>
 5    1  0.2295636E-004  0.9118800E+02  0.7818608E-02  0.1130116E+00
         25   -1    0    0    0    0  0.00000000000E+00  0.00000000000E+00  0.99999998245E-14  0.12500000000E+03  0.12500000000E+03 0.  0.
        -13    1    3    3    0    0  0.13959524695E+02  0.20277932413E+02  0.22814887937E+02  0.33564760512E+02  0.10566000000E+00 0.  1.
         23    2    1    0    0    0 -0.21226592529E+02 -0.16220912330E+02 -0.12655850952E+02  0.95438931167E+02  0.90745428490E+02 0.  0.
         13    1    3    3    0    0 -0.35186117223E+02 -0.36498844743E+02 -0.35470738889E+02  0.61874170655E+02  0.10566000000E+00 0. -1.
         22    1    1    0    0    0  0.21226592529E+02  0.16220912330E+02  0.12655850952E+02  0.29561068833E+02  0.00000000000E+00 0. -1.
</event>
<event>
 5    1  0.2295636E-004  0.9118800E+02  0.7818608E-02  0.1130116E+00
         25   -1    0    0    0    0  0.00000000000E+00  0.00000000000E+00  0.99999998245E-14  0.12500000000E+03  0.12500000000E+03 0.  0.
        -13    1    3    3    0    0 -0.12317570141E+01  0.45750704335E+02  0.72083315328E+01  0.46331580806E+02  0.10566000000E+00 0. -1.
         23    2    1    0    0    0 -0.28296791648E+02  0.40930496269E+01  0.10526567037E+01  0.96389345360E+02  0.92045295045E+02 0.  0.
         13    1    3    3    0    0 -0.27065034634E+02 -0.41657654708E+02 -0.61556748291E+01  0.50057764554E+02  0.10566000000E+00 0.  1.
         22    1    1    0    0    0  0.28296791648E+02 -0.40930496269E+01 -0.10526567037E+01  0.28610654640E+02  0.00000000000E+00 0. -1.
</event>
<event>
 5    1  0.2295636E-004  0.9118800E+02  0.7818608E-02  0.1130116E+00
         25   -1    0    0    0    0  0.00000000000E+00  0.00000000000E+00  0.99999998245E-14  0.12500000000E+03  0.12500000000E+03 0.  0.
        -13    1    3    3    0    0 -0.56055181472E+02  0.22232809483E+01  0.12579449653E+02  0.57492434855E+02  0.10566000000E+00 0. -1.
         23    2    1    0    0    0 -0.14342347524E+02 -0.15398079837E+02  0.39943345295E+01  0.10358135150E+03  0.10134267549E+03 0.  0.
         13    1    3    3    0    0  0.41712833948E+02 -0.17621360786E+02 -0.85851151235E+01  0.46088916646E+02  0.10566000000E+00 0.  1.
         22    1    1    0    0    0  0.14342347524E+02  0.15398079837E+02 -0.39943345295E+01  0.21418648499E+02  0.00000000000E+00 0.  1.
</event>
<event>
 5    1  0.2295636E-004  0.9118800E+02  0.7818608E-02  0.1130116E+00
         25   -1    0    0    0    0  0.00000000000E+00  0.00000000000E+00  0.99999998245E-14  0.12500000000E+03  0.12500000000E+03 0.  0.
        -13    1    3    3    0    0 -0.25543378821E+02 -0.18018415801E+02 -0.34913221344E+02  0.46862263050E+02  0.10566000000E+00 0. -1.
         23    2    1    0    0    0  0.36163124503E+01  0.19748894219E+02 -0.19518610339E+02  0.96998702027E+02  0.92869131075E+02 0.  0.
         13    1    3    3    0    0  0.29159691271E+02  0.37767310021E+02  0.15394611004E+02  0.50136438976E+02  0.10566000000E+00 0.  1.
         22    1    1    0    0    0 -0.36163124503E+01 -0.19748894219E+02  0.19518610339E+02  0.28001297973E+02  0.00000000000E+00 0.  1.
</event>
<event>
 5    1  0.2295636E-004  0.9118800E+02  0.7818608E-02  0.1130116E+00
         25   -1    0    0    0    0  0.00000000000E+00  0.00000000000E+00  0.99999998245E-14  0.12500000000E+03  0.12500000000E+03 0.  0.
        -13    1    3    3    0    0  0.19461409114E+02 -0.22458308189E+02 -0.20194921896E+02  0.35930044334E+02  0.10566000000E+00 0.  1.
         23    2    1    0    0    0  0.48654365382E+01  0.15920216451E+02  0.23701071159E+02  0.96036807175E+02  0.91565287056E+02 0.  0.
         13    1    3    3    0    0 -0.14595972576E+02  0.38378524639E+02  0.43895993055E+02  0.60106762841E+02  0.10566000000E+00 0. -1.
         22    1    1    0    0    0 -0.48654365382E+01 -0.15920216451E+02 -0.23701071159E+02  0.28963192825E+02  0.00000000000E+00 0. -1.
</event>
<event>
 5    1  0.2295636E-004  0.9118800E+02  0.7818608E-02  0.1130116E+00
         25   -1    0    0    0    0  0.00000000000E+00  0.00000000000E+00  0.99999998245E-14  0.12500000000E+03  0.12500000000E+03 0.  0.
        -13    1    3    3    0    0 -0.59133182520E+02  0.14201830574E+02 -0.74249308554E+00  0.60819303898E+02  0.10566000000E+00 0.  1.
         23    2    1    0    0    0 -0.24957724150E+02  0.16495722954E+02  0.13949522144E+00  0.95083176481E+02  0.90254053207E+02 0.  0.
         13    1    3    3    0    0  0.34175458369E+02  0.22938923800E+01  0.88198830697E+00  0.34263872583E+02  0.10566000000E+00 0. -1.
         22    1    1    0    0    0  0.24957724150E+02 -0.16495722954E+02 -0.13949522144E+00  0.29916823519E+02  0.00000000000E+00 0.  1.
</event>
<event>
 5    1  0.2295636E-004  0.9118800E+02  0.7818608E-02  0.1130116E+00
         25   -1    0    0    0    0  0.00000000000E+00  0.00000000000E+00  0.99999998245E-14  0.12500000000E+03  0.12500000000E+03 0.  0.
        -13    1    3    3    0    0  0.79612236435E+01  0.48900800286E+02 -0.33519138852E+02  0.59818167674E+02  0.10566000000E+00 0.  1.
         23    2    1    0    0    0  0.15967643067E+02  0.18769604033E+02 -0.16569402276E+02  0.95304735184E+02  0.90560387566E+02 0.  0.
         13    1    3    3    0    0  0.80064194236E+01 -0.30131196253E+02  0.16949736576E+02  0.35486567510E+02  0.10566000000E+00 0. -1.
         22    1    1    0    0    0 -0.15967643067E+02 -0.18769604033E+02  0.16569402276E+02  0.29695264816E+02  0.00000000000E+00 0.  1.
</event>
<event>
 5    1  0.2295636E-004  0.9118800E+02  0.7818608E-02  0.1130116E+00
         25   -1    0    0    0    0  0.00000000000E+00  0.00000000000E+00  0.99999998245E-14  0.12500000000E+03  0.12500000000E+03 0.  0.
        -13    1    3    3    0    0 -0.13104581000E+02  0.22790348775E+01 -0.11703354435E+02  0.17717328021E+02  0.10566000000E+00 0. -1.
         23    2    1    0    0    0  0.33624614940E+02 -0.64518261893E+01  0.28869227712E+02  0.80215258181E+02  0.66549339181E+02 0.  0.
         13    1    3    3    0    0  0.46729195940E+02 -0.87308610669E+01  0.40572582147E+02  0.62497930160E+02  0.10566000000E+00 0.  1.
         22    1    1    0    0    0 -0.33624614940E+02  0.64518261893E+01 -0.28869227712E+02  0.44784741819E+02  0.00000000000E+00 0.  1.
</event>
<event>
 5    1  0.2295636E-004  0.9118800E+02  0.7818608E-02  0.1130116E+00
         25   -1    0    0    0    0  0.00000000000E+00  0.00000000000E+00  0.99999998245E-14  0.12500000000E+03  0.12500000000E+03 0.  0.
        -13    1    3    3    0    0 -0.10019349383E+02  0.44686813680E+02 -0.29699247769E+01  0.45892595222E+02  0.10566000000E+00 0.  1.
         23    2    1    0    0    0 -0.22165821254E+02  0.86299916565E+00  0.18437491031E+02  0.96155425555E+02  0.91727075549E+02 0.  0.
         13    1    3    3    0    0 -0.12146471870E+02 -0.43823814515E+02  0.21407415808E+02  0.50262830333E+02  0.10566000000E+00 0. -1.
         22    1    1    0    0    0  0.22165821254E+02 -0.86299916565E+00 -0.18437491031E+02  0.28844574445E+02  0.00000000000E+00 0. -1.
</event>
<event>
 5    1  0.2295636E-004  0.9118800E+02  0.7818608E-02  0.1130116E+00
         25   -1    0    0    0    0  0.00000000000E+00  0.00000000000E+00  0.99999998245E-14  0.12500000000E+03  0.12500000000E+03 0.  0.
        -13    1    3    3    0    0 -0.37711857387E+02 -0.33708787963E+02 -0.16599737721E+02  0.53235599273E+02  0.10566000000E+00 0. -1.
         23    2    1    0    0    0 -0.17723142900E+02  0.69080009155E+01 -0.18392813858E+02  0.98540108229E+02  0.94921162326E+02 0.  0.
         13    1    3    3    0    0  0.19988714487E+02  0.40616788879E+02 -0.17930761367E+01  0.45304508956E+02  0.10566000000E+00 0.  1.
         22    1    1    0    0    0  0.17723142900E+02 -0.69080009155E+01  0.18392813858E+02  0.26459891771E+02  0.00000000000E+00 0.  1.
</event>
<event>
 5    1  0.2295636E-004  0.9118800E+02  0.7818608E-02  0.1130116E+00
         25   -1    0    0    0    0  0.00000000000E+00  0.00000000000E+00  0.99999998245E-14  0.12500000000E+03  0.12500000000E+03 0.  0.
        -13    1    3    3    0    0  0.18444149959E+02 -0.21831083270E+02 -0.21464658997E+02  0.35742490321E+02  0.10566000000E+00 0.  1.
         23    2    1    0    0    0 -0.20255380053E+02  0.16353713974E+02  0.82386507317E+01  0.97694327554E+02  0.93800756333E+02 0.  0.
         13    1    3    3    0    0 -0.38699530011E+02  0.38184797245E+02  0.29703309729E+02  0.61951837233E+02  0.10566000000E+00 0. -1.
         22    1    1    0    0    0  0.20255380053E+02 -0.16353713974E+02 -0.82386507317E+01  0.27305672446E+02  0.00000000000E+00 0. -1.
</event>
<event>
 5    1  0.2295636E-004  0.9118800E+02  0.7818608E-02  0.1130116E+00
         25   -1    0    0    0    0  0.00000000000E+00  0.00000000000E+00  0.99999998245E-14  0.12500000000E+03  0.12500000000E+03 0.  0.
        -13    1    3    3    0    0 -0.13385489535E+02  0.12201885254E+02 -0.49760402951E+02  0.52954378476E+02  0.10566000000E+00 0.  1.
         23    2    1    0    0    0  0.18066208140E+02  0.13346101326E+01 -0.23404154235E+02  0.95403995265E+02  0.90697292222E+02 0.  0.
         13    1    3    3    0    0  0.31451697675E+02 -0.10867275122E+02  0.26356248715E+02  0.42449616790E+02  0.10566000000E+00 0. -1.
         22    1    1    0    0    0 -0.18066208140E+02 -0.13346101326E+01  0.23404154235E+02  0.29596004735E+02  0.00000000000E+00 0. -1.
</event>
<event>
 5    1  0.2295636E-004  0.9118800E+02  0.7818608E-02  0.1130116E+00
         25   -1    0    0    0    0  0.00000000000E+00  0.00000000000E+00  0.99999998245E-14  0.12500000000E+03  0.12500000000E+03 0.  0.
        -13    1    3    3    0    0 -0.37010631828E+02 -0.23762621857E+02  0.11091118671E+02  0.45359377677E+02  0.10566000000E+00 0. -1.
         23    2    1    0    0    0  0.73483916419E+01 -0.24586690955E+02 -0.13414363915E+02  0.96044009409E+02  0.91575118631E+02 0.  0.
         13    1    3    3    0    0  0.44359023470E+02 -0.82406909758E+00 -0.24505482586E+02  0.50684631733E+02  0.10566000000E+00 0.  1.
         22    1    1    0    0    0 -0.73483916419E+01  0.24586690955E+02  0.13414363915E+02  0.28955990591E+02  0.00000000000E+00 0.  1.
</event>
<event>
 5    1  0.2295636E-004  0.9118800E+02  0.7818608E-02  0.1130116E+00
         25   -1    0    0    0    0  0.00000000000E+00  0.00000000000E+00  0.99999998245E-14  0.12500000000E+03  0.12500000000E+03 0.  0.
        -13    1    3    3    0    0  0.18376646067E+02  0.36827696829E+02 -0.28261900270E+02  0.49927212473E+02  0.10566000000E+00 0. -1.
         23    2    1    0    0    0  0.27835180722E+02  0.17744173527E+02  0.71252796479E+01  0.91229856529E+02  0.84749419658E+02 0.  0.
         13    1    3    3    0    0  0.94585346543E+01 -0.19083523302E+02  0.35387179918E+02  0.41302644056E+02  0.10566000000E+00 0.  1.
         22    1    1    0    0    0 -0.27835180722E+02 -0.17744173527E+02 -0.71252796479E+01  0.33770143471E+02  0.00000000000E+00 0. -1.
</event>
<event>
 5    1  0.2295636E-004  0.9118800E+02  0.7818608E-02  0.1130116E+00
         25   -1    0    0    0    0  0.00000000000E+00  0.00000000000E+00  0.99999998245E-14  0.12500000000E+03  0.12500000000E+03 0.  0.
        -13    1    3    3    0    0  0.11150101365E+02  0.46333229376E+02 -0.18776934753E+02  0.51221844437E+02  0.10566000000E+00 0.  1.
         23    2    1    0    0    0  0.54869630482E+01  0.30350728862E+02  0.16250790901E+02  0.90137961751E+02  0.83123344722E+02 0.  0.
         13    1    3    3    0    0 -0.56631383165E+01 -0.15982500514E+02  0.35027725654E+02  0.38916117314E+02  0.10566000000E+00 0. -1.
         22    1    1    0    0    0 -0.54869630482E+01 -0.30350728862E+02 -0.16250790901E+02  0.34862038249E+02  0.00000000000E+00 0.  1.
</event>
<event>
 5    1  0.2295636E-004  0.9118800E+02  0.7818608E-02  0.1130116E+00
         25   -1    0    0    0    0  0.00000000000E+00  0.00000000000E+00  0.99999998245E-14  0.12500000000E+03  0.12500000000E+03 0.  0.
        -13    1    3    3    0    0 -0.42064656857E+02 -0.92773625820E+01 -0.26691449653E+02  0.50674939187E+02  0.10566000000E+00 0. -1.
         23    2    1    0    0    0  0.10036097536E+01 -0.18772496462E+02 -0.23518098381E+02  0.94891615662E+02  0.89988354333E+02 0.  0.
         13    1    3    3    0    0  0.43068266610E+02 -0.94951338802E+01  0.31733512720E+01  0.44216676476E+02  0.10566000000E+00 0.  1.
         22    1    1    0    0    0 -0.10036097536E+01  0.18772496462E+02  0.23518098381E+02  0.30108384338E+02  0.00000000000E+00 0.  1.
</event>
<event>
 5    1  0.2295636E-004  0.9118800E+02  0.7818608E-02  0.1130116E+00
         25   -1    0    0    0    0  0.00000000000E+00  0.00000000000E+00  0.99999998245E-14  0.12500000000E+03  0.12500000000E+03 0.  0.
        -13    1    3    3    0    0 -0.29500665285E+02 -0.37379733779E+02  0.16798736693E+02  0.50494974682E+02  0.10566000000E+00 0. -1.
         23    2    1    0    0    0 -0.19066968075E+02  0.88772714407E+01  0.17065875923E+02  0.97914960941E+02  0.94094315637E+02 0.  0.
         13    1    3    3    0    0  0.10433697210E+02  0.46257005219E+02  0.26713922944E+00  0.47419986258E+02  0.10566000000E+00 0.  1.
         22    1    1    0    0    0  0.19066968075E+02 -0.88772714407E+01 -0.17065875923E+02  0.27085039059E+02  0.00000000000E+00 0. -1.
</event>
<event>
 5    1  0.2295636E-004  0.9118800E+02  0.7818608E-02  0.1130116E+00
         25   -1    0    0    0    0  0.00000000000E+00  0.00000000000E+00  0.99999998245E-14  0.12500000000E+03  0.12500000000E+03 0.  0.
        -13    1    3    3    0    0  0.38396732909E+02 -0.43071653092E+02 -0.83081652127E+01  0.58296768104E+02  0.10566000000E+00 0.  1.
         23    2    1    0    0    0  0.27329755906E+02 -0.66803035146E+01 -0.41700399322E+01  0.96558283351E+02  0.92274432199E+02 0.  0.
         13    1    3    3    0    0 -0.11066977003E+02  0.36391349578E+02  0.41381252805E+01  0.38261515246E+02  0.10566000000E+00 0. -1.
         22    1    1    0    0    0 -0.27329755906E+02  0.66803035146E+01  0.41700399322E+01  0.28441716649E+02  0.00000000000E+00 0.  1.
</event>
<event>
 5    1  0.2295636E-004  0.9118800E+02  0.7818608E-02  0.1130116E+00
         25   -1    0    0    0    0  0.00000000000E+00  0.00000000000E+00  0.99999998245E-14  0.12500000000E+03  0.12500000000E+03 0.  0.
        -13    1    3    3    0    0  0.73624655837E+01 -0.13129584335E+02 -0.31316733999E+02  0.34746811029E+02  0.10566000000E+00 0. -1.
         23    2    1    0    0    0  0.92269768452E+01  0.12534514018E+02  0.24365703732E+02  0.96087396144E+02  0.91634322369E+02 0.  0.
         13    1    3    3    0    0  0.18645112615E+01  0.25664098353E+02  0.55682437731E+02  0.61340585115E+02  0.10566000000E+00 0.  1.
         22    1    1    0    0    0 -0.92269768452E+01 -0.12534514018E+02 -0.24365703732E+02  0.28912603856E+02  0.00000000000E+00 0.  1.
</event>
<event>
 5    1  0.2295636E-004  0.9118800E+02  0.7818608E-02  0.1130116E+00
         25   -1    0    0    0    0  0.00000000000E+00  0.00000000000E+00  0.99999998245E-14  0.12500000000E+03  0.12500000000E+03 0.  0.
        -13    1    3    3    0    0  0.16012676203E+02  0.33333541147E+02 -0.88799019216E+01  0.38031494669E+02  0.10566000000E+00 0. -1.
         23    2    1    0    0    0 -0.24149654201E+02 -0.82997117273E+01 -0.13594127322E+02  0.96070926209E+02  0.91611852684E+02 0.  0.
         13    1    3    3    0    0 -0.40162330404E+02 -0.41633252874E+02 -0.47142254003E+01  0.58039431540E+02  0.10566000000E+00 0.  1.
         22    1    1    0    0    0  0.24149654201E+02  0.82997117273E+01  0.13594127322E+02  0.28929073791E+02  0.00000000000E+00 0.  1.
</event>
<event>
 5    1  0.2295636E-004  0.9118800E+02  0.7818608E-02  0.1130116E+00
         25   -1    0    0    0    0  0.00000000000E+00  0.00000000000E+00  0.99999998245E-14  0.12500000000E+03  0.12500000000E+03 0.  0.
        -13    1    3    3    0    0  0.71401961465E+01 -0.20678943798E+02 -0.25332889332E+02  0.33471892142E+02  0.10566000000E+00 0. -1.
         23    2    1    0    0    0 -0.10441969897E+02  0.19288437569E+02  0.19207726862E+02  0.95844977613E+02  0.91303036111E+02 0.  0.
         13    1    3    3    0    0 -0.17582166043E+02  0.39967381367E+02  0.44540616195E+02  0.62373085471E+02  0.10566000000E+00 0.  1.
         22    1    1    0    0    0  0.10441969897E+02 -0.19288437569E+02 -0.19207726862E+02  0.29155022387E+02  0.00000000000E+00 0.  1.
</event>
<event>
 5    1  0.2295636E-004  0.9118800E+02  0.7818608E-02  0.1130116E+00
         25   -1    0    0    0    0  0.00000000000E+00  0.00000000000E+00  0.99999998245E-14  0.12500000000E+03  0.12500000000E+03 0.  0.
        -13    1    3    3    0    0 -0.72338647037E+01  0.14106178047E+02 -0.31420502927E+02  0.35193354854E+02  0.10566000000E+00 0.  1.
         23    2    1    0    0    0  0.21574610909E+02 -0.10330210326E+02  0.16298190538E+02  0.96055085143E+02  0.91590235756E+02 0.  0.
         13    1    3    3    0    0  0.28808475612E+02 -0.24436388373E+02  0.47718693465E+02  0.60861730290E+02  0.10566000000E+00 0. -1.
         22    1    1    0    0    0 -0.21574610909E+02  0.10330210326E+02 -0.16298190538E+02  0.28944914857E+02  0.00000000000E+00 0. -1.
</event>
<event>
 5    1  0.2295636E-004  0.9118800E+02  0.7818608E-02  0.1130116E+00
         25   -1    0    0    0    0  0.00000000000E+00  0.00000000000E+00  0.99999998245E-14  0.12500000000E+03  0.12500000000E+03 0.  0.
        -13    1    3    3    0    0 -0.26235701802E+02 -0.27315507903E+02  0.32397914272E+02  0.49840596247E+02  0.10566000000E+00 0. -1.
         23    2    1    0    0    0 -0.22416974006E+02 -0.14457492583E+02 -0.11654895198E+02  0.95890269712E+02  0.91365023001E+02 0.  0.
         13    1    3    3    0    0  0.38187277967E+01  0.12858015320E+02 -0.44052809470E+02  0.46049673465E+02  0.10566000000E+00 0.  1.
         22    1    1    0    0    0  0.22416974006E+02  0.14457492583E+02  0.11654895198E+02  0.29109730288E+02  0.00000000000E+00 0. -1.
</event>
<event>
 5    1  0.2295636E-004  0.9118800E+02  0.7818608E-02  0.1130116E+00
         25   -1    0    0    0    0  0.00000000000E+00  0.00000000000E+00  0.99999998245E-14  0.12500000000E+03  0.12500000000E+03 0.  0.
        -13    1    3    3    0    0  0.23491779710E+02  0.34095748543E+02 -0.32346530677E+02  0.52542297185E+02  0.10566000000E+00 0.  1.
         23    2    1    0    0    0 -0.13448614081E+02  0.19754190958E+02 -0.19365153844E+02  0.94241221343E+02  0.89080330801E+02 0.  0.
         13    1    3    3    0    0 -0.36940393790E+02 -0.14341557586E+02  0.12981376833E+02  0.41698924157E+02  0.10566000000E+00 0. -1.
         22    1    1    0    0    0  0.13448614081E+02 -0.19754190958E+02  0.19365153844E+02  0.30758778657E+02  0.00000000000E+00 0.  1.
</event>
<event>
 5    1  0.2295636E-004  0.9118800E+02  0.7818608E-02  0.1130116E+00
         25   -1    0    0    0    0  0.00000000000E+00  0.00000000000E+00  0.99999998245E-14  0.12500000000E+03  0.12500000000E+03 0.  0.
        -13    1    3    3    0    0 -0.30381302505E+02  0.19193044445E+02 -0.40152706152E+01  0.36159785109E+02  0.10566000000E+00 0.  1.
         23    2    1    0    0    0  0.25407556102E+02  0.25636789652E+01 -0.14974138383E+02  0.95396939732E+02  0.90687567687E+02 0.  0.
         13    1    3    3    0    0  0.55788858608E+02 -0.16629365480E+02 -0.10958867768E+02  0.59237154623E+02  0.10566000000E+00 0. -1.
         22    1    1    0    0    0 -0.25407556102E+02 -0.25636789652E+01  0.14974138383E+02  0.29603060268E+02  0.00000000000E+00 0. -1.
</event>
<event>
 5    1  0.2295636E-004  0.9118800E+02  0.7818608E-02  0.1130116E+00
         25   -1    0    0    0    0  0.00000000000E+00  0.00000000000E+00  0.99999998245E-14  0.12500000000E+03  0.12500000000E+03 0.  0.
        -13    1    3    3    0    0 -0.31025626455E+01  0.31559389761E+02  0.25829567639E+02  0.40899861925E+02  0.10566000000E+00 0.  1.
         23    2    1    0    0    0 -0.22171116706E+02  0.46483269832E+01 -0.18219968937E+02  0.95928835115E+02  0.91417770585E+02 0.  0.
         13    1    3    3    0    0 -0.19068554060E+02 -0.26911062777E+02 -0.44049536576E+02  0.55028973190E+02  0.10566000000E+00 0. -1.
         22    1    1    0    0    0  0.22171116706E+02 -0.46483269832E+01  0.18219968937E+02  0.29071164885E+02  0.00000000000E+00 0. -1.
</event>
<event>
 5    1  0.2295636E-004  0.9118800E+02  0.7818608E-02  0.1130116E+00
         25   -1    0    0    0    0  0.00000000000E+00  0.00000000000E+00  0.99999998245E-14  0.12500000000E+03  0.12500000000E+03 0.  0.
        -13    1    3    3    0    0  0.11871349361E+01 -0.37542903047E+02 -0.40658400707E+02  0.55353370003E+02  0.10566000000E+00 0.  1.
         23    2    1    0    0    0  0.19537269124E+02 -0.77897743556E+01 -0.20098110823E+02  0.95908428575E+02  0.91389863462E+02 0.  0.
         13    1    3    3    0    0  0.18350134188E+02  0.29753128691E+02  0.20560289884E+02  0.40555058572E+02  0.10566000000E+00 0. -1.
         22    1    1    0    0    0 -0.19537269124E+02  0.77897743556E+01  0.20098110823E+02  0.29091571425E+02  0.00000000000E+00 0.  1.
</event>
<event>
 5    1  0.2295636E-004  0.9118800E+02  0.7818608E-02  0.1130116E+00
         25   -1    0    0    0    0  0.00000000000E+00  0.00000000000E+00  0.99999998245E-14  0.12500000000E+03  0.12500000000E+03 0.  0.
        -13    1    3    3    0    0  0.25422002909E+02 -0.24180325211E+02  0.22098866364E+02  0.41464893800E+02  0.10566000000E+00 0.  1.
         23    2    1    0    0    0  0.18865483571E+02  0.10325594916E+02 -0.19542306692E+02  0.95940988806E+02  0.91434387412E+02 0.  0.
         13    1    3    3    0    0 -0.65565193374E+01  0.34505920127E+02 -0.41641173056E+02  0.54476095006E+02  0.10566000000E+00 0. -1.
         22    1    1    0    0    0 -0.18865483571E+02 -0.10325594916E+02  0.19542306692E+02  0.29059011194E+02  0.00000000000E+00 0. -1.
</event>
<event>
 5    1  0.2295636E-004  0.9118800E+02  0.7818608E-02  0.1130116E+00
         25   -1    0    0    0    0  0.00000000000E+00  0.00000000000E+00  0.99999998245E-14  0.12500000000E+03  0.12500000000E+03 0.  0.
        -13    1    3    3    0    0  0.10340119134E+02  0.68798465940E+01  0.54901035843E+02  0.56288411361E+02  0.10566000000E+00 0. -1.
         23    2    1    0    0    0 -0.14926411054E+02  0.31422185773E+01  0.25976700406E+02  0.94875919126E+02  0.89966548125E+02 0.  0.
         13    1    3    3    0    0 -0.25266530188E+02 -0.37376280167E+01 -0.28924335438E+02  0.38587507765E+02  0.10566000000E+00 0.  1.
         22    1    1    0    0    0  0.14926411054E+02 -0.31422185773E+01 -0.25976700406E+02  0.30124080874E+02  0.00000000000E+00 0. -1.
</event>
<event>
 5    1  0.2295636E-004  0.9118800E+02  0.7818608E-02  0.1130116E+00
         25   -1    0    0    0    0  0.00000000000E+00  0.00000000000E+00  0.99999998245E-14  0.12500000000E+03  0.12500000000E+03 0.  0.
        -13    1    3    3    0    0 -0.28685531288E+02 -0.49150427516E+02 -0.22375677383E+02  0.61149867806E+02  0.10566000000E+00 0.  1.
         23    2    1    0    0    0 -0.70721705893E+01 -0.26937772390E+02 -0.49267375630E+01  0.96716932252E+02  0.92489096996E+02 0.  0.
         13    1    3    3    0    0  0.21613360699E+02  0.22212655126E+02  0.17448939820E+02  0.35567064446E+02  0.10566000000E+00 0. -1.
         22    1    1    0    0    0  0.70721705893E+01  0.26937772390E+02  0.49267375630E+01  0.28283067748E+02  0.00000000000E+00 0.  1.
</event>
<event>
 5    1  0.2295636E-004  0.9118800E+02  0.7818608E-02  0.1130116E+00
         25   -1    0    0    0    0  0.00000000000E+00  0.00000000000E+00  0.99999998245E-14  0.12500000000E+03  0.12500000000E+03 0.  0.
        -13    1    3    3    0    0 -0.14603558355E+02  0.56614258610E+02  0.83149517431E+01  0.59055802265E+02  0.10566000000E+00 0. -1.
         23    2    1    0    0    0 -0.47576904501E+01  0.21582563247E+02  0.17756364789E+02  0.96649847527E+02  0.92398386791E+02 0.  0.
         13    1    3    3    0    0  0.98458679051E+01 -0.35031695363E+02  0.94414130462E+01  0.37594045262E+02  0.10566000000E+00 0.  1.
         22    1    1    0    0    0  0.47576904501E+01 -0.21582563247E+02 -0.17756364789E+02  0.28350152473E+02  0.00000000000E+00 0. -1.
</event>
<event>
 5    1  0.2295636E-004  0.9118800E+02  0.7818608E-02  0.1130116E+00
         25   -1    0    0    0    0  0.00000000000E+00  0.00000000000E+00  0.99999998245E-14  0.12500000000E+03  0.12500000000E+03 0.  0.
        -13    1    3    3    0    0  0.27970363016E+00 -0.28389461600E+01 -0.53507159228E+02  0.53583253934E+02  0.10566000000E+00 0. -1.
         23    2    1    0    0    0 -0.13579881107E+01  0.19934486487E+02 -0.10140483568E+02  0.10259336504E+03  0.10011663828E+03 0.  0.
         13    1    3    3    0    0 -0.16376917408E+01  0.22773432647E+02  0.43366675661E+02  0.49010111107E+02  0.10566000000E+00 0.  1.
         22    1    1    0    0    0  0.13579881107E+01 -0.19934486487E+02  0.10140483568E+02  0.22406634959E+02  0.00000000000E+00 0.  1.
</event>
<event>
 5    1  0.2295636E-004  0.9118800E+02  0.7818608E-02  0.1130116E+00
         25   -1    0    0    0    0  0.00000000000E+00  0.00000000000E+00  0.99999998245E-14  0.12500000000E+03  0.12500000000E+03 0.  0.
        -13    1    3    3    0    0  0.80765301856E+01  0.35209147269E+02  0.26911383878E+02  0.45046066837E+02  0.10566000000E+00 0. -1.
         23    2    1    0    0    0 -0.20535680005E+02 -0.71179710814E+01  0.17721431352E+02  0.96956662204E+02  0.92812529063E+02 0.  0.
         13    1    3    3    0    0 -0.28612210190E+02 -0.42327118351E+02 -0.91899525262E+01  0.51910595367E+02  0.10566000000E+00 0.  1.
         22    1    1    0    0    0  0.20535680005E+02  0.71179710814E+01 -0.17721431352E+02  0.28043337796E+02  0.00000000000E+00 0.  1.
</event>
<event>
 5    1  0.2295636E-004  0.9118800E+02  0.7818608E-02  0.1130116E+00
         25   -1    0    0    0    0  0.00000000000E+00  0.00000000000E+00  0.99999998245E-14  0.12500000000E+03  0.12500000000E+03 0.  0.
        -13    1    3    3    0    0 -0.37846985777E+02  0.26626021781E+02  0.22274272710E+02  0.51356535680E+02  0.10566000000E+00 0.  1.
         23    2    1    0    0    0  0.53767881923E+01  0.25807524611E+02  0.13149849321E+02  0.95540592080E+02  0.90885356466E+02 0.  0.
         13    1    3    3    0    0  0.43223773969E+02 -0.81849716964E+00 -0.91244233887E+01  0.44184056400E+02  0.10566000000E+00 0. -1.
         22    1    1    0    0    0 -0.53767881923E+01 -0.25807524611E+02 -0.13149849321E+02  0.29459407920E+02  0.00000000000E+00 0.  1.
</event>
<event>
 5    1  0.2295636E-004  0.9118800E+02  0.7818608E-02  0.1130116E+00
         25   -1    0    0    0    0  0.00000000000E+00  0.00000000000E+00  0.99999998245E-14  0.12500000000E+03  0.12500000000E+03 0.  0.
        -13    1    3    3    0    0  0.10236304979E+02  0.22405233233E+01 -0.57600409695E+02  0.58545881542E+02  0.10566000000E+00 0.  1.
         23    2    1    0    0    0  0.43195901519E+00  0.16089772644E+02 -0.25781079945E+02  0.94607049247E+02  0.89592200061E+02 0.  0.
         13    1    3    3    0    0 -0.98043459640E+01  0.13849249321E+02  0.31819329750E+02  0.36061167706E+02  0.10566000000E+00 0. -1.
         22    1    1    0    0    0 -0.43195901519E+00 -0.16089772644E+02  0.25781079945E+02  0.30392950753E+02  0.00000000000E+00 0.  1.
</event>
<event>
 5    1  0.2295636E-004  0.9118800E+02  0.7818608E-02  0.1130116E+00
         25   -1    0    0    0    0  0.00000000000E+00  0.00000000000E+00  0.99999998245E-14  0.12500000000E+03  0.12500000000E+03 0.  0.
        -13    1    3    3    0    0 -0.11001799656E+01  0.28921284448E+02  0.14833478160E+02  0.32522212847E+02  0.10566000000E+00 0. -1.
         23    2    1    0    0    0  0.16779284103E+02 -0.27274016706E+02  0.87350555752E+01  0.91807869032E+02  0.85597705915E+02 0.  0.
         13    1    3    3    0    0  0.17879464069E+02 -0.56195301154E+02 -0.60984225845E+01  0.59285656185E+02  0.10566000000E+00 0.  1.
         22    1    1    0    0    0 -0.16779284103E+02  0.27274016706E+02 -0.87350555752E+01  0.33192130968E+02  0.00000000000E+00 0.  1.
</event>
<event>
 5    1  0.2295636E-004  0.9118800E+02  0.7818608E-02  0.1130116E+00
         25   -1    0    0    0    0  0.00000000000E+00  0.00000000000E+00  0.99999998245E-14  0.12500000000E+03  0.12500000000E+03 0.  0.
        -13    1    3    3    0    0 -0.42344839666E+02  0.38948402376E+02 -0.24214983725E+02  0.62421471425E+02  0.10566000000E+00 0.  1.
         23    2    1    0    0    0 -0.23011880614E+02  0.23995923861E+02 -0.14683409524E+02  0.88655075642E+02  0.80862654609E+02 0.  0.
         13    1    3    3    0    0  0.19332959052E+02 -0.14952478515E+02  0.95315742007E+01  0.26233604217E+02  0.10566000000E+00 0. -1.
         22    1    1    0    0    0  0.23011880614E+02 -0.23995923861E+02  0.14683409524E+02  0.36344924358E+02  0.00000000000E+00 0.  1.
</event>
<event>
 5    1  0.2295636E-004  0.9118800E+02  0.7818608E-02  0.1130116E+00
         25   -1    0    0    0    0  0.00000000000E+00  0.00000000000E+00  0.99999998245E-14  0.12500000000E+03  0.12500000000E+03 0.  0.
        -13    1    3    3    0    0 -0.11462826093E+02  0.29915318129E+02  0.10211990398E+02  0.33624671786E+02  0.10566000000E+00 0.  1.
         23    2    1    0    0    0 -0.41740254729E+01  0.48277993480E-01 -0.35797207785E+02  0.88960231623E+02  0.81333006251E+02 0.  0.
         13    1    3    3    0    0  0.72888006205E+01 -0.29867040136E+02 -0.46009198183E+02  0.55335559837E+02  0.10566000000E+00 0. -1.
         22    1    1    0    0    0  0.41740254729E+01 -0.48277993480E-01  0.35797207785E+02  0.36039768377E+02  0.00000000000E+00 0. -1.
</event>
<event>
 5    1  0.2295636E-004  0.9118800E+02  0.7818608E-02  0.1130116E+00
         25   -1    0    0    0    0  0.00000000000E+00  0.00000000000E+00  0.99999998245E-14  0.12500000000E+03  0.12500000000E+03 0.  0.
        -13    1    3    3    0    0 -0.31064811514E+02 -0.24584949938E+02  0.21896083822E+01  0.39676792042E+02  0.10566000000E+00 0.  1.
         23    2    1    0    0    0 -0.11943465164E+02  0.27138872389E+02 -0.36287254075E+01  0.95128066639E+02  0.90316203750E+02 0.  0.
         13    1    3    3    0    0  0.19121346350E+02  0.51723822327E+02 -0.58183337897E+01  0.55451274597E+02  0.10566000000E+00 0. -1.
         22    1    1    0    0    0  0.11943465164E+02 -0.27138872389E+02  0.36287254075E+01  0.29871933361E+02  0.00000000000E+00 0. -1.
</event>
<event>
 5    1  0.2295636E-004  0.9118800E+02  0.7818608E-02  0.1130116E+00
         25   -1    0    0    0    0  0.00000000000E+00  0.00000000000E+00  0.99999998245E-14  0.12500000000E+03  0.12500000000E+03 0.  0.
        -13    1    3    3    0    0 -0.10648241265E+02 -0.21212103481E+02  0.31179592482E+02  0.39185667373E+02  0.10566000000E+00 0. -1.
         23    2    1    0    0    0  0.12966422287E+02 -0.16045877629E+02 -0.20299257051E+02  0.96057675756E+02  0.91593771290E+02 0.  0.
         13    1    3    3    0    0  0.23614663552E+02  0.51662258521E+01 -0.51478849533E+02  0.56872008383E+02  0.10566000000E+00 0.  1.
         22    1    1    0    0    0 -0.12966422287E+02  0.16045877629E+02  0.20299257051E+02  0.28942324244E+02  0.00000000000E+00 0.  1.
</event>
<event>
 5    1  0.2295636E-004  0.9118800E+02  0.7818608E-02  0.1130116E+00
         25   -1    0    0    0    0  0.00000000000E+00  0.00000000000E+00  0.99999998245E-14  0.12500000000E+03  0.12500000000E+03 0.  0.
        -13    1    3    3    0    0 -0.19788358587E+01  0.16216601268E+01 -0.31227141290E+02  0.31331949989E+02  0.10566000000E+00 0. -1.
         23    2    1    0    0    0  0.27620973678E+01  0.42037577373E+01  0.30899995426E+02  0.93693283815E+02  0.88308102423E+02 0.  0.
         13    1    3    3    0    0  0.47409332265E+01  0.25820976104E+01  0.62127136716E+02  0.62361333826E+02  0.10566000000E+00 0.  1.
         22    1    1    0    0    0 -0.27620973678E+01 -0.42037577373E+01 -0.30899995426E+02  0.31306716185E+02  0.00000000000E+00 0.  1.
</event>
<event>
 5    1  0.2295636E-004  0.9118800E+02  0.7818608E-02  0.1130116E+00
         25   -1    0    0    0    0  0.00000000000E+00  0.00000000000E+00  0.99999998245E-14  0.12500000000E+03  0.12500000000E+03 0.  0.
        -13    1    3    3    0    0  0.80863314054E+01 -0.12486909538E+02 -0.33855658098E+02  0.36980108365E+02  0.10566000000E+00 0.  1.
         23    2    1    0    0    0 -0.19842078243E+02 -0.34530718336E+01  0.18918168826E+02  0.97367973548E+02  0.93364840208E+02 0.  0.
         13    1    3    3    0    0 -0.27928409648E+02  0.90338377045E+01  0.52773826924E+02  0.60387865183E+02  0.10566000000E+00 0. -1.
         22    1    1    0    0    0  0.19842078243E+02  0.34530718336E+01 -0.18918168826E+02  0.27632026452E+02  0.00000000000E+00 0. -1.
</event>
<event>
 5    1  0.2295636E-004  0.9118800E+02  0.7818608E-02  0.1130116E+00
         25   -1    0    0    0    0  0.00000000000E+00  0.00000000000E+00  0.99999998245E-14  0.12500000000E+03  0.12500000000E+03 0.  0.
        -13    1    3    3    0    0  0.30362100821E+02 -0.95998065704E+01  0.21987972745E+02  0.38697487799E+02  0.10566000000E+00 0. -1.
         23    2    1    0    0    0  0.32162592397E+01  0.21184898980E+01 -0.27979015740E+02  0.96757166489E+02  0.92543458020E+02 0.  0.
         13    1    3    3    0    0 -0.27145841582E+02  0.11718296468E+02 -0.49966988485E+02  0.58059678690E+02  0.10566000000E+00 0.  1.
         22    1    1    0    0    0 -0.32162592397E+01 -0.21184898980E+01  0.27979015740E+02  0.28242833511E+02  0.00000000000E+00 0. -1.
</event>
<event>
 5    1  0.2295636E-004  0.9118800E+02  0.7818608E-02  0.1130116E+00
         25   -1    0    0    0    0  0.00000000000E+00  0.00000000000E+00  0.99999998245E-14  0.12500000000E+03  0.12500000000E+03 0.  0.
        -13    1    3    3    0    0  0.72376909163E+01  0.22571223315E+00 -0.34549752799E+02  0.35300590623E+02  0.10566000000E+00 0.  1.
         23    2    1    0    0    0 -0.54093497377E+01  0.22780030362E+02  0.19052500748E+02  0.94814098778E+02  0.89880613563E+02 0.  0.
         13    1    3    3    0    0 -0.12647040654E+02  0.22554318128E+02  0.53602253547E+02  0.59513508155E+02  0.10566000000E+00 0. -1.
         22    1    1    0    0    0  0.54093497377E+01 -0.22780030362E+02 -0.19052500748E+02  0.30185901222E+02  0.00000000000E+00 0. -1.
</event>
<event>
 5    1  0.2295636E-004  0.9118800E+02  0.7818608E-02  0.1130116E+00
         25   -1    0    0    0    0  0.00000000000E+00  0.00000000000E+00  0.99999998245E-14  0.12500000000E+03  0.12500000000E+03 0.  0.
        -13    1    3    3    0    0  0.60842269586E+01  0.21302384165E+02  0.25935494679E+02  0.34109682454E+02  0.10566000000E+00 0.  1.
         23    2    1    0    0    0  0.17406043527E+02  0.14996379166E+01 -0.27618667798E+02  0.92319576562E+02  0.86341728848E+02 0.  0.
         13    1    3    3    0    0  0.11321816568E+02 -0.19802746249E+02 -0.53554162477E+02  0.58209894108E+02  0.10566000000E+00 0. -1.
         22    1    1    0    0    0 -0.17406043527E+02 -0.14996379166E+01  0.27618667798E+02  0.32680423438E+02  0.00000000000E+00 0. -1.
</event>
<event>
 5    1  0.2295636E-004  0.9118800E+02  0.7818608E-02  0.1130116E+00
         25   -1    0    0    0    0  0.00000000000E+00  0.00000000000E+00  0.99999998245E-14  0.12500000000E+03  0.12500000000E+03 0.  0.
        -13    1    3    3    0    0  0.45913688349E+02 -0.31102219993E+02  0.46069701995E+01  0.55647553448E+02  0.10566000000E+00 0. -1.
         23    2    1    0    0    0  0.27766475869E+02  0.43549184238E+01  0.84170913259E+01  0.95660778418E+02  0.91050505790E+02 0.  0.
         13    1    3    3    0    0 -0.18147212480E+02  0.35457138417E+02  0.38101211265E+01  0.40013224970E+02  0.10566000000E+00 0.  1.
         22    1    1    0    0    0 -0.27766475869E+02 -0.43549184238E+01 -0.84170913259E+01  0.29339221582E+02  0.00000000000E+00 0. -1.
</event>
<event>
 5    1  0.2295636E-004  0.9118800E+02  0.7818608E-02  0.1130116E+00
         25   -1    0    0    0    0  0.00000000000E+00  0.00000000000E+00  0.99999998245E-14  0.12500000000E+03  0.12500000000E+03 0.  0.
        -13    1    3    3    0    0  0.36929285616E+02 -0.23418232598E+00  0.80017831890E+01  0.37787123147E+02  0.10566000000E+00 0.  1.
         23    2    1    0    0    0 -0.75253708754E+01 -0.89359155291E+01 -0.27357733494E+02  0.95252271094E+02  0.90487942697E+02 0.  0.
         13    1    3    3    0    0 -0.44454656492E+02 -0.87017332032E+01 -0.35359516683E+02  0.57465147947E+02  0.10566000000E+00 0. -1.
         22    1    1    0    0    0  0.75253708754E+01  0.89359155291E+01  0.27357733494E+02  0.29747728906E+02  0.00000000000E+00 0. -1.
</event>
<event>
 5    1  0.2295636E-004  0.9118800E+02  0.7818608E-02  0.1130116E+00
         25   -1    0    0    0    0  0.00000000000E+00  0.00000000000E+00  0.99999998245E-14  0.12500000000E+03  0.12500000000E+03 0.  0.
        -13    1    3    3    0    0 -0.15869004732E+02  0.17974539926E+02 -0.19491099227E+02  0.30900218605E+02  0.10566000000E+00 0.  1.
         23    2    1    0    0    0  0.32399561897E+02  0.77599560045E+01  0.12178955299E+02  0.89527821036E+02  0.82200701085E+02 0.  0.
         13    1    3    3    0    0  0.48268566628E+02 -0.10214583921E+02  0.31670054526E+02  0.58627602431E+02  0.10566000000E+00 0. -1.
         22    1    1    0    0    0 -0.32399561897E+02 -0.77599560045E+01 -0.12178955299E+02  0.35472178964E+02  0.00000000000E+00 0. -1.
</event>
<event>
 5    1  0.2295636E-004  0.9118800E+02  0.7818608E-02  0.1130116E+00
         25   -1    0    0    0    0  0.00000000000E+00  0.00000000000E+00  0.99999998245E-14  0.12500000000E+03  0.12500000000E+03 0.  0.
        -13    1    3    3    0    0  0.82969903923E+01 -0.27277108023E+02  0.23539674665E+02  0.36973072891E+02  0.10566000000E+00 0.  1.
         23    2    1    0    0    0 -0.25485300317E+02  0.37650187916E+01 -0.13479558961E+02  0.95924676983E+02  0.91412084791E+02 0.  0.
         13    1    3    3    0    0 -0.33782290709E+02  0.31042126814E+02 -0.37019233626E+02  0.58951604092E+02  0.10566000000E+00 0. -1.
         22    1    1    0    0    0  0.25485300317E+02 -0.37650187916E+01  0.13479558961E+02  0.29075323017E+02  0.00000000000E+00 0. -1.
</event>
<event>
 5    1  0.2295636E-004  0.9118800E+02  0.7818608E-02  0.1130116E+00
         25   -1    0    0    0    0  0.00000000000E+00  0.00000000000E+00  0.99999998245E-14  0.12500000000E+03  0.12500000000E+03 0.  0.
        -13    1    3    3    0    0 -0.19233927823E+02  0.31879904096E+02 -0.37889614982E+02  0.53121618501E+02  0.10566000000E+00 0.  1.
         23    2    1    0    0    0 -0.25484896967E+02 -0.23382546920E+01 -0.10746227716E+02  0.97243400451E+02  0.93197908307E+02 0.  0.
         13    1    3    3    0    0 -0.62509691433E+01 -0.34218158788E+02  0.27143387266E+02  0.44121781950E+02  0.10566000000E+00 0. -1.
         22    1    1    0    0    0  0.25484896967E+02  0.23382546920E+01  0.10746227716E+02  0.27756599549E+02  0.00000000000E+00 0.  1.
</event>
<event>
 5    1  0.2295636E-004  0.9118800E+02  0.7818608E-02  0.1130116E+00
         25   -1    0    0    0    0  0.00000000000E+00  0.00000000000E+00  0.99999998245E-14  0.12500000000E+03  0.12500000000E+03 0.  0.
        -13    1    3    3    0    0  0.13915123646E+02 -0.59191204141E+02  0.76395929754E+01  0.61282981803E+02  0.10566000000E+00 0. -1.
         23    2    1    0    0    0  0.14874227757E+02 -0.25744418656E+02  0.50277524542E+01  0.94845464055E+02  0.89924223732E+02 0.  0.
         13    1    3    3    0    0  0.95910411056E+00  0.33446785485E+02 -0.26118405212E+01  0.33562482252E+02  0.10566000000E+00 0.  1.
         22    1    1    0    0    0 -0.14874227757E+02  0.25744418656E+02 -0.50277524542E+01  0.30154535945E+02  0.00000000000E+00 0. -1.
</event>
<event>
 5    1  0.2295636E-004  0.9118800E+02  0.7818608E-02  0.1130116E+00
         25   -1    0    0    0    0  0.00000000000E+00  0.00000000000E+00  0.99999998245E-14  0.12500000000E+03  0.12500000000E+03 0.  0.
        -13    1    3    3    0    0  0.77767012111E+01  0.22551012872E+01 -0.53902509435E+02  0.54507377950E+02  0.10566000000E+00 0.  1.
         23    2    1    0    0    0 -0.10348489693E+02  0.17288474349E+02 -0.34620246274E+02  0.84943239818E+02  0.74905339959E+02 0.  0.
         13    1    3    3    0    0 -0.18125190905E+02  0.15033373062E+02  0.19282263162E+02  0.30435861868E+02  0.10566000000E+00 0. -1.
         22    1    1    0    0    0  0.10348489693E+02 -0.17288474349E+02  0.34620246274E+02  0.40056760182E+02  0.00000000000E+00 0.  1.
</event>
<event>
 5    1  0.2295636E-004  0.9118800E+02  0.7818608E-02  0.1130116E+00
         25   -1    0    0    0    0  0.00000000000E+00  0.00000000000E+00  0.99999998245E-14  0.12500000000E+03  0.12500000000E+03 0.  0.
        -13    1    3    3    0    0  0.20113129075E+02 -0.31666531729E+02  0.18357125842E+02  0.41764846775E+02  0.10566000000E+00 0.  1.
         23    2    1    0    0    0  0.23543233677E+02  0.68685669843E+01 -0.17782846146E+02  0.94706590132E+02  0.89730973097E+02 0.  0.
         13    1    3    3    0    0  0.34301046017E+01  0.38535098713E+02 -0.36139971988E+02  0.52941743357E+02  0.10566000000E+00 0. -1.
         22    1    1    0    0    0 -0.23543233677E+02 -0.68685669843E+01  0.17782846146E+02  0.30293409868E+02  0.00000000000E+00 0. -1.
</event>
<event>
 5    1  0.2295636E-004  0.9118800E+02  0.7818608E-02  0.1130116E+00
         25   -1    0    0    0    0  0.00000000000E+00  0.00000000000E+00  0.99999998245E-14  0.12500000000E+03  0.12500000000E+03 0.  0.
        -13    1    3    3    0    0 -0.20558786697E+02  0.13802594715E+02  0.54424923391E+02  0.59793467716E+02  0.10566000000E+00 0.  1.
         23    2    1    0    0    0 -0.53242250477E+01 -0.49744294863E+01  0.29865098929E+02  0.94258880061E+02  0.89105106561E+02 0.  0.
         13    1    3    3    0    0  0.15234561649E+02 -0.18777024201E+02 -0.24559824462E+02  0.34465412345E+02  0.10566000000E+00 0. -1.
         22    1    1    0    0    0  0.53242250477E+01  0.49744294863E+01 -0.29865098929E+02  0.30741119939E+02  0.00000000000E+00 0.  1.
</event>
<event>
 5    1  0.2295636E-004  0.9118800E+02  0.7818608E-02  0.1130116E+00
         25   -1    0    0    0    0  0.00000000000E+00  0.00000000000E+00  0.99999998245E-14  0.12500000000E+03  0.12500000000E+03 0.  0.
        -13    1    3    3    0    0 -0.53808007632E+01 -0.26089355912E+02 -0.33476534806E+02  0.42781971150E+02  0.10566000000E+00 0.  1.
         23    2    1    0    0    0  0.63345203751E+01 -0.21306437674E+02  0.18378045490E+02  0.96158311582E+02  0.91731008365E+02 0.  0.
         13    1    3    3    0    0  0.11715321138E+02  0.47829182382E+01  0.51854580296E+02  0.53376340433E+02  0.10566000000E+00 0. -1.
         22    1    1    0    0    0 -0.63345203751E+01  0.21306437674E+02 -0.18378045490E+02  0.28841688418E+02  0.00000000000E+00 0. -1.
</event>
<event>
 5    1  0.2295636E-004  0.9118800E+02  0.7818608E-02  0.1130116E+00
         25   -1    0    0    0    0  0.00000000000E+00  0.00000000000E+00  0.99999998245E-14  0.12500000000E+03  0.12500000000E+03 0.  0.
        -13    1    3    3    0    0 -0.24319912431E+02  0.77746156204E+01  0.16373323729E+02  0.30331496546E+02  0.10566000000E+00 0. -1.
         23    2    1    0    0    0  0.32939982610E+02  0.34540487262E+01 -0.47998339519E+01  0.91533429920E+02  0.85195994506E+02 0.  0.
         13    1    3    3    0    0  0.57259895042E+02 -0.43205668942E+01 -0.21173157681E+02  0.61201933374E+02  0.10566000000E+00 0.  1.
         22    1    1    0    0    0 -0.32939982610E+02 -0.34540487262E+01  0.47998339519E+01  0.33466570080E+02  0.00000000000E+00 0.  1.
</event>
<event>
 5    1  0.2295636E-004  0.9118800E+02  0.7818608E-02  0.1130116E+00
         25   -1    0    0    0    0  0.00000000000E+00  0.00000000000E+00  0.99999998245E-14  0.12500000000E+03  0.12500000000E+03 0.  0.
        -13    1    3    3    0    0  0.36816227213E+02 -0.85546010340E+01 -0.37813529717E+02  0.53464848066E+02  0.10566000000E+00 0. -1.
         23    2    1    0    0    0  0.35387990439E+01  0.14677307063E+02 -0.24581542215E+02  0.96152146372E+02  0.91722606772E+02 0.  0.
         13    1    3    3    0    0 -0.33277428169E+02  0.23231908097E+02  0.13231987502E+02  0.42687298306E+02  0.10566000000E+00 0.  1.
         22    1    1    0    0    0 -0.35387990439E+01 -0.14677307063E+02  0.24581542215E+02  0.28847853628E+02  0.00000000000E+00 0. -1.
</event>
<event>
 5    1  0.2295636E-004  0.9118800E+02  0.7818608E-02  0.1130116E+00
         25   -1    0    0    0    0  0.00000000000E+00  0.00000000000E+00  0.99999998245E-14  0.12500000000E+03  0.12500000000E+03 0.  0.
        -13    1    3    3    0    0  0.43914657334E+02 -0.60940784809E+01  0.42705378634E+02  0.61558065674E+02  0.10566000000E+00 0. -1.
         23    2    1    0    0    0  0.33247857495E+02 -0.41074825182E+01  0.22038429039E+02  0.84900326745E+02  0.74833693523E+02 0.  0.
         13    1    3    3    0    0 -0.10666799839E+02  0.19865959627E+01 -0.20666949594E+02  0.23342261071E+02  0.10566000000E+00 0.  1.
         22    1    1    0    0    0 -0.33247857495E+02  0.41074825182E+01 -0.22038429039E+02  0.40099673255E+02  0.00000000000E+00 0. -1.
</event>
<event>
 5    1  0.2295636E-004  0.9118800E+02  0.7818608E-02  0.1130116E+00
         25   -1    0    0    0    0  0.00000000000E+00  0.00000000000E+00  0.99999998245E-14  0.12500000000E+03  0.12500000000E+03 0.  0.
        -13    1    3    3    0    0  0.87899771475E+01 -0.26714038488E+02  0.25315136350E+02  0.37838747905E+02  0.10566000000E+00 0.  1.
         23    2    1    0    0    0 -0.27244417037E+02  0.87170350005E+01 -0.37718211683E+01  0.96147416167E+02  0.91716160200E+02 0.  0.
         13    1    3    3    0    0 -0.36034394185E+02  0.35431073488E+02 -0.29086957518E+02  0.58308668262E+02  0.10566000000E+00 0. -1.
         22    1    1    0    0    0  0.27244417037E+02 -0.87170350005E+01  0.37718211683E+01  0.28852583833E+02  0.00000000000E+00 0. -1.
</event>
<event>
 5    1  0.2295636E-004  0.9118800E+02  0.7818608E-02  0.1130116E+00
         25   -1    0    0    0    0  0.00000000000E+00  0.00000000000E+00  0.99999998245E-14  0.12500000000E+03  0.12500000000E+03 0.  0.
        -13    1    3    3    0    0  0.54769542319E+01 -0.75360815009E+01 -0.34294991982E+02  0.35537968303E+02  0.10566000000E+00 0. -1.
         23    2    1    0    0    0  0.29755416860E+01  0.25927102831E+02  0.14794561251E+02  0.95000874144E+02  0.90139994098E+02 0.  0.
         13    1    3    3    0    0 -0.25014125458E+01  0.33463184332E+02  0.49089553233E+02  0.59462905841E+02  0.10566000000E+00 0.  1.
         22    1    1    0    0    0 -0.29755416860E+01 -0.25927102831E+02 -0.14794561251E+02  0.29999125856E+02  0.00000000000E+00 0.  1.
</event>
<event>
 5    1  0.2295636E-004  0.9118800E+02  0.7818608E-02  0.1130116E+00
         25   -1    0    0    0    0  0.00000000000E+00  0.00000000000E+00  0.99999998245E-14  0.12500000000E+03  0.12500000000E+03 0.  0.
        -13    1    3    3    0    0  0.18572119150E+01 -0.13232661854E+02 -0.49432574935E+02  0.51206866771E+02  0.10566000000E+00 0.  1.
         23    2    1    0    0    0  0.26442163853E+00  0.20728553716E+02 -0.20414404615E+02  0.95905485504E+02  0.91385837940E+02 0.  0.
         13    1    3    3    0    0 -0.15927902764E+01  0.33961215570E+02  0.29018170320E+02  0.44698618733E+02  0.10566000000E+00 0. -1.
         22    1    1    0    0    0 -0.26442163853E+00 -0.20728553716E+02  0.20414404615E+02  0.29094514496E+02  0.00000000000E+00 0.  1.
</event>
<event>
 5    1  0.2295636E-004  0.9118800E+02  0.7818608E-02  0.1130116E+00
         25   -1    0    0    0    0  0.00000000000E+00  0.00000000000E+00  0.99999998245E-14  0.12500000000E+03  0.12500000000E+03 0.  0.
        -13    1    3    3    0    0  0.24874424039E+02 -0.10744772377E+01 -0.39967939691E+02  0.47088627500E+02  0.10566000000E+00 0.  1.
         23    2    1    0    0    0 -0.62062730614E+01 -0.26051148818E+02 -0.12951252700E+02  0.95252476967E+02  0.90488227090E+02 0.  0.
         13    1    3    3    0    0 -0.31080697101E+02 -0.24976671581E+02  0.27016686991E+02  0.48163849468E+02  0.10566000000E+00 0. -1.
         22    1    1    0    0    0  0.62062730614E+01  0.26051148818E+02  0.12951252700E+02  0.29747523033E+02  0.00000000000E+00 0. -1.
</event>
<event>
 5    1  0.2295636E-004  0.9118800E+02  0.7818608E-02  0.1130116E+00
         25   -1    0    0    0    0  0.00000000000E+00  0.00000000000E+00  0.99999998245E-14  0.12500000000E+03  0.12500000000E+03 0.  0.
        -13    1    3    3    0    0 -0.21327675849E+02 -0.49117376205E+02 -0.27402919877E+02  0.60152452852E+02  0.10566000000E+00 0. -1.
         23    2    1    0    0    0 -0.31019918429E+01 -0.17803043681E+02 -0.21585198011E+02  0.96848774612E+02  0.92667112035E+02 0.  0.
         13    1    3    3    0    0  0.18225684006E+02  0.31314332524E+02  0.58177218655E+01  0.36696321759E+02  0.10566000000E+00 0.  1.
         22    1    1    0    0    0  0.31019918429E+01  0.17803043681E+02  0.21585198011E+02  0.28151225388E+02  0.00000000000E+00 0. -1.
</event>
<event>
 5    1  0.2295636E-004  0.9118800E+02  0.7818608E-02  0.1130116E+00
         25   -1    0    0    0    0  0.00000000000E+00  0.00000000000E+00  0.99999998245E-14  0.12500000000E+03  0.12500000000E+03 0.  0.
        -13    1    3    3    0    0  0.15691074168E+02  0.45367831317E+02  0.27008254007E+02  0.55080912080E+02  0.10566000000E+00 0. -1.
         23    2    1    0    0    0  0.31679845237E+01  0.87777518228E+01  0.29719556510E+02  0.93849765776E+02  0.88529325334E+02 0.  0.
         13    1    3    3    0    0 -0.12523089644E+02 -0.36590079495E+02  0.27113025035E+01  0.38768853697E+02  0.10566000000E+00 0.  1.
         22    1    1    0    0    0 -0.31679845237E+01 -0.87777518228E+01 -0.29719556510E+02  0.31150234224E+02  0.00000000000E+00 0. -1.
</event>
<event>
 5    1  0.2295636E-004  0.9118800E+02  0.7818608E-02  0.1130116E+00
         25   -1    0    0    0    0  0.00000000000E+00  0.00000000000E+00  0.99999998245E-14  0.12500000000E+03  0.12500000000E+03 0.  0.
        -13    1    3    3    0    0  0.21991931321E+02  0.46380105412E+02  0.66066976117E+01  0.51753442771E+02  0.10566000000E+00 0. -1.
         23    2    1    0    0    0  0.16340855556E+02  0.12591087521E+02 -0.20859384032E+02  0.95662771988E+02  0.91053242649E+02 0.  0.
         13    1    3    3    0    0 -0.56510757647E+01 -0.33789017891E+02 -0.27466081644E+02  0.43909329217E+02  0.10566000000E+00 0.  1.
         22    1    1    0    0    0 -0.16340855556E+02 -0.12591087521E+02  0.20859384032E+02  0.29337228012E+02  0.00000000000E+00 0. -1.
</event>
<event>
 5    1  0.2295636E-004  0.9118800E+02  0.7818608E-02  0.1130116E+00
         25   -1    0    0    0    0  0.00000000000E+00  0.00000000000E+00  0.99999998245E-14  0.12500000000E+03  0.12500000000E+03 0.  0.
        -13    1    3    3    0    0  0.83220358260E+01  0.12889557615E+02 -0.50757008472E+02  0.53025296311E+02  0.10566000000E+00 0. -1.
         23    2    1    0    0    0  0.72585253995E+01  0.26469463394E+02 -0.10349826246E+02  0.95666783561E+02  0.91058749664E+02 0.  0.
         13    1    3    3    0    0 -0.10635104265E+01  0.13579905779E+02  0.40407182227E+02  0.42641487250E+02  0.10566000000E+00 0.  1.
         22    1    1    0    0    0 -0.72585253995E+01 -0.26469463394E+02  0.10349826246E+02  0.29333216439E+02  0.00000000000E+00 0. -1.
</event>
<event>
 5    1  0.2295636E-004  0.9118800E+02  0.7818608E-02  0.1130116E+00
         25   -1    0    0    0    0  0.00000000000E+00  0.00000000000E+00  0.99999998245E-14  0.12500000000E+03  0.12500000000E+03 0.  0.
        -13    1    3    3    0    0  0.70634574435E+01 -0.53504994848E+02  0.11219928063E+02  0.55123269628E+02  0.10566000000E+00 0.  1.
         23    2    1    0    0    0  0.22820822661E+02 -0.15186719409E+02  0.65392992198E+01  0.96818643971E+02  0.92626459464E+02 0.  0.
         13    1    3    3    0    0  0.15757365217E+02  0.38318275439E+02 -0.46806288430E+01  0.41695374343E+02  0.10566000000E+00 0. -1.
         22    1    1    0    0    0 -0.22820822661E+02  0.15186719409E+02 -0.65392992198E+01  0.28181356029E+02  0.00000000000E+00 0. -1.
</event>
<event>
 5    1  0.2295636E-004  0.9118800E+02  0.7818608E-02  0.1130116E+00
         25   -1    0    0    0    0  0.00000000000E+00  0.00000000000E+00  0.99999998245E-14  0.12500000000E+03  0.12500000000E+03 0.  0.
        -13    1    3    3    0    0 -0.22185572478E+02  0.17026384193E+02  0.22576601879E+02  0.35941779329E+02  0.10566000000E+00 0.  1.
         23    2    1    0    0    0  0.58243320895E+01 -0.26014208230E+02 -0.97418869136E+01  0.96617501260E+02  0.92354617183E+02 0.  0.
         13    1    3    3    0    0  0.28009904568E+02 -0.43040592422E+02 -0.32318488793E+02  0.60675721931E+02  0.10566000000E+00 0. -1.
         22    1    1    0    0    0 -0.58243320895E+01  0.26014208230E+02  0.97418869136E+01  0.28382498740E+02  0.00000000000E+00 0. -1.
</event>
<event>
 5    1  0.2295636E-004  0.9118800E+02  0.7818608E-02  0.1130116E+00
         25   -1    0    0    0    0  0.00000000000E+00  0.00000000000E+00  0.99999998245E-14  0.12500000000E+03  0.12500000000E+03 0.  0.
        -13    1    3    3    0    0 -0.52753182860E+02  0.24830213007E+02  0.47126207512E+01  0.58494937714E+02  0.10566000000E+00 0.  1.
         23    2    1    0    0    0 -0.17911484922E+02  0.22784617215E+02 -0.67710670899E+01  0.95237482914E+02  0.90467512006E+02 0.  0.
         13    1    3    3    0    0  0.34841697937E+02 -0.20455957921E+01 -0.11483687841E+02  0.36742545200E+02  0.10566000000E+00 0. -1.
         22    1    1    0    0    0  0.17911484922E+02 -0.22784617215E+02  0.67710670899E+01  0.29762517086E+02  0.00000000000E+00 0.  1.
</event>
<event>
 5    1  0.2295636E-004  0.9118800E+02  0.7818608E-02  0.1130116E+00
         25   -1    0    0    0    0  0.00000000000E+00  0.00000000000E+00  0.99999998245E-14  0.12500000000E+03  0.12500000000E+03 0.  0.
        -13    1    3    3    0    0 -0.34707131630E+02  0.42877467573E+02  0.16392425573E+02  0.57548110235E+02  0.10566000000E+00 0.  1.
         23    2    1    0    0    0  0.75865168888E+00  0.26138995548E+02  0.51198240181E+01  0.98353513578E+02  0.94675120251E+02 0.  0.
         13    1    3    3    0    0  0.35465783319E+02 -0.16738472025E+02 -0.11272601555E+02  0.40805403343E+02  0.10566000000E+00 0. -1.
         22    1    1    0    0    0 -0.75865168888E+00 -0.26138995548E+02 -0.51198240181E+01  0.26646486422E+02  0.00000000000E+00 0.  1.
</event>
<event>
 5    1  0.2295636E-004  0.9118800E+02  0.7818608E-02  0.1130116E+00
         25   -1    0    0    0    0  0.00000000000E+00  0.00000000000E+00  0.99999998245E-14  0.12500000000E+03  0.12500000000E+03 0.  0.
        -13    1    3    3    0    0 -0.25212094321E+02 -0.18574037533E+02  0.14466015899E+02  0.34495236633E+02  0.10566000000E+00 0.  1.
         23    2    1    0    0    0  0.23940264428E+02  0.15279427246E+02 -0.23516703301E+01  0.96502149008E+02  0.92198358184E+02 0.  0.
         13    1    3    3    0    0  0.49152358748E+02  0.33853464780E+02 -0.16817686229E+02  0.62006912375E+02  0.10566000000E+00 0. -1.
         22    1    1    0    0    0 -0.23940264428E+02 -0.15279427246E+02  0.23516703301E+01  0.28497850992E+02  0.00000000000E+00 0. -1.
</event>
<event>
 5    1  0.2295636E-004  0.9118800E+02  0.7818608E-02  0.1130116E+00
         25   -1    0    0    0    0  0.00000000000E+00  0.00000000000E+00  0.99999998245E-14  0.12500000000E+03  0.12500000000E+03 0.  0.
        -13    1    3    3    0    0 -0.37666528215E+02 -0.14969258631E+02 -0.14272923894E+02  0.42971776461E+02  0.10566000000E+00 0. -1.
         23    2    1    0    0    0 -0.12584121760E+02  0.27664539510E+02  0.52663615647E+00  0.94603220361E+02  0.89586857799E+02 0.  0.
         13    1    3    3    0    0  0.25082406455E+02  0.42633798141E+02  0.14799560050E+02  0.51631443900E+02  0.10566000000E+00 0.  1.
         22    1    1    0    0    0  0.12584121760E+02 -0.27664539510E+02 -0.52663615647E+00  0.30396779639E+02  0.00000000000E+00 0.  1.
</event>
<event>
 5    1  0.2295636E-004  0.9118800E+02  0.7818608E-02  0.1130116E+00
         25   -1    0    0    0    0  0.00000000000E+00  0.00000000000E+00  0.99999998245E-14  0.12500000000E+03  0.12500000000E+03 0.  0.
        -13    1    3    3    0    0 -0.36353833308E+02  0.33038109407E+02 -0.71870708968E+01  0.49646581166E+02  0.10566000000E+00 0. -1.
         23    2    1    0    0    0  0.45255389149E+01  0.16997122045E+02 -0.22755781101E+02  0.96238772040E+02  0.91840584765E+02 0.  0.
         13    1    3    3    0    0  0.40879372223E+02 -0.16040987362E+02 -0.15568710204E+02  0.46592190873E+02  0.10566000000E+00 0.  1.
         22    1    1    0    0    0 -0.45255389149E+01 -0.16997122045E+02  0.22755781101E+02  0.28761227960E+02  0.00000000000E+00 0. -1.
</event>
<event>
 5    1  0.2295636E-004  0.9118800E+02  0.7818608E-02  0.1130116E+00
         25   -1    0    0    0    0  0.00000000000E+00  0.00000000000E+00  0.99999998245E-14  0.12500000000E+03  0.12500000000E+03 0.  0.
        -13    1    3    3    0    0  0.34569006489E+02 -0.10241657825E+01 -0.24227946144E+02  0.42226409551E+02  0.10566000000E+00 0. -1.
         23    2    1    0    0    0  0.13004519694E+02  0.23770142144E+02  0.15501258770E+02  0.93784199297E+02  0.88436699533E+02 0.  0.
         13    1    3    3    0    0 -0.21564486795E+02  0.24794307927E+02  0.39729204915E+02  0.51557789746E+02  0.10566000000E+00 0.  1.
         22    1    1    0    0    0 -0.13004519694E+02 -0.23770142144E+02 -0.15501258770E+02  0.31215800703E+02  0.00000000000E+00 0.  1.
</event>
<event>
 5    1  0.2295636E-004  0.9118800E+02  0.7818608E-02  0.1130116E+00
         25   -1    0    0    0    0  0.00000000000E+00  0.00000000000E+00  0.99999998245E-14  0.12500000000E+03  0.12500000000E+03 0.  0.
        -13    1    3    3    0    0 -0.32193578939E+02  0.39935340329E+02  0.26478536269E+02  0.57726787361E+02  0.10566000000E+00 0. -1.
         23    2    1    0    0    0 -0.22987983836E+02  0.38666358228E+01  0.36206868207E+01  0.10140958571E+03  0.98627564235E+02 0.  0.
         13    1    3    3    0    0  0.92055951028E+01 -0.36068704506E+02 -0.22857849449E+02  0.43682798347E+02  0.10566000000E+00 0.  1.
         22    1    1    0    0    0  0.22987983836E+02 -0.38666358228E+01 -0.36206868207E+01  0.23590414292E+02  0.00000000000E+00 0. -1.
</event>
<event>
 5    1  0.2295636E-004  0.9118800E+02  0.7818608E-02  0.1130116E+00
         25   -1    0    0    0    0  0.00000000000E+00  0.00000000000E+00  0.99999998245E-14  0.12500000000E+03  0.12500000000E+03 0.  0.
        -13    1    3    3    0    0 -0.26238816720E+02  0.27632092168E+02 -0.43149354547E+02  0.57566361552E+02  0.10566000000E+00 0.  1.
         23    2    1    0    0    0 -0.19482851471E+01  0.35515439805E+01 -0.30805057042E+02  0.93929743821E+02  0.88642179324E+02 0.  0.
         13    1    3    3    0    0  0.24290531573E+02 -0.24080548187E+02  0.12344297506E+02  0.36363382269E+02  0.10566000000E+00 0. -1.
         22    1    1    0    0    0  0.19482851471E+01 -0.35515439805E+01  0.30805057042E+02  0.31070256179E+02  0.00000000000E+00 0.  1.
</event>
<event>
 5    1  0.2295636E-004  0.9118800E+02  0.7818608E-02  0.1130116E+00
         25   -1    0    0    0    0  0.00000000000E+00  0.00000000000E+00  0.99999998245E-14  0.12500000000E+03  0.12500000000E+03 0.  0.
        -13    1    3    3    0    0  0.64601904118E+01 -0.11792119590E+02  0.28027498904E+02  0.31086009770E+02  0.10566000000E+00 0. -1.
         23    2    1    0    0    0  0.19761567851E+01  0.72873801187E+01 -0.30901751742E+02  0.93189162769E+02  0.87591613138E+02 0.  0.
         13    1    3    3    0    0 -0.44840336268E+01  0.19079499709E+02 -0.58929250646E+02  0.62103152999E+02  0.10566000000E+00 0.  1.
         22    1    1    0    0    0 -0.19761567851E+01 -0.72873801187E+01  0.30901751742E+02  0.31810837231E+02  0.00000000000E+00 0.  1.
</event>
<event>
 5    1  0.2295636E-004  0.9118800E+02  0.7818608E-02  0.1130116E+00
         25   -1    0    0    0    0  0.00000000000E+00  0.00000000000E+00  0.99999998245E-14  0.12500000000E+03  0.12500000000E+03 0.  0.
        -13    1    3    3    0    0 -0.44132282001E-02 -0.17105527700E+02  0.31251001504E+02  0.35626329538E+02  0.10566000000E+00 0. -1.
         23    2    1    0    0    0 -0.63978815419E+01  0.28001556885E+02 -0.73640735246E+01  0.95347855810E+02  0.90619887180E+02 0.  0.
         13    1    3    3    0    0 -0.63934683137E+01  0.45107084584E+02 -0.38615075028E+02  0.59721526272E+02  0.10566000000E+00 0.  1.
         22    1    1    0    0    0  0.63978815419E+01 -0.28001556885E+02  0.73640735246E+01  0.29652144190E+02  0.00000000000E+00 0.  1.
</event>
<event>
 5    1  0.2295636E-004  0.9118800E+02  0.7818608E-02  0.1130116E+00
         25   -1    0    0    0    0  0.00000000000E+00  0.00000000000E+00  0.99999998245E-14  0.12500000000E+03  0.12500000000E+03 0.  0.
        -13    1    3    3    0    0 -0.18645440122E+02 -0.24060783069E+02  0.33338009927E+02  0.45144299631E+02  0.10566000000E+00 0.  1.
         23    2    1    0    0    0 -0.15074260334E+02  0.21832695156E+02  0.12063669356E+02  0.95854982918E+02  0.91316733020E+02 0.  0.
         13    1    3    3    0    0  0.35711797878E+01  0.45893478225E+02 -0.21274340571E+02  0.50710683287E+02  0.10566000000E+00 0. -1.
         22    1    1    0    0    0  0.15074260334E+02 -0.21832695156E+02 -0.12063669356E+02  0.29145017082E+02  0.00000000000E+00 0. -1.
</event>
<event>
 5    1  0.2295636E-004  0.9118800E+02  0.7818608E-02  0.1130116E+00
         25   -1    0    0    0    0  0.00000000000E+00  0.00000000000E+00  0.99999998245E-14  0.12500000000E+03  0.12500000000E+03 0.  0.
        -13    1    3    3    0    0  0.22486160947E+01  0.23764474156E+01 -0.34028070410E+02  0.34185150527E+02  0.10566000000E+00 0. -1.
         23    2    1    0    0    0  0.64065271907E+00 -0.11065033822E+02  0.26535212196E+02  0.96243037440E+02  0.91846390021E+02 0.  0.
         13    1    3    3    0    0 -0.16079633756E+01 -0.13441481238E+02  0.60563282606E+02  0.62057886913E+02  0.10566000000E+00 0.  1.
         22    1    1    0    0    0 -0.64065271907E+00  0.11065033822E+02 -0.26535212196E+02  0.28756962560E+02  0.00000000000E+00 0.  1.
</event>
<event>
 5    1  0.2295636E-004  0.9118800E+02  0.7818608E-02  0.1130116E+00
         25   -1    0    0    0    0  0.00000000000E+00  0.00000000000E+00  0.99999998245E-14  0.12500000000E+03  0.12500000000E+03 0.  0.
        -13    1    3    3    0    0  0.15038773908E+02  0.30370827677E+02  0.13224559464E+02  0.36379280250E+02  0.10566000000E+00 0. -1.
         23    2    1    0    0    0 -0.13949580969E+02 -0.20103230233E+02  0.17764751613E+02  0.94762323586E+02  0.89808579192E+02 0.  0.
         13    1    3    3    0    0 -0.28988354877E+02 -0.50474057910E+02  0.45401921494E+01  0.58383043336E+02  0.10566000000E+00 0.  1.
         22    1    1    0    0    0  0.13949580969E+02  0.20103230233E+02 -0.17764751613E+02  0.30237676414E+02  0.00000000000E+00 0.  1.
</event>
<event>
 5    1  0.2295636E-004  0.9118800E+02  0.7818608E-02  0.1130116E+00
         25   -1    0    0    0    0  0.00000000000E+00  0.00000000000E+00  0.99999998245E-14  0.12500000000E+03  0.12500000000E+03 0.  0.
        -13    1    3    3    0    0 -0.27087313428E+01 -0.39733911569E+02  0.15401719178E+01  0.39856044054E+02  0.10566000000E+00 0.  1.
         23    2    1    0    0    0  0.23770527025E+02  0.49959508708E+01 -0.17336913703E+02  0.95157646592E+02  0.90357133908E+02 0.  0.
         13    1    3    3    0    0  0.26479258368E+02  0.44729862440E+02 -0.18877085621E+02  0.55301602538E+02  0.10566000000E+00 0. -1.
         22    1    1    0    0    0 -0.23770527025E+02 -0.49959508708E+01  0.17336913703E+02  0.29842353408E+02  0.00000000000E+00 0. -1.
</event>
<event>
 5    1  0.2295636E-004  0.9118800E+02  0.7818608E-02  0.1130116E+00
         25   -1    0    0    0    0  0.00000000000E+00  0.00000000000E+00  0.99999998245E-14  0.12500000000E+03  0.12500000000E+03 0.  0.
        -13    1    3    3    0    0 -0.36018880836E+02 -0.41118376648E+01  0.29026651700E+02  0.46441626356E+02  0.10566000000E+00 0.  1.
         23    2    1    0    0    0  0.33167623759E+01  0.23876973351E+02  0.14552313555E+02  0.96841864428E+02  0.92657790320E+02 0.  0.
         13    1    3    3    0    0  0.39335643212E+02  0.27988811016E+02 -0.14474338144E+02  0.50400238072E+02  0.10566000000E+00 0. -1.
         22    1    1    0    0    0 -0.33167623759E+01 -0.23876973351E+02 -0.14552313555E+02  0.28158135572E+02  0.00000000000E+00 0.  1.
</event>
<event>
 5    1  0.2295636E-004  0.9118800E+02  0.7818608E-02  0.1130116E+00
         25   -1    0    0    0    0  0.00000000000E+00  0.00000000000E+00  0.99999998245E-14  0.12500000000E+03  0.12500000000E+03 0.  0.
        -13    1    3    3    0    0  0.14757480611E+02 -0.30584501003E+02 -0.16436621457E+02  0.37727557893E+02  0.10566000000E+00 0. -1.
         23    2    1    0    0    0 -0.24101945735E+02 -0.25884714584E+00  0.15390721283E+02  0.96402008957E+02  0.92062490947E+02 0.  0.
         13    1    3    3    0    0 -0.38859426346E+02  0.30325653858E+02  0.31827342739E+02  0.58674451065E+02  0.10566000000E+00 0.  1.
         22    1    1    0    0    0  0.24101945735E+02  0.25884714584E+00 -0.15390721283E+02  0.28597991043E+02  0.00000000000E+00 0.  1.
</event>
<event>
 5    1  0.2295636E-004  0.9118800E+02  0.7818608E-02  0.1130116E+00
         25   -1    0    0    0    0  0.00000000000E+00  0.00000000000E+00  0.99999998245E-14  0.12500000000E+03  0.12500000000E+03 0.  0.
        -13    1    3    3    0    0  0.44032150978E+01 -0.31634483164E+02 -0.14527792383E+02  0.35088413241E+02  0.10566000000E+00 0. -1.
         23    2    1    0    0    0  0.15384184845E+02  0.25642494518E+02 -0.40648813739E+00  0.95093881880E+02  0.90268878745E+02 0.  0.
         13    1    3    3    0    0  0.10980969747E+02  0.57276977681E+02  0.14121304245E+02  0.60005468638E+02  0.10566000000E+00 0.  1.
         22    1    1    0    0    0 -0.15384184845E+02 -0.25642494518E+02  0.40648813739E+00  0.29906118120E+02  0.00000000000E+00 0.  1.
</event>
<event>
 5    1  0.2295636E-004  0.9118800E+02  0.7818608E-02  0.1130116E+00
         25   -1    0    0    0    0  0.00000000000E+00  0.00000000000E+00  0.99999998245E-14  0.12500000000E+03  0.12500000000E+03 0.  0.
        -13    1    3    3    0    0 -0.13523322911E+02  0.10361476126E+02  0.23716952647E+01  0.17201062541E+02  0.10566000000E+00 0. -1.
         23    2    1    0    0    0 -0.12301752049E+02 -0.47024113491E+02 -0.85986654088E+01  0.75638705447E+02  0.57312096121E+02 0.  0.
         13    1    3    3    0    0  0.12215708620E+01 -0.57385589618E+02 -0.10970360674E+02  0.58437642907E+02  0.10566000000E+00 0.  1.
         22    1    1    0    0    0  0.12301752049E+02  0.47024113491E+02  0.85986654088E+01  0.49361294553E+02  0.00000000000E+00 0.  1.
</event>
<event>
 5    1  0.2295636E-004  0.9118800E+02  0.7818608E-02  0.1130116E+00
         25   -1    0    0    0    0  0.00000000000E+00  0.00000000000E+00  0.99999998245E-14  0.12500000000E+03  0.12500000000E+03 0.  0.
        -13    1    3    3    0    0  0.27792627535E+01 -0.10474862312E+02 -0.59879885726E+02  0.60852764280E+02  0.10566000000E+00 0. -1.
         23    2    1    0    0    0  0.10325813428E+02 -0.91139076100E+01 -0.26135313599E+02  0.95457820801E+02  0.90771444851E+02 0.  0.
         13    1    3    3    0    0  0.75465506746E+01  0.13609547020E+01  0.33744572127E+02  0.34605056521E+02  0.10566000000E+00 0.  1.
         22    1    1    0    0    0 -0.10325813428E+02  0.91139076100E+01  0.26135313599E+02  0.29542179199E+02  0.00000000000E+00 0. -1.
</event>
<event>
 5    1  0.2295636E-004  0.9118800E+02  0.7818608E-02  0.1130116E+00
         25   -1    0    0    0    0  0.00000000000E+00  0.00000000000E+00  0.99999998245E-14  0.12500000000E+03  0.12500000000E+03 0.  0.
        -13    1    3    3    0    0 -0.31117981036E+02 -0.39711269763E+02  0.21785334468E+02  0.54953850201E+02  0.10566000000E+00 0.  1.
         23    2    1    0    0    0  0.56483649470E+01 -0.21935111209E+02  0.18188934747E+02  0.95950206928E+02  0.91446988643E+02 0.  0.
         13    1    3    3    0    0  0.36766345983E+02  0.17776158554E+02 -0.35963997208E+01  0.40996356727E+02  0.10566000000E+00 0. -1.
         22    1    1    0    0    0 -0.56483649470E+01  0.21935111209E+02 -0.18188934747E+02  0.29049793072E+02  0.00000000000E+00 0. -1.
</event>
<event>
 5    1  0.2295636E-004  0.9118800E+02  0.7818608E-02  0.1130116E+00
         25   -1    0    0    0    0  0.00000000000E+00  0.00000000000E+00  0.99999998245E-14  0.12500000000E+03  0.12500000000E+03 0.  0.
        -13    1    3    3    0    0 -0.79105868141E+01  0.22248192672E+02  0.31593730655E+02  0.39442799618E+02  0.10566000000E+00 0. -1.
         23    2    1    0    0    0  0.31530130747E+02  0.63985406889E+01 -0.69104580562E+00  0.92819757426E+02  0.87062847165E+02 0.  0.
         13    1    3    3    0    0  0.39440717561E+02 -0.15849651983E+02 -0.32284776461E+02  0.53376957808E+02  0.10566000000E+00 0.  1.
         22    1    1    0    0    0 -0.31530130747E+02 -0.63985406889E+01  0.69104580562E+00  0.32180242574E+02  0.00000000000E+00 0.  1.
</event>
<event>
 5    1  0.2295636E-004  0.9118800E+02  0.7818608E-02  0.1130116E+00
         25   -1    0    0    0    0  0.00000000000E+00  0.00000000000E+00  0.99999998245E-14  0.12500000000E+03  0.12500000000E+03 0.  0.
        -13    1    3    3    0    0 -0.15533787175E+02 -0.58002046176E+02  0.11186122821E+02  0.61079263358E+02  0.10566000000E+00 0.  1.
         23    2    1    0    0    0  0.82253086209E+00 -0.27110914312E+02  0.10121137671E+02  0.96049772719E+02  0.91582985209E+02 0.  0.
         13    1    3    3    0    0  0.16356318037E+02  0.30891131864E+02 -0.10649851501E+01  0.34970509361E+02  0.10566000000E+00 0. -1.
         22    1    1    0    0    0 -0.82253086209E+00  0.27110914312E+02 -0.10121137671E+02  0.28950227281E+02  0.00000000000E+00 0.  1.
</event>
<event>
 5    1  0.2295636E-004  0.9118800E+02  0.7818608E-02  0.1130116E+00
         25   -1    0    0    0    0  0.00000000000E+00  0.00000000000E+00  0.99999998245E-14  0.12500000000E+03  0.12500000000E+03 0.  0.
        -13    1    3    3    0    0  0.27653062027E+02  0.17536943898E+02  0.12530660269E+02  0.35060873514E+02  0.10566000000E+00 0.  1.
         23    2    1    0    0    0 -0.38241911402E+01 -0.27355327961E+02 -0.11697606960E+02  0.95003793335E+02  0.90144042142E+02 0.  0.
         13    1    3    3    0    0 -0.31477253167E+02 -0.44892271860E+02 -0.24228267229E+02  0.59942919820E+02  0.10566000000E+00 0. -1.
         22    1    1    0    0    0  0.38241911402E+01  0.27355327961E+02  0.11697606960E+02  0.29996206665E+02  0.00000000000E+00 0. -1.
</event>
<event>
 5    1  0.2295636E-004  0.9118800E+02  0.7818608E-02  0.1130116E+00
         25   -1    0    0    0    0  0.00000000000E+00  0.00000000000E+00  0.99999998245E-14  0.12500000000E+03  0.12500000000E+03 0.  0.
        -13    1    3    3    0    0 -0.68617617903E+01 -0.16596835236E+02 -0.50510601841E+02  0.53608495382E+02  0.10566000000E+00 0. -1.
         23    2    1    0    0    0  0.10059887072E+02  0.11901568785E+02 -0.25440672487E+02  0.95165850372E+02  0.90368482299E+02 0.  0.
         13    1    3    3    0    0  0.16921648862E+02  0.28498404021E+02  0.25069929354E+02  0.41557354990E+02  0.10566000000E+00 0.  1.
         22    1    1    0    0    0 -0.10059887072E+02 -0.11901568785E+02  0.25440672487E+02  0.29834149628E+02  0.00000000000E+00 0. -1.
</event>
<event>
 5    1  0.2295636E-004  0.9118800E+02  0.7818608E-02  0.1130116E+00
         25   -1    0    0    0    0  0.00000000000E+00  0.00000000000E+00  0.99999998245E-14  0.12500000000E+03  0.12500000000E+03 0.  0.
        -13    1    3    3    0    0  0.64722567783E+01  0.11308008401E+02  0.32281005047E+02  0.34811429340E+02  0.10566000000E+00 0. -1.
         23    2    1    0    0    0 -0.19894219222E+02 -0.34685964719E+01 -0.20872422034E+02  0.95957460140E+02  0.91456902610E+02 0.  0.
         13    1    3    3    0    0 -0.26366476001E+02 -0.14776604873E+02 -0.53153427080E+02  0.61146030801E+02  0.10566000000E+00 0.  1.
         22    1    1    0    0    0  0.19894219222E+02  0.34685964719E+01  0.20872422034E+02  0.29042539860E+02  0.00000000000E+00 0.  1.
</event>
<event>
 5    1  0.2295636E-004  0.9118800E+02  0.7818608E-02  0.1130116E+00
         25   -1    0    0    0    0  0.00000000000E+00  0.00000000000E+00  0.99999998245E-14  0.12500000000E+03  0.12500000000E+03 0.  0.
        -13    1    3    3    0    0  0.44728550085E+02 -0.41103735111E+01 -0.15199641488E+02  0.47419179965E+02  0.10566000000E+00 0. -1.
         23    2    1    0    0    0  0.85512577998E+01 -0.27041676760E+02  0.71765318284E+01  0.95744591935E+02  0.91165497771E+02 0.  0.
         13    1    3    3    0    0 -0.36177292285E+02 -0.22931303249E+02  0.22376173317E+02  0.48325411971E+02  0.10566000000E+00 0.  1.
         22    1    1    0    0    0 -0.85512577998E+01  0.27041676760E+02 -0.71765318284E+01  0.29255408065E+02  0.00000000000E+00 0.  1.
</event>
<event>
 5    1  0.2295636E-004  0.9118800E+02  0.7818608E-02  0.1130116E+00
         25   -1    0    0    0    0  0.00000000000E+00  0.00000000000E+00  0.99999998245E-14  0.12500000000E+03  0.12500000000E+03 0.  0.
        -13    1    3    3    0    0  0.16560778456E+01 -0.12013777781E+02  0.52682515362E+02  0.54060448012E+02  0.10566000000E+00 0.  1.
         23    2    1    0    0    0  0.22659023387E+02 -0.10976860526E+02  0.20366302381E+02  0.92616221954E+02  0.86770130163E+02 0.  0.
         13    1    3    3    0    0  0.21002945541E+02  0.10369172552E+01 -0.32316212981E+02  0.38555773942E+02  0.10566000000E+00 0. -1.
         22    1    1    0    0    0 -0.22659023387E+02  0.10976860526E+02 -0.20366302381E+02  0.32383778046E+02  0.00000000000E+00 0.  1.
</event>
<event>
 5    1  0.2295636E-004  0.9118800E+02  0.7818608E-02  0.1130116E+00
         25   -1    0    0    0    0  0.00000000000E+00  0.00000000000E+00  0.99999998245E-14  0.12500000000E+03  0.12500000000E+03 0.  0.
        -13    1    3    3    0    0  0.51367199876E+02  0.54867186319E+01 -0.30758512037E+02  0.60123128089E+02  0.10566000000E+00 0. -1.
         23    2    1    0    0    0  0.21101389911E+02  0.14007576733E+02 -0.17317708596E+02  0.94318020059E+02  0.89188031791E+02 0.  0.
         13    1    3    3    0    0 -0.30265809966E+02  0.85208581007E+01  0.13440803441E+02  0.34194891970E+02  0.10566000000E+00 0.  1.
         22    1    1    0    0    0 -0.21101389911E+02 -0.14007576733E+02  0.17317708596E+02  0.30681979941E+02  0.00000000000E+00 0. -1.
</event>
<event>
 5    1  0.2295636E-004  0.9118800E+02  0.7818608E-02  0.1130116E+00
         25   -1    0    0    0    0  0.00000000000E+00  0.00000000000E+00  0.99999998245E-14  0.12500000000E+03  0.12500000000E+03 0.  0.
        -13    1    3    3    0    0  0.14030783183E+02  0.13598175129E+02 -0.53064772481E+02  0.56547807085E+02  0.10566000000E+00 0.  1.
         23    2    1    0    0    0 -0.10925421551E+02  0.14632867266E+02 -0.22078053163E+02  0.96348192518E+02  0.91989391397E+02 0.  0.
         13    1    3    3    0    0 -0.24956204734E+02  0.10346921377E+01  0.30986719318E+02  0.39800385434E+02  0.10566000000E+00 0. -1.
         22    1    1    0    0    0  0.10925421551E+02 -0.14632867266E+02  0.22078053163E+02  0.28651807482E+02  0.00000000000E+00 0. -1.
</event>
<event>
 5    1  0.2295636E-004  0.9118800E+02  0.7818608E-02  0.1130116E+00
         25   -1    0    0    0    0  0.00000000000E+00  0.00000000000E+00  0.99999998245E-14  0.12500000000E+03  0.12500000000E+03 0.  0.
        -13    1    3    3    0    0  0.17211466801E+02 -0.11256499807E+02  0.46304117100E+02  0.50665824791E+02  0.10566000000E+00 0. -1.
         23    2    1    0    0    0  0.25462862864E+02  0.12644817841E+02  0.10092467376E+02  0.94832025239E+02  0.89905541040E+02 0.  0.
         13    1    3    3    0    0  0.82513960626E+01  0.23901317648E+02 -0.36211649724E+02  0.44166200448E+02  0.10566000000E+00 0.  1.
         22    1    1    0    0    0 -0.25462862864E+02 -0.12644817841E+02 -0.10092467376E+02  0.30167974761E+02  0.00000000000E+00 0. -1.
</event>
<event>
 5    1  0.2295636E-004  0.9118800E+02  0.7818608E-02  0.1130116E+00
         25   -1    0    0    0    0  0.00000000000E+00  0.00000000000E+00  0.99999998245E-14  0.12500000000E+03  0.12500000000E+03 0.  0.
        -13    1    3    3    0    0 -0.38320153518E+02  0.84005706406E+01 -0.27476875956E+02  0.47895653551E+02  0.10566000000E+00 0.  1.
         23    2    1    0    0    0 -0.52410256810E+01 -0.21052682721E+02 -0.24482134204E+02  0.92288248363E+02  0.86296361979E+02 0.  0.
         13    1    3    3    0    0  0.33079127837E+02 -0.29453253361E+02  0.29947417520E+01  0.44392594813E+02  0.10566000000E+00 0. -1.
         22    1    1    0    0    0  0.52410256810E+01  0.21052682721E+02  0.24482134204E+02  0.32711751637E+02  0.00000000000E+00 0. -1.
</event>
<event>
 5    1  0.2295636E-004  0.9118800E+02  0.7818608E-02  0.1130116E+00
         25   -1    0    0    0    0  0.00000000000E+00  0.00000000000E+00  0.99999998245E-14  0.12500000000E+03  0.12500000000E+03 0.  0.
        -13    1    3    3    0    0  0.19244911393E+02 -0.43133151882E+02  0.34419883910E+02  0.58442920685E+02  0.10566000000E+00 0.  1.
         23    2    1    0    0    0  0.20150672028E+02 -0.20819961298E+02  0.46549174809E+01  0.95653984455E+02  0.91041178121E+02 0.  0.
         13    1    3    3    0    0  0.90576063494E+00  0.22313190584E+02 -0.29764966429E+02  0.37211063770E+02  0.10566000000E+00 0. -1.
         22    1    1    0    0    0 -0.20150672028E+02  0.20819961298E+02 -0.46549174809E+01  0.29346015545E+02  0.00000000000E+00 0.  1.
</event>
<event>
 5    1  0.2295636E-004  0.9118800E+02  0.7818608E-02  0.1130116E+00
         25   -1    0    0    0    0  0.00000000000E+00  0.00000000000E+00  0.99999998245E-14  0.12500000000E+03  0.12500000000E+03 0.  0.
        -13    1    3    3    0    0  0.19699314353E+02  0.31946776908E+02  0.34033012385E+02  0.50664747476E+02  0.10566000000E+00 0.  1.
         23    2    1    0    0    0 -0.53636809464E+01  0.14377393709E+00  0.33410436035E+02  0.91161457178E+02  0.84648474850E+02 0.  0.
         13    1    3    3    0    0 -0.25062995299E+02 -0.31803002971E+02 -0.62257634954E+00  0.40496709702E+02  0.10566000000E+00 0. -1.
         22    1    1    0    0    0  0.53636809464E+01 -0.14377393709E+00 -0.33410436035E+02  0.33838542822E+02  0.00000000000E+00 0.  1.
</event>
<event>
 5    1  0.2295636E-004  0.9118800E+02  0.7818608E-02  0.1130116E+00
         25   -1    0    0    0    0  0.00000000000E+00  0.00000000000E+00  0.99999998245E-14  0.12500000000E+03  0.12500000000E+03 0.  0.
        -13    1    3    3    0    0 -0.18236411159E+02 -0.46301193510E+02 -0.19485750331E+02  0.53442238374E+02  0.10566000000E+00 0.  1.
         23    2    1    0    0    0  0.13334994983E+02 -0.18200127154E+02 -0.18667147775E+02  0.95716401763E+02  0.91126837105E+02 0.  0.
         13    1    3    3    0    0  0.31571406142E+02  0.28101066356E+02  0.81860255561E+00  0.42274163389E+02  0.10566000000E+00 0. -1.
         22    1    1    0    0    0 -0.13334994983E+02  0.18200127154E+02  0.18667147775E+02  0.29283598237E+02  0.00000000000E+00 0. -1.
</event>
<event>
 5    1  0.2295636E-004  0.9118800E+02  0.7818608E-02  0.1130116E+00
         25   -1    0    0    0    0  0.00000000000E+00  0.00000000000E+00  0.99999998245E-14  0.12500000000E+03  0.12500000000E+03 0.  0.
        -13    1    3    3    0    0 -0.16817797043E+02 -0.22347906324E+02 -0.22965693096E+02  0.36189797428E+02  0.10566000000E+00 0.  1.
         23    2    1    0    0    0  0.15683982918E+02 -0.19207959268E+01  0.23637310243E+02  0.96567637934E+02  0.92287103559E+02 0.  0.
         13    1    3    3    0    0  0.32501779961E+02  0.20427110397E+02  0.46603003340E+02  0.60377840505E+02  0.10566000000E+00 0. -1.
         22    1    1    0    0    0 -0.15683982918E+02  0.19207959268E+01 -0.23637310243E+02  0.28432362066E+02  0.00000000000E+00 0. -1.
</event>
<event>
 5    1  0.2295636E-004  0.9118800E+02  0.7818608E-02  0.1130116E+00
         25   -1    0    0    0    0  0.00000000000E+00  0.00000000000E+00  0.99999998245E-14  0.12500000000E+03  0.12500000000E+03 0.  0.
        -13    1    3    3    0    0  0.14310473322E+02 -0.28157180277E+02  0.24587456899E+02  0.40027123912E+02  0.10566000000E+00 0.  1.
         23    2    1    0    0    0  0.19051666918E+02  0.22192587285E+02  0.12499751272E+01  0.95724765064E+02  0.91138308443E+02 0.  0.
         13    1    3    3    0    0  0.47411935967E+01  0.50349767562E+02 -0.23337481772E+02  0.55697641151E+02  0.10566000000E+00 0. -1.
         22    1    1    0    0    0 -0.19051666918E+02 -0.22192587285E+02 -0.12499751272E+01  0.29275234936E+02  0.00000000000E+00 0. -1.
</event>
<event>
 5    1  0.2295636E-004  0.9118800E+02  0.7818608E-02  0.1130116E+00
         25   -1    0    0    0    0  0.00000000000E+00  0.00000000000E+00  0.99999998245E-14  0.12500000000E+03  0.12500000000E+03 0.  0.
        -13    1    3    3    0    0  0.18601924844E+02 -0.47293719801E+02  0.36049131288E+02  0.62307933453E+02  0.10566000000E+00 0. -1.
         23    2    1    0    0    0  0.11056235094E+02 -0.22005902361E+02  0.14175515340E+02  0.96584417861E+02  0.92309828649E+02 0.  0.
         13    1    3    3    0    0 -0.75456897499E+01  0.25287817440E+02 -0.21873615948E+02  0.34276484408E+02  0.10566000000E+00 0.  1.
         22    1    1    0    0    0 -0.11056235094E+02  0.22005902361E+02 -0.14175515340E+02  0.28415582139E+02  0.00000000000E+00 0. -1.
</event>
<event>
 5    1  0.2295636E-004  0.9118800E+02  0.7818608E-02  0.1130116E+00
         25   -1    0    0    0    0  0.00000000000E+00  0.00000000000E+00  0.99999998245E-14  0.12500000000E+03  0.12500000000E+03 0.  0.
        -13    1    3    3    0    0 -0.29740056167E+02  0.31541851870E+02 -0.19190449783E+02  0.47409322787E+02  0.10566000000E+00 0. -1.
         23    2    1    0    0    0  0.16714589447E+02  0.91122838551E+01 -0.17682733672E+02  0.99017500360E+02  0.95547763396E+02 0.  0.
         13    1    3    3    0    0  0.46454645614E+02 -0.22429568015E+02  0.15077161108E+01  0.51608177573E+02  0.10566000000E+00 0.  1.
         22    1    1    0    0    0 -0.16714589447E+02 -0.91122838551E+01  0.17682733672E+02  0.25982499640E+02  0.00000000000E+00 0.  1.
</event>
<event>
 5    1  0.2295636E-004  0.9118800E+02  0.7818608E-02  0.1130116E+00
         25   -1    0    0    0    0  0.00000000000E+00  0.00000000000E+00  0.99999998245E-14  0.12500000000E+03  0.12500000000E+03 0.  0.
        -13    1    3    3    0    0 -0.64588435692E+01  0.38877945860E+02 -0.22465664437E+01  0.39474923171E+02  0.10566000000E+00 0.  1.
         23    2    1    0    0    0  0.14679314176E+00 -0.12709282936E+02 -0.25548143155E+02  0.96464845547E+02  0.92147769299E+02 0.  0.
         13    1    3    3    0    0  0.66056367110E+01 -0.51587228796E+02 -0.23301576711E+02  0.56989922376E+02  0.10566000000E+00 0. -1.
         22    1    1    0    0    0 -0.14679314176E+00  0.12709282936E+02  0.25548143155E+02  0.28535154453E+02  0.00000000000E+00 0. -1.
</event>
<event>
 5    1  0.2295636E-004  0.9118800E+02  0.7818608E-02  0.1130116E+00
         25   -1    0    0    0    0  0.00000000000E+00  0.00000000000E+00  0.99999998245E-14  0.12500000000E+03  0.12500000000E+03 0.  0.
        -13    1    3    3    0    0 -0.24004986676E+02  0.30560839530E+02  0.15619002667E+02  0.41882797262E+02  0.10566000000E+00 0.  1.
         23    2    1    0    0    0  0.21418602475E+02  0.15924225704E+02 -0.10538799542E+02  0.96304986634E+02  0.91930662233E+02 0.  0.
         13    1    3    3    0    0  0.45423589151E+02 -0.14636613826E+02 -0.26157802209E+02  0.54422189373E+02  0.10566000000E+00 0. -1.
         22    1    1    0    0    0 -0.21418602475E+02 -0.15924225704E+02  0.10538799542E+02  0.28695013366E+02  0.00000000000E+00 0. -1.
</event>
<event>
 5    1  0.2295636E-004  0.9118800E+02  0.7818608E-02  0.1130116E+00
         25   -1    0    0    0    0  0.00000000000E+00  0.00000000000E+00  0.99999998245E-14  0.12500000000E+03  0.12500000000E+03 0.  0.
        -13    1    3    3    0    0  0.20903829999E+02 -0.40872022125E+02 -0.20559759503E+02  0.50301164759E+02  0.10566000000E+00 0. -1.
         23    2    1    0    0    0 -0.18154489489E+02 -0.21612240815E+02 -0.68781577074E+01  0.95948605970E+02  0.91444800249E+02 0.  0.
         13    1    3    3    0    0 -0.39058319488E+02  0.19259781310E+02  0.13681601796E+02  0.45647441211E+02  0.10566000000E+00 0.  1.
         22    1    1    0    0    0  0.18154489489E+02  0.21612240815E+02  0.68781577074E+01  0.29051394030E+02  0.00000000000E+00 0.  1.
</event>
<event>
 5    1  0.2295636E-004  0.9118800E+02  0.7818608E-02  0.1130116E+00
         25   -1    0    0    0    0  0.00000000000E+00  0.00000000000E+00  0.99999998245E-14  0.12500000000E+03  0.12500000000E+03 0.  0.
        -13    1    3    3    0    0 -0.28607665077E+02 -0.34171019911E+02 -0.72519954820E+01  0.45151519414E+02  0.10566000000E+00 0. -1.
         23    2    1    0    0    0 -0.16492746684E+02  0.16059731805E+02 -0.15177213095E+02  0.97426942930E+02  0.93443757055E+02 0.  0.
         13    1    3    3    0    0  0.12114918392E+02  0.50230751715E+02 -0.79252176135E+01  0.52275423516E+02  0.10566000000E+00 0.  1.
         22    1    1    0    0    0  0.16492746684E+02 -0.16059731805E+02  0.15177213095E+02  0.27573057070E+02  0.00000000000E+00 0. -1.
</event>
<event>
 5    1  0.2295636E-004  0.9118800E+02  0.7818608E-02  0.1130116E+00
         25   -1    0    0    0    0  0.00000000000E+00  0.00000000000E+00  0.99999998245E-14  0.12500000000E+03  0.12500000000E+03 0.  0.
        -13    1    3    3    0    0  0.27278430313E+02 -0.31155278891E+02 -0.22096199977E+02  0.46936311962E+02  0.10566000000E+00 0. -1.
         23    2    1    0    0    0  0.59284230451E+01 -0.37421805287E+02  0.98353012198E+01  0.85855768486E+02  0.76412970899E+02 0.  0.
         13    1    3    3    0    0 -0.21350007268E+02 -0.62665263955E+01  0.31931501197E+02  0.38919456524E+02  0.10566000000E+00 0.  1.
         22    1    1    0    0    0 -0.59284230451E+01  0.37421805287E+02 -0.98353012198E+01  0.39144231514E+02  0.00000000000E+00 0. -1.
</event>
<event>
 5    1  0.2295636E-004  0.9118800E+02  0.7818608E-02  0.1130116E+00
         25   -1    0    0    0    0  0.00000000000E+00  0.00000000000E+00  0.99999998245E-14  0.12500000000E+03  0.12500000000E+03 0.  0.
        -13    1    3    3    0    0  0.16134671666E+02  0.22047696881E+02 -0.40229238470E+02  0.48629531763E+02  0.10566000000E+00 0.  1.
         23    2    1    0    0    0  0.26311004532E+02 -0.10009995159E+02 -0.68240445631E+01  0.96033872424E+02  0.91561280605E+02 0.  0.
         13    1    3    3    0    0  0.10176332865E+02 -0.32057692040E+02  0.33405193907E+02  0.47404340661E+02  0.10566000000E+00 0. -1.
         22    1    1    0    0    0 -0.26311004532E+02  0.10009995159E+02  0.68240445631E+01  0.28966127576E+02  0.00000000000E+00 0.  1.
</event>
<event>
 5    1  0.2295636E-004  0.9118800E+02  0.7818608E-02  0.1130116E+00
         25   -1    0    0    0    0  0.00000000000E+00  0.00000000000E+00  0.99999998245E-14  0.12500000000E+03  0.12500000000E+03 0.  0.
        -13    1    3    3    0    0  0.28612816168E+02 -0.29654186046E+02  0.19610244139E+02  0.45635916101E+02  0.10566000000E+00 0. -1.
         23    2    1    0    0    0 -0.17788520647E+02 -0.13195664219E+01  0.17448653089E+02  0.10004748075E+03  0.96885861648E+02 0.  0.
         13    1    3    3    0    0 -0.46401336816E+02  0.28334619624E+02 -0.21615910500E+01  0.54411564648E+02  0.10566000000E+00 0.  1.
         22    1    1    0    0    0  0.17788520647E+02  0.13195664219E+01 -0.17448653089E+02  0.24952519251E+02  0.00000000000E+00 0.  1.
</event>
<event>
 5    1  0.2295636E-004  0.9118800E+02  0.7818608E-02  0.1130116E+00
         25   -1    0    0    0    0  0.00000000000E+00  0.00000000000E+00  0.99999998245E-14  0.12500000000E+03  0.12500000000E+03 0.  0.
        -13    1    3    3    0    0 -0.29870986393E+02 -0.13778394722E+02 -0.16909464653E+01  0.32939193269E+02  0.10566000000E+00 0. -1.
         23    2    1    0    0    0  0.16434823353E+02  0.25937128703E+02 -0.42731311458E+01  0.93998424011E+02  0.88738976796E+02 0.  0.
         13    1    3    3    0    0  0.46305809746E+02  0.39715523425E+02 -0.25821846805E+01  0.61059230743E+02  0.10566000000E+00 0.  1.
         22    1    1    0    0    0 -0.16434823353E+02 -0.25937128703E+02  0.42731311458E+01  0.31001575989E+02  0.00000000000E+00 0.  1.
</event>
<event>
 5    1  0.2295636E-004  0.9118800E+02  0.7818608E-02  0.1130116E+00
         25   -1    0    0    0    0  0.00000000000E+00  0.00000000000E+00  0.99999998245E-14  0.12500000000E+03  0.12500000000E+03 0.  0.
        -13    1    3    3    0    0  0.44809482722E+02 -0.23112506490E+02  0.70474436779E+00  0.50424057024E+02  0.10566000000E+00 0.  1.
         23    2    1    0    0    0  0.29649709634E+02 -0.40319678103E+02 -0.66612131694E+01  0.74510857755E+02  0.54797029471E+02 0.  0.
         13    1    3    3    0    0 -0.15159773088E+02 -0.17207171613E+02 -0.73659575372E+01  0.24086800732E+02  0.10566000000E+00 0. -1.
         22    1    1    0    0    0 -0.29649709634E+02  0.40319678103E+02  0.66612131694E+01  0.50489142245E+02  0.00000000000E+00 0.  1.
</event>
<event>
 5    1  0.2295636E-004  0.9118800E+02  0.7818608E-02  0.1130116E+00
         25   -1    0    0    0    0  0.00000000000E+00  0.00000000000E+00  0.99999998245E-14  0.12500000000E+03  0.12500000000E+03 0.  0.
        -13    1    3    3    0    0 -0.87453173895E+01  0.53958734339E+02 -0.26407224471E+02  0.60707316331E+02  0.10566000000E+00 0.  1.
         23    2    1    0    0    0  0.15457550732E+01  0.28608621213E+02 -0.39995658542E+01  0.96071828722E+02  0.91613084112E+02 0.  0.
         13    1    3    3    0    0  0.10291072463E+02 -0.25350113126E+02  0.22407658617E+02  0.35364512392E+02  0.10566000000E+00 0. -1.
         22    1    1    0    0    0 -0.15457550732E+01 -0.28608621213E+02  0.39995658542E+01  0.28928171278E+02  0.00000000000E+00 0.  1.
</event>
<event>
 5    1  0.2295636E-004  0.9118800E+02  0.7818608E-02  0.1130116E+00
         25   -1    0    0    0    0  0.00000000000E+00  0.00000000000E+00  0.99999998245E-14  0.12500000000E+03  0.12500000000E+03 0.  0.
        -13    1    3    3    0    0 -0.18734419283E+02  0.29646995784E+01 -0.15105093539E+02  0.24247534397E+02  0.10566000000E+00 0. -1.
         23    2    1    0    0    0  0.21944918563E+02 -0.31713746197E+02  0.12564202145E+02  0.84438930930E+02  0.74058981444E+02 0.  0.
         13    1    3    3    0    0  0.40679337846E+02 -0.34678445775E+02  0.27669295684E+02  0.60191396533E+02  0.10566000000E+00 0.  1.
         22    1    1    0    0    0 -0.21944918563E+02  0.31713746197E+02 -0.12564202145E+02  0.40561069070E+02  0.00000000000E+00 0.  1.
</event>
<event>
 5    1  0.2295636E-004  0.9118800E+02  0.7818608E-02  0.1130116E+00
         25   -1    0    0    0    0  0.00000000000E+00  0.00000000000E+00  0.99999998245E-14  0.12500000000E+03  0.12500000000E+03 0.  0.
        -13    1    3    3    0    0 -0.19158899248E+02 -0.52553165009E+02 -0.26913248243E+02  0.62074412344E+02  0.10566000000E+00 0.  1.
         23    2    1    0    0    0 -0.88710197349E+01 -0.17066559815E+02 -0.13984866381E+02  0.10121893731E+03  0.98385640858E+02 0.  0.
         13    1    3    3    0    0  0.10287879513E+02  0.35486605194E+02  0.12928381862E+02  0.39144524964E+02  0.10566000000E+00 0. -1.
         22    1    1    0    0    0  0.88710197349E+01  0.17066559815E+02  0.13984866381E+02  0.23781062692E+02  0.00000000000E+00 0.  1.
</event>
<event>
 5    1  0.2295636E-004  0.9118800E+02  0.7818608E-02  0.1130116E+00
         25   -1    0    0    0    0  0.00000000000E+00  0.00000000000E+00  0.99999998245E-14  0.12500000000E+03  0.12500000000E+03 0.  0.
        -13    1    3    3    0    0  0.20628037482E+02  0.28785181321E+02  0.10893745068E+02  0.37051146267E+02  0.10566000000E+00 0.  1.
         23    2    1    0    0    0  0.91563263983E+01 -0.27937156715E+02  0.39013743823E+01  0.95342896964E+02  0.90613046748E+02 0.  0.
         13    1    3    3    0    0 -0.11471711083E+02 -0.56722338036E+02 -0.69923706860E+01  0.58291750697E+02  0.10566000000E+00 0. -1.
         22    1    1    0    0    0 -0.91563263983E+01  0.27937156715E+02 -0.39013743823E+01  0.29657103036E+02  0.00000000000E+00 0. -1.
</event>
<event>
 5    1  0.2295636E-004  0.9118800E+02  0.7818608E-02  0.1130116E+00
         25   -1    0    0    0    0  0.00000000000E+00  0.00000000000E+00  0.99999998245E-14  0.12500000000E+03  0.12500000000E+03 0.  0.
        -13    1    3    3    0    0 -0.26950136783E+02 -0.20041250998E+02 -0.36983646676E+02  0.49957611029E+02  0.10566000000E+00 0.  1.
         23    2    1    0    0    0  0.92750659431E+01  0.59731503493E+01 -0.27243879525E+02  0.95607239924E+02  0.90976975005E+02 0.  0.
         13    1    3    3    0    0  0.36225202727E+02  0.26014401348E+02  0.97397671515E+01  0.45649628895E+02  0.10566000000E+00 0. -1.
         22    1    1    0    0    0 -0.92750659431E+01 -0.59731503493E+01  0.27243879525E+02  0.29392760076E+02  0.00000000000E+00 0.  1.
</event>
<event>
 5    1  0.2295636E-004  0.9118800E+02  0.7818608E-02  0.1130116E+00
         25   -1    0    0    0    0  0.00000000000E+00  0.00000000000E+00  0.99999998245E-14  0.12500000000E+03  0.12500000000E+03 0.  0.
        -13    1    3    3    0    0 -0.24995944511E+02  0.51181848569E+02  0.12444595012E+02  0.58303155781E+02  0.10566000000E+00 0. -1.
         23    2    1    0    0    0 -0.20180905913E+01  0.25648823665E+02 -0.77251511262E+01  0.98137148235E+02  0.94389019800E+02 0.  0.
         13    1    3    3    0    0  0.22977853920E+02 -0.25533024904E+02 -0.20169746138E+02  0.39833992454E+02  0.10566000000E+00 0.  1.
         22    1    1    0    0    0  0.20180905913E+01 -0.25648823665E+02  0.77251511262E+01  0.26862851765E+02  0.00000000000E+00 0. -1.
</event>
<event>
 5    1  0.2295636E-004  0.9118800E+02  0.7818608E-02  0.1130116E+00
         25   -1    0    0    0    0  0.00000000000E+00  0.00000000000E+00  0.99999998245E-14  0.12500000000E+03  0.12500000000E+03 0.  0.
        -13    1    3    3    0    0 -0.30294636032E+02  0.25459929333E+02 -0.39564699391E+02  0.55958462951E+02  0.10566000000E+00 0.  1.
         23    2    1    0    0    0 -0.27888733559E+02  0.15267803541E+01 -0.74309225907E+01  0.96097904430E+02  0.91648655787E+02 0.  0.
         13    1    3    3    0    0  0.24059024729E+01 -0.23933148979E+02  0.32133776800E+02  0.40139441479E+02  0.10566000000E+00 0. -1.
         22    1    1    0    0    0  0.27888733559E+02 -0.15267803541E+01  0.74309225907E+01  0.28902095570E+02  0.00000000000E+00 0. -1.
</event>
<event>
 5    1  0.2295636E-004  0.9118800E+02  0.7818608E-02  0.1130116E+00
         25   -1    0    0    0    0  0.00000000000E+00  0.00000000000E+00  0.99999998245E-14  0.12500000000E+03  0.12500000000E+03 0.  0.
        -13    1    3    3    0    0 -0.36762194656E+02  0.11202736058E+02 -0.11474674100E+02  0.40107849118E+02  0.10566000000E+00 0.  1.
         23    2    1    0    0    0  0.91034430742E+01 -0.22361819082E+02 -0.14166649553E+02  0.97006829619E+02  0.92880070008E+02 0.  0.
         13    1    3    3    0    0  0.45865637731E+02 -0.33564555139E+02 -0.26919754522E+01  0.56898980501E+02  0.10566000000E+00 0. -1.
         22    1    1    0    0    0 -0.91034430742E+01  0.22361819082E+02  0.14166649553E+02  0.27993170381E+02  0.00000000000E+00 0. -1.
</event>
<event>
 5    1  0.2295636E-004  0.9118800E+02  0.7818608E-02  0.1130116E+00
         25   -1    0    0    0    0  0.00000000000E+00  0.00000000000E+00  0.99999998245E-14  0.12500000000E+03  0.12500000000E+03 0.  0.
        -13    1    3    3    0    0 -0.44276603048E+02  0.10619150364E+02  0.63462829202E+01  0.45972496156E+02  0.10566000000E+00 0.  1.
         23    2    1    0    0    0  0.14051042875E+01  0.17329275900E+02  0.23965608429E+02  0.95392087061E+02  0.90680878719E+02 0.  0.
         13    1    3    3    0    0  0.45681707335E+02  0.67101255351E+01  0.17619325508E+02  0.49419590904E+02  0.10566000000E+00 0. -1.
         22    1    1    0    0    0 -0.14051042875E+01 -0.17329275900E+02 -0.23965608429E+02  0.29607912939E+02  0.00000000000E+00 0. -1.
</event>
<event>
 5    1  0.2295636E-004  0.9118800E+02  0.7818608E-02  0.1130116E+00
         25   -1    0    0    0    0  0.00000000000E+00  0.00000000000E+00  0.99999998245E-14  0.12500000000E+03  0.12500000000E+03 0.  0.
        -13    1    3    3    0    0  0.37240671670E+02  0.60404599443E+01  0.14005573465E+02  0.40243285587E+02  0.10566000000E+00 0. -1.
         23    2    1    0    0    0 -0.37251208197E+00 -0.30787507906E+02  0.26390463461E+01  0.94097346814E+02  0.88878212761E+02 0.  0.
         13    1    3    3    0    0 -0.37613183752E+02 -0.36827967850E+02 -0.11366527118E+02  0.53854061227E+02  0.10566000000E+00 0.  1.
         22    1    1    0    0    0  0.37251208197E+00  0.30787507906E+02 -0.26390463461E+01  0.30902653186E+02  0.00000000000E+00 0.  1.
</event>
<event>
 5    1  0.2295636E-004  0.9118800E+02  0.7818608E-02  0.1130116E+00
         25   -1    0    0    0    0  0.00000000000E+00  0.00000000000E+00  0.99999998245E-14  0.12500000000E+03  0.12500000000E+03 0.  0.
        -13    1    3    3    0    0 -0.26297535159E+02 -0.41366608724E+02 -0.35339647519E+02  0.60428954348E+02  0.10566000000E+00 0.  1.
         23    2    1    0    0    0 -0.12475295659E+02 -0.26610905805E+02 -0.78020636267E+01  0.94592015746E+02  0.89571222703E+02 0.  0.
         13    1    3    3    0    0  0.13822239500E+02  0.14755702919E+02  0.27537583892E+02  0.34163061398E+02  0.10566000000E+00 0. -1.
         22    1    1    0    0    0  0.12475295659E+02  0.26610905805E+02  0.78020636267E+01  0.30407984254E+02  0.00000000000E+00 0.  1.
</event>
<event>
 5    1  0.2295636E-004  0.9118800E+02  0.7818608E-02  0.1130116E+00
         25   -1    0    0    0    0  0.00000000000E+00  0.00000000000E+00  0.99999998245E-14  0.12500000000E+03  0.12500000000E+03 0.  0.
        -13    1    3    3    0    0 -0.13519395714E+02  0.18824338923E+02  0.29455404047E+02  0.37480151920E+02  0.10566000000E+00 0.  1.
         23    2    1    0    0    0 -0.14648200317E+02 -0.47813827087E+01 -0.24314316983E+02  0.96214284732E+02  0.91807250166E+02 0.  0.
         13    1    3    3    0    0 -0.11288046031E+01 -0.23605721632E+02 -0.53769721029E+02  0.58734132812E+02  0.10566000000E+00 0. -1.
         22    1    1    0    0    0  0.14648200317E+02  0.47813827087E+01  0.24314316983E+02  0.28785715268E+02  0.00000000000E+00 0. -1.
</event>
<event>
 5    1  0.2295636E-004  0.9118800E+02  0.7818608E-02  0.1130116E+00
         25   -1    0    0    0    0  0.00000000000E+00  0.00000000000E+00  0.99999998245E-14  0.12500000000E+03  0.12500000000E+03 0.  0.
        -13    1    3    3    0    0  0.19399449110E+02 -0.30143560893E+02 -0.13605344508E+02  0.38341745556E+02  0.10566000000E+00 0. -1.
         23    2    1    0    0    0  0.11060945675E+02  0.10730964077E+02  0.25294286127E+02  0.95380766047E+02  0.90665271807E+02 0.  0.
         13    1    3    3    0    0 -0.83385034348E+01  0.40874524970E+02  0.38899630635E+02  0.57039020492E+02  0.10566000000E+00 0.  1.
         22    1    1    0    0    0 -0.11060945675E+02 -0.10730964077E+02 -0.25294286127E+02  0.29619233953E+02  0.00000000000E+00 0. -1.
</event>
<event>
 5    1  0.2295636E-004  0.9118800E+02  0.7818608E-02  0.1130116E+00
         25   -1    0    0    0    0  0.00000000000E+00  0.00000000000E+00  0.99999998245E-14  0.12500000000E+03  0.12500000000E+03 0.  0.
        -13    1    3    3    0    0  0.16157883614E+02  0.30958438130E+02  0.22137234314E+02  0.41346951538E+02  0.10566000000E+00 0.  1.
         23    2    1    0    0    0  0.11320079147E+02 -0.21343556429E+02  0.19524392404E+02  0.93937265225E+02  0.88652785102E+02 0.  0.
         13    1    3    3    0    0 -0.48378044668E+01 -0.52301994559E+02 -0.26128419102E+01  0.52590313688E+02  0.10566000000E+00 0. -1.
         22    1    1    0    0    0 -0.11320079147E+02  0.21343556429E+02 -0.19524392404E+02  0.31062734775E+02  0.00000000000E+00 0.  1.
</event>
<event>
 5    1  0.2295636E-004  0.9118800E+02  0.7818608E-02  0.1130116E+00
         25   -1    0    0    0    0  0.00000000000E+00  0.00000000000E+00  0.99999998245E-14  0.12500000000E+03  0.12500000000E+03 0.  0.
        -13    1    3    3    0    0  0.26392867699E+02 -0.87583854486E+01 -0.22317298800E+02  0.35656216440E+02  0.10566000000E+00 0. -1.
         23    2    1    0    0    0 -0.11296678136E+02 -0.65108257239E+01  0.25366814881E+02  0.96478410182E+02  0.92166168118E+02 0.  0.
         13    1    3    3    0    0 -0.37689545835E+02  0.22475597247E+01  0.47684113682E+02  0.60822193742E+02  0.10566000000E+00 0.  1.
         22    1    1    0    0    0  0.11296678136E+02  0.65108257239E+01 -0.25366814881E+02  0.28521589818E+02  0.00000000000E+00 0.  1.
</event>
<event>
 5    1  0.2295636E-004  0.9118800E+02  0.7818608E-02  0.1130116E+00
         25   -1    0    0    0    0  0.00000000000E+00  0.00000000000E+00  0.99999998245E-14  0.12500000000E+03  0.12500000000E+03 0.  0.
        -13    1    3    3    0    0  0.40723224306E+02  0.15280598185E+02 -0.21475057230E+02  0.48508421185E+02  0.10566000000E+00 0.  1.
         23    2    1    0    0    0  0.37899620589E+00  0.29612870633E+02 -0.26896428957E+01  0.95262819162E+02  0.90502512620E+02 0.  0.
         13    1    3    3    0    0 -0.40344228100E+02  0.14332272448E+02  0.18785414334E+02  0.46754397978E+02  0.10566000000E+00 0. -1.
         22    1    1    0    0    0 -0.37899620589E+00 -0.29612870633E+02  0.26896428957E+01  0.29737180838E+02  0.00000000000E+00 0.  1.
</event>
<event>
 5    1  0.2295636E-004  0.9118800E+02  0.7818608E-02  0.1130116E+00
         25   -1    0    0    0    0  0.00000000000E+00  0.00000000000E+00  0.99999998245E-14  0.12500000000E+03  0.12500000000E+03 0.  0.
        -13    1    3    3    0    0 -0.26788991467E+02 -0.27229102197E+02  0.39522247380E+01  0.38401892072E+02  0.10566000000E+00 0.  1.
         23    2    1    0    0    0 -0.10721699328E+02  0.25051633825E+02 -0.11779305747E+02  0.95313450223E+02  0.90572416086E+02 0.  0.
         13    1    3    3    0    0  0.16067292139E+02  0.52280736022E+02 -0.15731530485E+02  0.56911558151E+02  0.10566000000E+00 0. -1.
         22    1    1    0    0    0  0.10721699328E+02 -0.25051633825E+02  0.11779305747E+02  0.29686549777E+02  0.00000000000E+00 0. -1.
</event>
<event>
 5    1  0.2295636E-004  0.9118800E+02  0.7818608E-02  0.1130116E+00
         25   -1    0    0    0    0  0.00000000000E+00  0.00000000000E+00  0.99999998245E-14  0.12500000000E+03  0.12500000000E+03 0.  0.
        -13    1    3    3    0    0 -0.57574924427E+01  0.33121564523E+02 -0.84807746330E+01  0.34671623240E+02  0.10566000000E+00 0.  1.
         23    2    1    0    0    0  0.16889984671E+02 -0.15679198184E+02  0.19044007164E+02  0.95103795446E+02  0.90282605531E+02 0.  0.
         13    1    3    3    0    0  0.22647477114E+02 -0.48800762708E+02  0.27524781797E+02  0.60432172205E+02  0.10566000000E+00 0. -1.
         22    1    1    0    0    0 -0.16889984671E+02  0.15679198184E+02 -0.19044007164E+02  0.29896204554E+02  0.00000000000E+00 0. -1.
</event>
<event>
 5    1  0.2295636E-004  0.9118800E+02  0.7818608E-02  0.1130116E+00
         25   -1    0    0    0    0  0.00000000000E+00  0.00000000000E+00  0.99999998245E-14  0.12500000000E+03  0.12500000000E+03 0.  0.
        -13    1    3    3    0    0 -0.20961048946E+02  0.22863236262E+01  0.31545489835E+02  0.37943668004E+02  0.10566000000E+00 0. -1.
         23    2    1    0    0    0  0.44447138418E+00  0.24673254935E+02 -0.16647870719E+02  0.95232254647E+02  0.90460287761E+02 0.  0.
         13    1    3    3    0    0  0.21405520330E+02  0.22386931309E+02 -0.48193360554E+02  0.57288586643E+02  0.10566000000E+00 0.  1.
         22    1    1    0    0    0 -0.44447138418E+00 -0.24673254935E+02  0.16647870719E+02  0.29767745353E+02  0.00000000000E+00 0.  1.
</event>
<event>
 5    1  0.2295636E-004  0.9118800E+02  0.7818608E-02  0.1130116E+00
         25   -1    0    0    0    0  0.00000000000E+00  0.00000000000E+00  0.99999998245E-14  0.12500000000E+03  0.12500000000E+03 0.  0.
        -13    1    3    3    0    0 -0.40360342780E+02  0.29573098362E+02  0.58419164223E+01  0.50375237643E+02  0.10566000000E+00 0. -1.
         23    2    1    0    0    0 -0.29065148886E+02 -0.13585532111E+01 -0.17779607183E+02  0.90900982739E+02  0.84262955590E+02 0.  0.
         13    1    3    3    0    0  0.11295193894E+02 -0.30931651573E+02 -0.23621523605E+02  0.40525745097E+02  0.10566000000E+00 0.  1.
         22    1    1    0    0    0  0.29065148886E+02  0.13585532111E+01  0.17779607183E+02  0.34099017261E+02  0.00000000000E+00 0. -1.
</event>
<event>
 5    1  0.2295636E-004  0.9118800E+02  0.7818608E-02  0.1130116E+00
         25   -1    0    0    0    0  0.00000000000E+00  0.00000000000E+00  0.99999998245E-14  0.12500000000E+03  0.12500000000E+03 0.  0.
        -13    1    3    3    0    0 -0.84083048305E+01 -0.36938175408E+02  0.18855825159E+02  0.42316447146E+02  0.10566000000E+00 0.  1.
         23    2    1    0    0    0  0.26510525672E+02 -0.69567714127E+01 -0.90458936011E+01  0.96137691864E+02  0.91702905984E+02 0.  0.
         13    1    3    3    0    0  0.34918830503E+02  0.29981403995E+02 -0.27901718760E+02  0.53821244718E+02  0.10566000000E+00 0. -1.
         22    1    1    0    0    0 -0.26510525672E+02  0.69567714127E+01  0.90458936011E+01  0.28862308136E+02  0.00000000000E+00 0. -1.
</event>
<event>
 5    1  0.2295636E-004  0.9118800E+02  0.7818608E-02  0.1130116E+00
         25   -1    0    0    0    0  0.00000000000E+00  0.00000000000E+00  0.99999998245E-14  0.12500000000E+03  0.12500000000E+03 0.  0.
        -13    1    3    3    0    0  0.13351392663E+02  0.25008077705E+02  0.25990595701E+02  0.38460185458E+02  0.10566000000E+00 0. -1.
         23    2    1    0    0    0  0.15545620856E+02 -0.65495602309E+01 -0.22817921692E+02  0.96623590479E+02  0.92362858442E+02 0.  0.
         13    1    3    3    0    0  0.21942281922E+01 -0.31557637936E+02 -0.48808517393E+02  0.58163405020E+02  0.10566000000E+00 0.  1.
         22    1    1    0    0    0 -0.15545620856E+02  0.65495602309E+01  0.22817921692E+02  0.28376409521E+02  0.00000000000E+00 0.  1.
</event>
<event>
 5    1  0.2295636E-004  0.9118800E+02  0.7818608E-02  0.1130116E+00
         25   -1    0    0    0    0  0.00000000000E+00  0.00000000000E+00  0.99999998245E-14  0.12500000000E+03  0.12500000000E+03 0.  0.
        -13    1    3    3    0    0 -0.20920274204E+02 -0.54290921405E+02  0.57606416777E+01  0.58466727088E+02  0.10566000000E+00 0. -1.
         23    2    1    0    0    0 -0.21797484768E+02 -0.18424672550E+02 -0.52173906445E+01  0.95985864377E+02  0.91495716262E+02 0.  0.
         13    1    3    3    0    0 -0.87721056337E+00  0.35866248854E+02 -0.10978032322E+02  0.37519137290E+02  0.10566000000E+00 0.  1.
         22    1    1    0    0    0  0.21797484768E+02  0.18424672550E+02  0.52173906445E+01  0.29014135623E+02  0.00000000000E+00 0. -1.
</event>
<event>
 5    1  0.2295636E-004  0.9118800E+02  0.7818608E-02  0.1130116E+00
         25   -1    0    0    0    0  0.00000000000E+00  0.00000000000E+00  0.99999998245E-14  0.12500000000E+03  0.12500000000E+03 0.  0.
        -13    1    3    3    0    0 -0.47782079333E+01  0.26657644990E+02  0.23405132590E+02  0.35794869787E+02  0.10566000000E+00 0.  1.
         23    2    1    0    0    0 -0.54777219723E+01 -0.29079129490E+02  0.25879875647E+01  0.95296483550E+02  0.90548997164E+02 0.  0.
         13    1    3    3    0    0 -0.69951403895E+00 -0.55736774480E+02 -0.20817145025E+02  0.59501613763E+02  0.10566000000E+00 0. -1.
         22    1    1    0    0    0  0.54777219723E+01  0.29079129490E+02 -0.25879875647E+01  0.29703516450E+02  0.00000000000E+00 0. -1.
</event>
<event>
 5    1  0.2295636E-004  0.9118800E+02  0.7818608E-02  0.1130116E+00
         25   -1    0    0    0    0  0.00000000000E+00  0.00000000000E+00  0.99999998245E-14  0.12500000000E+03  0.12500000000E+03 0.  0.
        -13    1    3    3    0    0  0.42040366180E+02 -0.40192196508E+02 -0.69670895295E+01  0.58577782045E+02  0.10566000000E+00 0. -1.
         23    2    1    0    0    0  0.14866501834E+02 -0.18201764684E+02  0.12280273580E+02  0.98483547869E+02  0.94846649742E+02 0.  0.
         13    1    3    3    0    0 -0.27173864346E+02  0.21990431824E+02  0.19247363110E+02  0.39905765824E+02  0.10566000000E+00 0.  1.
         22    1    1    0    0    0 -0.14866501834E+02  0.18201764684E+02 -0.12280273580E+02  0.26516452131E+02  0.00000000000E+00 0. -1.
</event>
<event>
 5    1  0.2295636E-004  0.9118800E+02  0.7818608E-02  0.1130116E+00
         25   -1    0    0    0    0  0.00000000000E+00  0.00000000000E+00  0.99999998245E-14  0.12500000000E+03  0.12500000000E+03 0.  0.
        -13    1    3    3    0    0  0.22720967072E+02  0.15488429122E+02  0.19925994036E+02  0.33958654032E+02  0.10566000000E+00 0.  1.
         23    2    1    0    0    0 -0.19410903082E+02 -0.14730912420E+01 -0.21897880257E+02  0.95700335906E+02  0.91104796672E+02 0.  0.
         13    1    3    3    0    0 -0.42131870154E+02 -0.16961520364E+02 -0.41823874292E+02  0.61741681874E+02  0.10566000000E+00 0. -1.
         22    1    1    0    0    0  0.19410903082E+02  0.14730912420E+01  0.21897880257E+02  0.29299664094E+02  0.00000000000E+00 0. -1.
</event>
<event>
 5    1  0.2295636E-004  0.9118800E+02  0.7818608E-02  0.1130116E+00
         25   -1    0    0    0    0  0.00000000000E+00  0.00000000000E+00  0.99999998245E-14  0.12500000000E+03  0.12500000000E+03 0.  0.
        -13    1    3    3    0    0  0.45842803180E+02  0.83405722674E+01  0.17070488814E+01  0.46626740494E+02  0.10566000000E+00 0.  1.
         23    2    1    0    0    0  0.59001599647E+01  0.27841519982E+02 -0.13360495146E+02  0.93560137515E+02  0.88119432469E+02 0.  0.
         13    1    3    3    0    0 -0.39942643216E+02  0.19500947715E+02 -0.15067544028E+02  0.46933397021E+02  0.10566000000E+00 0. -1.
         22    1    1    0    0    0 -0.59001599647E+01 -0.27841519982E+02  0.13360495146E+02  0.31439862485E+02  0.00000000000E+00 0.  1.
</event>
<event>
 5    1  0.2295636E-004  0.9118800E+02  0.7818608E-02  0.1130116E+00
         25   -1    0    0    0    0  0.00000000000E+00  0.00000000000E+00  0.99999998245E-14  0.12500000000E+03  0.12500000000E+03 0.  0.
        -13    1    3    3    0    0 -0.17020841712E+01  0.17104530080E+02  0.33260372280E+02  0.37439625640E+02  0.10566000000E+00 0.  1.
         23    2    1    0    0    0  0.18680033704E+02  0.15868851931E+02 -0.19284362529E+02  0.93812650659E+02  0.88476904696E+02 0.  0.
         13    1    3    3    0    0  0.20382117875E+02 -0.12356781489E+01 -0.52544734809E+02  0.56373025019E+02  0.10566000000E+00 0. -1.
         22    1    1    0    0    0 -0.18680033704E+02 -0.15868851931E+02  0.19284362529E+02  0.31187349341E+02  0.00000000000E+00 0. -1.
</event>
<event>
 5    1  0.2295636E-004  0.9118800E+02  0.7818608E-02  0.1130116E+00
         25   -1    0    0    0    0  0.00000000000E+00  0.00000000000E+00  0.99999998245E-14  0.12500000000E+03  0.12500000000E+03 0.  0.
        -13    1    3    3    0    0 -0.50446108974E+02 -0.21043005546E+02 -0.19360907585E+02  0.57986842470E+02  0.10566000000E+00 0. -1.
         23    2    1    0    0    0 -0.18159255477E+02 -0.27498841047E+01 -0.23330476151E+02  0.95307719193E+02  0.90564506283E+02 0.  0.
         13    1    3    3    0    0  0.32286853497E+02  0.18293121441E+02 -0.39695685660E+01  0.37320876724E+02  0.10566000000E+00 0.  1.
         22    1    1    0    0    0  0.18159255477E+02  0.27498841047E+01  0.23330476151E+02  0.29692280807E+02  0.00000000000E+00 0. -1.
</event>
<event>
 5    1  0.2295636E-004  0.9118800E+02  0.7818608E-02  0.1130116E+00
         25   -1    0    0    0    0  0.00000000000E+00  0.00000000000E+00  0.99999998245E-14  0.12500000000E+03  0.12500000000E+03 0.  0.
        -13    1    3    3    0    0  0.22145499278E+02 -0.56814513003E+02  0.11445037585E+02  0.62042824528E+02  0.10566000000E+00 0. -1.
         23    2    1    0    0    0  0.82550741468E+01 -0.26512480318E+02  0.17218245909E+00  0.97231537519E+02  0.93181996006E+02 0.  0.
         13    1    3    3    0    0 -0.13890425131E+02  0.30302032686E+02 -0.11272855126E+02  0.35188712990E+02  0.10566000000E+00 0.  1.
         22    1    1    0    0    0 -0.82550741468E+01  0.26512480318E+02 -0.17218245909E+00  0.27768462481E+02  0.00000000000E+00 0. -1.
</event>
<event>
 5    1  0.2295636E-004  0.9118800E+02  0.7818608E-02  0.1130116E+00
         25   -1    0    0    0    0  0.00000000000E+00  0.00000000000E+00  0.99999998245E-14  0.12500000000E+03  0.12500000000E+03 0.  0.
        -13    1    3    3    0    0 -0.15390589150E+02 -0.25706258353E+02  0.28125332458E+02  0.41094129055E+02  0.10566000000E+00 0.  1.
         23    2    1    0    0    0  0.27762758990E+02  0.14448549229E+01  0.66590442113E+01  0.96413267723E+02  0.92077776530E+02 0.  0.
         13    1    3    3    0    0  0.43153348140E+02  0.27151113276E+02 -0.21466288246E+02  0.55319138668E+02  0.10566000000E+00 0. -1.
         22    1    1    0    0    0 -0.27762758990E+02 -0.14448549229E+01 -0.66590442113E+01  0.28586732277E+02  0.00000000000E+00 0. -1.
</event>
<event>
 5    1  0.2295636E-004  0.9118800E+02  0.7818608E-02  0.1130116E+00
         25   -1    0    0    0    0  0.00000000000E+00  0.00000000000E+00  0.99999998245E-14  0.12500000000E+03  0.12500000000E+03 0.  0.
        -13    1    3    3    0    0  0.92232405709E+01 -0.35866099270E+02  0.32744677645E+01  0.37177661930E+02  0.10566000000E+00 0. -1.
         23    2    1    0    0    0 -0.33364670389E+02 -0.63951491127E+01  0.10435960865E+02  0.89461169947E+02  0.82099284326E+02 0.  0.
         13    1    3    3    0    0 -0.42587910960E+02  0.29470950157E+02  0.71614931001E+01  0.52283508017E+02  0.10566000000E+00 0.  1.
         22    1    1    0    0    0  0.33364670389E+02  0.63951491127E+01 -0.10435960865E+02  0.35538830053E+02  0.00000000000E+00 0.  1.
</event>
<event>
 5    1  0.2295636E-004  0.9118800E+02  0.7818608E-02  0.1130116E+00
         25   -1    0    0    0    0  0.00000000000E+00  0.00000000000E+00  0.99999998245E-14  0.12500000000E+03  0.12500000000E+03 0.  0.
        -13    1    3    3    0    0 -0.35185257399E+02  0.51706683416E+01  0.10745941414E+02  0.37151373733E+02  0.10566000000E+00 0.  1.
         23    2    1    0    0    0  0.81470080216E+01 -0.21627218827E+02  0.25882081207E+02  0.90301405483E+02  0.83368767358E+02 0.  0.
         13    1    3    3    0    0  0.43332265421E+02 -0.26797887168E+02  0.15136139792E+02  0.53150031750E+02  0.10566000000E+00 0. -1.
         22    1    1    0    0    0 -0.81470080216E+01  0.21627218827E+02 -0.25882081207E+02  0.34698594517E+02  0.00000000000E+00 0. -1.
</event>
<event>
 5    1  0.2295636E-004  0.9118800E+02  0.7818608E-02  0.1130116E+00
         25   -1    0    0    0    0  0.00000000000E+00  0.00000000000E+00  0.99999998245E-14  0.12500000000E+03  0.12500000000E+03 0.  0.
        -13    1    3    3    0    0  0.13881904845E+02  0.28674754053E+02  0.34921226386E+02  0.47269990676E+02  0.10566000000E+00 0. -1.
         23    2    1    0    0    0  0.95678262348E+01 -0.17556350345E+02  0.21581091777E+02  0.95580410293E+02  0.90940104317E+02 0.  0.
         13    1    3    3    0    0 -0.43140786097E+01 -0.46231104398E+02 -0.13340134610E+02  0.48310419617E+02  0.10566000000E+00 0.  1.
         22    1    1    0    0    0 -0.95678262348E+01  0.17556350345E+02 -0.21581091777E+02  0.29419589707E+02  0.00000000000E+00 0.  1.
</event>
<event>
 5    1  0.2295636E-004  0.9118800E+02  0.7818608E-02  0.1130116E+00
         25   -1    0    0    0    0  0.00000000000E+00  0.00000000000E+00  0.99999998245E-14  0.12500000000E+03  0.12500000000E+03 0.  0.
        -13    1    3    3    0    0  0.69137111682E+01 -0.21713966285E+00 -0.60435917375E+02  0.60830566533E+02  0.10566000000E+00 0.  1.
         23    2    1    0    0    0 -0.61699885634E+01 -0.45015881220E+01 -0.17914138234E+02  0.10552567323E+03  0.10371315398E+03 0.  0.
         13    1    3    3    0    0 -0.13083699732E+02 -0.42844484592E+01  0.42521779141E+02  0.44695106697E+02  0.10566000000E+00 0. -1.
         22    1    1    0    0    0  0.61699885634E+01  0.45015881220E+01  0.17914138234E+02  0.19474326770E+02  0.00000000000E+00 0.  1.
</event>
<event>
 5    1  0.2295636E-004  0.9118800E+02  0.7818608E-02  0.1130116E+00
         25   -1    0    0    0    0  0.00000000000E+00  0.00000000000E+00  0.99999998245E-14  0.12500000000E+03  0.12500000000E+03 0.  0.
        -13    1    3    3    0    0  0.32155477221E+02  0.80988575403E+01  0.94005768469E+01  0.34466624695E+02  0.10566000000E+00 0.  1.
         23    2    1    0    0    0 -0.65065434706E+01  0.37996430463E+02  0.14947538702E+02  0.83653987507E+02  0.72722052204E+02 0.  0.
         13    1    3    3    0    0 -0.38662020691E+02  0.29897572922E+02  0.55469618550E+01  0.49187362812E+02  0.10566000000E+00 0. -1.
         22    1    1    0    0    0  0.65065434706E+01 -0.37996430463E+02 -0.14947538702E+02  0.41346012493E+02  0.00000000000E+00 0.  1.
</event>
<event>
 5    1  0.2295636E-004  0.9118800E+02  0.7818608E-02  0.1130116E+00
         25   -1    0    0    0    0  0.00000000000E+00  0.00000000000E+00  0.99999998245E-14  0.12500000000E+03  0.12500000000E+03 0.  0.
        -13    1    3    3    0    0  0.23095899793E+02  0.51975581628E+01  0.32002590705E+02  0.39807187466E+02  0.10566000000E+00 0. -1.
         23    2    1    0    0    0 -0.26267501287E+02 -0.20019513429E+01  0.80679897548E+00  0.98643969236E+02  0.95057836652E+02 0.  0.
         13    1    3    3    0    0 -0.49363401080E+02 -0.71995095057E+01 -0.31195791730E+02  0.58836781769E+02  0.10566000000E+00 0.  1.
         22    1    1    0    0    0  0.26267501287E+02  0.20019513429E+01 -0.80679897548E+00  0.26356030764E+02  0.00000000000E+00 0.  1.
</event>
<event>
 5    1  0.2295636E-004  0.9118800E+02  0.7818608E-02  0.1130116E+00
         25   -1    0    0    0    0  0.00000000000E+00  0.00000000000E+00  0.99999998245E-14  0.12500000000E+03  0.12500000000E+03 0.  0.
        -13    1    3    3    0    0 -0.11121805235E+02 -0.31202800754E+02 -0.24535190341E+02  0.41222518794E+02  0.10566000000E+00 0.  1.
         23    2    1    0    0    0 -0.81488112496E+01  0.22553420416E+02 -0.17043938710E+02  0.95579671246E+02  0.90939088469E+02 0.  0.
         13    1    3    3    0    0  0.29729939855E+01  0.53756221170E+02  0.74912516312E+01  0.54357152452E+02  0.10566000000E+00 0. -1.
         22    1    1    0    0    0  0.81488112496E+01 -0.22553420416E+02  0.17043938710E+02  0.29420328754E+02  0.00000000000E+00 0. -1.
</event>
<event>
 5    1  0.2295636E-004  0.9118800E+02  0.7818608E-02  0.1130116E+00
         25   -1    0    0    0    0  0.00000000000E+00  0.00000000000E+00  0.99999998245E-14  0.12500000000E+03  0.12500000000E+03 0.  0.
        -13    1    3    3    0    0  0.96467561318E+01 -0.58760288929E+02  0.51025259869E+00  0.59549164399E+02  0.10566000000E+00 0.  1.
         23    2    1    0    0    0  0.11757375071E+02 -0.25469793517E+02  0.11516462479E+02  0.94675502339E+02  0.89687655699E+02 0.  0.
         13    1    3    3    0    0  0.21106189394E+01  0.33290495412E+02  0.11006209880E+02  0.35126337940E+02  0.10566000000E+00 0. -1.
         22    1    1    0    0    0 -0.11757375071E+02  0.25469793517E+02 -0.11516462479E+02  0.30324497661E+02  0.00000000000E+00 0.  1.
</event>
<event>
 5    1  0.2295636E-004  0.9118800E+02  0.7818608E-02  0.1130116E+00
         25   -1    0    0    0    0  0.00000000000E+00  0.00000000000E+00  0.99999998245E-14  0.12500000000E+03  0.12500000000E+03 0.  0.
        -13    1    3    3    0    0 -0.30086531278E+02  0.20067683366E+02 -0.47224409214E+01  0.36472234539E+02  0.10566000000E+00 0. -1.
         23    2    1    0    0    0  0.27922807093E+02  0.45715770595E+01  0.53375582940E-01  0.96705383521E+02  0.92473487445E+02 0.  0.
         13    1    3    3    0    0  0.58009338371E+02 -0.15496106306E+02  0.47758165043E+01  0.60233148981E+02  0.10566000000E+00 0.  1.
         22    1    1    0    0    0 -0.27922807093E+02 -0.45715770595E+01 -0.53375582940E-01  0.28294616479E+02  0.00000000000E+00 0.  1.
</event>
<event>
 5    1  0.2295636E-004  0.9118800E+02  0.7818608E-02  0.1130116E+00
         25   -1    0    0    0    0  0.00000000000E+00  0.00000000000E+00  0.99999998245E-14  0.12500000000E+03  0.12500000000E+03 0.  0.
        -13    1    3    3    0    0  0.26690381182E+02  0.22304896166E+02  0.23477669210E+02  0.41965425724E+02  0.10566000000E+00 0.  1.
         23    2    1    0    0    0  0.15819462313E+02 -0.23820671476E+02 -0.29964305266E+01  0.96248332686E+02  0.91853596399E+02 0.  0.
         13    1    3    3    0    0 -0.10870918869E+02 -0.46125567642E+02 -0.26474099737E+02  0.54282906962E+02  0.10566000000E+00 0. -1.
         22    1    1    0    0    0 -0.15819462313E+02  0.23820671476E+02  0.29964305266E+01  0.28751667314E+02  0.00000000000E+00 0. -1.
</event>
<event>
 5    1  0.2295636E-004  0.9118800E+02  0.7818608E-02  0.1130116E+00
         25   -1    0    0    0    0  0.00000000000E+00  0.00000000000E+00  0.99999998245E-14  0.12500000000E+03  0.12500000000E+03 0.  0.
        -13    1    3    3    0    0  0.41350759460E+02 -0.24030565595E+02  0.13249063839E+02  0.49627635924E+02  0.10566000000E+00 0.  1.
         23    2    1    0    0    0 -0.52879460379E+01 -0.14814364747E+02  0.21987977540E+02  0.97964857455E+02  0.94160577546E+02 0.  0.
         13    1    3    3    0    0 -0.46638705498E+02  0.92162008479E+01  0.87389137008E+01  0.48337221531E+02  0.10566000000E+00 0. -1.
         22    1    1    0    0    0  0.52879460379E+01  0.14814364747E+02 -0.21987977540E+02  0.27035142545E+02  0.00000000000E+00 0. -1.
</event>
<event>
 5    1  0.2295636E-004  0.9118800E+02  0.7818608E-02  0.1130116E+00
         25   -1    0    0    0    0  0.00000000000E+00  0.00000000000E+00  0.99999998245E-14  0.12500000000E+03  0.12500000000E+03 0.  0.
        -13    1    3    3    0    0 -0.11891720848E+01  0.55550822499E+01  0.42499021337E+02  0.42877162309E+02  0.10566000000E+00 0.  1.
         23    2    1    0    0    0 -0.71239486397E+01  0.25134941152E+02 -0.82565802816E+01  0.97601331622E+02  0.93676746878E+02 0.  0.
         13    1    3    3    0    0 -0.59347765549E+01  0.19579858902E+02 -0.50755601618E+02  0.54724169313E+02  0.10566000000E+00 0. -1.
         22    1    1    0    0    0  0.71239486397E+01 -0.25134941152E+02  0.82565802816E+01  0.27398668378E+02  0.00000000000E+00 0.  1.
</event>
<event>
 5    1  0.2295636E-004  0.9118800E+02  0.7818608E-02  0.1130116E+00
         25   -1    0    0    0    0  0.00000000000E+00  0.00000000000E+00  0.99999998245E-14  0.12500000000E+03  0.12500000000E+03 0.  0.
        -13    1    3    3    0    0 -0.29787050611E+02 -0.45884563819E+02  0.29469308092E+02  0.62137853716E+02  0.10566000000E+00 0.  1.
         23    2    1    0    0    0 -0.17451641298E+02 -0.18787179081E+02  0.11656422683E+02  0.96832819247E+02  0.92645587114E+02 0.  0.
         13    1    3    3    0    0  0.12335409313E+02  0.27097384738E+02 -0.17812885408E+02  0.34694965531E+02  0.10566000000E+00 0. -1.
         22    1    1    0    0    0  0.17451641298E+02  0.18787179081E+02 -0.11656422683E+02  0.28167180753E+02  0.00000000000E+00 0.  1.
</event>
<event>
 5    1  0.2295636E-004  0.9118800E+02  0.7818608E-02  0.1130116E+00
         25   -1    0    0    0    0  0.00000000000E+00  0.00000000000E+00  0.99999998245E-14  0.12500000000E+03  0.12500000000E+03 0.  0.
        -13    1    3    3    0    0 -0.39378847127E+02 -0.45518368215E+02  0.13086910656E+02  0.61594592625E+02  0.10566000000E+00 0.  1.
         23    2    1    0    0    0 -0.14090449505E+02 -0.23843871487E+02  0.11712858840E+02  0.94929049949E+02  0.90040338112E+02 0.  0.
         13    1    3    3    0    0  0.25288397622E+02  0.21674496728E+02 -0.13740518160E+01  0.33334457325E+02  0.10566000000E+00 0. -1.
         22    1    1    0    0    0  0.14090449505E+02  0.23843871487E+02 -0.11712858840E+02  0.30070950051E+02  0.00000000000E+00 0.  1.
</event>
<event>
 5    1  0.2295636E-004  0.9118800E+02  0.7818608E-02  0.1130116E+00
         25   -1    0    0    0    0  0.00000000000E+00  0.00000000000E+00  0.99999998245E-14  0.12500000000E+03  0.12500000000E+03 0.  0.
        -13    1    3    3    0    0  0.37866739179E+02 -0.30465699203E+02  0.25623427603E+02  0.54941969114E+02  0.10566000000E+00 0. -1.
         23    2    1    0    0    0  0.26074093200E+02 -0.11370702868E+02 -0.80754299806E+01  0.95430356964E+02  0.90733616928E+02 0.  0.
         13    1    3    3    0    0 -0.11792645978E+02  0.19094996335E+02 -0.33698857583E+02  0.40488387850E+02  0.10566000000E+00 0.  1.
         22    1    1    0    0    0 -0.26074093200E+02  0.11370702868E+02  0.80754299806E+01  0.29569643036E+02  0.00000000000E+00 0. -1.
</event>
<event>
 5    1  0.2295636E-004  0.9118800E+02  0.7818608E-02  0.1130116E+00
         25   -1    0    0    0    0  0.00000000000E+00  0.00000000000E+00  0.99999998245E-14  0.12500000000E+03  0.12500000000E+03 0.  0.
        -13    1    3    3    0    0  0.70275751944E+01 -0.53354975698E+02 -0.76936802405E+01  0.54363076849E+02  0.10566000000E+00 0. -1.
         23    2    1    0    0    0  0.98432519968E+01 -0.14555745264E+02 -0.22903818794E+02  0.96132297538E+02  0.91695552698E+02 0.  0.
         13    1    3    3    0    0  0.28156768024E+01  0.38799230434E+02 -0.15210138553E+02  0.41769220689E+02  0.10566000000E+00 0.  1.
         22    1    1    0    0    0 -0.98432519968E+01  0.14555745264E+02  0.22903818794E+02  0.28867702462E+02  0.00000000000E+00 0. -1.
</event>
<event>
 5    1  0.2295636E-004  0.9118800E+02  0.7818608E-02  0.1130116E+00
         25   -1    0    0    0    0  0.00000000000E+00  0.00000000000E+00  0.99999998245E-14  0.12500000000E+03  0.12500000000E+03 0.  0.
        -13    1    3    3    0    0  0.26500725792E+02 -0.50937694069E+02  0.17511451660E+02  0.60029986239E+02  0.10566000000E+00 0.  1.
         23    2    1    0    0    0  0.14395337686E+02 -0.13619790946E+02  0.16397854330E+02  0.99278140053E+02  0.95888138021E+02 0.  0.
         13    1    3    3    0    0 -0.12105388106E+02  0.37317903123E+02 -0.11135973291E+01  0.39248153813E+02  0.10566000000E+00 0. -1.
         22    1    1    0    0    0 -0.14395337686E+02  0.13619790946E+02 -0.16397854330E+02  0.25721859947E+02  0.00000000000E+00 0.  1.
</event>
<event>
 5    1  0.2295636E-004  0.9118800E+02  0.7818608E-02  0.1130116E+00
         25   -1    0    0    0    0  0.00000000000E+00  0.00000000000E+00  0.99999998245E-14  0.12500000000E+03  0.12500000000E+03 0.  0.
        -13    1    3    3    0    0  0.31869442122E+02 -0.30909443983E+02 -0.24512222051E+02  0.50714053895E+02  0.10566000000E+00 0.  1.
         23    2    1    0    0    0  0.23628036420E+02 -0.10463527295E+02  0.14385672056E+02  0.95424383877E+02  0.90725387678E+02 0.  0.
         13    1    3    3    0    0 -0.82414057015E+01  0.20445916689E+02  0.38897894107E+02  0.44710329983E+02  0.10566000000E+00 0. -1.
         22    1    1    0    0    0 -0.23628036420E+02  0.10463527295E+02 -0.14385672056E+02  0.29575616123E+02  0.00000000000E+00 0.  1.
</event>
<event>
 5    1  0.2295636E-004  0.9118800E+02  0.7818608E-02  0.1130116E+00
         25   -1    0    0    0    0  0.00000000000E+00  0.00000000000E+00  0.99999998245E-14  0.12500000000E+03  0.12500000000E+03 0.  0.
        -13    1    3    3    0    0  0.20630561722E+01  0.35773127007E+02  0.31967303547E+02  0.48019709253E+02  0.10566000000E+00 0.  1.
         23    2    1    0    0    0  0.18758900318E+02  0.22528131064E+02 -0.91141602264E+01  0.94300147444E+02  0.89162979206E+02 0.  0.
         13    1    3    3    0    0  0.16695844146E+02 -0.13244995943E+02 -0.41081463774E+02  0.46280438191E+02  0.10566000000E+00 0. -1.
         22    1    1    0    0    0 -0.18758900318E+02 -0.22528131064E+02  0.91141602264E+01  0.30699852556E+02  0.00000000000E+00 0.  1.
</event>
<event>
 5    1  0.2295636E-004  0.9118800E+02  0.7818608E-02  0.1130116E+00
         25   -1    0    0    0    0  0.00000000000E+00  0.00000000000E+00  0.99999998245E-14  0.12500000000E+03  0.12500000000E+03 0.  0.
        -13    1    3    3    0    0  0.95589543247E+01  0.46506603245E+02  0.74547759720E+01  0.48060613833E+02  0.10566000000E+00 0.  1.
         23    2    1    0    0    0 -0.17664222380E+02  0.17605984342E+02 -0.17115869029E+02  0.94751885851E+02  0.89794050263E+02 0.  0.
         13    1    3    3    0    0 -0.27223176705E+02 -0.28900618902E+02 -0.24570645001E+02  0.46691272018E+02  0.10566000000E+00 0. -1.
         22    1    1    0    0    0  0.17664222380E+02 -0.17605984342E+02  0.17115869029E+02  0.30248114149E+02  0.00000000000E+00 0.  1.
</event>
<event>
 5    1  0.2295636E-004  0.9118800E+02  0.7818608E-02  0.1130116E+00
         25   -1    0    0    0    0  0.00000000000E+00  0.00000000000E+00  0.99999998245E-14  0.12500000000E+03  0.12500000000E+03 0.  0.
        -13    1    3    3    0    0 -0.89117382461E+01  0.19280781536E+02  0.29348228057E+02  0.36228404179E+02  0.10566000000E+00 0. -1.
         23    2    1    0    0    0  0.17361844267E+02 -0.24357270515E+02 -0.14504459114E+00  0.95087940539E+02  0.90260651087E+02 0.  0.
         13    1    3    3    0    0  0.26273582513E+02 -0.43638052051E+02 -0.29493272648E+02  0.58859536360E+02  0.10566000000E+00 0.  1.
         22    1    1    0    0    0 -0.17361844267E+02  0.24357270515E+02  0.14504459114E+00  0.29912059461E+02  0.00000000000E+00 0.  1.
</event>
<event>
 5    1  0.2295636E-004  0.9118800E+02  0.7818608E-02  0.1130116E+00
         25   -1    0    0    0    0  0.00000000000E+00  0.00000000000E+00  0.99999998245E-14  0.12500000000E+03  0.12500000000E+03 0.  0.
        -13    1    3    3    0    0 -0.38870943973E+02 -0.68733999321E+01  0.73292529316E+01  0.40148761183E+02  0.10566000000E+00 0. -1.
         23    2    1    0    0    0  0.10238988304E+02  0.53830740092E+01  0.27908802431E+02  0.94788816302E+02  0.89845445491E+02 0.  0.
         13    1    3    3    0    0  0.49109932277E+02  0.12256473941E+02  0.20579549499E+02  0.54640055119E+02  0.10566000000E+00 0.  1.
         22    1    1    0    0    0 -0.10238988304E+02 -0.53830740092E+01 -0.27908802431E+02  0.30211183698E+02  0.00000000000E+00 0.  1.
</event>
<event>
 5    1  0.2295636E-004  0.9118800E+02  0.7818608E-02  0.1130116E+00
         25   -1    0    0    0    0  0.00000000000E+00  0.00000000000E+00  0.99999998245E-14  0.12500000000E+03  0.12500000000E+03 0.  0.
        -13    1    3    3    0    0  0.33104951377E+02  0.38435404681E+02 -0.20241357048E+02  0.54616314759E+02  0.10566000000E+00 0.  1.
         23    2    1    0    0    0 -0.23569998343E+01  0.30277399840E+02 -0.43590038234E+01  0.94319757113E+02  0.89190466296E+02 0.  0.
         13    1    3    3    0    0 -0.35461951212E+02 -0.81580048410E+01  0.15882353225E+02  0.39703442353E+02  0.10566000000E+00 0. -1.
         22    1    1    0    0    0  0.23569998343E+01 -0.30277399840E+02  0.43590038234E+01  0.30680242887E+02  0.00000000000E+00 0.  1.
</event>
<event>
 5    1  0.2295636E-004  0.9118800E+02  0.7818608E-02  0.1130116E+00
         25   -1    0    0    0    0  0.00000000000E+00  0.00000000000E+00  0.99999998245E-14  0.12500000000E+03  0.12500000000E+03 0.  0.
        -13    1    3    3    0    0 -0.51647574797E+02  0.18362852501E+02 -0.23441030360E+02  0.59616771154E+02  0.10566000000E+00 0. -1.
         23    2    1    0    0    0 -0.26618943352E+02  0.27775374347E+01  0.14416067535E+01  0.98197740965E+02  0.94469229071E+02 0.  0.
         13    1    3    3    0    0  0.25028631446E+02 -0.15585315067E+02  0.24882637114E+02  0.38580969811E+02  0.10566000000E+00 0.  1.
         22    1    1    0    0    0  0.26618943352E+02 -0.27775374347E+01 -0.14416067535E+01  0.26802259035E+02  0.00000000000E+00 0. -1.
</event>
<event>
 5    1  0.2295636E-004  0.9118800E+02  0.7818608E-02  0.1130116E+00
         25   -1    0    0    0    0  0.00000000000E+00  0.00000000000E+00  0.99999998245E-14  0.12500000000E+03  0.12500000000E+03 0.  0.
        -13    1    3    3    0    0 -0.19856912654E+02  0.21883412121E+02 -0.28109245901E+02  0.40783839635E+02  0.10566000000E+00 0.  1.
         23    2    1    0    0    0  0.11416223123E+02 -0.22384483213E+02 -0.10418849983E+02  0.97798020769E+02  0.93938837507E+02 0.  0.
         13    1    3    3    0    0  0.31273135777E+02 -0.44267895334E+02  0.17690395918E+02  0.57014181134E+02  0.10566000000E+00 0. -1.
         22    1    1    0    0    0 -0.11416223123E+02  0.22384483213E+02  0.10418849983E+02  0.27201979231E+02  0.00000000000E+00 0. -1.
</event>
<event>
 5    1  0.2295636E-004  0.9118800E+02  0.7818608E-02  0.1130116E+00
         25   -1    0    0    0    0  0.00000000000E+00  0.00000000000E+00  0.99999998245E-14  0.12500000000E+03  0.12500000000E+03 0.  0.
        -13    1    3    3    0    0 -0.20266887928E+02 -0.46046549228E+02  0.24145642284E+02  0.55803715355E+02  0.10566000000E+00 0. -1.
         23    2    1    0    0    0 -0.16489686586E+02 -0.23291003162E+02 -0.79937281868E+01  0.95364206062E+02  0.90642437718E+02 0.  0.
         13    1    3    3    0    0  0.37772013415E+01  0.22755546065E+02 -0.32139370470E+02  0.39560490707E+02  0.10566000000E+00 0.  1.
         22    1    1    0    0    0  0.16489686586E+02  0.23291003162E+02  0.79937281868E+01  0.29635793938E+02  0.00000000000E+00 0. -1.
</event>
<event>
 5    1  0.2295636E-004  0.9118800E+02  0.7818608E-02  0.1130116E+00
         25   -1    0    0    0    0  0.00000000000E+00  0.00000000000E+00  0.99999998245E-14  0.12500000000E+03  0.12500000000E+03 0.  0.
        -13    1    3    3    0    0 -0.26884645529E+02  0.15346597317E+02 -0.14854822929E+02  0.34336265708E+02  0.10566000000E+00 0.  1.
         23    2    1    0    0    0  0.21002001895E+02  0.26715629612E+01  0.20761941835E+02  0.95347351535E+02  0.90619191586E+02 0.  0.
         13    1    3    3    0    0  0.47886647424E+02 -0.12675034356E+02  0.35616764765E+02  0.61011085827E+02  0.10566000000E+00 0. -1.
         22    1    1    0    0    0 -0.21002001895E+02 -0.26715629612E+01 -0.20761941835E+02  0.29652648465E+02  0.00000000000E+00 0. -1.
</event>
<event>
 5    1  0.2295636E-004  0.9118800E+02  0.7818608E-02  0.1130116E+00
         25   -1    0    0    0    0  0.00000000000E+00  0.00000000000E+00  0.99999998245E-14  0.12500000000E+03  0.12500000000E+03 0.  0.
        -13    1    3    3    0    0  0.11767231993E+02  0.33421657749E+02  0.54878387893E+01  0.35855299386E+02  0.10566000000E+00 0.  1.
         23    2    1    0    0    0  0.31653586682E+01 -0.25865520511E+02  0.12364796310E+02  0.96156754090E+02  0.91728885977E+02 0.  0.
         13    1    3    3    0    0 -0.86018733244E+01 -0.59287178260E+02  0.68769575211E+01  0.60301454704E+02  0.10566000000E+00 0. -1.
         22    1    1    0    0    0 -0.31653586682E+01  0.25865520511E+02 -0.12364796310E+02  0.28843245910E+02  0.00000000000E+00 0. -1.
</event>
<event>
 5    1  0.2295636E-004  0.9118800E+02  0.7818608E-02  0.1130116E+00
         25   -1    0    0    0    0  0.00000000000E+00  0.00000000000E+00  0.99999998245E-14  0.12500000000E+03  0.12500000000E+03 0.  0.
        -13    1    3    3    0    0 -0.51694764964E+02 -0.14998299844E+02 -0.10414952659E+02  0.54824995447E+02  0.10566000000E+00 0.  1.
         23    2    1    0    0    0 -0.36155997259E+02 -0.20272696409E+02  0.11293093506E+02  0.82037547574E+02  0.69888388832E+02 0.  0.
         13    1    3    3    0    0  0.15538767705E+02 -0.52743965651E+01  0.21708046165E+02  0.27212552127E+02  0.10566000000E+00 0. -1.
         22    1    1    0    0    0  0.36155997259E+02  0.20272696409E+02 -0.11293093506E+02  0.42962452426E+02  0.00000000000E+00 0.  1.
</event>
<event>
 5    1  0.2295636E-004  0.9118800E+02  0.7818608E-02  0.1130116E+00
         25   -1    0    0    0    0  0.00000000000E+00  0.00000000000E+00  0.99999998245E-14  0.12500000000E+03  0.12500000000E+03 0.  0.
        -13    1    3    3    0    0 -0.24545463958E+02 -0.11794528648E+02  0.18179774686E+02  0.32743030992E+02  0.10566000000E+00 0. -1.
         23    2    1    0    0    0  0.27155988797E+02 -0.61143171925E+01 -0.13934574346E+02  0.93871155427E+02  0.88559521547E+02 0.  0.
         13    1    3    3    0    0  0.51701452754E+02  0.56802114550E+01 -0.32114349032E+02  0.61128124434E+02  0.10566000000E+00 0.  1.
         22    1    1    0    0    0 -0.27155988797E+02  0.61143171925E+01  0.13934574346E+02  0.31128844573E+02  0.00000000000E+00 0.  1.
</event>
<event>
 5    1  0.2295636E-004  0.9118800E+02  0.7818608E-02  0.1130116E+00
         25   -1    0    0    0    0  0.00000000000E+00  0.00000000000E+00  0.99999998245E-14  0.12500000000E+03  0.12500000000E+03 0.  0.
        -13    1    3    3    0    0  0.31323695181E+02 -0.42755628387E+00  0.23605794035E+02  0.39225009372E+02  0.10566000000E+00 0.  1.
         23    2    1    0    0    0 -0.11082595122E+02  0.16993254308E+02 -0.15488477072E+02  0.99475746267E+02  0.96145392853E+02 0.  0.
         13    1    3    3    0    0 -0.42406290303E+02  0.17420810592E+02 -0.39094271107E+02  0.60250736895E+02  0.10566000000E+00 0. -1.
         22    1    1    0    0    0  0.11082595122E+02 -0.16993254308E+02  0.15488477072E+02  0.25524253733E+02  0.00000000000E+00 0. -1.
</event>
<event>
 5    1  0.2295636E-004  0.9118800E+02  0.7818608E-02  0.1130116E+00
         25   -1    0    0    0    0  0.00000000000E+00  0.00000000000E+00  0.99999998245E-14  0.12500000000E+03  0.12500000000E+03 0.  0.
        -13    1    3    3    0    0 -0.51601826829E+01  0.81427363155E+01 -0.30315477827E+02  0.31811491634E+02  0.10566000000E+00 0. -1.
         23    2    1    0    0    0  0.16652472695E+02 -0.62669694437E+01  0.25766363023E+02  0.93687299441E+02  0.88299631145E+02 0.  0.
         13    1    3    3    0    0  0.21812655378E+02 -0.14409705759E+02  0.56081840850E+02  0.61875807808E+02  0.10566000000E+00 0.  1.
         22    1    1    0    0    0 -0.16652472695E+02  0.62669694437E+01 -0.25766363023E+02  0.31312700559E+02  0.00000000000E+00 0.  1.
</event>
<event>
 5    1  0.2295636E-004  0.9118800E+02  0.7818608E-02  0.1130116E+00
         25   -1    0    0    0    0  0.00000000000E+00  0.00000000000E+00  0.99999998245E-14  0.12500000000E+03  0.12500000000E+03 0.  0.
        -13    1    3    3    0    0 -0.29631512214E+02 -0.24247687619E+02 -0.95799278935E+01  0.39468507109E+02  0.10566000000E+00 0.  1.
         23    2    1    0    0    0 -0.31076382024E+00  0.26434094220E+02 -0.25430610648E+01  0.98442043171E+02  0.94791934217E+02 0.  0.
         13    1    3    3    0    0  0.29320748394E+02  0.50681781839E+02  0.70368668287E+01  0.58973536061E+02  0.10566000000E+00 0. -1.
         22    1    1    0    0    0  0.31076382024E+00 -0.26434094220E+02  0.25430610648E+01  0.26557956829E+02  0.00000000000E+00 0. -1.
</event>
<event>
 5    1  0.2295636E-004  0.9118800E+02  0.7818608E-02  0.1130116E+00
         25   -1    0    0    0    0  0.00000000000E+00  0.00000000000E+00  0.99999998245E-14  0.12500000000E+03  0.12500000000E+03 0.  0.
        -13    1    3    3    0    0 -0.15404566051E+02  0.19540600680E+02 -0.34805398308E+02  0.42785075032E+02  0.10566000000E+00 0. -1.
         23    2    1    0    0    0 -0.37782973609E+01 -0.26580222254E+02 -0.10820660469E+02  0.96054008239E+02  0.91588766013E+02 0.  0.
         13    1    3    3    0    0  0.11626268690E+02 -0.46120822934E+02  0.23984737838E+02  0.53268933207E+02  0.10566000000E+00 0.  1.
         22    1    1    0    0    0  0.37782973609E+01  0.26580222254E+02  0.10820660469E+02  0.28945991761E+02  0.00000000000E+00 0.  1.
</event>
<event>
 5    1  0.2295636E-004  0.9118800E+02  0.7818608E-02  0.1130116E+00
         25   -1    0    0    0    0  0.00000000000E+00  0.00000000000E+00  0.99999998245E-14  0.12500000000E+03  0.12500000000E+03 0.  0.
        -13    1    3    3    0    0 -0.33466309874E+02  0.18659249321E+02  0.94479208027E+00  0.38328387364E+02  0.10566000000E+00 0. -1.
         23    2    1    0    0    0  0.13636798578E+02 -0.33904632389E+01  0.25532367802E+02  0.95856230134E+02  0.91318440271E+02 0.  0.
         13    1    3    3    0    0  0.47103108452E+02 -0.22049712560E+02  0.24587575722E+02  0.57527842770E+02  0.10566000000E+00 0.  1.
         22    1    1    0    0    0 -0.13636798578E+02  0.33904632389E+01 -0.25532367802E+02  0.29143769866E+02  0.00000000000E+00 0.  1.
</event>
<event>
 5    1  0.2295636E-004  0.9118800E+02  0.7818608E-02  0.1130116E+00
         25   -1    0    0    0    0  0.00000000000E+00  0.00000000000E+00  0.99999998245E-14  0.12500000000E+03  0.12500000000E+03 0.  0.
        -13    1    3    3    0    0  0.16246648183E+02 -0.12357530499E+02  0.17362217850E+02  0.26797759420E+02  0.10566000000E+00 0.  1.
         23    2    1    0    0    0 -0.37674567926E+02 -0.19129258457E+02  0.59151693526E+01  0.82335133588E+02  0.70418629616E+02 0.  0.
         13    1    3    3    0    0 -0.53921216108E+02 -0.67717279581E+01 -0.11447048498E+02  0.55537374168E+02  0.10566000000E+00 0. -1.
         22    1    1    0    0    0  0.37674567926E+02  0.19129258457E+02 -0.59151693526E+01  0.42664866412E+02  0.00000000000E+00 0.  1.
</event>
<event>
 5    1  0.2295636E-004  0.9118800E+02  0.7818608E-02  0.1130116E+00
         25   -1    0    0    0    0  0.00000000000E+00  0.00000000000E+00  0.99999998245E-14  0.12500000000E+03  0.12500000000E+03 0.  0.
        -13    1    3    3    0    0  0.24904959522E+02 -0.41534936906E+02  0.36461444622E+02  0.60620591391E+02  0.10566000000E+00 0.  1.
         23    2    1    0    0    0  0.19106447208E+02 -0.19694153659E+02  0.91354957473E+01  0.96079880778E+02  0.91624069951E+02 0.  0.
         13    1    3    3    0    0 -0.57985123133E+01  0.21840783247E+02 -0.27325948875E+02  0.35459289387E+02  0.10566000000E+00 0. -1.
         22    1    1    0    0    0 -0.19106447208E+02  0.19694153659E+02 -0.91354957473E+01  0.28920119222E+02  0.00000000000E+00 0.  1.
</event>
<event>
 5    1  0.2295636E-004  0.9118800E+02  0.7818608E-02  0.1130116E+00
         25   -1    0    0    0    0  0.00000000000E+00  0.00000000000E+00  0.99999998245E-14  0.12500000000E+03  0.12500000000E+03 0.  0.
        -13    1    3    3    0    0 -0.55903597836E+02  0.86252749087E+01 -0.15371223522E+02  0.58616493369E+02  0.10566000000E+00 0. -1.
         23    2    1    0    0    0 -0.27441501445E+02  0.14029490825E+02  0.46485888669E+01  0.93831554533E+02  0.88503608024E+02 0.  0.
         13    1    3    3    0    0  0.28462096391E+02  0.54042159163E+01  0.20019812389E+02  0.35215061164E+02  0.10566000000E+00 0.  1.
         22    1    1    0    0    0  0.27441501445E+02 -0.14029490825E+02 -0.46485888669E+01  0.31168445467E+02  0.00000000000E+00 0. -1.
</event>
<event>
 5    1  0.2295636E-004  0.9118800E+02  0.7818608E-02  0.1130116E+00
         25   -1    0    0    0    0  0.00000000000E+00  0.00000000000E+00  0.99999998245E-14  0.12500000000E+03  0.12500000000E+03 0.  0.
        -13    1    3    3    0    0  0.55697426356E+01  0.42265831474E+02  0.22954581332E+02  0.48418452179E+02  0.10566000000E+00 0. -1.
         23    2    1    0    0    0  0.28319050354E+02  0.41215453801E+01  0.79287227194E+01  0.95304539181E+02  0.90560117023E+02 0.  0.
         13    1    3    3    0    0  0.22749307719E+02 -0.38144286094E+02 -0.15025858613E+02  0.46886087002E+02  0.10566000000E+00 0.  1.
         22    1    1    0    0    0 -0.28319050354E+02 -0.41215453801E+01 -0.79287227194E+01  0.29695460819E+02  0.00000000000E+00 0.  1.
</event>
<event>
 5    1  0.2295636E-004  0.9118800E+02  0.7818608E-02  0.1130116E+00
         25   -1    0    0    0    0  0.00000000000E+00  0.00000000000E+00  0.99999998245E-14  0.12500000000E+03  0.12500000000E+03 0.  0.
        -13    1    3    3    0    0  0.85375302682E+01 -0.30032407892E+02  0.10764185826E+02  0.33025956571E+02  0.10566000000E+00 0.  1.
         23    2    1    0    0    0  0.14936253033E+02  0.28606232331E+02  0.19204568098E+01  0.92672050217E+02  0.86850518445E+02 0.  0.
         13    1    3    3    0    0  0.63987227647E+01  0.58638640223E+02 -0.88437290165E+01  0.59646093646E+02  0.10566000000E+00 0. -1.
         22    1    1    0    0    0 -0.14936253033E+02 -0.28606232331E+02 -0.19204568098E+01  0.32327949783E+02  0.00000000000E+00 0. -1.
</event>
<event>
 5    1  0.2295636E-004  0.9118800E+02  0.7818608E-02  0.1130116E+00
         25   -1    0    0    0    0  0.00000000000E+00  0.00000000000E+00  0.99999998245E-14  0.12500000000E+03  0.12500000000E+03 0.  0.
        -13    1    3    3    0    0  0.49817874573E+02  0.95142272531E+01  0.17352567748E+02  0.53604700528E+02  0.10566000000E+00 0.  1.
         23    2    1    0    0    0  0.29976302680E+02 -0.16291097270E+02  0.18525773591E+02  0.86177546964E+02  0.76937550916E+02 0.  0.
         13    1    3    3    0    0 -0.19841571893E+02 -0.25805324524E+02  0.11732058423E+01  0.32572846436E+02  0.10566000000E+00 0. -1.
         22    1    1    0    0    0 -0.29976302680E+02  0.16291097270E+02 -0.18525773591E+02  0.38822453036E+02  0.00000000000E+00 0.  1.
</event>
<event>
 5    1  0.2295636E-004  0.9118800E+02  0.7818608E-02  0.1130116E+00
         25   -1    0    0    0    0  0.00000000000E+00  0.00000000000E+00  0.99999998245E-14  0.12500000000E+03  0.12500000000E+03 0.  0.
        -13    1    3    3    0    0  0.18943564096E+01  0.11826703347E+02 -0.48472866170E+02  0.49930846348E+02  0.10566000000E+00 0.  1.
         23    2    1    0    0    0 -0.32483755607E+01  0.28661605361E+02 -0.65199490093E+01  0.95427220273E+02  0.90729295535E+02 0.  0.
         13    1    3    3    0    0 -0.51427319703E+01  0.16834902015E+02  0.41952917161E+02  0.45496373925E+02  0.10566000000E+00 0. -1.
         22    1    1    0    0    0  0.32483755607E+01 -0.28661605361E+02  0.65199490093E+01  0.29572779727E+02  0.00000000000E+00 0.  1.
</event>
<event>
 5    1  0.2295636E-004  0.9118800E+02  0.7818608E-02  0.1130116E+00
         25   -1    0    0    0    0  0.00000000000E+00  0.00000000000E+00  0.99999998245E-14  0.12500000000E+03  0.12500000000E+03 0.  0.
        -13    1    3    3    0    0 -0.76346867322E+01 -0.41782682098E+02  0.28808458623E+02  0.51322698849E+02  0.10566000000E+00 0. -1.
         23    2    1    0    0    0 -0.22669501033E+02 -0.23959862544E+01  0.20604340481E+02  0.94272392318E+02  0.89124060048E+02 0.  0.
         13    1    3    3    0    0 -0.15034814301E+02  0.39386695844E+02 -0.82041181424E+01  0.42949693469E+02  0.10566000000E+00 0.  1.
         22    1    1    0    0    0  0.22669501033E+02  0.23959862544E+01 -0.20604340481E+02  0.30727607682E+02  0.00000000000E+00 0.  1.
</event>
<event>
 5    1  0.2295636E-004  0.9118800E+02  0.7818608E-02  0.1130116E+00
         25   -1    0    0    0    0  0.00000000000E+00  0.00000000000E+00  0.99999998245E-14  0.12500000000E+03  0.12500000000E+03 0.  0.
        -13    1    3    3    0    0  0.18645941509E+02  0.37978418915E+02  0.33384671967E+02  0.53894145549E+02  0.10566000000E+00 0.  1.
         23    2    1    0    0    0  0.47815997917E+01  0.13418917096E+02  0.39722529589E+02  0.82800350836E+02  0.71239649838E+02 0.  0.
         13    1    3    3    0    0 -0.13864341718E+02 -0.24559501819E+02  0.63378576221E+01  0.28906205288E+02  0.10566000000E+00 0. -1.
         22    1    1    0    0    0 -0.47815997917E+01 -0.13418917096E+02 -0.39722529589E+02  0.42199649164E+02  0.00000000000E+00 0.  1.
</event>
<event>
 5    1  0.2295636E-004  0.9118800E+02  0.7818608E-02  0.1130116E+00
         25   -1    0    0    0    0  0.00000000000E+00  0.00000000000E+00  0.99999998245E-14  0.12500000000E+03  0.12500000000E+03 0.  0.
        -13    1    3    3    0    0 -0.79779125431E+01 -0.16883937674E+02 -0.27757229279E+02  0.33454287934E+02  0.10566000000E+00 0.  1.
         23    2    1    0    0    0  0.24471730414E+00  0.20633983035E+02  0.21023680682E+02  0.95541278170E+02  0.90886300082E+02 0.  0.
         13    1    3    3    0    0  0.82226298472E+01  0.37517920709E+02  0.48780909961E+02  0.62086990236E+02  0.10566000000E+00 0. -1.
         22    1    1    0    0    0 -0.24471730414E+00 -0.20633983035E+02 -0.21023680682E+02  0.29458721830E+02  0.00000000000E+00 0. -1.
</event>
<event>
 5    1  0.2295636E-004  0.9118800E+02  0.7818608E-02  0.1130116E+00
         25   -1    0    0    0    0  0.00000000000E+00  0.00000000000E+00  0.99999998245E-14  0.12500000000E+03  0.12500000000E+03 0.  0.
        -13    1    3    3    0    0  0.23470589908E+02  0.46208037800E+02 -0.32561727655E+02  0.61207259536E+02  0.10566000000E+00 0. -1.
         23    2    1    0    0    0  0.79973414719E+01  0.17611076827E+02 -0.22683943685E+02  0.95189451553E+02  0.90401122162E+02 0.  0.
         13    1    3    3    0    0 -0.15473248436E+02 -0.28596960973E+02  0.98777839703E+01  0.33982192017E+02  0.10566000000E+00 0.  1.
         22    1    1    0    0    0 -0.79973414719E+01 -0.17611076827E+02  0.22683943685E+02  0.29810548447E+02  0.00000000000E+00 0. -1.
</event>
<event>
 5    1  0.2295636E-004  0.9118800E+02  0.7818608E-02  0.1130116E+00
         25   -1    0    0    0    0  0.00000000000E+00  0.00000000000E+00  0.99999998245E-14  0.12500000000E+03  0.12500000000E+03 0.  0.
        -13    1    3    3    0    0 -0.16799013338E+02  0.16229124434E+02  0.43714399438E+02  0.49563607731E+02  0.10566000000E+00 0.  1.
         23    2    1    0    0    0  0.20638256415E+02  0.23329116212E+01  0.20807598348E+02  0.95600403855E+02  0.90967581938E+02 0.  0.
         13    1    3    3    0    0  0.37437269753E+02 -0.13896212813E+02 -0.22906801090E+02  0.46036796124E+02  0.10566000000E+00 0. -1.
         22    1    1    0    0    0 -0.20638256415E+02 -0.23329116212E+01 -0.20807598348E+02  0.29399596145E+02  0.00000000000E+00 0.  1.
</event>
<event>
 5    1  0.2295636E-004  0.9118800E+02  0.7818608E-02  0.1130116E+00
         25   -1    0    0    0    0  0.00000000000E+00  0.00000000000E+00  0.99999998245E-14  0.12500000000E+03  0.12500000000E+03 0.  0.
        -13    1    3    3    0    0  0.15708275614E+02 -0.41717450593E+02 -0.90719979362E+01  0.45490745404E+02  0.10566000000E+00 0.  1.
         23    2    1    0    0    0 -0.10672409504E+02  0.10114143769E+02 -0.15054222853E+02  0.10395657218E+03  0.10180443529E+03 0.  0.
         13    1    3    3    0    0 -0.26380685118E+02  0.51831594362E+02 -0.59822249165E+01  0.58465826775E+02  0.10566000000E+00 0. -1.
         22    1    1    0    0    0  0.10672409504E+02 -0.10114143769E+02  0.15054222853E+02  0.21043427822E+02  0.00000000000E+00 0. -1.
</event>
<event>
 4    1  0.2295636E-004  0.9118800E+02  0.7818608E-02  0.1130116E+00
         25   -1    0    0    0    0  0.00000000000E+00  0.00000000000E+00  0.99999998245E-14  0.12500000000E+03  0.12500000000E+03 0.  0.
        -13    1    1    0    0    0  0.23562597503E+02  0.22499669558E+01  0.21081574614E+02  0.31697039367E+02  0.10566000000E+00 0.  1.
         13    1    1    0    0    0  0.27066327175E+02 -0.74018996421E+01 -0.30613105112E+02  0.41527672144E+02  0.10566000000E+00 0. -1.
         22    1    1    0    0    0 -0.50628924678E+02  0.51519326863E+01  0.95315304979E+01  0.51775288489E+02  0.00000000000E+00 0. -1.
</event>
<event>
 5    1  0.2295636E-004  0.9118800E+02  0.7818608E-02  0.1130116E+00
         25   -1    0    0    0    0  0.00000000000E+00  0.00000000000E+00  0.99999998245E-14  0.12500000000E+03  0.12500000000E+03 0.  0.
        -13    1    3    3    0    0 -0.29904480228E+02  0.39664133181E+02  0.29407959281E+02  0.57726602462E+02  0.10566000000E+00 0.  1.
         23    2    1    0    0    0 -0.80867871126E+01  0.33584245161E+02  0.66747201412E+01  0.89816914038E+02  0.82639146350E+02 0.  0.
         13    1    3    3    0    0  0.21817693115E+02 -0.60798880200E+01 -0.22733239140E+02  0.32090311576E+02  0.10566000000E+00 0. -1.
         22    1    1    0    0    0  0.80867871126E+01 -0.33584245161E+02 -0.66747201412E+01  0.35183085962E+02  0.00000000000E+00 0.  1.
</event>
<event>
 5    1  0.2295636E-004  0.9118800E+02  0.7818608E-02  0.1130116E+00
         25   -1    0    0    0    0  0.00000000000E+00  0.00000000000E+00  0.99999998245E-14  0.12500000000E+03  0.12500000000E+03 0.  0.
        -13    1    3    3    0    0 -0.28880761195E+02 -0.15238818297E+02 -0.38659986589E+02  0.50605589389E+02  0.10566000000E+00 0.  1.
         23    2    1    0    0    0  0.10700399518E+02 -0.20667225366E+02 -0.17968386951E+02  0.95597692544E+02  0.90963856206E+02 0.  0.
         13    1    3    3    0    0  0.39581160713E+02 -0.54284070691E+01  0.20691599638E+02  0.44992103155E+02  0.10566000000E+00 0. -1.
         22    1    1    0    0    0 -0.10700399518E+02  0.20667225366E+02  0.17968386951E+02  0.29402307456E+02  0.00000000000E+00 0. -1.
</event>
<event>
 5    1  0.2295636E-004  0.9118800E+02  0.7818608E-02  0.1130116E+00
         25   -1    0    0    0    0  0.00000000000E+00  0.00000000000E+00  0.99999998245E-14  0.12500000000E+03  0.12500000000E+03 0.  0.
        -13    1    3    3    0    0 -0.36435022231E+02 -0.48271331145E+01  0.14810391634E+02  0.39625382313E+02  0.10566000000E+00 0.  1.
         23    2    1    0    0    0  0.15683761439E+02 -0.22913196317E+02  0.11664040004E+02  0.94882816076E+02  0.89976130273E+02 0.  0.
         13    1    3    3    0    0  0.52118783670E+02 -0.18086063202E+02 -0.31463516304E+01  0.55257433762E+02  0.10566000000E+00 0. -1.
         22    1    1    0    0    0 -0.15683761439E+02  0.22913196317E+02 -0.11664040004E+02  0.30117183924E+02  0.00000000000E+00 0. -1.
</event>
<event>
 5    1  0.2295636E-004  0.9118800E+02  0.7818608E-02  0.1130116E+00
         25   -1    0    0    0    0  0.00000000000E+00  0.00000000000E+00  0.99999998245E-14  0.12500000000E+03  0.12500000000E+03 0.  0.
        -13    1    3    3    0    0 -0.73599002773E+01  0.35012994396E+02  0.12878349779E+00  0.35778564224E+02  0.10566000000E+00 0.  1.
         23    2    1    0    0    0  0.18226153323E+02 -0.14522348664E+02 -0.19218670787E+02  0.94793236147E+02  0.89851594514E+02 0.  0.
         13    1    3    3    0    0  0.25586053600E+02 -0.49535343060E+02 -0.19347454284E+02  0.59014671923E+02  0.10566000000E+00 0. -1.
         22    1    1    0    0    0 -0.18226153323E+02  0.14522348664E+02  0.19218670787E+02  0.30206763853E+02  0.00000000000E+00 0. -1.
</event>
<event>
 5    1  0.2295636E-004  0.9118800E+02  0.7818608E-02  0.1130116E+00
         25   -1    0    0    0    0  0.00000000000E+00  0.00000000000E+00  0.99999998245E-14  0.12500000000E+03  0.12500000000E+03 0.  0.
        -13    1    3    3    0    0  0.64475318689E+01 -0.35290968390E+02 -0.50980158550E+02  0.62337876503E+02  0.10566000000E+00 0.  1.
         23    2    1    0    0    0  0.47298102182E+01 -0.19585490508E+02 -0.23418950763E+02  0.94106476439E+02  0.88891051910E+02 0.  0.
         13    1    3    3    0    0 -0.17177216506E+01  0.15705477881E+02  0.27561207787E+02  0.31768599936E+02  0.10566000000E+00 0. -1.
         22    1    1    0    0    0 -0.47298102182E+01  0.19585490508E+02  0.23418950763E+02  0.30893523561E+02  0.00000000000E+00 0.  1.
</event>
<event>
 5    1  0.2295636E-004  0.9118800E+02  0.7818608E-02  0.1130116E+00
         25   -1    0    0    0    0  0.00000000000E+00  0.00000000000E+00  0.99999998245E-14  0.12500000000E+03  0.12500000000E+03 0.  0.
        -13    1    3    3    0    0  0.37263608260E+02  0.42195749979E+02  0.28263699196E+01  0.56365391401E+02  0.10566000000E+00 0. -1.
         23    2    1    0    0    0  0.13508383529E+02  0.17387941188E+02  0.20431863630E+02  0.94962057731E+02  0.90086150061E+02 0.  0.
         13    1    3    3    0    0 -0.23755224730E+02 -0.24807808791E+02  0.17605493710E+02  0.38596666330E+02  0.10566000000E+00 0.  1.
         22    1    1    0    0    0 -0.13508383529E+02 -0.17387941188E+02 -0.20431863630E+02  0.30037942269E+02  0.00000000000E+00 0. -1.
</event>
<event>
 5    1  0.2295636E-004  0.9118800E+02  0.7818608E-02  0.1130116E+00
         25   -1    0    0    0    0  0.00000000000E+00  0.00000000000E+00  0.99999998245E-14  0.12500000000E+03  0.12500000000E+03 0.  0.
        -13    1    3    3    0    0  0.10470766360E+02 -0.44185805196E+02  0.22679962252E+01  0.45466221527E+02  0.10566000000E+00 0. -1.
         23    2    1    0    0    0  0.30596584763E+02 -0.37565905420E+00  0.59852805886E+01  0.93821229937E+02  0.88489024655E+02 0.  0.
         13    1    3    3    0    0  0.20125818403E+02  0.43810146142E+02  0.37172843635E+01  0.48355008411E+02  0.10566000000E+00 0.  1.
         22    1    1    0    0    0 -0.30596584763E+02  0.37565905420E+00 -0.59852805886E+01  0.31178770063E+02  0.00000000000E+00 0.  1.
</event>
<event>
 5    1  0.2295636E-004  0.9118800E+02  0.7818608E-02  0.1130116E+00
         25   -1    0    0    0    0  0.00000000000E+00  0.00000000000E+00  0.99999998245E-14  0.12500000000E+03  0.12500000000E+03 0.  0.
        -13    1    3    3    0    0 -0.35433909276E+01 -0.37480491162E+02  0.27082369275E+02  0.46376812381E+02  0.10566000000E+00 0.  1.
         23    2    1    0    0    0 -0.49319152718E+01 -0.20952493355E+02 -0.19581441110E+02  0.95900797228E+02  0.91379424965E+02 0.  0.
         13    1    3    3    0    0 -0.13885243442E+01  0.16527997807E+02 -0.46663810386E+02  0.49523984847E+02  0.10566000000E+00 0. -1.
         22    1    1    0    0    0  0.49319152718E+01  0.20952493355E+02  0.19581441110E+02  0.29099202772E+02  0.00000000000E+00 0.  1.
</event>
<event>
 5    1  0.2295636E-004  0.9118800E+02  0.7818608E-02  0.1130116E+00
         25   -1    0    0    0    0  0.00000000000E+00  0.00000000000E+00  0.99999998245E-14  0.12500000000E+03  0.12500000000E+03 0.  0.
        -13    1    3    3    0    0 -0.35981295361E+02 -0.18265405789E+02 -0.76151141598E+00  0.40359258271E+02  0.10566000000E+00 0.  1.
         23    2    1    0    0    0  0.17886849762E+02 -0.24482224325E+02  0.16113189952E+01  0.94636945951E+02  0.89633902558E+02 0.  0.
         13    1    3    3    0    0  0.53868145123E+02 -0.62168185355E+01  0.23728304112E+01  0.54277687680E+02  0.10566000000E+00 0. -1.
         22    1    1    0    0    0 -0.17886849762E+02  0.24482224325E+02 -0.16113189952E+01  0.30363054049E+02  0.00000000000E+00 0.  1.
</event>
<event>
 5    1  0.2295636E-004  0.9118800E+02  0.7818608E-02  0.1130116E+00
         25   -1    0    0    0    0  0.00000000000E+00  0.00000000000E+00  0.99999998245E-14  0.12500000000E+03  0.12500000000E+03 0.  0.
        -13    1    3    3    0    0 -0.10179403338E+02  0.19917128717E+02 -0.34970301226E+02  0.41511991045E+02  0.10566000000E+00 0.  1.
         23    2    1    0    0    0 -0.99169905585E+01 -0.13053156627E+02  0.15919346935E+02  0.10214924057E+03  0.99560585287E+02 0.  0.
         13    1    3    3    0    0  0.26241277944E+00 -0.32970285344E+02  0.50889648161E+02  0.60637249526E+02  0.10566000000E+00 0. -1.
         22    1    1    0    0    0  0.99169905585E+01  0.13053156627E+02 -0.15919346935E+02  0.22850759429E+02  0.00000000000E+00 0. -1.
</event>
<event>
 5    1  0.2295636E-004  0.9118800E+02  0.7818608E-02  0.1130116E+00
         25   -1    0    0    0    0  0.00000000000E+00  0.00000000000E+00  0.99999998245E-14  0.12500000000E+03  0.12500000000E+03 0.  0.
        -13    1    3    3    0    0  0.27946887639E+02  0.23015492905E+02  0.25978174212E+02  0.44560275378E+02  0.10566000000E+00 0. -1.
         23    2    1    0    0    0 -0.20541558166E+02  0.71259963259E+01  0.19123164964E+02  0.96044329161E+02  0.91575555091E+02 0.  0.
         13    1    3    3    0    0 -0.48488445805E+02 -0.15889496579E+02 -0.68550092480E+01  0.51484053783E+02  0.10566000000E+00 0.  1.
         22    1    1    0    0    0  0.20541558166E+02 -0.71259963259E+01 -0.19123164964E+02  0.28955670839E+02  0.00000000000E+00 0. -1.
</event>
<event>
 5    1  0.2295636E-004  0.9118800E+02  0.7818608E-02  0.1130116E+00
         25   -1    0    0    0    0  0.00000000000E+00  0.00000000000E+00  0.99999998245E-14  0.12500000000E+03  0.12500000000E+03 0.  0.
        -13    1    3    3    0    0  0.40995589363E+02  0.61442912794E+01 -0.41676861341E+02  0.58782332362E+02  0.10566000000E+00 0. -1.
         23    2    1    0    0    0  0.27095454788E+02  0.11371894318E+02 -0.96734846084E+01  0.94063614383E+02  0.88830758163E+02 0.  0.
         13    1    3    3    0    0 -0.13900134575E+02  0.52276030385E+01  0.32003376733E+02  0.35281282021E+02  0.10566000000E+00 0.  1.
         22    1    1    0    0    0 -0.27095454788E+02 -0.11371894318E+02  0.96734846084E+01  0.30936385617E+02  0.00000000000E+00 0. -1.
</event>
<event>
 5    1  0.2295636E-004  0.9118800E+02  0.7818608E-02  0.1130116E+00
         25   -1    0    0    0    0  0.00000000000E+00  0.00000000000E+00  0.99999998245E-14  0.12500000000E+03  0.12500000000E+03 0.  0.
        -13    1    3    3    0    0 -0.44383827932E+01  0.33962417478E+02 -0.27853670951E+01  0.34364436219E+02  0.10566000000E+00 0. -1.
         23    2    1    0    0    0  0.77793377624E+01 -0.24566768489E+02  0.12905536009E+02  0.96179918986E+02  0.91760447615E+02 0.  0.
         13    1    3    3    0    0  0.12217720556E+02 -0.58529185966E+02  0.15690903104E+02  0.61815482767E+02  0.10566000000E+00 0.  1.
         22    1    1    0    0    0 -0.77793377624E+01  0.24566768489E+02 -0.12905536009E+02  0.28820081014E+02  0.00000000000E+00 0.  1.
</event>
<event>
 5    1  0.2295636E-004  0.9118800E+02  0.7818608E-02  0.1130116E+00
         25   -1    0    0    0    0  0.00000000000E+00  0.00000000000E+00  0.99999998245E-14  0.12500000000E+03  0.12500000000E+03 0.  0.
        -13    1    3    3    0    0  0.21474601740E+02 -0.35766785665E+02 -0.11263871903E+02  0.43212352991E+02  0.10566000000E+00 0. -1.
         23    2    1    0    0    0 -0.22463368143E+02 -0.77342287059E+01 -0.17202241101E+02  0.95668475988E+02  0.91061072896E+02 0.  0.
         13    1    3    3    0    0 -0.43937969883E+02  0.28032556959E+02 -0.59383691986E+01  0.52456122997E+02  0.10566000000E+00 0.  1.
         22    1    1    0    0    0  0.22463368143E+02  0.77342287059E+01  0.17202241101E+02  0.29331524012E+02  0.00000000000E+00 0.  1.
</event>
<event>
 5    1  0.2295636E-004  0.9118800E+02  0.7818608E-02  0.1130116E+00
         25   -1    0    0    0    0  0.00000000000E+00  0.00000000000E+00  0.99999998245E-14  0.12500000000E+03  0.12500000000E+03 0.  0.
        -13    1    3    3    0    0 -0.75511180799E+01  0.33355437659E+02  0.51479723209E+02  0.61804349939E+02  0.10566000000E+00 0.  1.
         23    2    1    0    0    0 -0.88304870822E+01  0.13358248721E+02  0.28631612144E+02  0.92194672308E+02  0.86160710751E+02 0.  0.
         13    1    3    3    0    0 -0.12793690023E+01 -0.19997188938E+02 -0.22848111065E+02  0.30390322370E+02  0.10566000000E+00 0. -1.
         22    1    1    0    0    0  0.88304870822E+01 -0.13358248721E+02 -0.28631612144E+02  0.32805327692E+02  0.00000000000E+00 0.  1.
</event>
<event>
 5    1  0.2295636E-004  0.9118800E+02  0.7818608E-02  0.1130116E+00
         25   -1    0    0    0    0  0.00000000000E+00  0.00000000000E+00  0.99999998245E-14  0.12500000000E+03  0.12500000000E+03 0.  0.
        -13    1    3    3    0    0  0.13474922001E+02  0.23609880980E+02  0.37016549345E+02  0.45926420416E+02  0.10566000000E+00 0.  1.
         23    2    1    0    0    0 -0.25437919719E+02  0.24776074963E+01  0.14758339254E+02  0.95486700014E+02  0.90811205275E+02 0.  0.
         13    1    3    3    0    0 -0.38912841720E+02 -0.21132273483E+02 -0.22258210091E+02  0.49560279598E+02  0.10566000000E+00 0. -1.
         22    1    1    0    0    0  0.25437919719E+02 -0.24776074963E+01 -0.14758339254E+02  0.29513299986E+02  0.00000000000E+00 0. -1.
</event>
<event>
 5    1  0.2295636E-004  0.9118800E+02  0.7818608E-02  0.1130116E+00
         25   -1    0    0    0    0  0.00000000000E+00  0.00000000000E+00  0.99999998245E-14  0.12500000000E+03  0.12500000000E+03 0.  0.
        -13    1    3    3    0    0  0.36335977378E+02  0.14524811982E+02 -0.14084209165E+01  0.39156969094E+02  0.10566000000E+00 0.  1.
         23    2    1    0    0    0 -0.15230359554E+02  0.28370840017E+02 -0.36263921247E+01  0.92596001246E+02  0.86740995564E+02 0.  0.
         13    1    3    3    0    0 -0.51566336932E+02  0.13846028035E+02 -0.22179712081E+01  0.53439032151E+02  0.10566000000E+00 0. -1.
         22    1    1    0    0    0  0.15230359554E+02 -0.28370840017E+02  0.36263921247E+01  0.32403998754E+02  0.00000000000E+00 0. -1.
</event>
<event>
 5    1  0.2295636E-004  0.9118800E+02  0.7818608E-02  0.1130116E+00
         25   -1    0    0    0    0  0.00000000000E+00  0.00000000000E+00  0.99999998245E-14  0.12500000000E+03  0.12500000000E+03 0.  0.
        -13    1    3    3    0    0  0.13991998910E+02 -0.85714047573E+01 -0.41169847481E+02  0.44319437256E+02  0.10566000000E+00 0.  1.
         23    2    1    0    0    0 -0.10048627090E+02  0.24884760703E+02 -0.24156979687E+02  0.88892024576E+02  0.81228111784E+02 0.  0.
         13    1    3    3    0    0 -0.24040626000E+02  0.33456165460E+02  0.17012867795E+02  0.44572587320E+02  0.10566000000E+00 0. -1.
         22    1    1    0    0    0  0.10048627090E+02 -0.24884760703E+02  0.24156979687E+02  0.36107975424E+02  0.00000000000E+00 0.  1.
</event>
<event>
 5    1  0.2295636E-004  0.9118800E+02  0.7818608E-02  0.1130116E+00
         25   -1    0    0    0    0  0.00000000000E+00  0.00000000000E+00  0.99999998245E-14  0.12500000000E+03  0.12500000000E+03 0.  0.
        -13    1    3    3    0    0  0.35982175424E+02  0.70105962517E+00  0.38980406156E+02  0.53053667743E+02  0.10566000000E+00 0. -1.
         23    2    1    0    0    0  0.40047684173E+01 -0.17731131895E+02  0.28099138472E+02  0.91533706641E+02  0.85196400512E+02 0.  0.
         13    1    3    3    0    0 -0.31977407007E+02 -0.18432191520E+02 -0.10881267684E+02  0.38480038898E+02  0.10566000000E+00 0.  1.
         22    1    1    0    0    0 -0.40047684173E+01  0.17731131895E+02 -0.28099138472E+02  0.33466293359E+02  0.00000000000E+00 0. -1.
</event>
<event>
 5    1  0.2295636E-004  0.9118800E+02  0.7818608E-02  0.1130116E+00
         25   -1    0    0    0    0  0.00000000000E+00  0.00000000000E+00  0.99999998245E-14  0.12500000000E+03  0.12500000000E+03 0.  0.
        -13    1    3    3    0    0  0.46435157354E+02  0.24884850660E+02  0.12913655687E+02  0.54242541405E+02  0.10566000000E+00 0.  1.
         23    2    1    0    0    0  0.52973332722E+01  0.27781280570E+02  0.65386013665E+01  0.95972175456E+02  0.91477012763E+02 0.  0.
         13    1    3    3    0    0 -0.41137824082E+02  0.28964299098E+01 -0.63750543202E+01  0.41729634051E+02  0.10566000000E+00 0. -1.
         22    1    1    0    0    0 -0.52973332722E+01 -0.27781280570E+02 -0.65386013665E+01  0.29027824544E+02  0.00000000000E+00 0.  1.
</event>
<event>
 5    1  0.2295636E-004  0.9118800E+02  0.7818608E-02  0.1130116E+00
         25   -1    0    0    0    0  0.00000000000E+00  0.00000000000E+00  0.99999998245E-14  0.12500000000E+03  0.12500000000E+03 0.  0.
        -13    1    3    3    0    0 -0.44326137137E+01 -0.34205459390E+02 -0.46461993604E+02  0.57865270500E+02  0.10566000000E+00 0.  1.
         23    2    1    0    0    0 -0.17504682561E+02 -0.18453364874E+02 -0.14786975346E+02  0.95579000244E+02  0.90938166141E+02 0.  0.
         13    1    3    3    0    0 -0.13072068847E+02  0.15752094516E+02  0.31675018257E+02  0.37713729744E+02  0.10566000000E+00 0. -1.
         22    1    1    0    0    0  0.17504682561E+02  0.18453364874E+02  0.14786975346E+02  0.29420999756E+02  0.00000000000E+00 0.  1.
</event>
<event>
 5    1  0.2295636E-004  0.9118800E+02  0.7818608E-02  0.1130116E+00
         25   -1    0    0    0    0  0.00000000000E+00  0.00000000000E+00  0.99999998245E-14  0.12500000000E+03  0.12500000000E+03 0.  0.
        -13    1    3    3    0    0  0.10121655122E+02  0.51203715523E+02  0.23769928130E+02  0.57352323694E+02  0.10566000000E+00 0.  1.
         23    2    1    0    0    0  0.19022752160E+02  0.21626065295E+02  0.21465418333E+00  0.96197259223E+02  0.91784066186E+02 0.  0.
         13    1    3    3    0    0  0.89010970380E+01 -0.29577650228E+02 -0.23555273947E+02  0.38844935529E+02  0.10566000000E+00 0. -1.
         22    1    1    0    0    0 -0.19022752160E+02 -0.21626065295E+02 -0.21465418333E+00  0.28802740777E+02  0.00000000000E+00 0.  1.
</event>
<event>
 5    1  0.2295636E-004  0.9118800E+02  0.7818608E-02  0.1130116E+00
         25   -1    0    0    0    0  0.00000000000E+00  0.00000000000E+00  0.99999998245E-14  0.12500000000E+03  0.12500000000E+03 0.  0.
        -13    1    3    3    0    0 -0.21956688074E+02  0.27940713927E+02  0.11332838051E+02  0.37299115650E+02  0.10566000000E+00 0.  1.
         23    2    1    0    0    0 -0.40772828114E+01 -0.14176226239E+02 -0.25166698612E+02  0.95828912524E+02  0.91281039274E+02 0.  0.
         13    1    3    3    0    0  0.17879405263E+02 -0.42116940166E+02 -0.36499536663E+02  0.58529796874E+02  0.10566000000E+00 0. -1.
         22    1    1    0    0    0  0.40772828114E+01  0.14176226239E+02  0.25166698612E+02  0.29171087476E+02  0.00000000000E+00 0. -1.
</event>
<event>
 5    1  0.2295636E-004  0.9118800E+02  0.7818608E-02  0.1130116E+00
         25   -1    0    0    0    0  0.00000000000E+00  0.00000000000E+00  0.99999998245E-14  0.12500000000E+03  0.12500000000E+03 0.  0.
        -13    1    3    3    0    0 -0.28069058417E+02  0.12601365305E+02  0.26828415095E+02  0.40822070851E+02  0.10566000000E+00 0.  1.
         23    2    1    0    0    0 -0.12811889983E+02 -0.78705353132E+01 -0.23410468032E+02  0.97176630963E+02  0.93108311879E+02 0.  0.
         13    1    3    3    0    0  0.15257168434E+02 -0.20471900619E+02 -0.50238883128E+02  0.56354560113E+02  0.10566000000E+00 0. -1.
         22    1    1    0    0    0  0.12811889983E+02  0.78705353132E+01  0.23410468032E+02  0.27823369037E+02  0.00000000000E+00 0. -1.
</event>
<event>
 5    1  0.2295636E-004  0.9118800E+02  0.7818608E-02  0.1130116E+00
         25   -1    0    0    0    0  0.00000000000E+00  0.00000000000E+00  0.99999998245E-14  0.12500000000E+03  0.12500000000E+03 0.  0.
        -13    1    3    3    0    0 -0.25388593509E+02 -0.33894352576E+02  0.11610280037E+02  0.43911474395E+02  0.10566000000E+00 0.  1.
         23    2    1    0    0    0 -0.21161119134E+02  0.71455371719E+01 -0.19314443062E+02  0.95472057721E+02  0.90791048183E+02 0.  0.
         13    1    3    3    0    0  0.42274743759E+01  0.41039889748E+02 -0.30924723099E+02  0.51560583326E+02  0.10566000000E+00 0. -1.
         22    1    1    0    0    0  0.21161119134E+02 -0.71455371719E+01  0.19314443062E+02  0.29527942279E+02  0.00000000000E+00 0. -1.
</event>
<event>
 5    1  0.2295636E-004  0.9118800E+02  0.7818608E-02  0.1130116E+00
         25   -1    0    0    0    0  0.00000000000E+00  0.00000000000E+00  0.99999998245E-14  0.12500000000E+03  0.12500000000E+03 0.  0.
        -13    1    3    3    0    0  0.26097119227E+02 -0.25275052946E+01 -0.56315403084E+02  0.62119913905E+02  0.10566000000E+00 0. -1.
         23    2    1    0    0    0  0.12022267078E+02  0.36780856837E+01 -0.24208342786E+02  0.97721673797E+02  0.93837191184E+02 0.  0.
         13    1    3    3    0    0 -0.14074852149E+02  0.62055909783E+01  0.32107060298E+02  0.35601759893E+02  0.10566000000E+00 0.  1.
         22    1    1    0    0    0 -0.12022267078E+02 -0.36780856837E+01  0.24208342786E+02  0.27278326203E+02  0.00000000000E+00 0. -1.
</event>
<event>
 5    1  0.2295636E-004  0.9118800E+02  0.7818608E-02  0.1130116E+00
         25   -1    0    0    0    0  0.00000000000E+00  0.00000000000E+00  0.99999998245E-14  0.12500000000E+03  0.12500000000E+03 0.  0.
        -13    1    3    3    0    0 -0.30010167086E+02 -0.98112241105E+01  0.27096373913E+02  0.41606428474E+02  0.10566000000E+00 0.  1.
         23    2    1    0    0    0  0.22429269388E+02  0.74757813317E+01  0.74888597098E+01  0.10019995057E+03  0.97082375556E+02 0.  0.
         13    1    3    3    0    0  0.52439436474E+02  0.17287005442E+02 -0.19607514203E+02  0.58593522100E+02  0.10566000000E+00 0. -1.
         22    1    1    0    0    0 -0.22429269388E+02 -0.74757813317E+01 -0.74888597098E+01  0.24800049426E+02  0.00000000000E+00 0. -1.
</event>
<event>
 5    1  0.2295636E-004  0.9118800E+02  0.7818608E-02  0.1130116E+00
         25   -1    0    0    0    0  0.00000000000E+00  0.00000000000E+00  0.99999998245E-14  0.12500000000E+03  0.12500000000E+03 0.  0.
        -13    1    3    3    0    0 -0.38551598633E+02  0.12763483542E+01 -0.46566049328E+02  0.60467040082E+02  0.10566000000E+00 0. -1.
         23    2    1    0    0    0 -0.13664984124E+02  0.61634053910E+01 -0.31872723311E+02  0.89777991989E+02  0.82580251859E+02 0.  0.
         13    1    3    3    0    0  0.24886614509E+02  0.48870570368E+01  0.14693326017E+02  0.29310951907E+02  0.10566000000E+00 0.  1.
         22    1    1    0    0    0  0.13664984124E+02 -0.61634053910E+01  0.31872723311E+02  0.35222008011E+02  0.00000000000E+00 0. -1.
</event>
<event>
 5    1  0.2295636E-004  0.9118800E+02  0.7818608E-02  0.1130116E+00
         25   -1    0    0    0    0  0.00000000000E+00  0.00000000000E+00  0.99999998245E-14  0.12500000000E+03  0.12500000000E+03 0.  0.
        -13    1    3    3    0    0  0.85380726333E+01  0.21715792763E+02  0.14611021975E+02  0.27531208960E+02  0.10566000000E+00 0.  1.
         23    2    1    0    0    0 -0.12365988810E+02 -0.25026007423E+02 -0.21142941439E+02  0.89982251651E+02  0.82888858797E+02 0.  0.
         13    1    3    3    0    0 -0.20904061443E+02 -0.46741800185E+02 -0.35753963413E+02  0.62451042691E+02  0.10566000000E+00 0. -1.
         22    1    1    0    0    0  0.12365988810E+02  0.25026007423E+02  0.21142941439E+02  0.35017748349E+02  0.00000000000E+00 0. -1.
</event>
