<event>
 5    1  0.1680526E-003  0.9118800E+02  0.7818608E-02  0.1130116E+00
         25   -1    0    0    0    0  0.00000000000E+00  0.00000000000E+00  0.99999998245E-14  0.12500000000E+03  0.12500000000E+03 0.  0.
        -13    1    3    3    0    0  0.23297214125E+02 -0.13408384771E+01 -0.46158989861E+02  0.51722543855E+02  0.10566000000E+00 0.  1.
         23    2    1    0    0    0 -0.10328792254E+02 -0.15037097384E+02 -0.25959296946E+02  0.93271726409E+02  0.87709358693E+02 0.  0.
         13    1    3    3    0    0 -0.33626006379E+02 -0.13696258907E+02  0.20199692915E+02  0.41549182554E+02  0.10566000000E+00 0. -1.
         22    1    1    0    0    0  0.10328792254E+02  0.15037097384E+02  0.25959296946E+02  0.31728273591E+02  0.00000000000E+00 0.  1.
</event>
<event>
 5    1  0.1680526E-003  0.9118800E+02  0.7818608E-02  0.1130116E+00
         25   -1    0    0    0    0  0.00000000000E+00  0.00000000000E+00  0.99999998245E-14  0.12500000000E+03  0.12500000000E+03 0.  0.
        -13    1    3    3    0    0 -0.12740986316E+02  0.33311060049E+01  0.44085462012E+02  0.46010521888E+02  0.10566000000E+00 0.  1.
         23    2    1    0    0    0  0.26096703323E+02  0.43868546468E+00  0.12996838317E+02  0.95842699448E+02  0.91299917098E+02 0.  0.
         13    1    3    3    0    0  0.38837689639E+02 -0.28924205403E+01 -0.31088623696E+02  0.49832177560E+02  0.10566000000E+00 0. -1.
         22    1    1    0    0    0 -0.26096703323E+02 -0.43868546468E+00 -0.12996838317E+02  0.29157300552E+02  0.00000000000E+00 0. -1.
</event>
<event>
 5    1  0.1680526E-003  0.9118800E+02  0.7818608E-02  0.1130116E+00
         25   -1    0    0    0    0  0.00000000000E+00  0.00000000000E+00  0.99999998245E-14  0.12500000000E+03  0.12500000000E+03 0.  0.
        -13    1    3    3    0    0 -0.20114698497E+02 -0.41996354872E+02  0.33515516651E+02  0.57372431869E+02  0.10566000000E+00 0. -1.
         23    2    1    0    0    0  0.10782024298E+01 -0.36498237121E+02  0.17441245049E+02  0.84534201327E+02  0.74219608809E+02 0.  0.
         13    1    3    3    0    0  0.21192900927E+02  0.54981177509E+01 -0.16074271602E+02  0.27161769458E+02  0.10566000000E+00 0.  1.
         22    1    1    0    0    0 -0.10782024298E+01  0.36498237121E+02 -0.17441245049E+02  0.40465798673E+02  0.00000000000E+00 0. -1.
</event>
<event>
 5    1  0.1680526E-003  0.9118800E+02  0.7818608E-02  0.1130116E+00
         25   -1    0    0    0    0  0.00000000000E+00  0.00000000000E+00  0.99999998245E-14  0.12500000000E+03  0.12500000000E+03 0.  0.
        -13    1    3    3    0    0 -0.55722441561E+01 -0.30123978364E+02 -0.18640381419E+02  0.35860548809E+02  0.10566000000E+00 0.  1.
         23    2    1    0    0    0 -0.27663788643E+02 -0.20881307425E+02  0.22651860358E+02  0.83594432988E+02  0.72619613378E+02 0.  0.
         13    1    3    3    0    0 -0.22091544487E+02  0.92426709387E+01  0.41292241777E+02  0.47733884180E+02  0.10566000000E+00 0. -1.
         22    1    1    0    0    0  0.27663788643E+02  0.20881307425E+02 -0.22651860358E+02  0.41405567012E+02  0.00000000000E+00 0.  1.
</event>
<event>
 5    1  0.1680526E-003  0.9118800E+02  0.7818608E-02  0.1130116E+00
         25   -1    0    0    0    0  0.00000000000E+00  0.00000000000E+00  0.99999998245E-14  0.12500000000E+03  0.12500000000E+03 0.  0.
        -13    1    3    3    0    0  0.96674485066E+01  0.54025568382E+02 -0.23487360439E+02  0.59698315420E+02  0.10566000000E+00 0.  1.
         23    2    1    0    0    0 -0.66024533287E+01  0.29967939448E+02 -0.56031755803E+01  0.93806004403E+02  0.88467514381E+02 0.  0.
         13    1    3    3    0    0 -0.16269901835E+02 -0.24057628933E+02  0.17884184859E+02  0.34107688983E+02  0.10566000000E+00 0. -1.
         22    1    1    0    0    0  0.66024533287E+01 -0.29967939448E+02  0.56031755803E+01  0.31193995597E+02  0.00000000000E+00 0.  1.
</event>
<event>
 5    1  0.1680526E-003  0.9118800E+02  0.7818608E-02  0.1130116E+00
         25   -1    0    0    0    0  0.00000000000E+00  0.00000000000E+00  0.99999998245E-14  0.12500000000E+03  0.12500000000E+03 0.  0.
        -13    1    3    3    0    0  0.21637904235E+02  0.19001387919E+02  0.35422246293E+02  0.45650830650E+02  0.10566000000E+00 0. -1.
         23    2    1    0    0    0  0.16636481820E+02 -0.21481536694E+02  0.31828158067E+01  0.97643844156E+02  0.93733457416E+02 0.  0.
         13    1    3    3    0    0 -0.50014224151E+01 -0.40482924613E+02 -0.32239430486E+02  0.51993013507E+02  0.10566000000E+00 0.  1.
         22    1    1    0    0    0 -0.16636481820E+02  0.21481536694E+02 -0.31828158067E+01  0.27356155844E+02  0.00000000000E+00 0.  1.
</event>
<event>
 5    1  0.1680526E-003  0.9118800E+02  0.7818608E-02  0.1130116E+00
         25   -1    0    0    0    0  0.00000000000E+00  0.00000000000E+00  0.99999998245E-14  0.12500000000E+03  0.12500000000E+03 0.  0.
        -13    1    3    3    0    0 -0.14794028890E+02  0.17542627384E+02  0.32923476851E+02  0.40131951838E+02  0.10566000000E+00 0.  1.
         23    2    1    0    0    0 -0.66291718215E+01  0.18374074718E+02 -0.21950702915E+02  0.95616571009E+02  0.90989794770E+02 0.  0.
         13    1    3    3    0    0  0.81648570683E+01  0.83144733407E+00 -0.54874179766E+02  0.55484619172E+02  0.10566000000E+00 0. -1.
         22    1    1    0    0    0  0.66291718215E+01 -0.18374074718E+02  0.21950702915E+02  0.29383428991E+02  0.00000000000E+00 0. -1.
</event>
<event>
 5    1  0.1680526E-003  0.9118800E+02  0.7818608E-02  0.1130116E+00
         25   -1    0    0    0    0  0.00000000000E+00  0.00000000000E+00  0.99999998245E-14  0.12500000000E+03  0.12500000000E+03 0.  0.
        -13    1    3    3    0    0 -0.37135892448E+02  0.26864806770E+02  0.28237856340E+02  0.53834747565E+02  0.10566000000E+00 0.  1.
         23    2    1    0    0    0 -0.27136189186E+02 -0.80740067324E+01  0.73583171190E+01  0.95747526958E+02  0.91169521988E+02 0.  0.
         13    1    3    3    0    0  0.99997032624E+01 -0.34938813503E+02 -0.20879539221E+02  0.41912779393E+02  0.10566000000E+00 0. -1.
         22    1    1    0    0    0  0.27136189186E+02  0.80740067324E+01 -0.73583171190E+01  0.29252473042E+02  0.00000000000E+00 0.  1.
</event>
<event>
 5    1  0.1680526E-003  0.9118800E+02  0.7818608E-02  0.1130116E+00
         25   -1    0    0    0    0  0.00000000000E+00  0.00000000000E+00  0.99999998245E-14  0.12500000000E+03  0.12500000000E+03 0.  0.
        -13    1    3    3    0    0 -0.30265954286E+02  0.37506163691E+02 -0.35593264153E+02  0.59913537041E+02  0.10566000000E+00 0.  1.
         23    2    1    0    0    0 -0.18366034591E+02  0.21213004612E+02 -0.50941511942E+01  0.96482405998E+02  0.92171587268E+02 0.  0.
         13    1    3    3    0    0  0.11899919695E+02 -0.16293159079E+02  0.30499112958E+02  0.36568868957E+02  0.10566000000E+00 0. -1.
         22    1    1    0    0    0  0.18366034591E+02 -0.21213004612E+02  0.50941511942E+01  0.28517594002E+02  0.00000000000E+00 0.  1.
</event>
<event>
 5    1  0.1680526E-003  0.9118800E+02  0.7818608E-02  0.1130116E+00
         25   -1    0    0    0    0  0.00000000000E+00  0.00000000000E+00  0.99999998245E-14  0.12500000000E+03  0.12500000000E+03 0.  0.
        -13    1    3    3    0    0 -0.31612924127E+02 -0.26603367230E+02 -0.66380931681E+01  0.41847240826E+02  0.10566000000E+00 0.  1.
         23    2    1    0    0    0  0.11922901246E+02 -0.31141323743E+02 -0.18050315658E+02  0.87082306057E+02  0.78393727518E+02 0.  0.
         13    1    3    3    0    0  0.43535825373E+02 -0.45379565134E+01 -0.11412222490E+02  0.45235065231E+02  0.10566000000E+00 0. -1.
         22    1    1    0    0    0 -0.11922901246E+02  0.31141323743E+02  0.18050315658E+02  0.37917693943E+02  0.00000000000E+00 0. -1.
</event>
<event>
 5    1  0.1680526E-003  0.9118800E+02  0.7818608E-02  0.1130116E+00
         25   -1    0    0    0    0  0.00000000000E+00  0.00000000000E+00  0.99999998245E-14  0.12500000000E+03  0.12500000000E+03 0.  0.
        -13    1    3    3    0    0  0.15145049914E+02 -0.57729069983E+02 -0.11901988734E+02  0.60857921077E+02  0.10566000000E+00 0. -1.
         23    2    1    0    0    0  0.17561089286E+02 -0.30505536179E+02 -0.26947871835E+01  0.89697854563E+02  0.82458860292E+02 0.  0.
         13    1    3    3    0    0  0.24160393721E+01  0.27223533804E+02  0.92072015506E+01  0.28839933485E+02  0.10566000000E+00 0.  1.
         22    1    1    0    0    0 -0.17561089286E+02  0.30505536179E+02  0.26947871835E+01  0.35302145437E+02  0.00000000000E+00 0. -1.
</event>
<event>
 5    1  0.1680526E-003  0.9118800E+02  0.7818608E-02  0.1130116E+00
         25   -1    0    0    0    0  0.00000000000E+00  0.00000000000E+00  0.99999998245E-14  0.12500000000E+03  0.12500000000E+03 0.  0.
        -13    1    3    3    0    0 -0.46812854658E+02  0.12010369772E+02 -0.28714775695E+02  0.56216028413E+02  0.10566000000E+00 0. -1.
         23    2    1    0    0    0 -0.34545891595E+02  0.39145865086E+00  0.10430467081E+01  0.90436148762E+02  0.83570552172E+02 0.  0.
         13    1    3    3    0    0  0.12266963063E+02 -0.11618911121E+02  0.29757822403E+02  0.34220120348E+02  0.10566000000E+00 0.  1.
         22    1    1    0    0    0  0.34545891595E+02 -0.39145865086E+00 -0.10430467081E+01  0.34563851238E+02  0.00000000000E+00 0. -1.
</event>
<event>
 5    1  0.1680526E-003  0.9118800E+02  0.7818608E-02  0.1130116E+00
         25   -1    0    0    0    0  0.00000000000E+00  0.00000000000E+00  0.99999998245E-14  0.12500000000E+03  0.12500000000E+03 0.  0.
        -13    1    3    3    0    0  0.33231857254E+02  0.25209732060E+01  0.14937696026E+02  0.36522014855E+02  0.10566000000E+00 0.  1.
         23    2    1    0    0    0 -0.24924244351E+02  0.26269058633E+00 -0.76122362692E+01  0.98937899090E+02  0.95443568524E+02 0.  0.
         13    1    3    3    0    0 -0.58156101605E+02 -0.22582826197E+01 -0.22549932295E+02  0.62415884235E+02  0.10566000000E+00 0. -1.
         22    1    1    0    0    0  0.24924244351E+02 -0.26269058633E+00  0.76122362692E+01  0.26062100910E+02  0.00000000000E+00 0. -1.
</event>
<event>
 5    1  0.1680526E-003  0.9118800E+02  0.7818608E-02  0.1130116E+00
         25   -1    0    0    0    0  0.00000000000E+00  0.00000000000E+00  0.99999998245E-14  0.12500000000E+03  0.12500000000E+03 0.  0.
        -13    1    3    3    0    0 -0.26521619626E+02  0.30975343215E+02  0.79882299767E+01  0.41553473706E+02  0.10566000000E+00 0.  1.
         23    2    1    0    0    0  0.19569600648E+02  0.20675711786E+01  0.19644252742E+02  0.97194590708E+02  0.93132420118E+02 0.  0.
         13    1    3    3    0    0  0.46091220274E+02 -0.28907772036E+02  0.11656022765E+02  0.55641117002E+02  0.10566000000E+00 0. -1.
         22    1    1    0    0    0 -0.19569600648E+02 -0.20675711786E+01 -0.19644252742E+02  0.27805409292E+02  0.00000000000E+00 0.  1.
</event>
<event>
 5    1  0.1680526E-003  0.9118800E+02  0.7818608E-02  0.1130116E+00
         25   -1    0    0    0    0  0.00000000000E+00  0.00000000000E+00  0.99999998245E-14  0.12500000000E+03  0.12500000000E+03 0.  0.
        -13    1    3    3    0    0  0.54787564836E+02  0.14969655390E+02 -0.25928320225E+02  0.62434419968E+02  0.10566000000E+00 0.  1.
         23    2    1    0    0    0  0.25404795112E+02  0.67600908597E+01 -0.14215331837E+02  0.95113914570E+02  0.90296614790E+02 0.  0.
         13    1    3    3    0    0 -0.29382769724E+02 -0.82095645299E+01  0.11712988388E+02  0.32679494602E+02  0.10566000000E+00 0. -1.
         22    1    1    0    0    0 -0.25404795112E+02 -0.67600908597E+01  0.14215331837E+02  0.29886085430E+02  0.00000000000E+00 0.  1.
</event>
<event>
 5    1  0.1680526E-003  0.9118800E+02  0.7818608E-02  0.1130116E+00
         25   -1    0    0    0    0  0.00000000000E+00  0.00000000000E+00  0.99999998245E-14  0.12500000000E+03  0.12500000000E+03 0.  0.
        -13    1    3    3    0    0 -0.29922024624E+02 -0.34404220101E+02 -0.40079011679E+02  0.60706805710E+02  0.10566000000E+00 0. -1.
         23    2    1    0    0    0 -0.24145663186E+02 -0.12132999791E+02 -0.18497201242E+02  0.92252951455E+02  0.86245219367E+02 0.  0.
         13    1    3    3    0    0  0.57763614377E+01  0.22271220310E+02  0.21581810437E+02  0.31546145744E+02  0.10566000000E+00 0.  1.
         22    1    1    0    0    0  0.24145663186E+02  0.12132999791E+02  0.18497201242E+02  0.32747048545E+02  0.00000000000E+00 0. -1.
</event>
<event>
 5    1  0.1680526E-003  0.9118800E+02  0.7818608E-02  0.1130116E+00
         25   -1    0    0    0    0  0.00000000000E+00  0.00000000000E+00  0.99999998245E-14  0.12500000000E+03  0.12500000000E+03 0.  0.
        -13    1    3    3    0    0 -0.16665475513E+02  0.27755723785E+02 -0.17004651877E+02  0.36568943468E+02  0.10566000000E+00 0. -1.
         23    2    1    0    0    0 -0.12264129204E+01 -0.12501431578E+02  0.25161963117E+02  0.96876801959E+02  0.92704910818E+02 0.  0.
         13    1    3    3    0    0  0.15439062592E+02 -0.40257155362E+02  0.42166614995E+02  0.60307858491E+02  0.10566000000E+00 0.  1.
         22    1    1    0    0    0  0.12264129204E+01  0.12501431578E+02 -0.25161963117E+02  0.28123198041E+02  0.00000000000E+00 0.  1.
</event>
<event>
 5    1  0.1680526E-003  0.9118800E+02  0.7818608E-02  0.1130116E+00
         25   -1    0    0    0    0  0.00000000000E+00  0.00000000000E+00  0.99999998245E-14  0.12500000000E+03  0.12500000000E+03 0.  0.
        -13    1    3    3    0    0  0.35256972388E+02  0.20325152151E+01  0.24337832666E+02  0.42889701363E+02  0.10566000000E+00 0. -1.
         23    2    1    0    0    0  0.45696720127E+01  0.32292129769E+02 -0.41485818264E-02  0.92386144592E+02  0.86438048035E+02 0.  0.
         13    1    3    3    0    0 -0.30687300375E+02  0.30259614554E+02 -0.24341981248E+02  0.49496443230E+02  0.10566000000E+00 0.  1.
         22    1    1    0    0    0 -0.45696720127E+01 -0.32292129769E+02  0.41485818264E-02  0.32613855408E+02  0.00000000000E+00 0.  1.
</event>
<event>
 5    1  0.1680526E-003  0.9118800E+02  0.7818608E-02  0.1130116E+00
         25   -1    0    0    0    0  0.00000000000E+00  0.00000000000E+00  0.99999998245E-14  0.12500000000E+03  0.12500000000E+03 0.  0.
        -13    1    3    3    0    0 -0.47309980602E+02 -0.11481922590E+02 -0.24775526246E+02  0.54625146917E+02  0.10566000000E+00 0.  1.
         23    2    1    0    0    0 -0.11762910252E+02 -0.24531065151E+02 -0.50206370586E+01  0.97335112299E+02  0.93320834087E+02 0.  0.
         13    1    3    3    0    0  0.35547070350E+02 -0.13049142561E+02  0.19754889188E+02  0.42709965382E+02  0.10566000000E+00 0. -1.
         22    1    1    0    0    0  0.11762910252E+02  0.24531065151E+02  0.50206370586E+01  0.27664887701E+02  0.00000000000E+00 0. -1.
</event>
<event>
 5    1  0.1680526E-003  0.9118800E+02  0.7818608E-02  0.1130116E+00
         25   -1    0    0    0    0  0.00000000000E+00  0.00000000000E+00  0.99999998245E-14  0.12500000000E+03  0.12500000000E+03 0.  0.
        -13    1    3    3    0    0  0.31616357706E+02 -0.32683241261E+02 -0.34266580726E+02  0.56938546281E+02  0.10566000000E+00 0.  1.
         23    2    1    0    0    0  0.26306961689E+02 -0.10181263496E+02 -0.18825102692E+01  0.96728845008E+02  0.92505195811E+02 0.  0.
         13    1    3    3    0    0 -0.53093960176E+01  0.22501977765E+02  0.32384070457E+02  0.39790298727E+02  0.10566000000E+00 0. -1.
         22    1    1    0    0    0 -0.26306961689E+02  0.10181263496E+02  0.18825102692E+01  0.28271154992E+02  0.00000000000E+00 0.  1.
</event>
<event>
 5    1  0.1680526E-003  0.9118800E+02  0.7818608E-02  0.1130116E+00
         25   -1    0    0    0    0  0.00000000000E+00  0.00000000000E+00  0.99999998245E-14  0.12500000000E+03  0.12500000000E+03 0.  0.
        -13    1    3    3    0    0 -0.41459603020E+02 -0.44537105569E+02  0.12265084032E+02  0.62071699714E+02  0.10566000000E+00 0. -1.
         23    2    1    0    0    0 -0.15919913075E+02 -0.23936561249E+02  0.80000899771E+01  0.95160361323E+02  0.90360889387E+02 0.  0.
         13    1    3    3    0    0  0.25539689944E+02  0.20600544320E+02 -0.42649940554E+01  0.33088661609E+02  0.10566000000E+00 0.  1.
         22    1    1    0    0    0  0.15919913075E+02  0.23936561249E+02 -0.80000899771E+01  0.29839638677E+02  0.00000000000E+00 0. -1.
</event>
<event>
 5    1  0.1680526E-003  0.9118800E+02  0.7818608E-02  0.1130116E+00
         25   -1    0    0    0    0  0.00000000000E+00  0.00000000000E+00  0.99999998245E-14  0.12500000000E+03  0.12500000000E+03 0.  0.
        -13    1    3    3    0    0 -0.31341418995E+02 -0.30039197388E+02 -0.35212163918E+02  0.55897634799E+02  0.10566000000E+00 0.  1.
         23    2    1    0    0    0 -0.17810294678E+02  0.41033582854E+01 -0.25026515607E+02  0.94010152805E+02  0.88755496738E+02 0.  0.
         13    1    3    3    0    0  0.13531124317E+02  0.34142555673E+02  0.10185648310E+02  0.38112518006E+02  0.10566000000E+00 0. -1.
         22    1    1    0    0    0  0.17810294678E+02 -0.41033582854E+01  0.25026515607E+02  0.30989847195E+02  0.00000000000E+00 0.  1.
</event>
<event>
 5    1  0.1680526E-003  0.9118800E+02  0.7818608E-02  0.1130116E+00
         25   -1    0    0    0    0  0.00000000000E+00  0.00000000000E+00  0.99999998245E-14  0.12500000000E+03  0.12500000000E+03 0.  0.
        -13    1    3    3    0    0 -0.40870144363E+01 -0.35056972893E+02  0.10336520312E+02  0.36777028858E+02  0.10566000000E+00 0. -1.
         23    2    1    0    0    0 -0.39153853434E+01  0.15351175626E+02 -0.22898143368E+02  0.97155542649E+02  0.93079996036E+02 0.  0.
         13    1    3    3    0    0  0.17162909298E+00  0.50408148518E+02 -0.33234663681E+02  0.60378513791E+02  0.10566000000E+00 0.  1.
         22    1    1    0    0    0  0.39153853434E+01 -0.15351175626E+02  0.22898143368E+02  0.27844457351E+02  0.00000000000E+00 0.  1.
</event>
<event>
 5    1  0.1680526E-003  0.9118800E+02  0.7818608E-02  0.1130116E+00
         25   -1    0    0    0    0  0.00000000000E+00  0.00000000000E+00  0.99999998245E-14  0.12500000000E+03  0.12500000000E+03 0.  0.
        -13    1    3    3    0    0 -0.64031788694E+01  0.66548006168E+01 -0.32478275399E+02  0.33765908959E+02  0.10566000000E+00 0. -1.
         23    2    1    0    0    0  0.86022427292E+01 -0.69195485390E+01  0.26592886217E+02  0.96206592260E+02  0.91796775896E+02 0.  0.
         13    1    3    3    0    0  0.15005421599E+02 -0.13574349156E+02  0.59071161616E+02  0.62440683301E+02  0.10566000000E+00 0.  1.
         22    1    1    0    0    0 -0.86022427292E+01  0.69195485390E+01 -0.26592886217E+02  0.28793407740E+02  0.00000000000E+00 0.  1.
</event>
<event>
 5    1  0.1680526E-003  0.9118800E+02  0.7818608E-02  0.1130116E+00
         25   -1    0    0    0    0  0.00000000000E+00  0.00000000000E+00  0.99999998245E-14  0.12500000000E+03  0.12500000000E+03 0.  0.
        -13    1    3    3    0    0  0.97683317998E+01  0.60849296199E+00 -0.56128107088E+02  0.56975136148E+02  0.10566000000E+00 0.  1.
         23    2    1    0    0    0  0.18099092324E+02  0.11636549255E+02 -0.20132783874E+02  0.95532807937E+02  0.90874649845E+02 0.  0.
         13    1    3    3    0    0  0.83307605245E+01  0.11028056293E+02  0.35995323214E+02  0.38557671789E+02  0.10566000000E+00 0. -1.
         22    1    1    0    0    0 -0.18099092324E+02 -0.11636549255E+02  0.20132783874E+02  0.29467192063E+02  0.00000000000E+00 0.  1.
</event>
<event>
 5    1  0.1680526E-003  0.9118800E+02  0.7818608E-02  0.1130116E+00
         25   -1    0    0    0    0  0.00000000000E+00  0.00000000000E+00  0.99999998245E-14  0.12500000000E+03  0.12500000000E+03 0.  0.
        -13    1    3    3    0    0 -0.22341697718E+02  0.23459757018E+02  0.18923094231E+02  0.37518079849E+02  0.10566000000E+00 0. -1.
         23    2    1    0    0    0 -0.12098920367E+02 -0.26860316471E+02 -0.65200002020E+01  0.94827647132E+02  0.89899453741E+02 0.  0.
         13    1    3    3    0    0  0.10242777351E+02 -0.50320073489E+02 -0.25443094433E+02  0.57309567283E+02  0.10566000000E+00 0.  1.
         22    1    1    0    0    0  0.12098920367E+02  0.26860316471E+02  0.65200002020E+01  0.30172352868E+02  0.00000000000E+00 0.  1.
</event>
<event>
 5    1  0.1680526E-003  0.9118800E+02  0.7818608E-02  0.1130116E+00
         25   -1    0    0    0    0  0.00000000000E+00  0.00000000000E+00  0.99999998245E-14  0.12500000000E+03  0.12500000000E+03 0.  0.
        -13    1    3    3    0    0 -0.54954443427E+02  0.42115527171E+01 -0.22211078928E+02  0.59422817334E+02  0.10566000000E+00 0. -1.
         23    2    1    0    0    0 -0.25751184740E+02 -0.10823826528E+02 -0.46081606103E+01  0.96688979523E+02  0.92451310865E+02 0.  0.
         13    1    3    3    0    0  0.29203258686E+02 -0.15035379245E+02  0.17602918318E+02  0.37266162189E+02  0.10566000000E+00 0.  1.
         22    1    1    0    0    0  0.25751184740E+02  0.10823826528E+02  0.46081606103E+01  0.28311020477E+02  0.00000000000E+00 0. -1.
</event>
<event>
 5    1  0.1680526E-003  0.9118800E+02  0.7818608E-02  0.1130116E+00
         25   -1    0    0    0    0  0.00000000000E+00  0.00000000000E+00  0.99999998245E-14  0.12500000000E+03  0.12500000000E+03 0.  0.
        -13    1    3    3    0    0  0.40609278654E+01 -0.34670312490E+02  0.32056063551E+01  0.35054368907E+02  0.10566000000E+00 0. -1.
         23    2    1    0    0    0 -0.16198464192E+02  0.21234937661E+02 -0.10876854957E+02  0.96162198533E+02  0.91736304882E+02 0.  0.
         13    1    3    3    0    0 -0.20259392057E+02  0.55905250152E+02 -0.14082461313E+02  0.61107829627E+02  0.10566000000E+00 0.  1.
         22    1    1    0    0    0  0.16198464192E+02 -0.21234937661E+02  0.10876854957E+02  0.28837801467E+02  0.00000000000E+00 0.  1.
</event>
<event>
 5    1  0.1680526E-003  0.9118800E+02  0.7818608E-02  0.1130116E+00
         25   -1    0    0    0    0  0.00000000000E+00  0.00000000000E+00  0.99999998245E-14  0.12500000000E+03  0.12500000000E+03 0.  0.
        -13    1    3    3    0    0 -0.29327106427E+02  0.46864263802E+02 -0.89252889928E+01  0.56000092328E+02  0.10566000000E+00 0.  1.
         23    2    1    0    0    0 -0.19094094192E+02  0.15043941736E+02  0.14387928659E+02  0.96752573443E+02  0.92537253908E+02 0.  0.
         13    1    3    3    0    0  0.10233012235E+02 -0.31820322065E+02  0.23313217652E+02  0.40752481116E+02  0.10566000000E+00 0. -1.
         22    1    1    0    0    0  0.19094094192E+02 -0.15043941736E+02 -0.14387928659E+02  0.28247426557E+02  0.00000000000E+00 0.  1.
</event>
<event>
 5    1  0.1680526E-003  0.9118800E+02  0.7818608E-02  0.1130116E+00
         25   -1    0    0    0    0  0.00000000000E+00  0.00000000000E+00  0.99999998245E-14  0.12500000000E+03  0.12500000000E+03 0.  0.
        -13    1    3    3    0    0  0.31552831135E+02 -0.32131133126E+02  0.17534329361E+02  0.48326542798E+02  0.10566000000E+00 0. -1.
         23    2    1    0    0    0 -0.37863201200E+01 -0.13930999276E+01  0.28323964381E+02  0.96390143207E+02  0.92046378536E+02 0.  0.
         13    1    3    3    0    0 -0.35339151255E+02  0.30738033198E+02  0.10789635020E+02  0.48063600409E+02  0.10566000000E+00 0.  1.
         22    1    1    0    0    0  0.37863201200E+01  0.13930999276E+01 -0.28323964381E+02  0.28609856793E+02  0.00000000000E+00 0.  1.
</event>
<event>
 5    1  0.1680526E-003  0.9118800E+02  0.7818608E-02  0.1130116E+00
         25   -1    0    0    0    0  0.00000000000E+00  0.00000000000E+00  0.99999998245E-14  0.12500000000E+03  0.12500000000E+03 0.  0.
        -13    1    3    3    0    0  0.54547102766E+01  0.10967880527E+02  0.42614446058E+02  0.44340167392E+02  0.10566000000E+00 0.  1.
         23    2    1    0    0    0 -0.27322685335E+02  0.89730004385E+01  0.25703889735E+01  0.96126988895E+02  0.91688315634E+02 0.  0.
         13    1    3    3    0    0 -0.32777395612E+02 -0.19948800885E+01 -0.40044057084E+02  0.51786821504E+02  0.10566000000E+00 0. -1.
         22    1    1    0    0    0  0.27322685335E+02 -0.89730004385E+01 -0.25703889735E+01  0.28873011105E+02  0.00000000000E+00 0. -1.
</event>
<event>
 5    1  0.1680526E-003  0.9118800E+02  0.7818608E-02  0.1130116E+00
         25   -1    0    0    0    0  0.00000000000E+00  0.00000000000E+00  0.99999998245E-14  0.12500000000E+03  0.12500000000E+03 0.  0.
        -13    1    3    3    0    0  0.38345809155E+02 -0.90385715143E+01 -0.44716776020E+02  0.59596124676E+02  0.10566000000E+00 0.  1.
         23    2    1    0    0    0  0.26299230861E+02  0.31045612698E+01 -0.13303952431E+02  0.95364160298E+02  0.90642374607E+02 0.  0.
         13    1    3    3    0    0 -0.12046578294E+02  0.12143132784E+02  0.31412823588E+02  0.35768035622E+02  0.10566000000E+00 0. -1.
         22    1    1    0    0    0 -0.26299230861E+02 -0.31045612698E+01  0.13303952431E+02  0.29635839702E+02  0.00000000000E+00 0.  1.
</event>
<event>
 5    1  0.1680526E-003  0.9118800E+02  0.7818608E-02  0.1130116E+00
         25   -1    0    0    0    0  0.00000000000E+00  0.00000000000E+00  0.99999998245E-14  0.12500000000E+03  0.12500000000E+03 0.  0.
        -13    1    3    3    0    0 -0.35620633906E+02 -0.29747451139E+02 -0.22224399193E+02  0.51455568140E+02  0.10566000000E+00 0.  1.
         23    2    1    0    0    0 -0.12570063022E+02 -0.22416314582E+02  0.14546245681E+02  0.95468814666E+02  0.90786583076E+02 0.  0.
         13    1    3    3    0    0  0.23050570884E+02  0.73311365574E+01  0.36770644874E+02  0.44013246526E+02  0.10566000000E+00 0. -1.
         22    1    1    0    0    0  0.12570063022E+02  0.22416314582E+02 -0.14546245681E+02  0.29531185334E+02  0.00000000000E+00 0.  1.
</event>
<event>
 5    1  0.1680526E-003  0.9118800E+02  0.7818608E-02  0.1130116E+00
         25   -1    0    0    0    0  0.00000000000E+00  0.00000000000E+00  0.99999998245E-14  0.12500000000E+03  0.12500000000E+03 0.  0.
        -13    1    3    3    0    0 -0.13185142284E+02  0.12737301261E+02 -0.28959482979E+02  0.34274620916E+02  0.10566000000E+00 0. -1.
         23    2    1    0    0    0  0.64437762585E+01 -0.24055817961E+02  0.15844696640E+02  0.95482902550E+02  0.90805977983E+02 0.  0.
         13    1    3    3    0    0  0.19628918542E+02 -0.36793119223E+02  0.44804179619E+02  0.61208281634E+02  0.10566000000E+00 0.  1.
         22    1    1    0    0    0 -0.64437762585E+01  0.24055817961E+02 -0.15844696640E+02  0.29517097450E+02  0.00000000000E+00 0.  1.
</event>
<event>
 5    1  0.1680526E-003  0.9118800E+02  0.7818608E-02  0.1130116E+00
         25   -1    0    0    0    0  0.00000000000E+00  0.00000000000E+00  0.99999998245E-14  0.12500000000E+03  0.12500000000E+03 0.  0.
        -13    1    3    3    0    0 -0.26109180030E+01 -0.14330121340E+02 -0.59910362927E+02  0.61655754156E+02  0.10566000000E+00 0.  1.
         23    2    1    0    0    0 -0.66504808115E+01 -0.17692746539E+01 -0.27565232148E+02  0.96588712609E+02  0.92315644137E+02 0.  0.
         13    1    3    3    0    0 -0.40395628085E+01  0.12560846686E+02  0.32345130779E+02  0.34932958454E+02  0.10566000000E+00 0. -1.
         22    1    1    0    0    0  0.66504808115E+01  0.17692746539E+01  0.27565232148E+02  0.28411287391E+02  0.00000000000E+00 0.  1.
</event>
<event>
 5    1  0.1680526E-003  0.9118800E+02  0.7818608E-02  0.1130116E+00
         25   -1    0    0    0    0  0.00000000000E+00  0.00000000000E+00  0.99999998245E-14  0.12500000000E+03  0.12500000000E+03 0.  0.
        -13    1    3    3    0    0 -0.54662595858E+02  0.18864765072E+02 -0.44651671537E+01  0.57998514023E+02  0.10566000000E+00 0.  1.
         23    2    1    0    0    0 -0.28373761764E+02 -0.46821591376E+01  0.75284253413E+01  0.95273409900E+02  0.90517139123E+02 0.  0.
         13    1    3    3    0    0  0.26288834093E+02 -0.23546924209E+02  0.11993592495E+02  0.37274895877E+02  0.10566000000E+00 0. -1.
         22    1    1    0    0    0  0.28373761764E+02  0.46821591376E+01 -0.75284253413E+01  0.29726590100E+02  0.00000000000E+00 0.  1.
</event>
<event>
 5    1  0.1680526E-003  0.9118800E+02  0.7818608E-02  0.1130116E+00
         25   -1    0    0    0    0  0.00000000000E+00  0.00000000000E+00  0.99999998245E-14  0.12500000000E+03  0.12500000000E+03 0.  0.
        -13    1    3    3    0    0  0.28927811692E+02  0.92891832443E+01  0.12104234906E+02  0.32705211837E+02  0.10566000000E+00 0. -1.
         23    2    1    0    0    0 -0.20470361459E+02 -0.38919112159E+01 -0.22416402201E+02  0.94394808303E+02  0.89295588221E+02 0.  0.
         13    1    3    3    0    0 -0.49398173151E+02 -0.13181094460E+02 -0.34520637107E+02  0.61689596466E+02  0.10566000000E+00 0.  1.
         22    1    1    0    0    0  0.20470361459E+02  0.38919112159E+01  0.22416402201E+02  0.30605191697E+02  0.00000000000E+00 0.  1.
</event>
<event>
 5    1  0.1680526E-003  0.9118800E+02  0.7818608E-02  0.1130116E+00
         25   -1    0    0    0    0  0.00000000000E+00  0.00000000000E+00  0.99999998245E-14  0.12500000000E+03  0.12500000000E+03 0.  0.
        -13    1    3    3    0    0  0.14828345801E+02  0.17496566485E+02 -0.28647217134E+02  0.36697191876E+02  0.10566000000E+00 0. -1.
         23    2    1    0    0    0  0.12053456316E+02 -0.71654542382E+01  0.25296997576E+02  0.96076521129E+02  0.91619486368E+02 0.  0.
         13    1    3    3    0    0 -0.27748894852E+01 -0.24662020724E+02  0.53944214711E+02  0.59379329254E+02  0.10566000000E+00 0.  1.
         22    1    1    0    0    0 -0.12053456316E+02  0.71654542382E+01 -0.25296997576E+02  0.28923478871E+02  0.00000000000E+00 0.  1.
</event>
<event>
 5    1  0.1680526E-003  0.9118800E+02  0.7818608E-02  0.1130116E+00
         25   -1    0    0    0    0  0.00000000000E+00  0.00000000000E+00  0.99999998245E-14  0.12500000000E+03  0.12500000000E+03 0.  0.
        -13    1    3    3    0    0  0.39462805394E+02  0.30917459507E+02 -0.91893950285E+01  0.50967229246E+02  0.10566000000E+00 0. -1.
         23    2    1    0    0    0 -0.53375694417E+01  0.24674685308E+02  0.66496201001E+01  0.98893541220E+02  0.95385456464E+02 0.  0.
         13    1    3    3    0    0 -0.44800374836E+02 -0.62427741999E+01  0.15839015129E+02  0.47926311974E+02  0.10566000000E+00 0.  1.
         22    1    1    0    0    0  0.53375694417E+01 -0.24674685308E+02 -0.66496201001E+01  0.26106458780E+02  0.00000000000E+00 0. -1.
</event>
<event>
 5    1  0.1680526E-003  0.9118800E+02  0.7818608E-02  0.1130116E+00
         25   -1    0    0    0    0  0.00000000000E+00  0.00000000000E+00  0.99999998245E-14  0.12500000000E+03  0.12500000000E+03 0.  0.
        -13    1    3    3    0    0  0.13442734679E+02  0.41320800240E+02 -0.90582094325E+01  0.44386686858E+02  0.10566000000E+00 0.  1.
         23    2    1    0    0    0  0.48901954404E-01  0.11859303314E+01 -0.32311717438E+02  0.92666489428E+02  0.86842514686E+02 0.  0.
         13    1    3    3    0    0 -0.13393832724E+02 -0.40134869908E+02 -0.23253508005E+02  0.48279802570E+02  0.10566000000E+00 0. -1.
         22    1    1    0    0    0 -0.48901954404E-01 -0.11859303314E+01  0.32311717438E+02  0.32333510572E+02  0.00000000000E+00 0. -1.
</event>
<event>
 5    1  0.1680526E-003  0.9118800E+02  0.7818608E-02  0.1130116E+00
         25   -1    0    0    0    0  0.00000000000E+00  0.00000000000E+00  0.99999998245E-14  0.12500000000E+03  0.12500000000E+03 0.  0.
        -13    1    3    3    0    0  0.16771864898E+02 -0.88950224132E+01 -0.35300310569E+02  0.40081666210E+02  0.10566000000E+00 0.  1.
         23    2    1    0    0    0  0.11924397330E+02  0.25661688740E+02  0.79058423650E+01  0.95619464536E+02  0.90993769754E+02 0.  0.
         13    1    3    3    0    0 -0.48474675677E+01  0.34556711153E+02  0.43206152934E+02  0.55537798326E+02  0.10566000000E+00 0. -1.
         22    1    1    0    0    0 -0.11924397330E+02 -0.25661688740E+02 -0.79058423650E+01  0.29380535464E+02  0.00000000000E+00 0. -1.
</event>
<event>
 5    1  0.1680526E-003  0.9118800E+02  0.7818608E-02  0.1130116E+00
         25   -1    0    0    0    0  0.00000000000E+00  0.00000000000E+00  0.99999998245E-14  0.12500000000E+03  0.12500000000E+03 0.  0.
        -13    1    3    3    0    0  0.10140182266E+02 -0.30965474771E+02 -0.44879202062E+02  0.55460236800E+02  0.10566000000E+00 0. -1.
         23    2    1    0    0    0  0.10522555203E+02  0.48526256107E+01 -0.27260258707E+02  0.95379165304E+02  0.90663064840E+02 0.  0.
         13    1    3    3    0    0  0.38237293702E+00  0.35818100381E+02  0.17618943355E+02  0.39918928505E+02  0.10566000000E+00 0.  1.
         22    1    1    0    0    0 -0.10522555203E+02 -0.48526256107E+01  0.27260258707E+02  0.29620834696E+02  0.00000000000E+00 0. -1.
</event>
<event>
 5    1  0.1680526E-003  0.9118800E+02  0.7818608E-02  0.1130116E+00
         25   -1    0    0    0    0  0.00000000000E+00  0.00000000000E+00  0.99999998245E-14  0.12500000000E+03  0.12500000000E+03 0.  0.
        -13    1    3    3    0    0  0.93012984983E+01 -0.72340934605E+01 -0.48085541793E+02  0.49508350361E+02  0.10566000000E+00 0. -1.
         23    2    1    0    0    0 -0.20814861144E+02 -0.16599290582E+02 -0.23296216442E+02  0.89623332651E+02  0.82345814482E+02 0.  0.
         13    1    3    3    0    0 -0.30116159642E+02 -0.93651971213E+01  0.24789325351E+02  0.40114982289E+02  0.10566000000E+00 0.  1.
         22    1    1    0    0    0  0.20814861144E+02  0.16599290582E+02  0.23296216442E+02  0.35376667349E+02  0.00000000000E+00 0. -1.
</event>
<event>
 5    1  0.1680526E-003  0.9118800E+02  0.7818608E-02  0.1130116E+00
         25   -1    0    0    0    0  0.00000000000E+00  0.00000000000E+00  0.99999998245E-14  0.12500000000E+03  0.12500000000E+03 0.  0.
        -13    1    3    3    0    0 -0.32650412389E+02 -0.13878170693E+01 -0.26190389948E+02  0.41879865748E+02  0.10566000000E+00 0.  1.
         23    2    1    0    0    0 -0.13417569741E+02  0.39232234567E+01  0.24742414461E+02  0.96581521269E+02  0.92305906188E+02 0.  0.
         13    1    3    3    0    0  0.19232842648E+02  0.53110405260E+01  0.50932804409E+02  0.54701655521E+02  0.10566000000E+00 0. -1.
         22    1    1    0    0    0  0.13417569741E+02 -0.39232234567E+01 -0.24742414461E+02  0.28418478731E+02  0.00000000000E+00 0. -1.
</event>
<event>
 5    1  0.1680526E-003  0.9118800E+02  0.7818608E-02  0.1130116E+00
         25   -1    0    0    0    0  0.00000000000E+00  0.00000000000E+00  0.99999998245E-14  0.12500000000E+03  0.12500000000E+03 0.  0.
        -13    1    3    3    0    0 -0.18239691154E+01 -0.59267837849E+01  0.58873109311E+02  0.59198883379E+02  0.10566000000E+00 0.  1.
         23    2    1    0    0    0  0.81693223347E+01  0.83487328386E+01  0.28202300538E+02  0.94474454582E+02  0.89407011165E+02 0.  0.
         13    1    3    3    0    0  0.99932914501E+01  0.14275516623E+02 -0.30670808773E+02  0.35275571203E+02  0.10566000000E+00 0. -1.
         22    1    1    0    0    0 -0.81693223347E+01 -0.83487328386E+01 -0.28202300538E+02  0.30525545418E+02  0.00000000000E+00 0.  1.
</event>
<event>
 5    1  0.1680526E-003  0.9118800E+02  0.7818608E-02  0.1130116E+00
         25   -1    0    0    0    0  0.00000000000E+00  0.00000000000E+00  0.99999998245E-14  0.12500000000E+03  0.12500000000E+03 0.  0.
        -13    1    3    3    0    0  0.31452366188E+02  0.99206306517E+01  0.20989238991E+02  0.39092576902E+02  0.10566000000E+00 0.  1.
         23    2    1    0    0    0 -0.99613654567E+01  0.22501481610E+02 -0.15680794736E+02  0.95820678555E+02  0.91269763004E+02 0.  0.
         13    1    3    3    0    0 -0.41413731645E+02  0.12580850959E+02 -0.36670033727E+02  0.56728101653E+02  0.10566000000E+00 0. -1.
         22    1    1    0    0    0  0.99613654567E+01 -0.22501481610E+02  0.15680794736E+02  0.29179321445E+02  0.00000000000E+00 0. -1.
</event>
<event>
 5    1  0.1680526E-003  0.9118800E+02  0.7818608E-02  0.1130116E+00
         25   -1    0    0    0    0  0.00000000000E+00  0.00000000000E+00  0.99999998245E-14  0.12500000000E+03  0.12500000000E+03 0.  0.
        -13    1    3    3    0    0  0.16096535798E+02 -0.24423712600E+01 -0.29590171885E+02  0.33773555903E+02  0.10566000000E+00 0. -1.
         23    2    1    0    0    0 -0.18715989294E+02  0.84120130082E+01  0.20673669586E+02  0.95871820650E+02  0.91339778643E+02 0.  0.
         13    1    3    3    0    0 -0.34812525093E+02  0.10854384268E+02  0.50263841471E+02  0.62098264747E+02  0.10566000000E+00 0.  1.
         22    1    1    0    0    0  0.18715989294E+02 -0.84120130082E+01 -0.20673669586E+02  0.29128179350E+02  0.00000000000E+00 0.  1.
</event>
<event>
 5    1  0.1680526E-003  0.9118800E+02  0.7818608E-02  0.1130116E+00
         25   -1    0    0    0    0  0.00000000000E+00  0.00000000000E+00  0.99999998245E-14  0.12500000000E+03  0.12500000000E+03 0.  0.
        -13    1    3    3    0    0 -0.94113603914E+01  0.80697507302E+01 -0.52714658546E+02  0.54152940556E+02  0.10566000000E+00 0.  1.
         23    2    1    0    0    0  0.10892190816E+02 -0.13735027703E+02 -0.20222270755E+02  0.98237506819E+02  0.94521831895E+02 0.  0.
         13    1    3    3    0    0  0.20303551207E+02 -0.21804778433E+02  0.32492387791E+02  0.44084566262E+02  0.10566000000E+00 0. -1.
         22    1    1    0    0    0 -0.10892190816E+02  0.13735027703E+02  0.20222270755E+02  0.26762493181E+02  0.00000000000E+00 0.  1.
</event>
<event>
 5    1  0.1680526E-003  0.9118800E+02  0.7818608E-02  0.1130116E+00
         25   -1    0    0    0    0  0.00000000000E+00  0.00000000000E+00  0.99999998245E-14  0.12500000000E+03  0.12500000000E+03 0.  0.
        -13    1    3    3    0    0 -0.60098617828E+01  0.27834162594E+02 -0.22230723492E+02  0.36125825623E+02  0.10566000000E+00 0. -1.
         23    2    1    0    0    0 -0.25378137964E+01 -0.28961206211E+02 -0.57658257605E+01  0.95361566999E+02  0.90638798258E+02 0.  0.
         13    1    3    3    0    0  0.34720479864E+01 -0.56795368805E+02  0.16464897731E+02  0.59235741375E+02  0.10566000000E+00 0.  1.
         22    1    1    0    0    0  0.25378137964E+01  0.28961206211E+02  0.57658257605E+01  0.29638433001E+02  0.00000000000E+00 0.  1.
</event>
<event>
 5    1  0.1680526E-003  0.9118800E+02  0.7818608E-02  0.1130116E+00
         25   -1    0    0    0    0  0.00000000000E+00  0.00000000000E+00  0.99999998245E-14  0.12500000000E+03  0.12500000000E+03 0.  0.
        -13    1    3    3    0    0  0.27889710173E+02 -0.32727795340E+02  0.28679281673E+02  0.51686138206E+02  0.10566000000E+00 0. -1.
         23    2    1    0    0    0  0.70573455032E+01  0.64203272964E+01  0.27329786272E+02  0.96052738544E+02  0.91587033121E+02 0.  0.
         13    1    3    3    0    0 -0.20832364670E+02  0.39148122636E+02 -0.13494954015E+01  0.44366600338E+02  0.10566000000E+00 0.  1.
         22    1    1    0    0    0 -0.70573455032E+01 -0.64203272964E+01 -0.27329786272E+02  0.28947261456E+02  0.00000000000E+00 0. -1.
</event>
<event>
 5    1  0.1680526E-003  0.9118800E+02  0.7818608E-02  0.1130116E+00
         25   -1    0    0    0    0  0.00000000000E+00  0.00000000000E+00  0.99999998245E-14  0.12500000000E+03  0.12500000000E+03 0.  0.
        -13    1    3    3    0    0 -0.57859122621E+01  0.48271483272E+02 -0.31899000376E+02  0.58147831146E+02  0.10566000000E+00 0. -1.
         23    2    1    0    0    0 -0.31008348233E+01  0.11109684767E+02 -0.26888413323E+02  0.95742060167E+02  0.91162026315E+02 0.  0.
         13    1    3    3    0    0  0.26850774387E+01 -0.37161798506E+02  0.50105870525E+01  0.37594229021E+02  0.10566000000E+00 0.  1.
         22    1    1    0    0    0  0.31008348233E+01 -0.11109684767E+02  0.26888413323E+02  0.29257939833E+02  0.00000000000E+00 0. -1.
</event>
<event>
 5    1  0.1680526E-003  0.9118800E+02  0.7818608E-02  0.1130116E+00
         25   -1    0    0    0    0  0.00000000000E+00  0.00000000000E+00  0.99999998245E-14  0.12500000000E+03  0.12500000000E+03 0.  0.
        -13    1    3    3    0    0  0.37095384826E+02  0.10291761259E+01 -0.29689035398E+02  0.47524485960E+02  0.10566000000E+00 0.  1.
         23    2    1    0    0    0 -0.11811658521E+01 -0.24379219014E+02 -0.17221057114E+02  0.95128503877E+02  0.90316808897E+02 0.  0.
         13    1    3    3    0    0 -0.38276550678E+02 -0.25408395140E+02  0.12467978284E+02  0.47604017917E+02  0.10566000000E+00 0. -1.
         22    1    1    0    0    0  0.11811658521E+01  0.24379219014E+02  0.17221057114E+02  0.29871496123E+02  0.00000000000E+00 0. -1.
</event>
<event>
 5    1  0.1680526E-003  0.9118800E+02  0.7818608E-02  0.1130116E+00
         25   -1    0    0    0    0  0.00000000000E+00  0.00000000000E+00  0.99999998245E-14  0.12500000000E+03  0.12500000000E+03 0.  0.
        -13    1    3    3    0    0  0.21601121078E+01  0.21189428134E+02 -0.25427027928E+02  0.33169306027E+02  0.10566000000E+00 0.  1.
         23    2    1    0    0    0 -0.89158782178E+01 -0.13415718709E+02  0.24961746303E+02  0.95292035220E+02  0.90542856178E+02 0.  0.
         13    1    3    3    0    0 -0.11075990326E+02 -0.34605146844E+02  0.50388774232E+02  0.62122729193E+02  0.10566000000E+00 0. -1.
         22    1    1    0    0    0  0.89158782178E+01  0.13415718709E+02 -0.24961746303E+02  0.29707964780E+02  0.00000000000E+00 0. -1.
</event>
<event>
 5    1  0.1680526E-003  0.9118800E+02  0.7818608E-02  0.1130116E+00
         25   -1    0    0    0    0  0.00000000000E+00  0.00000000000E+00  0.99999998245E-14  0.12500000000E+03  0.12500000000E+03 0.  0.
        -13    1    3    3    0    0 -0.22907101174E+02  0.18298493560E+02  0.33901102397E+02  0.44820375484E+02  0.10566000000E+00 0. -1.
         23    2    1    0    0    0 -0.83254646734E+01 -0.25313844212E+02  0.11392515977E+02  0.96019084019E+02  0.91541089160E+02 0.  0.
         13    1    3    3    0    0  0.14581636500E+02 -0.43612337772E+02 -0.22508586420E+02  0.51198708535E+02  0.10566000000E+00 0.  1.
         22    1    1    0    0    0  0.83254646734E+01  0.25313844212E+02 -0.11392515977E+02  0.28980915981E+02  0.00000000000E+00 0.  1.
</event>
<event>
 5    1  0.1680526E-003  0.9118800E+02  0.7818608E-02  0.1130116E+00
         25   -1    0    0    0    0  0.00000000000E+00  0.00000000000E+00  0.99999998245E-14  0.12500000000E+03  0.12500000000E+03 0.  0.
        -13    1    3    3    0    0  0.45666398380E+02  0.15753155433E+02 -0.17210210719E+02  0.51281423188E+02  0.10566000000E+00 0. -1.
         23    2    1    0    0    0  0.25828419764E+02 -0.17494386425E+02  0.37010695733E+00  0.93802278880E+02  0.88462250255E+02 0.  0.
         13    1    3    3    0    0 -0.19837978616E+02 -0.33247541859E+02  0.17580317676E+02  0.42520855693E+02  0.10566000000E+00 0.  1.
         22    1    1    0    0    0 -0.25828419764E+02  0.17494386425E+02 -0.37010695733E+00  0.31197721120E+02  0.00000000000E+00 0.  1.
</event>
<event>
 5    1  0.1680526E-003  0.9118800E+02  0.7818608E-02  0.1130116E+00
         25   -1    0    0    0    0  0.00000000000E+00  0.00000000000E+00  0.99999998245E-14  0.12500000000E+03  0.12500000000E+03 0.  0.
        -13    1    3    3    0    0  0.23924674146E+02  0.22972309921E+02  0.34584612944E+01  0.33348001059E+02  0.10566000000E+00 0.  1.
         23    2    1    0    0    0 -0.10415895690E+02 -0.26749379287E+02 -0.87366229816E+01  0.94994187956E+02  0.90130721672E+02 0.  0.
         13    1    3    3    0    0 -0.34340569836E+02 -0.49721689208E+02 -0.12195084276E+02  0.61646186897E+02  0.10566000000E+00 0. -1.
         22    1    1    0    0    0  0.10415895690E+02  0.26749379287E+02  0.87366229816E+01  0.30005812044E+02  0.00000000000E+00 0. -1.
</event>
<event>
 5    1  0.1680526E-003  0.9118800E+02  0.7818608E-02  0.1130116E+00
         25   -1    0    0    0    0  0.00000000000E+00  0.00000000000E+00  0.99999998245E-14  0.12500000000E+03  0.12500000000E+03 0.  0.
        -13    1    3    3    0    0  0.32437432802E+02 -0.20692160363E+02 -0.33810970648E+02  0.51220556883E+02  0.10566000000E+00 0. -1.
         23    2    1    0    0    0  0.22887635293E+01 -0.26945569867E+02  0.13077032576E+01  0.97925800810E+02  0.94108714806E+02 0.  0.
         13    1    3    3    0    0 -0.30148669272E+02 -0.62534095040E+01  0.35118673906E+02  0.46705243926E+02  0.10566000000E+00 0.  1.
         22    1    1    0    0    0 -0.22887635293E+01  0.26945569867E+02 -0.13077032576E+01  0.27074199190E+02  0.00000000000E+00 0. -1.
</event>
<event>
 5    1  0.1680526E-003  0.9118800E+02  0.7818608E-02  0.1130116E+00
         25   -1    0    0    0    0  0.00000000000E+00  0.00000000000E+00  0.99999998245E-14  0.12500000000E+03  0.12500000000E+03 0.  0.
        -13    1    3    3    0    0 -0.34233081443E+02  0.11677654369E+02  0.12052247153E+02  0.38125310518E+02  0.10566000000E+00 0. -1.
         23    2    1    0    0    0  0.17051222823E+02  0.22283720728E+02 -0.10360360569E+02  0.95089375126E+02  0.90262637793E+02 0.  0.
         13    1    3    3    0    0  0.51284304266E+02  0.10606066359E+02 -0.22412607722E+02  0.56964064607E+02  0.10566000000E+00 0.  1.
         22    1    1    0    0    0 -0.17051222823E+02 -0.22283720728E+02  0.10360360569E+02  0.29910624874E+02  0.00000000000E+00 0.  1.
</event>
<event>
 5    1  0.1680526E-003  0.9118800E+02  0.7818608E-02  0.1130116E+00
         25   -1    0    0    0    0  0.00000000000E+00  0.00000000000E+00  0.99999998245E-14  0.12500000000E+03  0.12500000000E+03 0.  0.
        -13    1    3    3    0    0  0.12730690114E+02 -0.51301033506E+02 -0.35480099467E+01  0.52976089401E+02  0.10566000000E+00 0.  1.
         23    2    1    0    0    0  0.12484864999E+02 -0.16777468426E+02 -0.24049803862E+02  0.93129192564E+02  0.87505989172E+02 0.  0.
         13    1    3    3    0    0 -0.24582511484E+00  0.34523565080E+02 -0.20501793915E+02  0.40153103163E+02  0.10566000000E+00 0. -1.
         22    1    1    0    0    0 -0.12484864999E+02  0.16777468426E+02  0.24049803862E+02  0.31870807436E+02  0.00000000000E+00 0.  1.
</event>
<event>
 5    1  0.1680526E-003  0.9118800E+02  0.7818608E-02  0.1130116E+00
         25   -1    0    0    0    0  0.00000000000E+00  0.00000000000E+00  0.99999998245E-14  0.12500000000E+03  0.12500000000E+03 0.  0.
        -13    1    3    3    0    0  0.48924797452E+02 -0.16848901840E+02  0.33497779201E+02  0.61641168665E+02  0.10566000000E+00 0. -1.
         23    2    1    0    0    0  0.19117193162E+02 -0.10145238082E+02  0.21584347545E+02  0.94434055076E+02  0.89350510738E+02 0.  0.
         13    1    3    3    0    0 -0.29807604290E+02  0.67036637585E+01 -0.11913431657E+02  0.32792886411E+02  0.10566000000E+00 0.  1.
         22    1    1    0    0    0 -0.19117193162E+02  0.10145238082E+02 -0.21584347545E+02  0.30565944924E+02  0.00000000000E+00 0. -1.
</event>
<event>
 5    1  0.1680526E-003  0.9118800E+02  0.7818608E-02  0.1130116E+00
         25   -1    0    0    0    0  0.00000000000E+00  0.00000000000E+00  0.99999998245E-14  0.12500000000E+03  0.12500000000E+03 0.  0.
        -13    1    3    3    0    0  0.28442433119E+02  0.13090337199E+02  0.23666954159E+02  0.39248755559E+02  0.10566000000E+00 0. -1.
         23    2    1    0    0    0 -0.70858850316E+01  0.19373970390E+02 -0.20254754248E+02  0.96089524995E+02  0.91637226326E+02 0.  0.
         13    1    3    3    0    0 -0.35528318151E+02  0.62836331911E+01 -0.43921708407E+02  0.56840769436E+02  0.10566000000E+00 0.  1.
         22    1    1    0    0    0  0.70858850316E+01 -0.19373970390E+02  0.20254754248E+02  0.28910475005E+02  0.00000000000E+00 0.  1.
</event>
<event>
 5    1  0.1680526E-003  0.9118800E+02  0.7818608E-02  0.1130116E+00
         25   -1    0    0    0    0  0.00000000000E+00  0.00000000000E+00  0.99999998245E-14  0.12500000000E+03  0.12500000000E+03 0.  0.
        -13    1    3    3    0    0 -0.38126874053E+02  0.65150293735E+01 -0.92585291449E+01  0.39772297629E+02  0.10566000000E+00 0.  1.
         23    2    1    0    0    0  0.11616674654E+02 -0.16221421509E+02 -0.21341487057E+02  0.95784580859E+02  0.91220311415E+02 0.  0.
         13    1    3    3    0    0  0.49743548706E+02 -0.22736450883E+02 -0.12082957912E+02  0.56012283229E+02  0.10566000000E+00 0. -1.
         22    1    1    0    0    0 -0.11616674654E+02  0.16221421509E+02  0.21341487057E+02  0.29215419141E+02  0.00000000000E+00 0. -1.
</event>
<event>
 5    1  0.1680526E-003  0.9118800E+02  0.7818608E-02  0.1130116E+00
         25   -1    0    0    0    0  0.00000000000E+00  0.00000000000E+00  0.99999998245E-14  0.12500000000E+03  0.12500000000E+03 0.  0.
        -13    1    3    3    0    0  0.21528842568E+02 -0.24591320740E+02 -0.50159919051E+02  0.59868629191E+02  0.10566000000E+00 0. -1.
         23    2    1    0    0    0  0.77811780351E+01  0.16294208196E+01 -0.25145839498E+02  0.98627381854E+02  0.95036021926E+02 0.  0.
         13    1    3    3    0    0 -0.13747664533E+02  0.26220741560E+02  0.25014079553E+02  0.38758752662E+02  0.10566000000E+00 0.  1.
         22    1    1    0    0    0 -0.77811780351E+01 -0.16294208196E+01  0.25145839498E+02  0.26372618146E+02  0.00000000000E+00 0. -1.
</event>
<event>
 5    1  0.1680526E-003  0.9118800E+02  0.7818608E-02  0.1130116E+00
         25   -1    0    0    0    0  0.00000000000E+00  0.00000000000E+00  0.99999998245E-14  0.12500000000E+03  0.12500000000E+03 0.  0.
        -13    1    3    3    0    0 -0.14299714639E+02  0.19565045367E+02  0.41697537732E+02  0.48228297253E+02  0.10566000000E+00 0. -1.
         23    2    1    0    0    0  0.21563066675E+02  0.16430037446E+02  0.10287938791E+02  0.96004247562E+02  0.91520827632E+02 0.  0.
         13    1    3    3    0    0  0.35862781314E+02 -0.31350079213E+01 -0.31409598941E+02  0.47775950309E+02  0.10566000000E+00 0.  1.
         22    1    1    0    0    0 -0.21563066675E+02 -0.16430037446E+02 -0.10287938791E+02  0.28995752438E+02  0.00000000000E+00 0. -1.
</event>
<event>
 5    1  0.1680526E-003  0.9118800E+02  0.7818608E-02  0.1130116E+00
         25   -1    0    0    0    0  0.00000000000E+00  0.00000000000E+00  0.99999998245E-14  0.12500000000E+03  0.12500000000E+03 0.  0.
        -13    1    3    3    0    0  0.85831753360E+00  0.47555942096E+02 -0.37961043358E+02  0.60855207784E+02  0.10566000000E+00 0.  1.
         23    2    1    0    0    0  0.86354456319E+01  0.25482954395E+02 -0.12845296700E+02  0.95184676201E+02  0.90394518917E+02 0.  0.
         13    1    3    3    0    0  0.77771280983E+01 -0.22072987701E+02  0.25115746658E+02  0.34329468416E+02  0.10566000000E+00 0. -1.
         22    1    1    0    0    0 -0.86354456319E+01 -0.25482954395E+02  0.12845296700E+02  0.29815323799E+02  0.00000000000E+00 0.  1.
</event>
<event>
 5    1  0.1680526E-003  0.9118800E+02  0.7818608E-02  0.1130116E+00
         25   -1    0    0    0    0  0.00000000000E+00  0.00000000000E+00  0.99999998245E-14  0.12500000000E+03  0.12500000000E+03 0.  0.
        -13    1    3    3    0    0 -0.58033243537E+02 -0.10433142596E+02  0.32665508124E+00  0.58964613858E+02  0.10566000000E+00 0.  1.
         23    2    1    0    0    0 -0.28944312724E+02 -0.77011925942E+01  0.14824208450E+02  0.91580862330E+02  0.85265559181E+02 0.  0.
         13    1    3    3    0    0  0.29088930813E+02  0.27319500017E+01  0.14497553369E+02  0.32616248471E+02  0.10566000000E+00 0. -1.
         22    1    1    0    0    0  0.28944312724E+02  0.77011925942E+01 -0.14824208450E+02  0.33419137670E+02  0.00000000000E+00 0.  1.
</event>
<event>
 5    1  0.1680526E-003  0.9118800E+02  0.7818608E-02  0.1130116E+00
         25   -1    0    0    0    0  0.00000000000E+00  0.00000000000E+00  0.99999998245E-14  0.12500000000E+03  0.12500000000E+03 0.  0.
        -13    1    3    3    0    0 -0.36386831998E+02 -0.17301659506E+02  0.20315424008E+02  0.45122905283E+02  0.10566000000E+00 0. -1.
         23    2    1    0    0    0 -0.15358689575E+02  0.51697078049E+01 -0.22141964257E+02  0.97561308242E+02  0.93623325408E+02 0.  0.
         13    1    3    3    0    0  0.21028142423E+02  0.22471367310E+02 -0.42457388265E+02  0.52438402959E+02  0.10566000000E+00 0.  1.
         22    1    1    0    0    0  0.15358689575E+02 -0.51697078049E+01  0.22141964257E+02  0.27438691758E+02  0.00000000000E+00 0.  1.
</event>
<event>
 5    1  0.1680526E-003  0.9118800E+02  0.7818608E-02  0.1130116E+00
         25   -1    0    0    0    0  0.00000000000E+00  0.00000000000E+00  0.99999998245E-14  0.12500000000E+03  0.12500000000E+03 0.  0.
        -13    1    3    3    0    0  0.23259225624E+02  0.24250931694E+02  0.35010204550E-01  0.33602256686E+02  0.10566000000E+00 0.  1.
         23    2    1    0    0    0 -0.27335982478E+02 -0.10863494111E+02  0.39870425092E+01  0.95315526781E+02  0.90575281922E+02 0.  0.
         13    1    3    3    0    0 -0.50595208102E+02 -0.35114425805E+02  0.39520323046E+01  0.61713270095E+02  0.10566000000E+00 0. -1.
         22    1    1    0    0    0  0.27335982478E+02  0.10863494111E+02 -0.39870425092E+01  0.29684473219E+02  0.00000000000E+00 0. -1.
</event>
<event>
 5    1  0.1680526E-003  0.9118800E+02  0.7818608E-02  0.1130116E+00
         25   -1    0    0    0    0  0.00000000000E+00  0.00000000000E+00  0.99999998245E-14  0.12500000000E+03  0.12500000000E+03 0.  0.
        -13    1    3    3    0    0  0.46629039696E+02  0.13087834154E+02 -0.26761806100E+01  0.48504967298E+02  0.10566000000E+00 0.  1.
         23    2    1    0    0    0  0.39025435159E+01  0.25648734130E+02  0.13334021503E+02  0.95830091912E+02  0.91282654311E+02 0.  0.
         13    1    3    3    0    0 -0.42726496180E+02  0.12560899976E+02  0.16010202113E+02  0.47325124615E+02  0.10566000000E+00 0. -1.
         22    1    1    0    0    0 -0.39025435159E+01 -0.25648734130E+02 -0.13334021503E+02  0.29169908088E+02  0.00000000000E+00 0. -1.
</event>
<event>
 5    1  0.1680526E-003  0.9118800E+02  0.7818608E-02  0.1130116E+00
         25   -1    0    0    0    0  0.00000000000E+00  0.00000000000E+00  0.99999998245E-14  0.12500000000E+03  0.12500000000E+03 0.  0.
        -13    1    3    3    0    0 -0.31791118627E+02  0.15432405345E+02 -0.38668495213E+02  0.52384139244E+02  0.10566000000E+00 0.  1.
         23    2    1    0    0    0  0.92728422864E+01  0.12289075705E+02 -0.24742260530E+02  0.95859196273E+02  0.91322500339E+02 0.  0.
         13    1    3    3    0    0  0.41063960913E+02 -0.31433296407E+01  0.13926234683E+02  0.43475057028E+02  0.10566000000E+00 0. -1.
         22    1    1    0    0    0 -0.92728422864E+01 -0.12289075705E+02  0.24742260530E+02  0.29140803727E+02  0.00000000000E+00 0.  1.
</event>
<event>
 5    1  0.1680526E-003  0.9118800E+02  0.7818608E-02  0.1130116E+00
         25   -1    0    0    0    0  0.00000000000E+00  0.00000000000E+00  0.99999998245E-14  0.12500000000E+03  0.12500000000E+03 0.  0.
        -13    1    3    3    0    0  0.15117215801E+02 -0.23668950534E+02 -0.37955500862E+02  0.47216317547E+02  0.10566000000E+00 0.  1.
         23    2    1    0    0    0  0.27735338366E+02  0.88258395570E+01 -0.44696689798E+01  0.95553058241E+02  0.90902500298E+02 0.  0.
         13    1    3    3    0    0  0.12618122564E+02  0.32494790091E+02  0.33485831882E+02  0.48336740695E+02  0.10566000000E+00 0. -1.
         22    1    1    0    0    0 -0.27735338366E+02 -0.88258395570E+01  0.44696689798E+01  0.29446941759E+02  0.00000000000E+00 0.  1.
</event>
<event>
 5    1  0.1680526E-003  0.9118800E+02  0.7818608E-02  0.1130116E+00
         25   -1    0    0    0    0  0.00000000000E+00  0.00000000000E+00  0.99999998245E-14  0.12500000000E+03  0.12500000000E+03 0.  0.
        -13    1    3    3    0    0  0.95422771374E+00 -0.14205702628E+02 -0.53738849616E+01  0.15218486827E+02  0.10566000000E+00 0.  1.
         23    2    1    0    0    0 -0.20004161571E+02  0.24580727678E+02  0.36941590289E+02  0.76327012149E+02  0.58794158190E+02 0.  0.
         13    1    3    3    0    0 -0.20958389284E+02  0.38786430306E+02  0.42315475250E+02  0.61108525322E+02  0.10566000000E+00 0. -1.
         22    1    1    0    0    0  0.20004161571E+02 -0.24580727678E+02 -0.36941590289E+02  0.48672987851E+02  0.00000000000E+00 0. -1.
</event>
<event>
 5    1  0.1680526E-003  0.9118800E+02  0.7818608E-02  0.1130116E+00
         25   -1    0    0    0    0  0.00000000000E+00  0.00000000000E+00  0.99999998245E-14  0.12500000000E+03  0.12500000000E+03 0.  0.
        -13    1    3    3    0    0 -0.47300604478E+01  0.59423955425E+01  0.24527558023E+02  0.25676795034E+02  0.10566000000E+00 0.  1.
         23    2    1    0    0    0  0.26451830575E+02 -0.35348010438E+02  0.70477071244E+01  0.80291484498E+02  0.66692361815E+02 0.  0.
         13    1    3    3    0    0  0.31181891023E+02 -0.41290405981E+02 -0.17479850898E+02  0.54614689464E+02  0.10566000000E+00 0. -1.
         22    1    1    0    0    0 -0.26451830575E+02  0.35348010438E+02 -0.70477071244E+01  0.44708515502E+02  0.00000000000E+00 0. -1.
</event>
<event>
 5    1  0.1680526E-003  0.9118800E+02  0.7818608E-02  0.1130116E+00
         25   -1    0    0    0    0  0.00000000000E+00  0.00000000000E+00  0.99999998245E-14  0.12500000000E+03  0.12500000000E+03 0.  0.
        -13    1    3    3    0    0  0.68389732579E+01 -0.23603563732E+02  0.31473450613E+02  0.39931053500E+02  0.10566000000E+00 0.  1.
         23    2    1    0    0    0 -0.16757879485E+02 -0.79661302574E+01 -0.19403151893E+02  0.98152876141E+02  0.94409846072E+02 0.  0.
         13    1    3    3    0    0 -0.23596852743E+02  0.15637433475E+02 -0.50876602506E+02  0.58221822641E+02  0.10566000000E+00 0. -1.
         22    1    1    0    0    0  0.16757879485E+02  0.79661302574E+01  0.19403151893E+02  0.26847123859E+02  0.00000000000E+00 0. -1.
</event>
<event>
 5    1  0.1680526E-003  0.9118800E+02  0.7818608E-02  0.1130116E+00
         25   -1    0    0    0    0  0.00000000000E+00  0.00000000000E+00  0.99999998245E-14  0.12500000000E+03  0.12500000000E+03 0.  0.
        -13    1    3    3    0    0 -0.36593297341E+02 -0.26654375395E+02 -0.14427423721E+02  0.47515122406E+02  0.10566000000E+00 0. -1.
         23    2    1    0    0    0 -0.21670564037E+02  0.17729188438E+01  0.20612202745E+02  0.95039701455E+02  0.90193821095E+02 0.  0.
         13    1    3    3    0    0  0.14922733304E+02  0.28427294239E+02  0.35039626465E+02  0.47524579049E+02  0.10566000000E+00 0.  1.
         22    1    1    0    0    0  0.21670564037E+02 -0.17729188438E+01 -0.20612202745E+02  0.29960298545E+02  0.00000000000E+00 0. -1.
</event>
<event>
 5    1  0.1680526E-003  0.9118800E+02  0.7818608E-02  0.1130116E+00
         25   -1    0    0    0    0  0.00000000000E+00  0.00000000000E+00  0.99999998245E-14  0.12500000000E+03  0.12500000000E+03 0.  0.
        -13    1    3    3    0    0 -0.20869887786E+02  0.46315647546E+02  0.48603485569E+00  0.50802941034E+02  0.10566000000E+00 0.  1.
         23    2    1    0    0    0  0.17397552437E+02  0.24064530453E+02 -0.26929932090E+01  0.95183416206E+02  0.90392776545E+02 0.  0.
         13    1    3    3    0    0  0.38267440222E+02 -0.22251117093E+02 -0.31790280647E+01  0.44380475172E+02  0.10566000000E+00 0. -1.
         22    1    1    0    0    0 -0.17397552437E+02 -0.24064530453E+02  0.26929932090E+01  0.29816583794E+02  0.00000000000E+00 0.  1.
</event>
<event>
 5    1  0.1680526E-003  0.9118800E+02  0.7818608E-02  0.1130116E+00
         25   -1    0    0    0    0  0.00000000000E+00  0.00000000000E+00  0.99999998245E-14  0.12500000000E+03  0.12500000000E+03 0.  0.
        -13    1    3    3    0    0 -0.48027184936E+02  0.19787736430E+02  0.17769989857E+02  0.54899441795E+02  0.10566000000E+00 0. -1.
         23    2    1    0    0    0 -0.10697613371E+02  0.27534614984E+02  0.10043536835E+02  0.93799573940E+02  0.88458428004E+02 0.  0.
         13    1    3    3    0    0  0.37329571565E+02  0.77468785540E+01 -0.77264530220E+01  0.38900132145E+02  0.10566000000E+00 0.  1.
         22    1    1    0    0    0  0.10697613371E+02 -0.27534614984E+02 -0.10043536835E+02  0.31200426060E+02  0.00000000000E+00 0.  1.
</event>
<event>
 5    1  0.1680526E-003  0.9118800E+02  0.7818608E-02  0.1130116E+00
         25   -1    0    0    0    0  0.00000000000E+00  0.00000000000E+00  0.99999998245E-14  0.12500000000E+03  0.12500000000E+03 0.  0.
        -13    1    3    3    0    0 -0.13767060458E+02 -0.48817554755E+02 -0.12997371549E+02  0.52360561849E+02  0.10566000000E+00 0. -1.
         23    2    1    0    0    0 -0.30115134852E+02 -0.14833036355E+02 -0.35162577432E+01  0.91246416735E+02  0.84773841389E+02 0.  0.
         13    1    3    3    0    0 -0.16348074394E+02  0.33984518399E+02  0.94811138061E+01  0.38885854887E+02  0.10566000000E+00 0.  1.
         22    1    1    0    0    0  0.30115134852E+02  0.14833036355E+02  0.35162577432E+01  0.33753583265E+02  0.00000000000E+00 0. -1.
</event>
<event>
 5    1  0.1680526E-003  0.9118800E+02  0.7818608E-02  0.1130116E+00
         25   -1    0    0    0    0  0.00000000000E+00  0.00000000000E+00  0.99999998245E-14  0.12500000000E+03  0.12500000000E+03 0.  0.
        -13    1    3    3    0    0 -0.45674893479E+02 -0.46832954758E+01  0.37756490907E+02  0.59444872954E+02  0.10566000000E+00 0. -1.
         23    2    1    0    0    0 -0.27562607088E+02  0.68438917964E+01  0.92497879599E+01  0.95132044902E+02  0.90321709603E+02 0.  0.
         13    1    3    3    0    0  0.18112286391E+02  0.11527187272E+02 -0.28506702948E+02  0.35687171949E+02  0.10566000000E+00 0.  1.
         22    1    1    0    0    0  0.27562607088E+02 -0.68438917964E+01 -0.92497879599E+01  0.29867955098E+02  0.00000000000E+00 0. -1.
</event>
<event>
 5    1  0.1680526E-003  0.9118800E+02  0.7818608E-02  0.1130116E+00
         25   -1    0    0    0    0  0.00000000000E+00  0.00000000000E+00  0.99999998245E-14  0.12500000000E+03  0.12500000000E+03 0.  0.
        -13    1    3    3    0    0  0.40499009143E+02 -0.34870667681E+01 -0.23522462642E+02  0.46964313995E+02  0.10566000000E+00 0.  1.
         23    2    1    0    0    0 -0.53000966519E+01  0.47125151902E+01  0.15670538202E+02  0.10779928515E+03  0.10641814360E+03 0.  0.
         13    1    3    3    0    0 -0.45799105795E+02  0.81995819583E+01  0.39193000843E+02  0.60834971152E+02  0.10566000000E+00 0. -1.
         22    1    1    0    0    0  0.53000966519E+01 -0.47125151902E+01 -0.15670538202E+02  0.17200714854E+02  0.00000000000E+00 0. -1.
</event>
<event>
 5    1  0.1680526E-003  0.9118800E+02  0.7818608E-02  0.1130116E+00
         25   -1    0    0    0    0  0.00000000000E+00  0.00000000000E+00  0.99999998245E-14  0.12500000000E+03  0.12500000000E+03 0.  0.
        -13    1    3    3    0    0  0.24238656987E+02  0.93896702594E+01  0.22488307141E+02  0.34371696528E+02  0.10566000000E+00 0. -1.
         23    2    1    0    0    0 -0.28603805695E+02 -0.88927709165E+01 -0.10200995145E+01  0.95028352100E+02  0.90178090604E+02 0.  0.
         13    1    3    3    0    0 -0.52842462682E+02 -0.18282441176E+02 -0.23508406656E+02  0.60656655572E+02  0.10566000000E+00 0.  1.
         22    1    1    0    0    0  0.28603805695E+02  0.88927709165E+01  0.10200995145E+01  0.29971647900E+02  0.00000000000E+00 0.  1.
</event>
<event>
 5    1  0.1680526E-003  0.9118800E+02  0.7818608E-02  0.1130116E+00
         25   -1    0    0    0    0  0.00000000000E+00  0.00000000000E+00  0.99999998245E-14  0.12500000000E+03  0.12500000000E+03 0.  0.
        -13    1    3    3    0    0  0.12392318090E+02  0.40390674700E+02  0.13484786580E+02  0.44348920884E+02  0.10566000000E+00 0. -1.
         23    2    1    0    0    0 -0.23361767945E+02  0.13943468750E+02 -0.11617442991E+02  0.95416938902E+02  0.90715129529E+02 0.  0.
         13    1    3    3    0    0 -0.35754086035E+02 -0.26447205950E+02 -0.25102229571E+02  0.51068018018E+02  0.10566000000E+00 0.  1.
         22    1    1    0    0    0  0.23361767945E+02 -0.13943468750E+02  0.11617442991E+02  0.29583061098E+02  0.00000000000E+00 0.  1.
</event>
<event>
 5    1  0.1680526E-003  0.9118800E+02  0.7818608E-02  0.1130116E+00
         25   -1    0    0    0    0  0.00000000000E+00  0.00000000000E+00  0.99999998245E-14  0.12500000000E+03  0.12500000000E+03 0.  0.
        -13    1    3    3    0    0 -0.42156678846E+02 -0.43425275094E+01 -0.40563561418E+02  0.58663930958E+02  0.10566000000E+00 0. -1.
         23    2    1    0    0    0 -0.28156029351E+02  0.26348517834E+01 -0.67414421721E+01  0.95928510955E+02  0.91417327344E+02 0.  0.
         13    1    3    3    0    0  0.14000649494E+02  0.69773792928E+01  0.33822119246E+02  0.37264579997E+02  0.10566000000E+00 0.  1.
         22    1    1    0    0    0  0.28156029351E+02 -0.26348517834E+01  0.67414421721E+01  0.29071489045E+02  0.00000000000E+00 0. -1.
</event>
<event>
 5    1  0.1680526E-003  0.9118800E+02  0.7818608E-02  0.1130116E+00
         25   -1    0    0    0    0  0.00000000000E+00  0.00000000000E+00  0.99999998245E-14  0.12500000000E+03  0.12500000000E+03 0.  0.
        -13    1    3    3    0    0  0.48275463156E+02  0.11612472122E+02  0.82391708186E+01  0.50331550260E+02  0.10566000000E+00 0.  1.
         23    2    1    0    0    0  0.12073596670E+02 -0.17838955404E+02  0.16678408312E+02  0.97757214344E+02  0.93884522612E+02 0.  0.
         13    1    3    3    0    0 -0.36201866486E+02 -0.29451427526E+02  0.84392374932E+01  0.47425664085E+02  0.10566000000E+00 0. -1.
         22    1    1    0    0    0 -0.12073596670E+02  0.17838955404E+02 -0.16678408312E+02  0.27242785656E+02  0.00000000000E+00 0.  1.
</event>
<event>
 5    1  0.1680526E-003  0.9118800E+02  0.7818608E-02  0.1130116E+00
         25   -1    0    0    0    0  0.00000000000E+00  0.00000000000E+00  0.99999998245E-14  0.12500000000E+03  0.12500000000E+03 0.  0.
        -13    1    3    3    0    0 -0.15786465810E+02 -0.31555291605E+02  0.48739663388E+02  0.60170714490E+02  0.10566000000E+00 0. -1.
         23    2    1    0    0    0 -0.18672583790E+02 -0.11640122952E+02  0.19932325384E+02  0.95310684701E+02  0.90568599279E+02 0.  0.
         13    1    3    3    0    0 -0.28861179798E+01  0.19915168653E+02 -0.28807338005E+02  0.35139970211E+02  0.10566000000E+00 0.  1.
         22    1    1    0    0    0  0.18672583790E+02  0.11640122952E+02 -0.19932325384E+02  0.29689315299E+02  0.00000000000E+00 0. -1.
</event>
<event>
 5    1  0.1680526E-003  0.9118800E+02  0.7818608E-02  0.1130116E+00
         25   -1    0    0    0    0  0.00000000000E+00  0.00000000000E+00  0.99999998245E-14  0.12500000000E+03  0.12500000000E+03 0.  0.
        -13    1    3    3    0    0  0.45418417948E+02 -0.18151364982E+02 -0.60478779826E+01  0.49283797862E+02  0.10566000000E+00 0. -1.
         23    2    1    0    0    0  0.90337926630E+01  0.22503778322E+01 -0.27340292472E+02  0.96118081734E+02  0.91676171569E+02 0.  0.
         13    1    3    3    0    0 -0.36384625285E+02  0.20401742814E+02 -0.21292414489E+02  0.46834283872E+02  0.10566000000E+00 0.  1.
         22    1    1    0    0    0 -0.90337926630E+01 -0.22503778322E+01  0.27340292472E+02  0.28881918266E+02  0.00000000000E+00 0.  1.
</event>
<event>
 5    1  0.1680526E-003  0.9118800E+02  0.7818608E-02  0.1130116E+00
         25   -1    0    0    0    0  0.00000000000E+00  0.00000000000E+00  0.99999998245E-14  0.12500000000E+03  0.12500000000E+03 0.  0.
        -13    1    3    3    0    0 -0.11946499253E+02  0.25115133440E+02  0.42026122756E+02  0.50395386000E+02  0.10566000000E+00 0. -1.
         23    2    1    0    0    0 -0.21255447486E+02 -0.71969528074E+01  0.32788199095E+02  0.85267693530E+02  0.75444836686E+02 0.  0.
         13    1    3    3    0    0 -0.93089482330E+01 -0.32312086247E+02 -0.92379236614E+01  0.34872307530E+02  0.10566000000E+00 0.  1.
         22    1    1    0    0    0  0.21255447486E+02  0.71969528074E+01 -0.32788199095E+02  0.39732306470E+02  0.00000000000E+00 0. -1.
</event>
<event>
 5    1  0.1680526E-003  0.9118800E+02  0.7818608E-02  0.1130116E+00
         25   -1    0    0    0    0  0.00000000000E+00  0.00000000000E+00  0.99999998245E-14  0.12500000000E+03  0.12500000000E+03 0.  0.
        -13    1    3    3    0    0 -0.15405213148E+02  0.19094440829E+02  0.28286892471E+02  0.37444328174E+02  0.10566000000E+00 0. -1.
         23    2    1    0    0    0  0.19810841338E+01  0.45469675310E+01 -0.27183177986E+02  0.97368047961E+02  0.93364939834E+02 0.  0.
         13    1    3    3    0    0  0.17386297282E+02 -0.14547473298E+02 -0.55470070457E+02  0.59923719787E+02  0.10566000000E+00 0.  1.
         22    1    1    0    0    0 -0.19810841338E+01 -0.45469675310E+01  0.27183177986E+02  0.27631952039E+02  0.00000000000E+00 0.  1.
</event>
<event>
 5    1  0.1680526E-003  0.9118800E+02  0.7818608E-02  0.1130116E+00
         25   -1    0    0    0    0  0.00000000000E+00  0.00000000000E+00  0.99999998245E-14  0.12500000000E+03  0.12500000000E+03 0.  0.
        -13    1    3    3    0    0 -0.40276013282E+02  0.50145153487E+01  0.14031833493E+02  0.42944221093E+02  0.10566000000E+00 0.  1.
         23    2    1    0    0    0 -0.41099366933E+01  0.17572957969E+02 -0.22699967090E+02  0.96000190738E+02  0.91515286616E+02 0.  0.
         13    1    3    3    0    0  0.36166076589E+02  0.12558442620E+02 -0.36731800583E+02  0.53055969645E+02  0.10566000000E+00 0. -1.
         22    1    1    0    0    0  0.41099366933E+01 -0.17572957969E+02  0.22699967090E+02  0.28999809262E+02  0.00000000000E+00 0.  1.
</event>
<event>
 5    1  0.1680526E-003  0.9118800E+02  0.7818608E-02  0.1130116E+00
         25   -1    0    0    0    0  0.00000000000E+00  0.00000000000E+00  0.99999998245E-14  0.12500000000E+03  0.12500000000E+03 0.  0.
        -13    1    3    3    0    0 -0.29010635251E+02 -0.33972880280E+02 -0.39955298231E+02  0.59935052957E+02  0.10566000000E+00 0. -1.
         23    2    1    0    0    0 -0.14217089810E+02 -0.25105810281E+02 -0.10068188307E+02  0.94441927935E+02  0.89361524068E+02 0.  0.
         13    1    3    3    0    0  0.14793545441E+02  0.88670699981E+01  0.29887109924E+02  0.34506874978E+02  0.10566000000E+00 0.  1.
         22    1    1    0    0    0  0.14217089810E+02  0.25105810281E+02  0.10068188307E+02  0.30558072065E+02  0.00000000000E+00 0. -1.
</event>
<event>
 5    1  0.1680526E-003  0.9118800E+02  0.7818608E-02  0.1130116E+00
         25   -1    0    0    0    0  0.00000000000E+00  0.00000000000E+00  0.99999998245E-14  0.12500000000E+03  0.12500000000E+03 0.  0.
        -13    1    3    3    0    0 -0.35265456267E+02  0.38663995589E+01 -0.43474210970E+02  0.56112562183E+02  0.10566000000E+00 0.  1.
         23    2    1    0    0    0 -0.28870710996E+02 -0.45400717875E+01 -0.58455979896E+01  0.95195617418E+02  0.90409647463E+02 0.  0.
         13    1    3    3    0    0  0.63947452711E+01 -0.84064713464E+01  0.37628612980E+02  0.39083055234E+02  0.10566000000E+00 0. -1.
         22    1    1    0    0    0  0.28870710996E+02  0.45400717875E+01  0.58455979896E+01  0.29804382582E+02  0.00000000000E+00 0.  1.
</event>
<event>
 5    1  0.1680526E-003  0.9118800E+02  0.7818608E-02  0.1130116E+00
         25   -1    0    0    0    0  0.00000000000E+00  0.00000000000E+00  0.99999998245E-14  0.12500000000E+03  0.12500000000E+03 0.  0.
        -13    1    3    3    0    0 -0.10032077944E+02  0.45005716469E+02  0.10283871965E+02  0.47243267133E+02  0.10566000000E+00 0.  1.
         23    2    1    0    0    0 -0.58316354744E+01  0.11533060757E+02 -0.25493800858E+02  0.96417604283E+02  0.92083663430E+02 0.  0.
         13    1    3    3    0    0  0.42004424691E+01 -0.33472655712E+02 -0.35777672824E+02  0.49174337149E+02  0.10566000000E+00 0. -1.
         22    1    1    0    0    0  0.58316354744E+01 -0.11533060757E+02  0.25493800858E+02  0.28582395717E+02  0.00000000000E+00 0. -1.
</event>
<event>
 5    1  0.1680526E-003  0.9118800E+02  0.7818608E-02  0.1130116E+00
         25   -1    0    0    0    0  0.00000000000E+00  0.00000000000E+00  0.99999998245E-14  0.12500000000E+03  0.12500000000E+03 0.  0.
        -13    1    3    3    0    0  0.67924688345E+01 -0.17102683844E+02 -0.54540170048E+02  0.57561104406E+02  0.10566000000E+00 0.  1.
         23    2    1    0    0    0  0.19130289076E+02 -0.70425831161E+00 -0.26107218202E+02  0.92626387565E+02  0.86784773383E+02 0.  0.
         13    1    3    3    0    0  0.12337820241E+02  0.16398425532E+02  0.28432951847E+02  0.35065283159E+02  0.10566000000E+00 0. -1.
         22    1    1    0    0    0 -0.19130289076E+02  0.70425831161E+00  0.26107218202E+02  0.32373612435E+02  0.00000000000E+00 0.  1.
</event>
<event>
 5    1  0.1680526E-003  0.9118800E+02  0.7818608E-02  0.1130116E+00
         25   -1    0    0    0    0  0.00000000000E+00  0.00000000000E+00  0.99999998245E-14  0.12500000000E+03  0.12500000000E+03 0.  0.
        -13    1    3    3    0    0  0.38103333938E+02 -0.39235701208E+02 -0.18011495887E+02  0.57582371040E+02  0.10566000000E+00 0. -1.
         23    2    1    0    0    0  0.27578467757E+02 -0.11398598266E+02  0.43978102155E+01  0.94836434877E+02  0.89911671763E+02 0.  0.
         13    1    3    3    0    0 -0.10524866181E+02  0.27837102942E+02  0.22409306103E+02  0.37254063837E+02  0.10566000000E+00 0.  1.
         22    1    1    0    0    0 -0.27578467757E+02  0.11398598266E+02 -0.43978102155E+01  0.30163565123E+02  0.00000000000E+00 0. -1.
</event>
<event>
 5    1  0.1680526E-003  0.9118800E+02  0.7818608E-02  0.1130116E+00
         25   -1    0    0    0    0  0.00000000000E+00  0.00000000000E+00  0.99999998245E-14  0.12500000000E+03  0.12500000000E+03 0.  0.
        -13    1    3    3    0    0 -0.34025791463E+02  0.25063671425E+02  0.18085419656E+02  0.45967767817E+02  0.10566000000E+00 0. -1.
         23    2    1    0    0    0 -0.19273564269E+02 -0.15996852588E+02 -0.10190022012E+02  0.97959176770E+02  0.94153036024E+02 0.  0.
         13    1    3    3    0    0  0.14752227193E+02 -0.41060524012E+02 -0.28275441668E+02  0.51991408953E+02  0.10566000000E+00 0.  1.
         22    1    1    0    0    0  0.19273564269E+02  0.15996852588E+02  0.10190022012E+02  0.27040823230E+02  0.00000000000E+00 0.  1.
</event>
<event>
 5    1  0.1680526E-003  0.9118800E+02  0.7818608E-02  0.1130116E+00
         25   -1    0    0    0    0  0.00000000000E+00  0.00000000000E+00  0.99999998245E-14  0.12500000000E+03  0.12500000000E+03 0.  0.
        -13    1    3    3    0    0 -0.36984021111E+02  0.16726896442E+00 -0.45514320496E+02  0.58646486090E+02  0.10566000000E+00 0. -1.
         23    2    1    0    0    0 -0.24322119578E+02  0.60890873896E+01 -0.79978867942E+01  0.98682540411E+02  0.95108543795E+02 0.  0.
         13    1    3    3    0    0  0.12661901532E+02  0.59218184252E+01  0.37516433702E+02  0.40036054321E+02  0.10566000000E+00 0.  1.
         22    1    1    0    0    0  0.24322119578E+02 -0.60890873896E+01  0.79978867942E+01  0.26317459589E+02  0.00000000000E+00 0.  1.
</event>
<event>
 5    1  0.1680526E-003  0.9118800E+02  0.7818608E-02  0.1130116E+00
         25   -1    0    0    0    0  0.00000000000E+00  0.00000000000E+00  0.99999998245E-14  0.12500000000E+03  0.12500000000E+03 0.  0.
        -13    1    3    3    0    0 -0.22320550291E+02 -0.47705413618E+02  0.25766096012E+02  0.58633747292E+02  0.10566000000E+00 0. -1.
         23    2    1    0    0    0  0.14393769591E+01 -0.28619000276E+02  0.40408476316E+01  0.96061315987E+02  0.91598739056E+02 0.  0.
         13    1    3    3    0    0  0.23759927250E+02  0.19086413341E+02 -0.21725248381E+02  0.37427568695E+02  0.10566000000E+00 0.  1.
         22    1    1    0    0    0 -0.14393769591E+01  0.28619000276E+02 -0.40408476316E+01  0.28938684013E+02  0.00000000000E+00 0. -1.
</event>
<event>
 5    1  0.1680526E-003  0.9118800E+02  0.7818608E-02  0.1130116E+00
         25   -1    0    0    0    0  0.00000000000E+00  0.00000000000E+00  0.99999998245E-14  0.12500000000E+03  0.12500000000E+03 0.  0.
        -13    1    3    3    0    0  0.29386894242E+02  0.62064218861E+01 -0.49416663339E+02  0.57828427312E+02  0.10566000000E+00 0. -1.
         23    2    1    0    0    0 -0.21606078535E+01  0.34149108475E+01 -0.29463370780E+02  0.95260799269E+02  0.90499722747E+02 0.  0.
         13    1    3    3    0    0 -0.31547502095E+02 -0.27915110386E+01  0.19953292560E+02  0.37432371957E+02  0.10566000000E+00 0.  1.
         22    1    1    0    0    0  0.21606078535E+01 -0.34149108475E+01  0.29463370780E+02  0.29739200731E+02  0.00000000000E+00 0. -1.
</event>
<event>
 5    1  0.1680526E-003  0.9118800E+02  0.7818608E-02  0.1130116E+00
         25   -1    0    0    0    0  0.00000000000E+00  0.00000000000E+00  0.99999998245E-14  0.12500000000E+03  0.12500000000E+03 0.  0.
        -13    1    3    3    0    0 -0.15600308914E+02  0.28627671541E+02 -0.26382034261E+02  0.41939672290E+02  0.10566000000E+00 0.  1.
         23    2    1    0    0    0  0.24713996414E+02 -0.58261851938E+01 -0.12171846824E+02  0.96841876700E+02  0.92657806875E+02 0.  0.
         13    1    3    3    0    0  0.40314305328E+02 -0.34453856735E+02  0.14210187436E+02  0.54902204409E+02  0.10566000000E+00 0. -1.
         22    1    1    0    0    0 -0.24713996414E+02  0.58261851938E+01  0.12171846824E+02  0.28158123300E+02  0.00000000000E+00 0. -1.
</event>
<event>
 5    1  0.1680526E-003  0.9118800E+02  0.7818608E-02  0.1130116E+00
         25   -1    0    0    0    0  0.00000000000E+00  0.00000000000E+00  0.99999998245E-14  0.12500000000E+03  0.12500000000E+03 0.  0.
        -13    1    3    3    0    0  0.21458285073E+02 -0.29514169600E+02  0.10547332129E+02  0.37984228102E+02  0.10566000000E+00 0.  1.
         23    2    1    0    0    0  0.76860447923E+00  0.23361855722E+02  0.18330770579E+02  0.95295047456E+02  0.90547014661E+02 0.  0.
         13    1    3    3    0    0 -0.20689680593E+02  0.52876025322E+02  0.77834384502E+01  0.57310819354E+02  0.10566000000E+00 0. -1.
         22    1    1    0    0    0 -0.76860447923E+00 -0.23361855722E+02 -0.18330770579E+02  0.29704952544E+02  0.00000000000E+00 0. -1.
</event>
<event>
 5    1  0.1680526E-003  0.9118800E+02  0.7818608E-02  0.1130116E+00
         25   -1    0    0    0    0  0.00000000000E+00  0.00000000000E+00  0.99999998245E-14  0.12500000000E+03  0.12500000000E+03 0.  0.
        -13    1    3    3    0    0 -0.20712843356E+02  0.18751749196E+02  0.52743394756E+02  0.59686906707E+02  0.10566000000E+00 0.  1.
         23    2    1    0    0    0  0.16991288215E+01  0.15282038936E+02  0.26407391808E+02  0.94442217114E+02  0.89361928574E+02 0.  0.
         13    1    3    3    0    0  0.22411972178E+02 -0.34697102599E+01 -0.26336002948E+02  0.34755310407E+02  0.10566000000E+00 0. -1.
         22    1    1    0    0    0 -0.16991288215E+01 -0.15282038936E+02 -0.26407391808E+02  0.30557782886E+02  0.00000000000E+00 0. -1.
</event>
<event>
 5    1  0.1680526E-003  0.9118800E+02  0.7818608E-02  0.1130116E+00
         25   -1    0    0    0    0  0.00000000000E+00  0.00000000000E+00  0.99999998245E-14  0.12500000000E+03  0.12500000000E+03 0.  0.
        -13    1    3    3    0    0  0.97517201687E+01 -0.30007778930E+02  0.50739277152E+02  0.59749880774E+02  0.10566000000E+00 0.  1.
         23    2    1    0    0    0 -0.71198039003E+01 -0.87440435320E+01  0.26730884311E+02  0.95988104493E+02  0.91498776622E+02 0.  0.
         13    1    3    3    0    0 -0.16871524069E+02  0.21263735398E+02 -0.24008392841E+02  0.36238223719E+02  0.10566000000E+00 0. -1.
         22    1    1    0    0    0  0.71198039003E+01  0.87440435320E+01 -0.26730884311E+02  0.29011895507E+02  0.00000000000E+00 0.  1.
</event>
<event>
 5    1  0.1680526E-003  0.9118800E+02  0.7818608E-02  0.1130116E+00
         25   -1    0    0    0    0  0.00000000000E+00  0.00000000000E+00  0.99999998245E-14  0.12500000000E+03  0.12500000000E+03 0.  0.
        -13    1    3    3    0    0 -0.56796630942E+02 -0.82947379461E+01 -0.13388685983E+02  0.58940037668E+02  0.10566000000E+00 0. -1.
         23    2    1    0    0    0 -0.21555953585E+02 -0.17311228494E+02 -0.10485520924E+02  0.95431707592E+02  0.90735477614E+02 0.  0.
         13    1    3    3    0    0  0.35240677357E+02 -0.90164905475E+01  0.29031650591E+01  0.36491669923E+02  0.10566000000E+00 0.  1.
         22    1    1    0    0    0  0.21555953585E+02  0.17311228494E+02  0.10485520924E+02  0.29568292408E+02  0.00000000000E+00 0. -1.
</event>
<event>
 5    1  0.1680526E-003  0.9118800E+02  0.7818608E-02  0.1130116E+00
         25   -1    0    0    0    0  0.00000000000E+00  0.00000000000E+00  0.99999998245E-14  0.12500000000E+03  0.12500000000E+03 0.  0.
        -13    1    3    3    0    0  0.31554546235E+02 -0.17667618036E+02 -0.32827170107E+02  0.48841256909E+02  0.10566000000E+00 0. -1.
         23    2    1    0    0    0 -0.59023647913E+01 -0.26496159788E+02 -0.26890599520E+01  0.97721520624E+02  0.93836987142E+02 0.  0.
         13    1    3    3    0    0 -0.37456911026E+02 -0.88285417521E+01  0.30138110155E+02  0.48880263715E+02  0.10566000000E+00 0.  1.
         22    1    1    0    0    0  0.59023647913E+01  0.26496159788E+02  0.26890599520E+01  0.27278479376E+02  0.00000000000E+00 0. -1.
</event>
<event>
 5    1  0.1680526E-003  0.9118800E+02  0.7818608E-02  0.1130116E+00
         25   -1    0    0    0    0  0.00000000000E+00  0.00000000000E+00  0.99999998245E-14  0.12500000000E+03  0.12500000000E+03 0.  0.
        -13    1    3    3    0    0  0.14829323768E+02  0.18905851778E+02  0.37902978686E+02  0.44877466864E+02  0.10566000000E+00 0.  1.
         23    2    1    0    0    0 -0.13150512842E+02 -0.18969010228E+02  0.16645653544E+02  0.96542362731E+02  0.92252862735E+02 0.  0.
         13    1    3    3    0    0 -0.27979836610E+02 -0.37874862006E+02 -0.21257325142E+02  0.51664895867E+02  0.10566000000E+00 0. -1.
         22    1    1    0    0    0  0.13150512842E+02  0.18969010228E+02 -0.16645653544E+02  0.28457637269E+02  0.00000000000E+00 0. -1.
</event>
<event>
 5    1  0.1680526E-003  0.9118800E+02  0.7818608E-02  0.1130116E+00
         25   -1    0    0    0    0  0.00000000000E+00  0.00000000000E+00  0.99999998245E-14  0.12500000000E+03  0.12500000000E+03 0.  0.
        -13    1    3    3    0    0  0.14916230111E+02  0.55366401231E+02 -0.55089662647E+01  0.57604619427E+02  0.10566000000E+00 0.  1.
         23    2    1    0    0    0  0.20781977344E+02  0.18610788618E+02  0.58013865547E+01  0.96505998504E+02  0.92203577078E+02 0.  0.
         13    1    3    3    0    0  0.58657472332E+01 -0.36755612613E+02  0.11310352819E+02  0.38901379077E+02  0.10566000000E+00 0. -1.
         22    1    1    0    0    0 -0.20781977344E+02 -0.18610788618E+02 -0.58013865547E+01  0.28494001496E+02  0.00000000000E+00 0.  1.
</event>
<event>
 5    1  0.1680526E-003  0.9118800E+02  0.7818608E-02  0.1130116E+00
         25   -1    0    0    0    0  0.00000000000E+00  0.00000000000E+00  0.99999998245E-14  0.12500000000E+03  0.12500000000E+03 0.  0.
        -13    1    3    3    0    0  0.25674729215E+02 -0.28279392754E+02 -0.23839014077E+01  0.38270222429E+02  0.10566000000E+00 0. -1.
         23    2    1    0    0    0 -0.24349681659E+02 -0.28469962123E+01 -0.15623743591E+02  0.95929159831E+02  0.91418214584E+02 0.  0.
         13    1    3    3    0    0 -0.50024410874E+02  0.25432396542E+02 -0.13239842184E+02  0.57658937402E+02  0.10566000000E+00 0.  1.
         22    1    1    0    0    0  0.24349681659E+02  0.28469962123E+01  0.15623743591E+02  0.29070840169E+02  0.00000000000E+00 0.  1.
</event>
<event>
 5    1  0.1680526E-003  0.9118800E+02  0.7818608E-02  0.1130116E+00
         25   -1    0    0    0    0  0.00000000000E+00  0.00000000000E+00  0.99999998245E-14  0.12500000000E+03  0.12500000000E+03 0.  0.
        -13    1    3    3    0    0 -0.53310463174E+02 -0.41243534368E+01 -0.31790263514E+02  0.62206493178E+02  0.10566000000E+00 0.  1.
         23    2    1    0    0    0 -0.24649746441E+02 -0.57820179865E+01 -0.12782462344E+02  0.96637470578E+02  0.92381641274E+02 0.  0.
         13    1    3    3    0    0  0.28660716733E+02 -0.16576645496E+01  0.19007801170E+02  0.34430977401E+02  0.10566000000E+00 0. -1.
         22    1    1    0    0    0  0.24649746441E+02  0.57820179865E+01  0.12782462344E+02  0.28362529422E+02  0.00000000000E+00 0.  1.
</event>
<event>
 5    1  0.1680526E-003  0.9118800E+02  0.7818608E-02  0.1130116E+00
         25   -1    0    0    0    0  0.00000000000E+00  0.00000000000E+00  0.99999998245E-14  0.12500000000E+03  0.12500000000E+03 0.  0.
        -13    1    3    3    0    0  0.25843493275E+02 -0.17500065036E+02 -0.48397970074E+02  0.57589175131E+02  0.10566000000E+00 0.  1.
         23    2    1    0    0    0  0.40280314722E+01  0.69298285639E+01 -0.27296663482E+02  0.96550827803E+02  0.92264331953E+02 0.  0.
         13    1    3    3    0    0 -0.21815461803E+02  0.24429893600E+02  0.21101306592E+02  0.38961652672E+02  0.10566000000E+00 0. -1.
         22    1    1    0    0    0 -0.40280314722E+01 -0.69298285639E+01  0.27296663482E+02  0.28449172197E+02  0.00000000000E+00 0.  1.
</event>
<event>
 5    1  0.1680526E-003  0.9118800E+02  0.7818608E-02  0.1130116E+00
         25   -1    0    0    0    0  0.00000000000E+00  0.00000000000E+00  0.99999998245E-14  0.12500000000E+03  0.12500000000E+03 0.  0.
        -13    1    3    3    0    0  0.48838615135E+02 -0.27046924185E+02  0.74365137958E+01  0.56321038144E+02  0.10566000000E+00 0. -1.
         23    2    1    0    0    0  0.10044933381E+02 -0.27469157231E+02  0.59939189359E+01  0.95143972974E+02  0.90338215853E+02 0.  0.
         13    1    3    3    0    0 -0.38793681754E+02 -0.42223304569E+00 -0.14425948599E+01  0.38822934829E+02  0.10566000000E+00 0.  1.
         22    1    1    0    0    0 -0.10044933381E+02  0.27469157231E+02 -0.59939189359E+01  0.29856027026E+02  0.00000000000E+00 0. -1.
</event>
<event>
 5    1  0.1680526E-003  0.9118800E+02  0.7818608E-02  0.1130116E+00
         25   -1    0    0    0    0  0.00000000000E+00  0.00000000000E+00  0.99999998245E-14  0.12500000000E+03  0.12500000000E+03 0.  0.
        -13    1    3    3    0    0 -0.50069186776E+02  0.90257082271E+01  0.19122442078E+02  0.54351318553E+02  0.10566000000E+00 0.  1.
         23    2    1    0    0    0 -0.27487625365E+02  0.67328153911E+00 -0.13073517743E+02  0.94554315209E+02  0.89518594729E+02 0.  0.
         13    1    3    3    0    0  0.22581561411E+02 -0.83524266880E+01 -0.32195959821E+02  0.40202996656E+02  0.10566000000E+00 0. -1.
         22    1    1    0    0    0  0.27487625365E+02 -0.67328153911E+00  0.13073517743E+02  0.30445684791E+02  0.00000000000E+00 0.  1.
</event>
<event>
 5    1  0.1680526E-003  0.9118800E+02  0.7818608E-02  0.1130116E+00
         25   -1    0    0    0    0  0.00000000000E+00  0.00000000000E+00  0.99999998245E-14  0.12500000000E+03  0.12500000000E+03 0.  0.
        -13    1    3    3    0    0  0.21189387491E+02 -0.53116879509E+02  0.80309978256E+01  0.57748602764E+02  0.10566000000E+00 0. -1.
         23    2    1    0    0    0 -0.67609682283E+01 -0.28477148368E+02  0.63696154387E+01  0.95046191037E+02  0.90202814587E+02 0.  0.
         13    1    3    3    0    0 -0.27950355719E+02  0.24639731142E+02 -0.16613823869E+01  0.37297588274E+02  0.10566000000E+00 0.  1.
         22    1    1    0    0    0  0.67609682283E+01  0.28477148368E+02 -0.63696154387E+01  0.29953808963E+02  0.00000000000E+00 0. -1.
</event>
<event>
 5    1  0.1680526E-003  0.9118800E+02  0.7818608E-02  0.1130116E+00
         25   -1    0    0    0    0  0.00000000000E+00  0.00000000000E+00  0.99999998245E-14  0.12500000000E+03  0.12500000000E+03 0.  0.
        -13    1    3    3    0    0 -0.28397769258E+02 -0.23401309974E+01  0.54929140860E+02  0.61879974075E+02  0.10566000000E+00 0.  1.
         23    2    1    0    0    0 -0.89634909875E+01 -0.52215942166E+01  0.27409116876E+02  0.95693534762E+02  0.91095464708E+02 0.  0.
         13    1    3    3    0    0  0.19434278270E+02 -0.28814632192E+01 -0.27520023984E+02  0.33813560686E+02  0.10566000000E+00 0. -1.
         22    1    1    0    0    0  0.89634909875E+01  0.52215942166E+01 -0.27409116876E+02  0.29306465238E+02  0.00000000000E+00 0.  1.
</event>
<event>
 5    1  0.1680526E-003  0.9118800E+02  0.7818608E-02  0.1130116E+00
         25   -1    0    0    0    0  0.00000000000E+00  0.00000000000E+00  0.99999998245E-14  0.12500000000E+03  0.12500000000E+03 0.  0.
        -13    1    3    3    0    0  0.72166822697E+01 -0.94451495444E+01  0.53428494860E+02  0.54734875353E+02  0.10566000000E+00 0.  1.
         23    2    1    0    0    0  0.59364198450E+01  0.17588831701E+02  0.21124534588E+02  0.96877872720E+02  0.92706354583E+02 0.  0.
         13    1    3    3    0    0 -0.12802624247E+01  0.27033981245E+02 -0.32303960272E+02  0.42142997368E+02  0.10566000000E+00 0. -1.
         22    1    1    0    0    0 -0.59364198450E+01 -0.17588831701E+02 -0.21124534588E+02  0.28122127280E+02  0.00000000000E+00 0.  1.
</event>
<event>
 5    1  0.1680526E-003  0.9118800E+02  0.7818608E-02  0.1130116E+00
         25   -1    0    0    0    0  0.00000000000E+00  0.00000000000E+00  0.99999998245E-14  0.12500000000E+03  0.12500000000E+03 0.  0.
        -13    1    3    3    0    0 -0.13158278193E+02 -0.23395279064E+02 -0.13309901529E+02  0.29960707772E+02  0.10566000000E+00 0.  1.
         23    2    1    0    0    0  0.21362121131E+02  0.25618296390E+02 -0.10708219408E+02  0.89967111281E+02  0.82866023317E+02 0.  0.
         13    1    3    3    0    0  0.34520399323E+02  0.49013575453E+02  0.26016821211E+01  0.60006403509E+02  0.10566000000E+00 0. -1.
         22    1    1    0    0    0 -0.21362121131E+02 -0.25618296390E+02  0.10708219408E+02  0.35032888719E+02  0.00000000000E+00 0. -1.
</event>
<event>
 5    1  0.1680526E-003  0.9118800E+02  0.7818608E-02  0.1130116E+00
         25   -1    0    0    0    0  0.00000000000E+00  0.00000000000E+00  0.99999998245E-14  0.12500000000E+03  0.12500000000E+03 0.  0.
        -13    1    3    3    0    0  0.70329398874E+01  0.38353206498E+02  0.27684417542E+02  0.47821217371E+02  0.10566000000E+00 0. -1.
         23    2    1    0    0    0 -0.21205793280E+02  0.75549493633E+00  0.20695819422E+02  0.95359261434E+02  0.90635618597E+02 0.  0.
         13    1    3    3    0    0 -0.28238733167E+02 -0.37597711562E+02 -0.69885981203E+01  0.47538044063E+02  0.10566000000E+00 0.  1.
         22    1    1    0    0    0  0.21205793280E+02 -0.75549493633E+00 -0.20695819422E+02  0.29640738566E+02  0.00000000000E+00 0.  1.
</event>
<event>
 5    1  0.1680526E-003  0.9118800E+02  0.7818608E-02  0.1130116E+00
         25   -1    0    0    0    0  0.00000000000E+00  0.00000000000E+00  0.99999998245E-14  0.12500000000E+03  0.12500000000E+03 0.  0.
        -13    1    3    3    0    0 -0.34380981195E+02 -0.13142119068E+01  0.21344679529E+02  0.40489326113E+02  0.10566000000E+00 0. -1.
         23    2    1    0    0    0 -0.28017270405E+01 -0.16581184011E+02 -0.22671778313E+02  0.96772444854E+02  0.92564092463E+02 0.  0.
         13    1    3    3    0    0  0.31579254154E+02 -0.15266972104E+02 -0.44016457843E+02  0.56283118741E+02  0.10566000000E+00 0.  1.
         22    1    1    0    0    0  0.28017270405E+01  0.16581184011E+02  0.22671778313E+02  0.28227555146E+02  0.00000000000E+00 0. -1.
</event>
<event>
 5    1  0.1680526E-003  0.9118800E+02  0.7818608E-02  0.1130116E+00
         25   -1    0    0    0    0  0.00000000000E+00  0.00000000000E+00  0.99999998245E-14  0.12500000000E+03  0.12500000000E+03 0.  0.
        -13    1    3    3    0    0 -0.65287280767E+01 -0.41426530008E+02  0.26681391602E+02  0.49706030828E+02  0.10566000000E+00 0.  1.
         23    2    1    0    0    0 -0.23957826713E+02 -0.18424919917E+02 -0.69148890757E+01  0.93995632152E+02  0.88735044024E+02 0.  0.
         13    1    3    3    0    0 -0.17429098636E+02  0.23001610090E+02 -0.33596280678E+02  0.44289601324E+02  0.10566000000E+00 0. -1.
         22    1    1    0    0    0  0.23957826713E+02  0.18424919917E+02  0.69148890757E+01  0.31004367848E+02  0.00000000000E+00 0.  1.
</event>
<event>
 5    1  0.1680526E-003  0.9118800E+02  0.7818608E-02  0.1130116E+00
         25   -1    0    0    0    0  0.00000000000E+00  0.00000000000E+00  0.99999998245E-14  0.12500000000E+03  0.12500000000E+03 0.  0.
        -13    1    3    3    0    0 -0.11381739377E+02  0.21112476688E+02  0.35664910938E+02  0.42979968583E+02  0.10566000000E+00 0. -1.
         23    2    1    0    0    0 -0.65966482397E+00 -0.25570476793E+02  0.16444748148E+02  0.94590886518E+02  0.89569646809E+02 0.  0.
         13    1    3    3    0    0  0.10722074553E+02 -0.46682953481E+02 -0.19220162790E+02  0.51610917935E+02  0.10566000000E+00 0.  1.
         22    1    1    0    0    0  0.65966482397E+00  0.25570476793E+02 -0.16444748148E+02  0.30409113482E+02  0.00000000000E+00 0.  1.
</event>
<event>
 5    1  0.1680526E-003  0.9118800E+02  0.7818608E-02  0.1130116E+00
         25   -1    0    0    0    0  0.00000000000E+00  0.00000000000E+00  0.99999998245E-14  0.12500000000E+03  0.12500000000E+03 0.  0.
        -13    1    3    3    0    0  0.74268585167E+01 -0.22130889841E+02 -0.52946426236E+02  0.57864235308E+02  0.10566000000E+00 0.  1.
         23    2    1    0    0    0  0.95142070124E+01  0.58010070369E+01 -0.25916161326E+02  0.96789731734E+02  0.92587433994E+02 0.  0.
         13    1    3    3    0    0  0.20873484957E+01  0.27931896878E+02  0.27030264909E+02  0.38925496426E+02  0.10566000000E+00 0. -1.
         22    1    1    0    0    0 -0.95142070124E+01 -0.58010070369E+01  0.25916161326E+02  0.28210268266E+02  0.00000000000E+00 0.  1.
</event>
<event>
 5    1  0.1680526E-003  0.9118800E+02  0.7818608E-02  0.1130116E+00
         25   -1    0    0    0    0  0.00000000000E+00  0.00000000000E+00  0.99999998245E-14  0.12500000000E+03  0.12500000000E+03 0.  0.
        -13    1    3    3    0    0 -0.26289156588E+02 -0.55158430579E+01 -0.33902347165E+02  0.43254185764E+02  0.10566000000E+00 0. -1.
         23    2    1    0    0    0 -0.55550026750E+01  0.24700771167E+02  0.75477878765E+01  0.98581157240E+02  0.94975203658E+02 0.  0.
         13    1    3    3    0    0  0.20734153913E+02  0.30216614225E+02  0.41450135041E+02  0.55326971476E+02  0.10566000000E+00 0.  1.
         22    1    1    0    0    0  0.55550026750E+01 -0.24700771167E+02 -0.75477878765E+01  0.26418842760E+02  0.00000000000E+00 0.  1.
</event>
<event>
 5    1  0.1680526E-003  0.9118800E+02  0.7818608E-02  0.1130116E+00
         25   -1    0    0    0    0  0.00000000000E+00  0.00000000000E+00  0.99999998245E-14  0.12500000000E+03  0.12500000000E+03 0.  0.
        -13    1    3    3    0    0 -0.47534264568E+01  0.42589954644E+02  0.43308169767E+02  0.60927071424E+02  0.10566000000E+00 0.  1.
         23    2    1    0    0    0  0.19674231607E+01  0.25343933817E+02  0.12979385108E+02  0.96457922763E+02  0.92138377947E+02 0.  0.
         13    1    3    3    0    0  0.67208496175E+01 -0.17246020827E+02 -0.30328784659E+02  0.35530851339E+02  0.10566000000E+00 0. -1.
         22    1    1    0    0    0 -0.19674231607E+01 -0.25343933817E+02 -0.12979385108E+02  0.28542077237E+02  0.00000000000E+00 0.  1.
</event>
<event>
 5    1  0.1680526E-003  0.9118800E+02  0.7818608E-02  0.1130116E+00
         25   -1    0    0    0    0  0.00000000000E+00  0.00000000000E+00  0.99999998245E-14  0.12500000000E+03  0.12500000000E+03 0.  0.
        -13    1    3    3    0    0 -0.62630167095E+01  0.27051108645E+02 -0.38178111496E+02  0.47207702959E+02  0.10566000000E+00 0. -1.
         23    2    1    0    0    0 -0.14742098911E+02  0.23170838881E+02  0.96152945239E+01  0.95902385948E+02  0.91381598186E+02 0.  0.
         13    1    3    3    0    0 -0.84790822014E+01 -0.38802697645E+01  0.47793406020E+02  0.48694682989E+02  0.10566000000E+00 0.  1.
         22    1    1    0    0    0  0.14742098911E+02 -0.23170838881E+02 -0.96152945239E+01  0.29097614052E+02  0.00000000000E+00 0. -1.
</event>
<event>
 5    1  0.1680526E-003  0.9118800E+02  0.7818608E-02  0.1130116E+00
         25   -1    0    0    0    0  0.00000000000E+00  0.00000000000E+00  0.99999998245E-14  0.12500000000E+03  0.12500000000E+03 0.  0.
        -13    1    3    3    0    0 -0.34602644380E+02  0.86147017283E+01  0.79809290865E+01  0.36541243507E+02  0.10566000000E+00 0. -1.
         23    2    1    0    0    0  0.18566086302E+02 -0.18977602994E+01  0.25409873431E+02  0.93472825649E+02  0.87995490864E+02 0.  0.
         13    1    3    3    0    0  0.53168730682E+02 -0.10512462028E+02  0.17428944345E+02  0.56931582142E+02  0.10566000000E+00 0.  1.
         22    1    1    0    0    0 -0.18566086302E+02  0.18977602994E+01 -0.25409873431E+02  0.31527174351E+02  0.00000000000E+00 0.  1.
</event>
<event>
 5    1  0.1680526E-003  0.9118800E+02  0.7818608E-02  0.1130116E+00
         25   -1    0    0    0    0  0.00000000000E+00  0.00000000000E+00  0.99999998245E-14  0.12500000000E+03  0.12500000000E+03 0.  0.
        -13    1    3    3    0    0 -0.45145985029E+01  0.44024834913E+02 -0.34897948738E+02  0.56359965214E+02  0.10566000000E+00 0. -1.
         23    2    1    0    0    0 -0.19632618809E+02  0.11378492221E+02 -0.17619147292E+02  0.96271196373E+02  0.91884705437E+02 0.  0.
         13    1    3    3    0    0 -0.15118020306E+02 -0.32646342692E+02  0.17278801446E+02  0.39911231159E+02  0.10566000000E+00 0.  1.
         22    1    1    0    0    0  0.19632618809E+02 -0.11378492221E+02  0.17619147292E+02  0.28728803627E+02  0.00000000000E+00 0. -1.
</event>
<event>
 5    1  0.1680526E-003  0.9118800E+02  0.7818608E-02  0.1130116E+00
         25   -1    0    0    0    0  0.00000000000E+00  0.00000000000E+00  0.99999998245E-14  0.12500000000E+03  0.12500000000E+03 0.  0.
        -13    1    3    3    0    0  0.37442824957E+01  0.12463790157E+02 -0.42496361470E+02  0.44444545433E+02  0.10566000000E+00 0.  1.
         23    2    1    0    0    0 -0.21382747657E+02  0.19315175358E+02  0.21209578008E+01  0.96107157314E+02  0.91661274967E+02 0.  0.
         13    1    3    3    0    0 -0.25127030153E+02  0.68513852010E+01  0.44617319271E+02  0.51662611882E+02  0.10566000000E+00 0. -1.
         22    1    1    0    0    0  0.21382747657E+02 -0.19315175358E+02 -0.21209578008E+01  0.28892842686E+02  0.00000000000E+00 0. -1.
</event>
<event>
 5    1  0.1680526E-003  0.9118800E+02  0.7818608E-02  0.1130116E+00
         25   -1    0    0    0    0  0.00000000000E+00  0.00000000000E+00  0.99999998245E-14  0.12500000000E+03  0.12500000000E+03 0.  0.
        -13    1    3    3    0    0 -0.12051691347E+02  0.45179345561E+02 -0.39545668979E+02  0.61239592003E+02  0.10566000000E+00 0.  1.
         23    2    1    0    0    0 -0.18272714595E+01  0.13711604112E+02 -0.22821837415E+02  0.98313237902E+02  0.94621929147E+02 0.  0.
         13    1    3    3    0    0  0.10224419887E+02 -0.31467741450E+02  0.16723831565E+02  0.37073645899E+02  0.10566000000E+00 0. -1.
         22    1    1    0    0    0  0.18272714595E+01 -0.13711604112E+02  0.22821837415E+02  0.26686762098E+02  0.00000000000E+00 0.  1.
</event>
<event>
 5    1  0.1680526E-003  0.9118800E+02  0.7818608E-02  0.1130116E+00
         25   -1    0    0    0    0  0.00000000000E+00  0.00000000000E+00  0.99999998245E-14  0.12500000000E+03  0.12500000000E+03 0.  0.
        -13    1    3    3    0    0 -0.14696636284E+02  0.35735007223E+02 -0.28563308958E+02  0.48050552983E+02  0.10566000000E+00 0.  1.
         23    2    1    0    0    0 -0.19239922374E+02 -0.77188680288E+01 -0.25903760556E+02  0.91822291406E+02  0.85618764600E+02 0.  0.
         13    1    3    3    0    0 -0.45432860893E+01 -0.43453875252E+02  0.26595484020E+01  0.43771738424E+02  0.10566000000E+00 0. -1.
         22    1    1    0    0    0  0.19239922374E+02  0.77188680288E+01  0.25903760556E+02  0.33177708594E+02  0.00000000000E+00 0.  1.
</event>
<event>
 5    1  0.1680526E-003  0.9118800E+02  0.7818608E-02  0.1130116E+00
         25   -1    0    0    0    0  0.00000000000E+00  0.00000000000E+00  0.99999998245E-14  0.12500000000E+03  0.12500000000E+03 0.  0.
        -13    1    3    3    0    0 -0.99980385540E+01 -0.29658771405E+02  0.21399166738E+02  0.37914891498E+02  0.10566000000E+00 0. -1.
         23    2    1    0    0    0 -0.63202914952E+01 -0.17823126969E+01 -0.28804442153E+02  0.95456496300E+02  0.90769620881E+02 0.  0.
         13    1    3    3    0    0  0.36777470588E+01  0.27876458708E+02 -0.50203608891E+02  0.57541604802E+02  0.10566000000E+00 0.  1.
         22    1    1    0    0    0  0.63202914952E+01  0.17823126969E+01  0.28804442153E+02  0.29543503700E+02  0.00000000000E+00 0.  1.
</event>
<event>
 5    1  0.1680526E-003  0.9118800E+02  0.7818608E-02  0.1130116E+00
         25   -1    0    0    0    0  0.00000000000E+00  0.00000000000E+00  0.99999998245E-14  0.12500000000E+03  0.12500000000E+03 0.  0.
        -13    1    3    3    0    0 -0.28712834885E+02 -0.40666930566E+02 -0.12587110545E+02  0.51348540824E+02  0.10566000000E+00 0.  1.
         23    2    1    0    0    0 -0.48227755855E+01 -0.21542916081E+02  0.19396008242E+02  0.95613582502E+02  0.90985689125E+02 0.  0.
         13    1    3    3    0    0  0.23890059300E+02  0.19124014485E+02  0.31983118788E+02  0.44265041679E+02  0.10566000000E+00 0. -1.
         22    1    1    0    0    0  0.48227755855E+01  0.21542916081E+02 -0.19396008242E+02  0.29386417498E+02  0.00000000000E+00 0. -1.
</event>
<event>
 5    1  0.1680526E-003  0.9118800E+02  0.7818608E-02  0.1130116E+00
         25   -1    0    0    0    0  0.00000000000E+00  0.00000000000E+00  0.99999998245E-14  0.12500000000E+03  0.12500000000E+03 0.  0.
        -13    1    3    3    0    0  0.19796116398E+02  0.33230972975E+02  0.43898397146E+02  0.58508667950E+02  0.10566000000E+00 0. -1.
         23    2    1    0    0    0  0.16293889473E+02  0.20435151223E+01  0.24829513277E+02  0.95231366881E+02  0.90459061018E+02 0.  0.
         13    1    3    3    0    0 -0.35022269250E+01 -0.31187457852E+02 -0.19068883869E+02  0.36722698931E+02  0.10566000000E+00 0.  1.
         22    1    1    0    0    0 -0.16293889473E+02 -0.20435151223E+01 -0.24829513277E+02  0.29768633119E+02  0.00000000000E+00 0. -1.
</event>
<event>
 5    1  0.1680526E-003  0.9118800E+02  0.7818608E-02  0.1130116E+00
         25   -1    0    0    0    0  0.00000000000E+00  0.00000000000E+00  0.99999998245E-14  0.12500000000E+03  0.12500000000E+03 0.  0.
        -13    1    3    3    0    0  0.13754972439E+02  0.41838947099E+01  0.60802761993E+02  0.62479526821E+02  0.10566000000E+00 0.  1.
         23    2    1    0    0    0  0.52747738435E+01  0.21053851954E+01  0.28365800460E+02  0.96071216382E+02  0.91612248610E+02 0.  0.
         13    1    3    3    0    0 -0.84801985954E+01 -0.20785095145E+01 -0.32436961533E+02  0.33591689561E+02  0.10566000000E+00 0. -1.
         22    1    1    0    0    0 -0.52747738435E+01 -0.21053851954E+01 -0.28365800460E+02  0.28928783618E+02  0.00000000000E+00 0.  1.
</event>
<event>
 5    1  0.1680526E-003  0.9118800E+02  0.7818608E-02  0.1130116E+00
         25   -1    0    0    0    0  0.00000000000E+00  0.00000000000E+00  0.99999998245E-14  0.12500000000E+03  0.12500000000E+03 0.  0.
        -13    1    3    3    0    0 -0.29270427118E+01  0.22338169841E+02  0.26117606223E+02  0.34492056038E+02  0.10566000000E+00 0. -1.
         23    2    1    0    0    0 -0.13264397018E+02 -0.17643675790E+02 -0.19157638970E+02  0.95772296454E+02  0.91203476433E+02 0.  0.
         13    1    3    3    0    0 -0.10337354306E+02 -0.39981845631E+02 -0.45275245193E+02  0.61280240416E+02  0.10566000000E+00 0.  1.
         22    1    1    0    0    0  0.13264397018E+02  0.17643675790E+02  0.19157638970E+02  0.29227703546E+02  0.00000000000E+00 0.  1.
</event>
<event>
 5    1  0.1680526E-003  0.9118800E+02  0.7818608E-02  0.1130116E+00
         25   -1    0    0    0    0  0.00000000000E+00  0.00000000000E+00  0.99999998245E-14  0.12500000000E+03  0.12500000000E+03 0.  0.
        -13    1    3    3    0    0 -0.55697675090E+01  0.35656576182E+02  0.22678515424E+02  0.42623232644E+02  0.10566000000E+00 0.  1.
         23    2    1    0    0    0 -0.49858235931E-01  0.14927471849E+02 -0.25550844855E+02  0.95408150203E+02  0.90703018421E+02 0.  0.
         13    1    3    3    0    0  0.55199092731E+01 -0.20729104334E+02 -0.48229360278E+02  0.52784917559E+02  0.10566000000E+00 0. -1.
         22    1    1    0    0    0  0.49858235931E-01 -0.14927471849E+02  0.25550844855E+02  0.29591849797E+02  0.00000000000E+00 0. -1.
</event>
<event>
 5    1  0.1680526E-003  0.9118800E+02  0.7818608E-02  0.1130116E+00
         25   -1    0    0    0    0  0.00000000000E+00  0.00000000000E+00  0.99999998245E-14  0.12500000000E+03  0.12500000000E+03 0.  0.
        -13    1    3    3    0    0 -0.79580626950E+01 -0.10528289072E+02 -0.49449013265E+02  0.51179993254E+02  0.10566000000E+00 0.  1.
         23    2    1    0    0    0 -0.19473687708E+02 -0.21767395465E+02 -0.94373370069E+01  0.94306232749E+02  0.89171509953E+02 0.  0.
         13    1    3    3    0    0 -0.11515625013E+02 -0.11239106393E+02  0.40011676258E+02  0.43126239494E+02  0.10566000000E+00 0. -1.
         22    1    1    0    0    0  0.19473687708E+02  0.21767395465E+02  0.94373370069E+01  0.30693767251E+02  0.00000000000E+00 0.  1.
</event>
<event>
 5    1  0.1680526E-003  0.9118800E+02  0.7818608E-02  0.1130116E+00
         25   -1    0    0    0    0  0.00000000000E+00  0.00000000000E+00  0.99999998245E-14  0.12500000000E+03  0.12500000000E+03 0.  0.
        -13    1    3    3    0    0 -0.16007167732E+02 -0.50772676698E+02 -0.31518652782E+02  0.61867040943E+02  0.10566000000E+00 0.  1.
         23    2    1    0    0    0 -0.16070151544E+01 -0.25423162837E+02 -0.16339506233E+02  0.94736173899E+02  0.89772175392E+02 0.  0.
         13    1    3    3    0    0  0.14400152578E+02  0.25349513861E+02  0.15179146548E+02  0.32869132955E+02  0.10566000000E+00 0. -1.
         22    1    1    0    0    0  0.16070151544E+01  0.25423162837E+02  0.16339506233E+02  0.30263826101E+02  0.00000000000E+00 0.  1.
</event>
<event>
 5    1  0.1680526E-003  0.9118800E+02  0.7818608E-02  0.1130116E+00
         25   -1    0    0    0    0  0.00000000000E+00  0.00000000000E+00  0.99999998245E-14  0.12500000000E+03  0.12500000000E+03 0.  0.
        -13    1    3    3    0    0 -0.16046028780E+02  0.34250481722E+02  0.31005074874E+02  0.48907017592E+02  0.10566000000E+00 0.  1.
         23    2    1    0    0    0 -0.22684683157E+02  0.17607917868E+02 -0.10744572634E+02  0.94339284700E+02  0.89217829917E+02 0.  0.
         13    1    3    3    0    0 -0.66386543772E+01 -0.16642563853E+02 -0.41749647508E+02  0.45432267108E+02  0.10566000000E+00 0. -1.
         22    1    1    0    0    0  0.22684683157E+02 -0.17607917868E+02  0.10744572634E+02  0.30660715300E+02  0.00000000000E+00 0.  1.
</event>
<event>
 5    1  0.1680526E-003  0.9118800E+02  0.7818608E-02  0.1130116E+00
         25   -1    0    0    0    0  0.00000000000E+00  0.00000000000E+00  0.99999998245E-14  0.12500000000E+03  0.12500000000E+03 0.  0.
        -13    1    3    3    0    0  0.92414026272E+01 -0.29271910764E+02  0.11683043763E+02  0.32844374829E+02  0.10566000000E+00 0.  1.
         23    2    1    0    0    0  0.23755985118E+02  0.21916439233E+02 -0.11241532072E+02  0.90779404142E+02  0.84082406218E+02 0.  0.
         13    1    3    3    0    0  0.14514582491E+02  0.51188349996E+02 -0.22924575836E+02  0.57935029313E+02  0.10566000000E+00 0. -1.
         22    1    1    0    0    0 -0.23755985118E+02 -0.21916439233E+02  0.11241532072E+02  0.34220595858E+02  0.00000000000E+00 0. -1.
</event>
<event>
 5    1  0.1680526E-003  0.9118800E+02  0.7818608E-02  0.1130116E+00
         25   -1    0    0    0    0  0.00000000000E+00  0.00000000000E+00  0.99999998245E-14  0.12500000000E+03  0.12500000000E+03 0.  0.
        -13    1    3    3    0    0 -0.56006369154E+02  0.69327698775E+01  0.39749905184E+01  0.56573743006E+02  0.10566000000E+00 0. -1.
         23    2    1    0    0    0 -0.25665567226E+02 -0.15262590058E+02 -0.36029981773E+01  0.94922606627E+02  0.90031392617E+02 0.  0.
         13    1    3    3    0    0  0.30340801929E+02 -0.22195359935E+02 -0.75779886957E+01  0.38348863621E+02  0.10566000000E+00 0.  1.
         22    1    1    0    0    0  0.25665567226E+02  0.15262590058E+02  0.36029981773E+01  0.30077393373E+02  0.00000000000E+00 0. -1.
</event>
<event>
 5    1  0.1680526E-003  0.9118800E+02  0.7818608E-02  0.1130116E+00
         25   -1    0    0    0    0  0.00000000000E+00  0.00000000000E+00  0.99999998245E-14  0.12500000000E+03  0.12500000000E+03 0.  0.
        -13    1    3    3    0    0 -0.77892892853E+01  0.38340350839E+02  0.39589494227E+02  0.55659633013E+02  0.10566000000E+00 0.  1.
         23    2    1    0    0    0  0.11160154279E+02  0.59288174629E+01  0.26880750602E+02  0.95296891190E+02  0.90549559897E+02 0.  0.
         13    1    3    3    0    0  0.18949443565E+02 -0.32411533376E+02 -0.12708743624E+02  0.39637258177E+02  0.10566000000E+00 0. -1.
         22    1    1    0    0    0 -0.11160154279E+02 -0.59288174629E+01 -0.26880750602E+02  0.29703108810E+02  0.00000000000E+00 0.  1.
</event>
<event>
 5    1  0.1680526E-003  0.9118800E+02  0.7818608E-02  0.1130116E+00
         25   -1    0    0    0    0  0.00000000000E+00  0.00000000000E+00  0.99999998245E-14  0.12500000000E+03  0.12500000000E+03 0.  0.
        -13    1    3    3    0    0 -0.15974200147E+02 -0.16892353228E+02  0.33236975511E+02  0.40561488793E+02  0.10566000000E+00 0. -1.
         23    2    1    0    0    0  0.28225506839E+02  0.41920454435E+01  0.10027276193E+02  0.94754359832E+02  0.89797494163E+02 0.  0.
         13    1    3    3    0    0  0.44199706986E+02  0.21084398671E+02 -0.23209699318E+02  0.54192871039E+02  0.10566000000E+00 0.  1.
         22    1    1    0    0    0 -0.28225506839E+02 -0.41920454435E+01 -0.10027276193E+02  0.30245640168E+02  0.00000000000E+00 0.  1.
</event>
<event>
 5    1  0.1680526E-003  0.9118800E+02  0.7818608E-02  0.1130116E+00
         25   -1    0    0    0    0  0.00000000000E+00  0.00000000000E+00  0.99999998245E-14  0.12500000000E+03  0.12500000000E+03 0.  0.
        -13    1    3    3    0    0  0.41504972620E+02  0.38194015792E+02 -0.16583602915E+02  0.58791773610E+02  0.10566000000E+00 0. -1.
         23    2    1    0    0    0  0.21758435695E+02  0.82051943173E+01 -0.19271023732E+02  0.94798558091E+02  0.89858998007E+02 0.  0.
         13    1    3    3    0    0 -0.19746536925E+02 -0.29988821475E+02 -0.26874208173E+01  0.36006784481E+02  0.10566000000E+00 0.  1.
         22    1    1    0    0    0 -0.21758435695E+02 -0.82051943173E+01  0.19271023732E+02  0.30201441909E+02  0.00000000000E+00 0. -1.
</event>
<event>
 5    1  0.1680526E-003  0.9118800E+02  0.7818608E-02  0.1130116E+00
         25   -1    0    0    0    0  0.00000000000E+00  0.00000000000E+00  0.99999998245E-14  0.12500000000E+03  0.12500000000E+03 0.  0.
        -13    1    3    3    0    0  0.45821740992E+01  0.30416281379E+02 -0.17334971053E+02  0.35308056841E+02  0.10566000000E+00 0. -1.
         23    2    1    0    0    0  0.26364386928E+02 -0.17391277180E+02 -0.19487148701E+02  0.87888190767E+02  0.79668360670E+02 0.  0.
         13    1    3    3    0    0  0.21782212829E+02 -0.47807558559E+02 -0.21521776482E+01  0.52580133927E+02  0.10566000000E+00 0.  1.
         22    1    1    0    0    0 -0.26364386928E+02  0.17391277180E+02  0.19487148701E+02  0.37111809233E+02  0.00000000000E+00 0.  1.
</event>
<event>
 5    1  0.1680526E-003  0.9118800E+02  0.7818608E-02  0.1130116E+00
         25   -1    0    0    0    0  0.00000000000E+00  0.00000000000E+00  0.99999998245E-14  0.12500000000E+03  0.12500000000E+03 0.  0.
        -13    1    3    3    0    0  0.13851452434E+02  0.11892556107E+02  0.56235070928E+02  0.59124360390E+02  0.10566000000E+00 0. -1.
         23    2    1    0    0    0  0.17553012759E+01 -0.81518813071E+01  0.27902277322E+02  0.95878335708E+02  0.91348694172E+02 0.  0.
         13    1    3    3    0    0 -0.12096151158E+02 -0.20044437414E+02 -0.28332793606E+02  0.36753975317E+02  0.10566000000E+00 0.  1.
         22    1    1    0    0    0 -0.17553012759E+01  0.81518813071E+01 -0.27902277322E+02  0.29121664292E+02  0.00000000000E+00 0. -1.
</event>
<event>
 5    1  0.1680526E-003  0.9118800E+02  0.7818608E-02  0.1130116E+00
         25   -1    0    0    0    0  0.00000000000E+00  0.00000000000E+00  0.99999998245E-14  0.12500000000E+03  0.12500000000E+03 0.  0.
        -13    1    3    3    0    0 -0.15040863154E+02 -0.21786580123E+02 -0.24902310150E+02  0.36345823043E+02  0.10566000000E+00 0. -1.
         23    2    1    0    0    0  0.25480218077E+02  0.15570058028E+02 -0.66022977518E+01  0.94418002749E+02  0.89328050955E+02 0.  0.
         13    1    3    3    0    0  0.40521081230E+02  0.37356638151E+02  0.18300012398E+02  0.58072179706E+02  0.10566000000E+00 0.  1.
         22    1    1    0    0    0 -0.25480218077E+02 -0.15570058028E+02  0.66022977518E+01  0.30581997251E+02  0.00000000000E+00 0.  1.
</event>
<event>
 5    1  0.1680526E-003  0.9118800E+02  0.7818608E-02  0.1130116E+00
         25   -1    0    0    0    0  0.00000000000E+00  0.00000000000E+00  0.99999998245E-14  0.12500000000E+03  0.12500000000E+03 0.  0.
        -13    1    3    3    0    0  0.21543323151E+02 -0.23903277921E+02  0.15293926041E+02  0.35628595335E+02  0.10566000000E+00 0. -1.
         23    2    1    0    0    0 -0.24252559722E+02  0.14292715590E+02  0.16658059073E+01  0.96799941820E+02  0.92601217352E+02 0.  0.
         13    1    3    3    0    0 -0.45795882873E+02  0.38195993511E+02 -0.13628120133E+02  0.61171346485E+02  0.10566000000E+00 0.  1.
         22    1    1    0    0    0  0.24252559722E+02 -0.14292715590E+02 -0.16658059073E+01  0.28200058180E+02  0.00000000000E+00 0.  1.
</event>
<event>
 5    1  0.1680526E-003  0.9118800E+02  0.7818608E-02  0.1130116E+00
         25   -1    0    0    0    0  0.00000000000E+00  0.00000000000E+00  0.99999998245E-14  0.12500000000E+03  0.12500000000E+03 0.  0.
        -13    1    3    3    0    0  0.23683970325E+02 -0.23812980416E+02  0.23231822160E+02  0.40837693514E+02  0.10566000000E+00 0. -1.
         23    2    1    0    0    0 -0.18879356681E+02 -0.28946457227E+02 -0.16403461526E+01  0.90402048757E+02  0.83519531783E+02 0.  0.
         13    1    3    3    0    0 -0.42563327006E+02 -0.51334768110E+01 -0.24872168313E+02  0.49564355243E+02  0.10566000000E+00 0.  1.
         22    1    1    0    0    0  0.18879356681E+02  0.28946457227E+02  0.16403461526E+01  0.34597951243E+02  0.00000000000E+00 0.  1.
</event>
<event>
 5    1  0.1680526E-003  0.9118800E+02  0.7818608E-02  0.1130116E+00
         25   -1    0    0    0    0  0.00000000000E+00  0.00000000000E+00  0.99999998245E-14  0.12500000000E+03  0.12500000000E+03 0.  0.
        -13    1    3    3    0    0  0.37221894965E+02 -0.30154505267E+02  0.25000792648E+02  0.54035307437E+02  0.10566000000E+00 0.  1.
         23    2    1    0    0    0  0.16699242601E+01 -0.96097853920E+01  0.28140957906E+02  0.95216613118E+02  0.90438671372E+02 0.  0.
         13    1    3    3    0    0 -0.35551970705E+02  0.20544719875E+02  0.31401652574E+01  0.41181305681E+02  0.10566000000E+00 0. -1.
         22    1    1    0    0    0 -0.16699242601E+01  0.96097853920E+01 -0.28140957906E+02  0.29783386882E+02  0.00000000000E+00 0.  1.
</event>
<event>
 5    1  0.1680526E-003  0.9118800E+02  0.7818608E-02  0.1130116E+00
         25   -1    0    0    0    0  0.00000000000E+00  0.00000000000E+00  0.99999998245E-14  0.12500000000E+03  0.12500000000E+03 0.  0.
        -13    1    3    3    0    0  0.39037590338E+02 -0.12939082917E+02 -0.93182511588E+01  0.42168641131E+02  0.10566000000E+00 0.  1.
         23    2    1    0    0    0 -0.40447313410E+01 -0.12433525806E+02  0.24692022251E+02  0.97059914487E+02  0.92951485313E+02 0.  0.
         13    1    3    3    0    0 -0.43082321679E+02  0.50555711104E+00  0.34010273410E+02  0.54891273356E+02  0.10566000000E+00 0. -1.
         22    1    1    0    0    0  0.40447313410E+01  0.12433525806E+02 -0.24692022251E+02  0.27940085513E+02  0.00000000000E+00 0.  1.
</event>
<event>
 5    1  0.1680526E-003  0.9118800E+02  0.7818608E-02  0.1130116E+00
         25   -1    0    0    0    0  0.00000000000E+00  0.00000000000E+00  0.99999998245E-14  0.12500000000E+03  0.12500000000E+03 0.  0.
        -13    1    3    3    0    0  0.37918916203E+02  0.25886737145E+01  0.44968513848E+01  0.38272421847E+02  0.10566000000E+00 0. -1.
         23    2    1    0    0    0 -0.26490381080E+01  0.25909667979E+02 -0.20983825652E+02  0.91553785914E+02  0.85225855692E+02 0.  0.
         13    1    3    3    0    0 -0.40567954312E+02  0.23320994265E+02 -0.25480677037E+02  0.53281364067E+02  0.10566000000E+00 0.  1.
         22    1    1    0    0    0  0.26490381080E+01 -0.25909667979E+02  0.20983825652E+02  0.33446214086E+02  0.00000000000E+00 0. -1.
</event>
<event>
 5    1  0.1680526E-003  0.9118800E+02  0.7818608E-02  0.1130116E+00
         25   -1    0    0    0    0  0.00000000000E+00  0.00000000000E+00  0.99999998245E-14  0.12500000000E+03  0.12500000000E+03 0.  0.
        -13    1    3    3    0    0  0.17570430056E+02  0.24632280000E+02 -0.36460782889E+02  0.47380049423E+02  0.10566000000E+00 0.  1.
         23    2    1    0    0    0 -0.82170158841E+01 -0.14239864823E+02 -0.24427476725E+02  0.95555225941E+02  0.90905481051E+02 0.  0.
         13    1    3    3    0    0 -0.25787445940E+02 -0.38872144823E+02  0.12033306164E+02  0.48175176518E+02  0.10566000000E+00 0. -1.
         22    1    1    0    0    0  0.82170158841E+01  0.14239864823E+02  0.24427476725E+02  0.29444774059E+02  0.00000000000E+00 0.  1.
</event>
<event>
 5    1  0.1680526E-003  0.9118800E+02  0.7818608E-02  0.1130116E+00
         25   -1    0    0    0    0  0.00000000000E+00  0.00000000000E+00  0.99999998245E-14  0.12500000000E+03  0.12500000000E+03 0.  0.
        -13    1    3    3    0    0  0.46288402046E+02 -0.28859348614E+02  0.22471142833E+02  0.58995267527E+02  0.10566000000E+00 0. -1.
         23    2    1    0    0    0  0.16242685244E+02 -0.76104557773E+01  0.23041043005E+02  0.95800110893E+02  0.91241589877E+02 0.  0.
         13    1    3    3    0    0 -0.30045716802E+02  0.21248892837E+02  0.56990017290E+00  0.36804843366E+02  0.10566000000E+00 0.  1.
         22    1    1    0    0    0 -0.16242685244E+02  0.76104557773E+01 -0.23041043005E+02  0.29199889107E+02  0.00000000000E+00 0. -1.
</event>
<event>
 5    1  0.1680526E-003  0.9118800E+02  0.7818608E-02  0.1130116E+00
         25   -1    0    0    0    0  0.00000000000E+00  0.00000000000E+00  0.99999998245E-14  0.12500000000E+03  0.12500000000E+03 0.  0.
        -13    1    3    3    0    0 -0.50769378773E+01  0.41812244755E+02 -0.42916927223E+02  0.60132461416E+02  0.10566000000E+00 0. -1.
         23    2    1    0    0    0 -0.14305648548E+02  0.19876875372E+02 -0.17859533243E+02  0.94689858420E+02  0.89707661908E+02 0.  0.
         13    1    3    3    0    0 -0.92287106703E+01 -0.21935369383E+02  0.25057393980E+02  0.34557397004E+02  0.10566000000E+00 0.  1.
         22    1    1    0    0    0  0.14305648548E+02 -0.19876875372E+02  0.17859533243E+02  0.30310141580E+02  0.00000000000E+00 0. -1.
</event>
<event>
 5    1  0.1680526E-003  0.9118800E+02  0.7818608E-02  0.1130116E+00
         25   -1    0    0    0    0  0.00000000000E+00  0.00000000000E+00  0.99999998245E-14  0.12500000000E+03  0.12500000000E+03 0.  0.
        -13    1    3    3    0    0 -0.26581717124E+02  0.38702082123E+02  0.11570248480E+02  0.48356185332E+02  0.10566000000E+00 0.  1.
         23    2    1    0    0    0  0.71904594613E+01  0.10507096505E+02  0.27137850169E+02  0.95023931278E+02  0.90171962492E+02 0.  0.
         13    1    3    3    0    0  0.33772176585E+02 -0.28194985619E+02  0.15567601689E+02  0.46667745946E+02  0.10566000000E+00 0. -1.
         22    1    1    0    0    0 -0.71904594613E+01 -0.10507096505E+02 -0.27137850169E+02  0.29976068722E+02  0.00000000000E+00 0.  1.
</event>
<event>
 5    1  0.1680526E-003  0.9118800E+02  0.7818608E-02  0.1130116E+00
         25   -1    0    0    0    0  0.00000000000E+00  0.00000000000E+00  0.99999998245E-14  0.12500000000E+03  0.12500000000E+03 0.  0.
        -13    1    3    3    0    0 -0.36696582839E+02  0.74943395254E+01  0.21608764955E+02  0.43240654527E+02  0.10566000000E+00 0.  1.
         23    2    1    0    0    0 -0.17872028794E+02  0.76675597158E+01 -0.24894444272E+02  0.93409902804E+02  0.87906061799E+02 0.  0.
         13    1    3    3    0    0  0.18824554044E+02  0.17322019032E+00 -0.46503209228E+02  0.50169248277E+02  0.10566000000E+00 0. -1.
         22    1    1    0    0    0  0.17872028794E+02 -0.76675597158E+01  0.24894444272E+02  0.31590097196E+02  0.00000000000E+00 0. -1.
</event>
<event>
 5    1  0.1680526E-003  0.9118800E+02  0.7818608E-02  0.1130116E+00
         25   -1    0    0    0    0  0.00000000000E+00  0.00000000000E+00  0.99999998245E-14  0.12500000000E+03  0.12500000000E+03 0.  0.
        -13    1    3    3    0    0 -0.97622118010E+01  0.50630590103E+02  0.97414459316E+01  0.52475369140E+02  0.10566000000E+00 0.  1.
         23    2    1    0    0    0  0.19991869615E+02  0.15648129189E+02  0.77993002013E+01  0.98441237201E+02  0.94790871397E+02 0.  0.
         13    1    3    3    0    0  0.29754081416E+02 -0.34982460914E+02 -0.19421457304E+01  0.45965868061E+02  0.10566000000E+00 0. -1.
         22    1    1    0    0    0 -0.19991869615E+02 -0.15648129189E+02 -0.77993002013E+01  0.26558762799E+02  0.00000000000E+00 0.  1.
</event>
<event>
 5    1  0.1680526E-003  0.9118800E+02  0.7818608E-02  0.1130116E+00
         25   -1    0    0    0    0  0.00000000000E+00  0.00000000000E+00  0.99999998245E-14  0.12500000000E+03  0.12500000000E+03 0.  0.
        -13    1    3    3    0    0 -0.19388775558E+02 -0.14023348968E+02  0.44443713487E+02  0.50476071226E+02  0.10566000000E+00 0. -1.
         23    2    1    0    0    0  0.18440704680E+02  0.13910332488E+01  0.18346445284E+02  0.98950304855E+02  0.95459814654E+02 0.  0.
         13    1    3    3    0    0  0.37829480238E+02  0.15414382217E+02 -0.26097268203E+02  0.48474233629E+02  0.10566000000E+00 0.  1.
         22    1    1    0    0    0 -0.18440704680E+02 -0.13910332488E+01 -0.18346445284E+02  0.26049695145E+02  0.00000000000E+00 0. -1.
</event>
<event>
 5    1  0.1680526E-003  0.9118800E+02  0.7818608E-02  0.1130116E+00
         25   -1    0    0    0    0  0.00000000000E+00  0.00000000000E+00  0.99999998245E-14  0.12500000000E+03  0.12500000000E+03 0.  0.
        -13    1    3    3    0    0  0.19615105119E+02  0.16616059146E+02 -0.37660444637E+02  0.45597873027E+02  0.10566000000E+00 0. -1.
         23    2    1    0    0    0  0.26235170467E+02 -0.16433763649E+02 -0.30769096435E+01  0.93890192382E+02  0.88586387755E+02 0.  0.
         13    1    3    3    0    0  0.66200653482E+01 -0.33049822795E+02  0.34583534993E+02  0.48292319355E+02  0.10566000000E+00 0.  1.
         22    1    1    0    0    0 -0.26235170467E+02  0.16433763649E+02  0.30769096435E+01  0.31109807618E+02  0.00000000000E+00 0. -1.
</event>
<event>
 5    1  0.1680526E-003  0.9118800E+02  0.7818608E-02  0.1130116E+00
         25   -1    0    0    0    0  0.00000000000E+00  0.00000000000E+00  0.99999998245E-14  0.12500000000E+03  0.12500000000E+03 0.  0.
        -13    1    3    3    0    0  0.38583550650E+02 -0.14402746202E+02 -0.35091639529E+02  0.54106966351E+02  0.10566000000E+00 0.  1.
         23    2    1    0    0    0 -0.67043195331E+00 -0.11729186083E+02 -0.28727017453E+02  0.93963492192E+02  0.88689757290E+02 0.  0.
         13    1    3    3    0    0 -0.39253982603E+02  0.26735601198E+01  0.63646220762E+01  0.39856525841E+02  0.10566000000E+00 0. -1.
         22    1    1    0    0    0  0.67043195331E+00  0.11729186083E+02  0.28727017453E+02  0.31036507808E+02  0.00000000000E+00 0.  1.
</event>
<event>
 5    1  0.1680526E-003  0.9118800E+02  0.7818608E-02  0.1130116E+00
         25   -1    0    0    0    0  0.00000000000E+00  0.00000000000E+00  0.99999998245E-14  0.12500000000E+03  0.12500000000E+03 0.  0.
        -13    1    3    3    0    0  0.98768960607E+01  0.56794574163E+02 -0.23171809363E+02  0.62129869172E+02  0.10566000000E+00 0. -1.
         23    2    1    0    0    0  0.81854030551E+01  0.23854005059E+02 -0.72281800912E+01  0.98765271720E+02  0.95217214462E+02 0.  0.
         13    1    3    3    0    0 -0.16914930056E+01 -0.32940569104E+02  0.15943629271E+02  0.36635402548E+02  0.10566000000E+00 0.  1.
         22    1    1    0    0    0 -0.81854030551E+01 -0.23854005059E+02  0.72281800912E+01  0.26234728280E+02  0.00000000000E+00 0. -1.
</event>
<event>
 5    1  0.1680526E-003  0.9118800E+02  0.7818608E-02  0.1130116E+00
         25   -1    0    0    0    0  0.00000000000E+00  0.00000000000E+00  0.99999998245E-14  0.12500000000E+03  0.12500000000E+03 0.  0.
        -13    1    3    3    0    0 -0.15791441850E+01  0.48426471987E+01  0.61015572841E+02  0.61227903944E+02  0.10566000000E+00 0. -1.
         23    2    1    0    0    0  0.76823684954E+01 -0.64238029361E+00  0.28292009409E+02  0.95676473020E+02  0.91072049801E+02 0.  0.
         13    1    3    3    0    0  0.92615126804E+01 -0.54850274923E+01 -0.32723563431E+02  0.34448569076E+02  0.10566000000E+00 0.  1.
         22    1    1    0    0    0 -0.76823684954E+01  0.64238029361E+00 -0.28292009409E+02  0.29323526980E+02  0.00000000000E+00 0. -1.
</event>
<event>
 5    1  0.1680526E-003  0.9118800E+02  0.7818608E-02  0.1130116E+00
         25   -1    0    0    0    0  0.00000000000E+00  0.00000000000E+00  0.99999998245E-14  0.12500000000E+03  0.12500000000E+03 0.  0.
        -13    1    3    3    0    0  0.45798011873E+02 -0.86240797317E+01  0.26090719383E+02  0.53409450893E+02  0.10566000000E+00 0.  1.
         23    2    1    0    0    0  0.12033142241E+02  0.15118415069E+02  0.23228284832E+02  0.94785496816E+02  0.89840827045E+02 0.  0.
         13    1    3    3    0    0 -0.33764869633E+02  0.23742494801E+02 -0.28624345506E+01  0.41376045924E+02  0.10566000000E+00 0. -1.
         22    1    1    0    0    0 -0.12033142241E+02 -0.15118415069E+02 -0.23228284832E+02  0.30214503184E+02  0.00000000000E+00 0.  1.
</event>
<event>
 5    1  0.1680526E-003  0.9118800E+02  0.7818608E-02  0.1130116E+00
         25   -1    0    0    0    0  0.00000000000E+00  0.00000000000E+00  0.99999998245E-14  0.12500000000E+03  0.12500000000E+03 0.  0.
        -13    1    3    3    0    0  0.28990390401E+02  0.13559330174E+02  0.52468223298E+02  0.61459122923E+02  0.10566000000E+00 0. -1.
         23    2    1    0    0    0  0.76669890113E+01  0.23644230500E+01  0.28324439935E+02  0.95561129191E+02  0.90913597981E+02 0.  0.
         13    1    3    3    0    0 -0.21323401390E+02 -0.11194907124E+02 -0.24143783363E+02  0.34102006268E+02  0.10566000000E+00 0.  1.
         22    1    1    0    0    0 -0.76669890113E+01 -0.23644230500E+01 -0.28324439935E+02  0.29438870809E+02  0.00000000000E+00 0. -1.
</event>
<event>
 5    1  0.1680526E-003  0.9118800E+02  0.7818608E-02  0.1130116E+00
         25   -1    0    0    0    0  0.00000000000E+00  0.00000000000E+00  0.99999998245E-14  0.12500000000E+03  0.12500000000E+03 0.  0.
        -13    1    3    3    0    0  0.22678674162E+02 -0.25912098396E+02  0.57239312646E+01  0.34907501460E+02  0.10566000000E+00 0.  1.
         23    2    1    0    0    0 -0.21377220965E+02  0.14959898238E+02  0.13700420530E+02  0.95529919338E+02  0.90870676429E+02 0.  0.
         13    1    3    3    0    0 -0.44055895127E+02  0.40871996635E+02  0.79764892656E+01  0.60622417878E+02  0.10566000000E+00 0. -1.
         22    1    1    0    0    0  0.21377220965E+02 -0.14959898238E+02 -0.13700420530E+02  0.29470080662E+02  0.00000000000E+00 0. -1.
</event>
<event>
 4    1  0.1680526E-003  0.9118800E+02  0.7818608E-02  0.1130116E+00
         25   -1    0    0    0    0  0.00000000000E+00  0.00000000000E+00  0.99999998245E-14  0.12500000000E+03  0.12500000000E+03 0.  0.
        -13    1    1    0    0    0  0.32377669013E+01  0.10695600708E+02  0.21552420034E+02  0.24277499508E+02  0.10566000000E+00 0.  1.
         13    1    1    0    0    0  0.24166969882E+02 -0.36961568557E+02  0.16339881673E+02  0.47087183825E+02  0.10566000000E+00 0. -1.
         22    1    1    0    0    0 -0.27404736783E+02  0.26265967849E+02 -0.37892301708E+02  0.53635316666E+02  0.00000000000E+00 0.  1.
</event>
<event>
 5    1  0.1680526E-003  0.9118800E+02  0.7818608E-02  0.1130116E+00
         25   -1    0    0    0    0  0.00000000000E+00  0.00000000000E+00  0.99999998245E-14  0.12500000000E+03  0.12500000000E+03 0.  0.
        -13    1    3    3    0    0 -0.27577383943E+02 -0.12518859286E+02 -0.47711758878E+02  0.56512450329E+02  0.10566000000E+00 0.  1.
         23    2    1    0    0    0  0.57936350366E+01 -0.12628839595E+02 -0.23345241687E+02  0.97832848772E+02  0.93985170069E+02 0.  0.
         13    1    3    3    0    0  0.33371018979E+02 -0.10998030903E+00  0.24366517191E+02  0.41320398443E+02  0.10566000000E+00 0. -1.
         22    1    1    0    0    0 -0.57936350366E+01  0.12628839595E+02  0.23345241687E+02  0.27167151228E+02  0.00000000000E+00 0.  1.
</event>
<event>
 5    1  0.1680526E-003  0.9118800E+02  0.7818608E-02  0.1130116E+00
         25   -1    0    0    0    0  0.00000000000E+00  0.00000000000E+00  0.99999998245E-14  0.12500000000E+03  0.12500000000E+03 0.  0.
        -13    1    3    3    0    0  0.45253084007E+02 -0.11439717002E+01 -0.42333502041E+02  0.61978115835E+02  0.10566000000E+00 0. -1.
         23    2    1    0    0    0  0.21892081020E+02  0.50950912821E+01 -0.19278947234E+02  0.95387486209E+02  0.90674536405E+02 0.  0.
         13    1    3    3    0    0 -0.23361002987E+02  0.62390629823E+01  0.23054554806E+02  0.33409370374E+02  0.10566000000E+00 0.  1.
         22    1    1    0    0    0 -0.21892081020E+02 -0.50950912821E+01  0.19278947234E+02  0.29612513791E+02  0.00000000000E+00 0. -1.
</event>
<event>
 5    1  0.1680526E-003  0.9118800E+02  0.7818608E-02  0.1130116E+00
         25   -1    0    0    0    0  0.00000000000E+00  0.00000000000E+00  0.99999998245E-14  0.12500000000E+03  0.12500000000E+03 0.  0.
        -13    1    3    3    0    0 -0.23041935290E+02 -0.85572228759E+01  0.25357946563E+02  0.35315626332E+02  0.10566000000E+00 0. -1.
         23    2    1    0    0    0  0.40577344747E+01  0.20026844512E+02 -0.20696102208E+02  0.95916183937E+02  0.91400470372E+02 0.  0.
         13    1    3    3    0    0  0.27099669765E+02  0.28584067388E+02 -0.46054048771E+02  0.60600557605E+02  0.10566000000E+00 0.  1.
         22    1    1    0    0    0 -0.40577344747E+01 -0.20026844512E+02  0.20696102208E+02  0.29083816063E+02  0.00000000000E+00 0.  1.
</event>
<event>
 5    1  0.1680526E-003  0.9118800E+02  0.7818608E-02  0.1130116E+00
         25   -1    0    0    0    0  0.00000000000E+00  0.00000000000E+00  0.99999998245E-14  0.12500000000E+03  0.12500000000E+03 0.  0.
        -13    1    3    3    0    0 -0.36646855511E+02  0.33453160871E+02 -0.37084728474E+02  0.61946704845E+02  0.10566000000E+00 0. -1.
         23    2    1    0    0    0 -0.17761976535E+02  0.18838019652E+02 -0.12397575911E+02  0.96293577665E+02  0.91915147915E+02 0.  0.
         13    1    3    3    0    0  0.18884878976E+02 -0.14615141220E+02  0.24687152563E+02  0.34346872820E+02  0.10566000000E+00 0.  1.
         22    1    1    0    0    0  0.17761976535E+02 -0.18838019652E+02  0.12397575911E+02  0.28706422335E+02  0.00000000000E+00 0. -1.
</event>
<event>
 5    1  0.1680526E-003  0.9118800E+02  0.7818608E-02  0.1130116E+00
         25   -1    0    0    0    0  0.00000000000E+00  0.00000000000E+00  0.99999998245E-14  0.12500000000E+03  0.12500000000E+03 0.  0.
        -13    1    3    3    0    0 -0.51378761717E+02 -0.36889649496E+01 -0.13945278210E+02  0.53365415452E+02  0.10566000000E+00 0.  1.
         23    2    1    0    0    0 -0.20166900047E+02 -0.24925749873E+02 -0.23778806183E+01  0.92849553961E+02  0.87105616870E+02 0.  0.
         13    1    3    3    0    0  0.31211861669E+02 -0.21236784924E+02  0.11567397592E+02  0.39484138509E+02  0.10566000000E+00 0. -1.
         22    1    1    0    0    0  0.20166900047E+02  0.24925749873E+02  0.23778806183E+01  0.32150446039E+02  0.00000000000E+00 0.  1.
</event>
<event>
 5    1  0.1680526E-003  0.9118800E+02  0.7818608E-02  0.1130116E+00
         25   -1    0    0    0    0  0.00000000000E+00  0.00000000000E+00  0.99999998245E-14  0.12500000000E+03  0.12500000000E+03 0.  0.
        -13    1    3    3    0    0  0.11076203094E+02  0.34999026549E+02  0.14749166636E+02  0.39562143709E+02  0.10566000000E+00 0. -1.
         23    2    1    0    0    0  0.16837077902E+01 -0.19504175408E+02  0.22237062490E+02  0.95373412643E+02  0.90655133118E+02 0.  0.
         13    1    3    3    0    0 -0.93924953041E+01 -0.54503201957E+02  0.74878958532E+01  0.55811268934E+02  0.10566000000E+00 0.  1.
         22    1    1    0    0    0 -0.16837077902E+01  0.19504175408E+02 -0.22237062490E+02  0.29626587357E+02  0.00000000000E+00 0.  1.
</event>
<event>
 5    1  0.1680526E-003  0.9118800E+02  0.7818608E-02  0.1130116E+00
         25   -1    0    0    0    0  0.00000000000E+00  0.00000000000E+00  0.99999998245E-14  0.12500000000E+03  0.12500000000E+03 0.  0.
        -13    1    3    3    0    0  0.42104896078E+02 -0.10097101045E+02 -0.38520857955E+02  0.57953786631E+02  0.10566000000E+00 0. -1.
         23    2    1    0    0    0  0.24210755652E+02  0.10396548482E+02 -0.11657752793E+02  0.96187639636E+02  0.91770964411E+02 0.  0.
         13    1    3    3    0    0 -0.17894140427E+02  0.20493649527E+02  0.26863105163E+02  0.38233853004E+02  0.10566000000E+00 0.  1.
         22    1    1    0    0    0 -0.24210755652E+02 -0.10396548482E+02  0.11657752793E+02  0.28812360364E+02  0.00000000000E+00 0. -1.
</event>
<event>
 5    1  0.1680526E-003  0.9118800E+02  0.7818608E-02  0.1130116E+00
         25   -1    0    0    0    0  0.00000000000E+00  0.00000000000E+00  0.99999998245E-14  0.12500000000E+03  0.12500000000E+03 0.  0.
        -13    1    3    3    0    0  0.40136847369E+01  0.35862922967E+02  0.19453320921E+02  0.40996362860E+02  0.10566000000E+00 0.  1.
         23    2    1    0    0    0 -0.29090046572E+02 -0.45574148332E+01  0.59394952223E+01  0.94962049954E+02  0.90086139269E+02 0.  0.
         13    1    3    3    0    0 -0.33103731308E+02 -0.40420337800E+02 -0.13513825699E+02  0.53965687093E+02  0.10566000000E+00 0. -1.
         22    1    1    0    0    0  0.29090046572E+02  0.45574148332E+01 -0.59394952223E+01  0.30037950046E+02  0.00000000000E+00 0. -1.
</event>
<event>
 5    1  0.1680526E-003  0.9118800E+02  0.7818608E-02  0.1130116E+00
         25   -1    0    0    0    0  0.00000000000E+00  0.00000000000E+00  0.99999998245E-14  0.12500000000E+03  0.12500000000E+03 0.  0.
        -13    1    3    3    0    0 -0.34347004889E+02  0.11925879759E+01  0.55276884152E+01  0.34809560672E+02  0.10566000000E+00 0.  1.
         23    2    1    0    0    0  0.24706545792E+02 -0.14821509282E+02  0.27237618796E+01  0.96060244971E+02  0.91597277485E+02 0.  0.
         13    1    3    3    0    0  0.59053550681E+02 -0.16014097258E+02 -0.28039265355E+01  0.61250684299E+02  0.10566000000E+00 0. -1.
         22    1    1    0    0    0 -0.24706545792E+02  0.14821509282E+02 -0.27237618796E+01  0.28939755029E+02  0.00000000000E+00 0. -1.
</event>
<event>
 5    1  0.1680526E-003  0.9118800E+02  0.7818608E-02  0.1130116E+00
         25   -1    0    0    0    0  0.00000000000E+00  0.00000000000E+00  0.99999998245E-14  0.12500000000E+03  0.12500000000E+03 0.  0.
        -13    1    3    3    0    0 -0.42596703626E+02 -0.25291693801E+02 -0.33326806166E+02  0.59706248487E+02  0.10566000000E+00 0.  1.
         23    2    1    0    0    0 -0.94035214519E+01 -0.17784812444E+02 -0.21044597414E+02  0.95886414688E+02  0.91359748643E+02 0.  0.
         13    1    3    3    0    0  0.33193182174E+02  0.75068813564E+01  0.12282208752E+02  0.36180166202E+02  0.10566000000E+00 0. -1.
         22    1    1    0    0    0  0.94035214519E+01  0.17784812444E+02  0.21044597414E+02  0.29113585312E+02  0.00000000000E+00 0.  1.
</event>
<event>
 5    1  0.1680526E-003  0.9118800E+02  0.7818608E-02  0.1130116E+00
         25   -1    0    0    0    0  0.00000000000E+00  0.00000000000E+00  0.99999998245E-14  0.12500000000E+03  0.12500000000E+03 0.  0.
        -13    1    3    3    0    0 -0.11998327279E+02  0.40787812257E+01 -0.26820762167E+02  0.29664132569E+02  0.10566000000E+00 0. -1.
         23    2    1    0    0    0  0.25747997736E+02 -0.22506547501E+02  0.10711066706E+02  0.89163830872E+02  0.81645316571E+02 0.  0.
         13    1    3    3    0    0  0.37746325015E+02 -0.26585328726E+02  0.37531828873E+02  0.59499698303E+02  0.10566000000E+00 0.  1.
         22    1    1    0    0    0 -0.25747997736E+02  0.22506547501E+02 -0.10711066706E+02  0.35836169128E+02  0.00000000000E+00 0.  1.
</event>
<event>
 5    1  0.1680526E-003  0.9118800E+02  0.7818608E-02  0.1130116E+00
         25   -1    0    0    0    0  0.00000000000E+00  0.00000000000E+00  0.99999998245E-14  0.12500000000E+03  0.12500000000E+03 0.  0.
        -13    1    3    3    0    0 -0.23880339607E+02 -0.14746474469E+02  0.29032762590E+02  0.40381203506E+02  0.10566000000E+00 0. -1.
         23    2    1    0    0    0  0.50537132072E+01  0.27672890514E+02  0.98710133152E+01  0.95187824795E+02  0.90398872774E+02 0.  0.
         13    1    3    3    0    0  0.28934052814E+02  0.42419364983E+02 -0.19161749274E+02  0.54806621289E+02  0.10566000000E+00 0.  1.
         22    1    1    0    0    0 -0.50537132072E+01 -0.27672890514E+02 -0.98710133152E+01  0.29812175205E+02  0.00000000000E+00 0.  1.
</event>
<event>
 5    1  0.1680526E-003  0.9118800E+02  0.7818608E-02  0.1130116E+00
         25   -1    0    0    0    0  0.00000000000E+00  0.00000000000E+00  0.99999998245E-14  0.12500000000E+03  0.12500000000E+03 0.  0.
        -13    1    3    3    0    0  0.28357864135E+02 -0.17630973332E+02 -0.96323334018E+01  0.34753599666E+02  0.10566000000E+00 0. -1.
         23    2    1    0    0    0 -0.14832458696E+02  0.22157587161E+02  0.97737023138E+01  0.96601307130E+02  0.92332696173E+02 0.  0.
         13    1    3    3    0    0 -0.43190322831E+02  0.39788560494E+02  0.19406035716E+02  0.61847707465E+02  0.10566000000E+00 0.  1.
         22    1    1    0    0    0  0.14832458696E+02 -0.22157587161E+02 -0.97737023138E+01  0.28398692870E+02  0.00000000000E+00 0.  1.
</event>
<event>
 5    1  0.1680526E-003  0.9118800E+02  0.7818608E-02  0.1130116E+00
         25   -1    0    0    0    0  0.00000000000E+00  0.00000000000E+00  0.99999998245E-14  0.12500000000E+03  0.12500000000E+03 0.  0.
        -13    1    3    3    0    0 -0.44564190192E+02  0.32872377664E+02 -0.47419161703E+01  0.55579287453E+02  0.10566000000E+00 0. -1.
         23    2    1    0    0    0 -0.26349859033E+02 -0.50303298040E+01 -0.53977604165E+01  0.97636610105E+02  0.93723809815E+02 0.  0.
         13    1    3    3    0    0  0.18214331158E+02 -0.37902707468E+02 -0.65584424624E+00  0.42057322652E+02  0.10566000000E+00 0.  1.
         22    1    1    0    0    0  0.26349859033E+02  0.50303298040E+01  0.53977604165E+01  0.27363389895E+02  0.00000000000E+00 0. -1.
</event>
<event>
 5    1  0.1680526E-003  0.9118800E+02  0.7818608E-02  0.1130116E+00
         25   -1    0    0    0    0  0.00000000000E+00  0.00000000000E+00  0.99999998245E-14  0.12500000000E+03  0.12500000000E+03 0.  0.
        -13    1    3    3    0    0 -0.11348262362E+02 -0.47975491313E+02  0.78562048884E+01  0.49921557915E+02  0.10566000000E+00 0. -1.
         23    2    1    0    0    0  0.19779481371E+02 -0.19953471446E+02 -0.96180430213E+01  0.95303608677E+02  0.90558832641E+02 0.  0.
         13    1    3    3    0    0  0.31127743733E+02  0.28022019868E+02 -0.17474247910E+02  0.45382050762E+02  0.10566000000E+00 0.  1.
         22    1    1    0    0    0 -0.19779481371E+02  0.19953471446E+02  0.96180430213E+01  0.29696391323E+02  0.00000000000E+00 0. -1.
</event>
<event>
 5    1  0.1680526E-003  0.9118800E+02  0.7818608E-02  0.1130116E+00
         25   -1    0    0    0    0  0.00000000000E+00  0.00000000000E+00  0.99999998245E-14  0.12500000000E+03  0.12500000000E+03 0.  0.
        -13    1    3    3    0    0 -0.20840470962E+02 -0.94491025235E+01  0.50783223637E+02  0.55700608035E+02  0.10566000000E+00 0. -1.
         23    2    1    0    0    0  0.55799939363E+01  0.24924034924E+01  0.36444950330E+02  0.88046207069E+02  0.79915904344E+02 0.  0.
         13    1    3    3    0    0  0.26420464898E+02  0.11941506016E+02 -0.14338273308E+02  0.32345599034E+02  0.10566000000E+00 0.  1.
         22    1    1    0    0    0 -0.55799939363E+01 -0.24924034924E+01 -0.36444950330E+02  0.36953792931E+02  0.00000000000E+00 0. -1.
</event>
<event>
 5    1  0.1680526E-003  0.9118800E+02  0.7818608E-02  0.1130116E+00
         25   -1    0    0    0    0  0.00000000000E+00  0.00000000000E+00  0.99999998245E-14  0.12500000000E+03  0.12500000000E+03 0.  0.
        -13    1    3    3    0    0 -0.13740904252E+02  0.25650396582E+02 -0.20405068526E+02  0.35540586378E+02  0.10566000000E+00 0. -1.
         23    2    1    0    0    0  0.19744808640E+02 -0.21535010626E+02 -0.78530730827E+01  0.94746324063E+02  0.89786307507E+02 0.  0.
         13    1    3    3    0    0  0.33485712892E+02 -0.47185407208E+02  0.12551995444E+02  0.59205737685E+02  0.10566000000E+00 0.  1.
         22    1    1    0    0    0 -0.19744808640E+02  0.21535010626E+02  0.78530730827E+01  0.30253675937E+02  0.00000000000E+00 0.  1.
</event>
<event>
 5    1  0.1680526E-003  0.9118800E+02  0.7818608E-02  0.1130116E+00
         25   -1    0    0    0    0  0.00000000000E+00  0.00000000000E+00  0.99999998245E-14  0.12500000000E+03  0.12500000000E+03 0.  0.
        -13    1    3    3    0    0 -0.34595786454E+02 -0.19086036838E+02  0.35437093238E+01  0.39670067839E+02  0.10566000000E+00 0. -1.
         23    2    1    0    0    0  0.16871481135E+01  0.64215902081E+01 -0.29362522062E+02  0.94896163179E+02  0.89994670924E+02 0.  0.
         13    1    3    3    0    0  0.36282934568E+02  0.25507627046E+02 -0.32906231385E+02  0.55226095339E+02  0.10566000000E+00 0.  1.
         22    1    1    0    0    0 -0.16871481135E+01 -0.64215902081E+01  0.29362522062E+02  0.30103836821E+02  0.00000000000E+00 0.  1.
</event>
<event>
 5    1  0.1680526E-003  0.9118800E+02  0.7818608E-02  0.1130116E+00
         25   -1    0    0    0    0  0.00000000000E+00  0.00000000000E+00  0.99999998245E-14  0.12500000000E+03  0.12500000000E+03 0.  0.
        -13    1    3    3    0    0 -0.99218120747E+01 -0.22794889979E+02  0.45869893276E+02  0.52173821378E+02  0.10566000000E+00 0. -1.
         23    2    1    0    0    0 -0.24466586477E+02  0.45710723810E+01  0.14878861354E+02  0.96001912619E+02  0.91517638490E+02 0.  0.
         13    1    3    3    0    0 -0.14544774402E+02  0.27365962360E+02 -0.30991031922E+02  0.43828091242E+02  0.10566000000E+00 0.  1.
         22    1    1    0    0    0  0.24466586477E+02 -0.45710723810E+01 -0.14878861354E+02  0.28998087381E+02  0.00000000000E+00 0.  1.
</event>
<event>
 5    1  0.1680526E-003  0.9118800E+02  0.7818608E-02  0.1130116E+00
         25   -1    0    0    0    0  0.00000000000E+00  0.00000000000E+00  0.99999998245E-14  0.12500000000E+03  0.12500000000E+03 0.  0.
        -13    1    3    3    0    0 -0.13068343554E+02 -0.35674409768E+02 -0.26892361726E+02  0.46547345776E+02  0.10566000000E+00 0.  1.
         23    2    1    0    0    0  0.53971418647E+01 -0.20161093453E+02  0.17955222105E+02  0.97468403054E+02  0.93499201941E+02 0.  0.
         13    1    3    3    0    0  0.18465485418E+02  0.15513316315E+02  0.44847583831E+02  0.50921057278E+02  0.10566000000E+00 0. -1.
         22    1    1    0    0    0 -0.53971418647E+01  0.20161093453E+02 -0.17955222105E+02  0.27531596946E+02  0.00000000000E+00 0. -1.
</event>
<event>
 5    1  0.1680526E-003  0.9118800E+02  0.7818608E-02  0.1130116E+00
         25   -1    0    0    0    0  0.00000000000E+00  0.00000000000E+00  0.99999998245E-14  0.12500000000E+03  0.12500000000E+03 0.  0.
        -13    1    3    3    0    0 -0.14667545205E+02  0.57489112846E+02 -0.63658155826E+01  0.59671347817E+02  0.10566000000E+00 0.  1.
         23    2    1    0    0    0 -0.16091734852E+02  0.21932504915E+02 -0.11197129704E+02  0.95583093024E+02  0.90943791740E+02 0.  0.
         13    1    3    3    0    0 -0.14241896470E+01 -0.35556607931E+02 -0.48313141210E+01  0.35911745208E+02  0.10566000000E+00 0. -1.
         22    1    1    0    0    0  0.16091734852E+02 -0.21932504915E+02  0.11197129704E+02  0.29416906976E+02  0.00000000000E+00 0.  1.
</event>
<event>
 5    1  0.1680526E-003  0.9118800E+02  0.7818608E-02  0.1130116E+00
         25   -1    0    0    0    0  0.00000000000E+00  0.00000000000E+00  0.99999998245E-14  0.12500000000E+03  0.12500000000E+03 0.  0.
        -13    1    3    3    0    0 -0.10403710041E+02  0.19034441604E+01  0.31636322096E+02  0.33357582677E+02  0.10566000000E+00 0.  1.
         23    2    1    0    0    0 -0.30468572807E+01 -0.76256784147E+01 -0.28836447935E+02  0.95017087531E+02  0.90162474915E+02 0.  0.
         13    1    3    3    0    0  0.73568527602E+01 -0.95291225751E+01 -0.60472770031E+02  0.61659504854E+02  0.10566000000E+00 0. -1.
         22    1    1    0    0    0  0.30468572807E+01  0.76256784147E+01  0.28836447935E+02  0.29982912469E+02  0.00000000000E+00 0. -1.
</event>
<event>
 5    1  0.1680526E-003  0.9118800E+02  0.7818608E-02  0.1130116E+00
         25   -1    0    0    0    0  0.00000000000E+00  0.00000000000E+00  0.99999998245E-14  0.12500000000E+03  0.12500000000E+03 0.  0.
        -13    1    3    3    0    0 -0.15246751802E+02  0.38046835681E+02  0.32963456529E+02  0.52598724093E+02  0.10566000000E+00 0.  1.
         23    2    1    0    0    0 -0.20705677771E+02  0.21938148751E+02 -0.52072630613E+01  0.94387534383E+02  0.89285405279E+02 0.  0.
         13    1    3    3    0    0 -0.54589259690E+01 -0.16108686931E+02 -0.38170719590E+02  0.41788810290E+02  0.10566000000E+00 0. -1.
         22    1    1    0    0    0  0.20705677771E+02 -0.21938148751E+02  0.52072630613E+01  0.30612465617E+02  0.00000000000E+00 0.  1.
</event>
<event>
 5    1  0.1680526E-003  0.9118800E+02  0.7818608E-02  0.1130116E+00
         25   -1    0    0    0    0  0.00000000000E+00  0.00000000000E+00  0.99999998245E-14  0.12500000000E+03  0.12500000000E+03 0.  0.
        -13    1    3    3    0    0 -0.20077756864E+02  0.12918117305E+02 -0.55167322993E+02  0.60111885394E+02  0.10566000000E+00 0.  1.
         23    2    1    0    0    0  0.19576629066E+01  0.57338635562E+01 -0.30278440001E+02  0.94121308897E+02  0.88911907100E+02 0.  0.
         13    1    3    3    0    0  0.22035419771E+02 -0.71842537486E+01  0.24888882991E+02  0.34009423503E+02  0.10566000000E+00 0. -1.
         22    1    1    0    0    0 -0.19576629066E+01 -0.57338635562E+01  0.30278440001E+02  0.30878691103E+02  0.00000000000E+00 0.  1.
</event>
<event>
 5    1  0.1680526E-003  0.9118800E+02  0.7818608E-02  0.1130116E+00
         25   -1    0    0    0    0  0.00000000000E+00  0.00000000000E+00  0.99999998245E-14  0.12500000000E+03  0.12500000000E+03 0.  0.
        -13    1    3    3    0    0 -0.16380644330E+02  0.35905242691E+02  0.77990880834E+01  0.40228707416E+02  0.10566000000E+00 0. -1.
         23    2    1    0    0    0  0.19515446140E+02 -0.75852390665E+01 -0.13024513296E+02  0.10034180793E+03  0.97264854812E+02 0.  0.
         13    1    3    3    0    0  0.35896090470E+02 -0.43490481758E+02 -0.20823601379E+02  0.60113100511E+02  0.10566000000E+00 0.  1.
         22    1    1    0    0    0 -0.19515446140E+02  0.75852390665E+01  0.13024513296E+02  0.24658192073E+02  0.00000000000E+00 0.  1.
</event>
<event>
 5    1  0.1680526E-003  0.9118800E+02  0.7818608E-02  0.1130116E+00
         25   -1    0    0    0    0  0.00000000000E+00  0.00000000000E+00  0.99999998245E-14  0.12500000000E+03  0.12500000000E+03 0.  0.
        -13    1    3    3    0    0 -0.41856471961E+00 -0.41148250449E+02 -0.20626122949E+02  0.46030444527E+02  0.10566000000E+00 0.  1.
         23    2    1    0    0    0  0.28628797838E+02 -0.53172542562E+01 -0.18781080333E+01  0.95821094121E+02  0.91270332148E+02 0.  0.
         13    1    3    3    0    0  0.29047362558E+02  0.35830996193E+02  0.18748014915E+02  0.49790649594E+02  0.10566000000E+00 0. -1.
         22    1    1    0    0    0 -0.28628797838E+02  0.53172542562E+01  0.18781080333E+01  0.29178905879E+02  0.00000000000E+00 0. -1.
</event>
<event>
 5    1  0.1680526E-003  0.9118800E+02  0.7818608E-02  0.1130116E+00
         25   -1    0    0    0    0  0.00000000000E+00  0.00000000000E+00  0.99999998245E-14  0.12500000000E+03  0.12500000000E+03 0.  0.
        -13    1    3    3    0    0  0.25582341212E+02 -0.24124701808E+02  0.10492325741E+02  0.36695469512E+02  0.10566000000E+00 0.  1.
         23    2    1    0    0    0 -0.33255866140E+01  0.27800036678E+02  0.25254472267E+00  0.97000618856E+02  0.92871711053E+02 0.  0.
         13    1    3    3    0    0 -0.28907927826E+02  0.51924738486E+02 -0.10239781018E+02  0.60305149344E+02  0.10566000000E+00 0. -1.
         22    1    1    0    0    0  0.33255866140E+01 -0.27800036678E+02 -0.25254472267E+00  0.27999381144E+02  0.00000000000E+00 0. -1.
</event>
<event>
 5    1  0.1680526E-003  0.9118800E+02  0.7818608E-02  0.1130116E+00
         25   -1    0    0    0    0  0.00000000000E+00  0.00000000000E+00  0.99999998245E-14  0.12500000000E+03  0.12500000000E+03 0.  0.
        -13    1    3    3    0    0  0.12340788847E+01 -0.26771862291E+02 -0.21482171070E+02  0.34347494801E+02  0.10566000000E+00 0. -1.
         23    2    1    0    0    0  0.95973888842E+00  0.98495173333E+01  0.27653070769E+02  0.95629497563E+02  0.91007551285E+02 0.  0.
         13    1    3    3    0    0 -0.27433999625E+00  0.36621379624E+02  0.49135241838E+02  0.61282002762E+02  0.10566000000E+00 0.  1.
         22    1    1    0    0    0 -0.95973888842E+00 -0.98495173333E+01 -0.27653070769E+02  0.29370502437E+02  0.00000000000E+00 0.  1.
</event>
<event>
 5    1  0.1680526E-003  0.9118800E+02  0.7818608E-02  0.1130116E+00
         25   -1    0    0    0    0  0.00000000000E+00  0.00000000000E+00  0.99999998245E-14  0.12500000000E+03  0.12500000000E+03 0.  0.
        -13    1    3    3    0    0  0.36102235992E+02 -0.51884354877E+01 -0.12159517098E+02  0.38446798651E+02  0.10566000000E+00 0.  1.
         23    2    1    0    0    0 -0.77757036887E+01  0.28649644098E+02  0.60264816672E+00  0.95307798000E+02  0.90564615054E+02 0.  0.
         13    1    3    3    0    0 -0.43877939681E+02  0.33838079586E+02  0.12762165264E+02  0.56860999349E+02  0.10566000000E+00 0. -1.
         22    1    1    0    0    0  0.77757036887E+01 -0.28649644098E+02 -0.60264816672E+00  0.29692202000E+02  0.00000000000E+00 0. -1.
</event>
<event>
 5    1  0.1680526E-003  0.9118800E+02  0.7818608E-02  0.1130116E+00
         25   -1    0    0    0    0  0.00000000000E+00  0.00000000000E+00  0.99999998245E-14  0.12500000000E+03  0.12500000000E+03 0.  0.
        -13    1    3    3    0    0 -0.16824180297E+02 -0.32945614063E+02 -0.29112974473E+02  0.47074865644E+02  0.10566000000E+00 0.  1.
         23    2    1    0    0    0 -0.63635442470E+01  0.14329437310E+02 -0.24765898339E+02  0.95688275561E+02  0.91088247817E+02 0.  0.
         13    1    3    3    0    0  0.10460636050E+02  0.47275051373E+02  0.43470761340E+01  0.48613409918E+02  0.10566000000E+00 0. -1.
         22    1    1    0    0    0  0.63635442470E+01 -0.14329437310E+02  0.24765898339E+02  0.29311724439E+02  0.00000000000E+00 0.  1.
</event>
<event>
 5    1  0.1680526E-003  0.9118800E+02  0.7818608E-02  0.1130116E+00
         25   -1    0    0    0    0  0.00000000000E+00  0.00000000000E+00  0.99999998245E-14  0.12500000000E+03  0.12500000000E+03 0.  0.
        -13    1    3    3    0    0 -0.23069335196E+01  0.50583615071E+02 -0.18325764979E+02  0.53850430657E+02  0.10566000000E+00 0.  1.
         23    2    1    0    0    0 -0.23400212113E+02  0.16711349366E+02 -0.58736546694E+01  0.95651423480E+02  0.91037661822E+02 0.  0.
         13    1    3    3    0    0 -0.21093278593E+02 -0.33872265705E+02  0.12452110310E+02  0.41800992823E+02  0.10566000000E+00 0. -1.
         22    1    1    0    0    0  0.23400212113E+02 -0.16711349366E+02  0.58736546694E+01  0.29348576520E+02  0.00000000000E+00 0.  1.
</event>
<event>
 5    1  0.1680526E-003  0.9118800E+02  0.7818608E-02  0.1130116E+00
         25   -1    0    0    0    0  0.00000000000E+00  0.00000000000E+00  0.99999998245E-14  0.12500000000E+03  0.12500000000E+03 0.  0.
        -13    1    3    3    0    0 -0.24299281125E+02 -0.51942860085E+01  0.33710455811E+02  0.41878892838E+02  0.10566000000E+00 0. -1.
         23    2    1    0    0    0  0.12506878933E+02  0.22694471060E+02 -0.58204754652E-01  0.99087369390E+02  0.95639125611E+02 0.  0.
         13    1    3    3    0    0  0.36806160058E+02  0.27888757068E+02 -0.33768660566E+02  0.57208476552E+02  0.10566000000E+00 0.  1.
         22    1    1    0    0    0 -0.12506878933E+02 -0.22694471060E+02  0.58204754652E-01  0.25912630610E+02  0.00000000000E+00 0.  1.
</event>
<event>
 5    1  0.1680526E-003  0.9118800E+02  0.7818608E-02  0.1130116E+00
         25   -1    0    0    0    0  0.00000000000E+00  0.00000000000E+00  0.99999998245E-14  0.12500000000E+03  0.12500000000E+03 0.  0.
        -13    1    3    3    0    0  0.55573556017E+02  0.20986120183E+02  0.89927123466E+01  0.60080923828E+02  0.10566000000E+00 0.  1.
         23    2    1    0    0    0  0.30444247603E+02 -0.73044399432E+00 -0.21357323242E+00  0.94546242037E+02  0.89507320982E+02 0.  0.
         13    1    3    3    0    0 -0.25129308414E+02 -0.21716564178E+02 -0.92062855790E+01  0.34465318209E+02  0.10566000000E+00 0. -1.
         22    1    1    0    0    0 -0.30444247603E+02  0.73044399432E+00  0.21357323242E+00  0.30453757963E+02  0.00000000000E+00 0.  1.
</event>
<event>
 5    1  0.1680526E-003  0.9118800E+02  0.7818608E-02  0.1130116E+00
         25   -1    0    0    0    0  0.00000000000E+00  0.00000000000E+00  0.99999998245E-14  0.12500000000E+03  0.12500000000E+03 0.  0.
        -13    1    3    3    0    0 -0.11610508302E+02  0.31802853551E+02 -0.41227251498E+02  0.53347191371E+02  0.10566000000E+00 0.  1.
         23    2    1    0    0    0  0.21649191015E+01  0.29217825105E+02 -0.12887820435E+01  0.95673746613E+02  0.91068307622E+02 0.  0.
         13    1    3    3    0    0  0.13775427403E+02 -0.25850284463E+01  0.39938469455E+02  0.42326555242E+02  0.10566000000E+00 0. -1.
         22    1    1    0    0    0 -0.21649191015E+01 -0.29217825105E+02  0.12887820435E+01  0.29326253387E+02  0.00000000000E+00 0.  1.
</event>
<event>
 5    1  0.1680526E-003  0.9118800E+02  0.7818608E-02  0.1130116E+00
         25   -1    0    0    0    0  0.00000000000E+00  0.00000000000E+00  0.99999998245E-14  0.12500000000E+03  0.12500000000E+03 0.  0.
        -13    1    3    3    0    0  0.82849205945E+01  0.33722405210E+02  0.12907287603E+02  0.37046589042E+02  0.10566000000E+00 0. -1.
         23    2    1    0    0    0 -0.26916618712E+02 -0.74876198875E+01 -0.92080907865E+01  0.95583036350E+02  0.90943713843E+02 0.  0.
         13    1    3    3    0    0 -0.35201539306E+02 -0.41210025097E+02 -0.22115378389E+02  0.58536447307E+02  0.10566000000E+00 0.  1.
         22    1    1    0    0    0  0.26916618712E+02  0.74876198875E+01  0.92080907865E+01  0.29416963650E+02  0.00000000000E+00 0.  1.
</event>
<event>
 5    1  0.1680526E-003  0.9118800E+02  0.7818608E-02  0.1130116E+00
         25   -1    0    0    0    0  0.00000000000E+00  0.00000000000E+00  0.99999998245E-14  0.12500000000E+03  0.12500000000E+03 0.  0.
        -13    1    3    3    0    0 -0.35132566237E+02 -0.23402325976E+02  0.16827233485E+02  0.45443734687E+02  0.10566000000E+00 0.  1.
         23    2    1    0    0    0  0.93786156332E+01 -0.27013356039E+02 -0.62771425950E+01  0.95724031103E+02  0.91137301780E+02 0.  0.
         13    1    3    3    0    0  0.44511181870E+02 -0.36110300629E+01 -0.23104376080E+02  0.50280296416E+02  0.10566000000E+00 0. -1.
         22    1    1    0    0    0 -0.93786156332E+01  0.27013356039E+02  0.62771425950E+01  0.29275968897E+02  0.00000000000E+00 0.  1.
</event>
<event>
 5    1  0.1680526E-003  0.9118800E+02  0.7818608E-02  0.1130116E+00
         25   -1    0    0    0    0  0.00000000000E+00  0.00000000000E+00  0.99999998245E-14  0.12500000000E+03  0.12500000000E+03 0.  0.
        -13    1    3    3    0    0 -0.16668035973E+02 -0.27437425378E+02  0.43789842323E+02  0.54297303701E+02  0.10566000000E+00 0. -1.
         23    2    1    0    0    0 -0.15721321290E+02 -0.26790623108E+02  0.44895751884E+01  0.93614434608E+02  0.88196420857E+02 0.  0.
         13    1    3    3    0    0  0.94671468245E+00  0.64680227025E+00 -0.39300267134E+02  0.39317130906E+02  0.10566000000E+00 0.  1.
         22    1    1    0    0    0  0.15721321290E+02  0.26790623108E+02 -0.44895751884E+01  0.31385565392E+02  0.00000000000E+00 0. -1.
</event>
<event>
 5    1  0.1680526E-003  0.9118800E+02  0.7818608E-02  0.1130116E+00
         25   -1    0    0    0    0  0.00000000000E+00  0.00000000000E+00  0.99999998245E-14  0.12500000000E+03  0.12500000000E+03 0.  0.
        -13    1    3    3    0    0  0.18385541159E+02 -0.54607565453E+02  0.12733480600E+02  0.59009889177E+02  0.10566000000E+00 0.  1.
         23    2    1    0    0    0  0.16250903411E+02 -0.17708718759E+02  0.16018136071E+02  0.96116245657E+02  0.91673668053E+02 0.  0.
         13    1    3    3    0    0 -0.21346377481E+01  0.36898846694E+02  0.32846554709E+01  0.37106356481E+02  0.10566000000E+00 0. -1.
         22    1    1    0    0    0 -0.16250903411E+02  0.17708718759E+02 -0.16018136071E+02  0.28883754343E+02  0.00000000000E+00 0.  1.
</event>
<event>
 5    1  0.1680526E-003  0.9118800E+02  0.7818608E-02  0.1130116E+00
         25   -1    0    0    0    0  0.00000000000E+00  0.00000000000E+00  0.99999998245E-14  0.12500000000E+03  0.12500000000E+03 0.  0.
        -13    1    3    3    0    0 -0.43072882896E+02  0.27149637400E+01  0.42006343634E+02  0.60226143315E+02  0.10566000000E+00 0.  1.
         23    2    1    0    0    0 -0.22398289313E+02 -0.10037227535E+02  0.16645932358E+02  0.95343358842E+02  0.90613683903E+02 0.  0.
         13    1    3    3    0    0  0.20674593583E+02 -0.12752191275E+02 -0.25360411277E+02  0.35117215526E+02  0.10566000000E+00 0. -1.
         22    1    1    0    0    0  0.22398289313E+02  0.10037227535E+02 -0.16645932358E+02  0.29656641158E+02  0.00000000000E+00 0.  1.
</event>
<event>
 5    1  0.1680526E-003  0.9118800E+02  0.7818608E-02  0.1130116E+00
         25   -1    0    0    0    0  0.00000000000E+00  0.00000000000E+00  0.99999998245E-14  0.12500000000E+03  0.12500000000E+03 0.  0.
        -13    1    3    3    0    0 -0.12464452429E+02 -0.36876879180E+02  0.16344189328E+02  0.42218603497E+02  0.10566000000E+00 0.  1.
         23    2    1    0    0    0  0.54838567943E+01  0.14741004351E+02  0.22856760656E+02  0.97254704862E+02  0.93213068909E+02 0.  0.
         13    1    3    3    0    0  0.17948309223E+02  0.51617883531E+02  0.65125713284E+01  0.55036101365E+02  0.10566000000E+00 0. -1.
         22    1    1    0    0    0 -0.54838567943E+01 -0.14741004351E+02 -0.22856760656E+02  0.27745295138E+02  0.00000000000E+00 0. -1.
</event>
<event>
 5    1  0.1680526E-003  0.9118800E+02  0.7818608E-02  0.1130116E+00
         25   -1    0    0    0    0  0.00000000000E+00  0.00000000000E+00  0.99999998245E-14  0.12500000000E+03  0.12500000000E+03 0.  0.
        -13    1    3    3    0    0 -0.44243001231E+02  0.41772381244E+02  0.71240232808E+01  0.61262858768E+02  0.10566000000E+00 0. -1.
         23    2    1    0    0    0 -0.16402031053E+02  0.17704650097E+02  0.11392584512E+02  0.98311571054E+02  0.94619727137E+02 0.  0.
         13    1    3    3    0    0  0.27840970178E+02 -0.24067731147E+02  0.42685612316E+01  0.37048712286E+02  0.10566000000E+00 0.  1.
         22    1    1    0    0    0  0.16402031053E+02 -0.17704650097E+02 -0.11392584512E+02  0.26688428946E+02  0.00000000000E+00 0. -1.
</event>
<event>
 5    1  0.1680526E-003  0.9118800E+02  0.7818608E-02  0.1130116E+00
         25   -1    0    0    0    0  0.00000000000E+00  0.00000000000E+00  0.99999998245E-14  0.12500000000E+03  0.12500000000E+03 0.  0.
        -13    1    3    3    0    0 -0.62495120401E+01 -0.38198600255E+02 -0.30908604479E+02  0.49533245977E+02  0.10566000000E+00 0. -1.
         23    2    1    0    0    0 -0.26712012958E+02 -0.50460454440E+01 -0.25995094352E+01  0.97691545994E+02  0.93797049520E+02 0.  0.
         13    1    3    3    0    0 -0.20462500918E+02  0.33152554811E+02  0.28309095044E+02  0.48158300017E+02  0.10566000000E+00 0.  1.
         22    1    1    0    0    0  0.26712012958E+02  0.50460454440E+01  0.25995094352E+01  0.27308454006E+02  0.00000000000E+00 0.  1.
</event>
<event>
 5    1  0.1680526E-003  0.9118800E+02  0.7818608E-02  0.1130116E+00
         25   -1    0    0    0    0  0.00000000000E+00  0.00000000000E+00  0.99999998245E-14  0.12500000000E+03  0.12500000000E+03 0.  0.
        -13    1    3    3    0    0  0.96739247188E+01 -0.44347346033E+02  0.22095022361E+02  0.50482403833E+02  0.10566000000E+00 0.  1.
         23    2    1    0    0    0 -0.12178216158E+02 -0.37397402017E+02 -0.42864080358E+01  0.85436785770E+02  0.75724477168E+02 0.  0.
         13    1    3    3    0    0 -0.21852140877E+02  0.69499440158E+01 -0.26381430397E+02  0.34954381936E+02  0.10566000000E+00 0. -1.
         22    1    1    0    0    0  0.12178216158E+02  0.37397402017E+02  0.42864080358E+01  0.39563214230E+02  0.00000000000E+00 0.  1.
</event>
<event>
 5    1  0.1680526E-003  0.9118800E+02  0.7818608E-02  0.1130116E+00
         25   -1    0    0    0    0  0.00000000000E+00  0.00000000000E+00  0.99999998245E-14  0.12500000000E+03  0.12500000000E+03 0.  0.
        -13    1    3    3    0    0 -0.18279467892E+02  0.71447690054E+01  0.26370129383E+02  0.32872200386E+02  0.10566000000E+00 0.  1.
         23    2    1    0    0    0  0.15507176465E+02 -0.35898197566E+01 -0.25045214644E+02  0.95324722338E+02  0.90587971522E+02 0.  0.
         13    1    3    3    0    0  0.33786644356E+02 -0.10734588762E+02 -0.51415344026E+02  0.62452521952E+02  0.10566000000E+00 0. -1.
         22    1    1    0    0    0 -0.15507176465E+02  0.35898197566E+01  0.25045214644E+02  0.29675277662E+02  0.00000000000E+00 0. -1.
</event>
<event>
 5    1  0.1680526E-003  0.9118800E+02  0.7818608E-02  0.1130116E+00
         25   -1    0    0    0    0  0.00000000000E+00  0.00000000000E+00  0.99999998245E-14  0.12500000000E+03  0.12500000000E+03 0.  0.
        -13    1    3    3    0    0 -0.50273333700E+02 -0.74965657577E+01  0.27544693329E+02  0.57812869450E+02  0.10566000000E+00 0. -1.
         23    2    1    0    0    0 -0.17867406391E+02  0.10923485030E+02  0.20395089562E+02  0.95767716227E+02  0.91197198733E+02 0.  0.
         13    1    3    3    0    0  0.32405927309E+02  0.18420050788E+02 -0.71496037665E+01  0.37954846776E+02  0.10566000000E+00 0.  1.
         22    1    1    0    0    0  0.17867406391E+02 -0.10923485030E+02 -0.20395089562E+02  0.29232283773E+02  0.00000000000E+00 0. -1.
</event>
<event>
 5    1  0.1680526E-003  0.9118800E+02  0.7818608E-02  0.1130116E+00
         25   -1    0    0    0    0  0.00000000000E+00  0.00000000000E+00  0.99999998245E-14  0.12500000000E+03  0.12500000000E+03 0.  0.
        -13    1    3    3    0    0 -0.90454727496E+01  0.19397474128E+02 -0.27800761546E+02  0.35085268795E+02  0.10566000000E+00 0.  1.
         23    2    1    0    0    0  0.14402570620E+02  0.88335201736E+00  0.25219834952E+02  0.95943943381E+02  0.91438426524E+02 0.  0.
         13    1    3    3    0    0  0.23448043369E+02 -0.18514122110E+02  0.53020596498E+02  0.60858674586E+02  0.10566000000E+00 0. -1.
         22    1    1    0    0    0 -0.14402570620E+02 -0.88335201736E+00 -0.25219834952E+02  0.29056056619E+02  0.00000000000E+00 0. -1.
</event>
<event>
 5    1  0.1680526E-003  0.9118800E+02  0.7818608E-02  0.1130116E+00
         25   -1    0    0    0    0  0.00000000000E+00  0.00000000000E+00  0.99999998245E-14  0.12500000000E+03  0.12500000000E+03 0.  0.
        -13    1    3    3    0    0 -0.41590271347E+02  0.44583875702E+02  0.10017731730E+02  0.61788662038E+02  0.10566000000E+00 0. -1.
         23    2    1    0    0    0 -0.23557290679E+02  0.18022044174E+02  0.27882692653E+00  0.95338277784E+02  0.90606674401E+02 0.  0.
         13    1    3    3    0    0  0.18032980668E+02 -0.26561831529E+02 -0.97389048034E+01  0.33549615746E+02  0.10566000000E+00 0.  1.
         22    1    1    0    0    0  0.23557290679E+02 -0.18022044174E+02 -0.27882692653E+00  0.29661722216E+02  0.00000000000E+00 0. -1.
</event>
<event>
 5    1  0.1680526E-003  0.9118800E+02  0.7818608E-02  0.1130116E+00
         25   -1    0    0    0    0  0.00000000000E+00  0.00000000000E+00  0.99999998245E-14  0.12500000000E+03  0.12500000000E+03 0.  0.
        -13    1    3    3    0    0  0.49311570725E+01 -0.47388143059E+02 -0.26702095520E+02  0.54616531214E+02  0.10566000000E+00 0.  1.
         23    2    1    0    0    0  0.12506633943E+02 -0.37759523290E+01 -0.22371582936E+02  0.99093216493E+02  0.95646767448E+02 0.  0.
         13    1    3    3    0    0  0.75754768709E+01  0.43612190730E+02  0.43305125841E+01  0.44476685279E+02  0.10566000000E+00 0. -1.
         22    1    1    0    0    0 -0.12506633943E+02  0.37759523290E+01  0.22371582936E+02  0.25906783507E+02  0.00000000000E+00 0.  1.
</event>
<event>
 5    1  0.1680526E-003  0.9118800E+02  0.7818608E-02  0.1130116E+00
         25   -1    0    0    0    0  0.00000000000E+00  0.00000000000E+00  0.99999998245E-14  0.12500000000E+03  0.12500000000E+03 0.  0.
        -13    1    3    3    0    0 -0.77385202246E+01  0.69462133013E+01  0.35580264917E+02  0.37068868206E+02  0.10566000000E+00 0. -1.
         23    2    1    0    0    0 -0.30419472661E+01  0.28646729674E+02 -0.15154471015E+02  0.92449323265E+02  0.86529363896E+02 0.  0.
         13    1    3    3    0    0  0.46965729585E+01  0.21700516372E+02 -0.50734735932E+02  0.55380455059E+02  0.10566000000E+00 0.  1.
         22    1    1    0    0    0  0.30419472661E+01 -0.28646729674E+02  0.15154471015E+02  0.32550676735E+02  0.00000000000E+00 0.  1.
</event>
<event>
 5    1  0.1680526E-003  0.9118800E+02  0.7818608E-02  0.1130116E+00
         25   -1    0    0    0    0  0.00000000000E+00  0.00000000000E+00  0.99999998245E-14  0.12500000000E+03  0.12500000000E+03 0.  0.
        -13    1    3    3    0    0 -0.16910746482E+01  0.36382063545E+02 -0.83560907348E+01  0.37367762813E+02  0.10566000000E+00 0.  1.
         23    2    1    0    0    0  0.73807436759E+01 -0.21910038299E+02 -0.16041410628E+02  0.96860134854E+02  0.92682434762E+02 0.  0.
         13    1    3    3    0    0  0.90718183242E+01 -0.58292101844E+02 -0.76853198933E+01  0.59492372041E+02  0.10566000000E+00 0. -1.
         22    1    1    0    0    0 -0.73807436759E+01  0.21910038299E+02  0.16041410628E+02  0.28139865146E+02  0.00000000000E+00 0. -1.
</event>
<event>
 5    1  0.1680526E-003  0.9118800E+02  0.7818608E-02  0.1130116E+00
         25   -1    0    0    0    0  0.00000000000E+00  0.00000000000E+00  0.99999998245E-14  0.12500000000E+03  0.12500000000E+03 0.  0.
        -13    1    3    3    0    0 -0.19862928105E+02  0.56144904926E+02  0.12230161688E+02  0.60797814771E+02  0.10566000000E+00 0.  1.
         23    2    1    0    0    0 -0.46789600066E+01  0.30453621031E+02 -0.25182789982E+01  0.94086290586E+02  0.88862661711E+02 0.  0.
         13    1    3    3    0    0  0.15183968098E+02 -0.25691283895E+02 -0.14748440686E+02  0.33288475815E+02  0.10566000000E+00 0. -1.
         22    1    1    0    0    0  0.46789600066E+01 -0.30453621031E+02  0.25182789982E+01  0.30913709414E+02  0.00000000000E+00 0.  1.
</event>
<event>
 5    1  0.1680526E-003  0.9118800E+02  0.7818608E-02  0.1130116E+00
         25   -1    0    0    0    0  0.00000000000E+00  0.00000000000E+00  0.99999998245E-14  0.12500000000E+03  0.12500000000E+03 0.  0.
        -13    1    3    3    0    0  0.28680935416E+02  0.46379411789E+01  0.20239998979E+02  0.35408689292E+02  0.10566000000E+00 0.  1.
         23    2    1    0    0    0  0.30953570187E+01  0.15610123964E+01 -0.31552207917E+02  0.93257917220E+02  0.87689676160E+02 0.  0.
         13    1    3    3    0    0 -0.25585578397E+02 -0.30769287825E+01 -0.51792206896E+02  0.57849227928E+02  0.10566000000E+00 0. -1.
         22    1    1    0    0    0 -0.30953570187E+01 -0.15610123964E+01  0.31552207917E+02  0.31742082780E+02  0.00000000000E+00 0. -1.
</event>
<event>
 5    1  0.1680526E-003  0.9118800E+02  0.7818608E-02  0.1130116E+00
         25   -1    0    0    0    0  0.00000000000E+00  0.00000000000E+00  0.99999998245E-14  0.12500000000E+03  0.12500000000E+03 0.  0.
        -13    1    3    3    0    0 -0.17190386405E+02  0.14919668152E+02 -0.37462094339E+02  0.43835209122E+02  0.10566000000E+00 0. -1.
         23    2    1    0    0    0 -0.33025175491E+02 -0.12509166491E+02 -0.47503982345E+01  0.89367041298E+02  0.81955843748E+02 0.  0.
         13    1    3    3    0    0 -0.15834789086E+02 -0.27428834643E+02  0.32711696104E+02  0.45531832176E+02  0.10566000000E+00 0.  1.
         22    1    1    0    0    0  0.33025175491E+02  0.12509166491E+02  0.47503982345E+01  0.35632958702E+02  0.00000000000E+00 0. -1.
</event>
<event>
 5    1  0.1680526E-003  0.9118800E+02  0.7818608E-02  0.1130116E+00
         25   -1    0    0    0    0  0.00000000000E+00  0.00000000000E+00  0.99999998245E-14  0.12500000000E+03  0.12500000000E+03 0.  0.
        -13    1    3    3    0    0  0.19582192186E+02  0.33632553375E+02 -0.40329838322E+02  0.56045677090E+02  0.10566000000E+00 0.  1.
         23    2    1    0    0    0  0.17902628581E+02  0.21505238947E+02 -0.12590416835E+01  0.96989919703E+02  0.92857309491E+02 0.  0.
         13    1    3    3    0    0 -0.16795636054E+01 -0.12127314428E+02  0.39070796639E+02  0.40944242613E+02  0.10566000000E+00 0. -1.
         22    1    1    0    0    0 -0.17902628581E+02 -0.21505238947E+02  0.12590416835E+01  0.28010080297E+02  0.00000000000E+00 0.  1.
</event>
<event>
 5    1  0.1680526E-003  0.9118800E+02  0.7818608E-02  0.1130116E+00
         25   -1    0    0    0    0  0.00000000000E+00  0.00000000000E+00  0.99999998245E-14  0.12500000000E+03  0.12500000000E+03 0.  0.
        -13    1    3    3    0    0  0.15815149096E+02  0.11803324444E+02 -0.49391676629E+02  0.53188215736E+02  0.10566000000E+00 0.  1.
         23    2    1    0    0    0  0.75519395389E+01 -0.18849334973E+02 -0.21170145758E+02  0.95665646570E+02  0.91057188857E+02 0.  0.
         13    1    3    3    0    0 -0.82632095571E+01 -0.30652659417E+02  0.28221530872E+02  0.42477430835E+02  0.10566000000E+00 0. -1.
         22    1    1    0    0    0 -0.75519395389E+01  0.18849334973E+02  0.21170145758E+02  0.29334353430E+02  0.00000000000E+00 0.  1.
</event>
<event>
 5    1  0.1680526E-003  0.9118800E+02  0.7818608E-02  0.1130116E+00
         25   -1    0    0    0    0  0.00000000000E+00  0.00000000000E+00  0.99999998245E-14  0.12500000000E+03  0.12500000000E+03 0.  0.
        -13    1    3    3    0    0  0.29524157491E+01  0.49126512570E+02  0.78112724804E+01  0.49831296770E+02  0.10566000000E+00 0. -1.
         23    2    1    0    0    0  0.14055307339E+02  0.21637117169E+02 -0.21420218035E+02  0.91465804848E+02  0.85096716812E+02 0.  0.
         13    1    3    3    0    0  0.11102891590E+02 -0.27489395400E+02 -0.29231490515E+02  0.41634508078E+02  0.10566000000E+00 0.  1.
         22    1    1    0    0    0 -0.14055307339E+02 -0.21637117169E+02  0.21420218035E+02  0.33534195152E+02  0.00000000000E+00 0. -1.
</event>
<event>
 5    1  0.1680526E-003  0.9118800E+02  0.7818608E-02  0.1130116E+00
         25   -1    0    0    0    0  0.00000000000E+00  0.00000000000E+00  0.99999998245E-14  0.12500000000E+03  0.12500000000E+03 0.  0.
        -13    1    3    3    0    0 -0.16005404446E+02 -0.55183642726E+02 -0.11233156570E+02  0.58545728850E+02  0.10566000000E+00 0.  1.
         23    2    1    0    0    0 -0.12978384540E+02 -0.18224434691E+02 -0.18053882870E+02  0.96250892679E+02  0.91857080128E+02 0.  0.
         13    1    3    3    0    0  0.30270199058E+01  0.36959208035E+02 -0.68207263005E+01  0.37705163829E+02  0.10566000000E+00 0. -1.
         22    1    1    0    0    0  0.12978384540E+02  0.18224434691E+02  0.18053882870E+02  0.28749107321E+02  0.00000000000E+00 0.  1.
</event>
<event>
 5    1  0.1680526E-003  0.9118800E+02  0.7818608E-02  0.1130116E+00
         25   -1    0    0    0    0  0.00000000000E+00  0.00000000000E+00  0.99999998245E-14  0.12500000000E+03  0.12500000000E+03 0.  0.
        -13    1    3    3    0    0 -0.22409110647E+02  0.16789154545E+02 -0.53886684740E+02  0.60727505355E+02  0.10566000000E+00 0. -1.
         23    2    1    0    0    0 -0.11128954665E+02  0.17384161668E+02 -0.20770675441E+02  0.95717177952E+02  0.91127901808E+02 0.  0.
         13    1    3    3    0    0  0.11280155981E+02  0.59500712277E+00  0.33116009300E+02  0.34989672597E+02  0.10566000000E+00 0.  1.
         22    1    1    0    0    0  0.11128954665E+02 -0.17384161668E+02  0.20770675441E+02  0.29282822048E+02  0.00000000000E+00 0. -1.
</event>
<event>
 5    1  0.1680526E-003  0.9118800E+02  0.7818608E-02  0.1130116E+00
         25   -1    0    0    0    0  0.00000000000E+00  0.00000000000E+00  0.99999998245E-14  0.12500000000E+03  0.12500000000E+03 0.  0.
        -13    1    3    3    0    0  0.15489078223E+02 -0.74032378898E+01  0.35285600873E+02  0.39240339811E+02  0.10566000000E+00 0. -1.
         23    2    1    0    0    0 -0.11768140563E+02  0.25864699634E+02 -0.24794159000E+01  0.96475986911E+02  0.92162881508E+02 0.  0.
         13    1    3    3    0    0 -0.27257218786E+02  0.33267937524E+02 -0.37765016773E+02  0.57235647100E+02  0.10566000000E+00 0.  1.
         22    1    1    0    0    0  0.11768140563E+02 -0.25864699634E+02  0.24794159000E+01  0.28524013089E+02  0.00000000000E+00 0.  1.
</event>
<event>
 5    1  0.1680526E-003  0.9118800E+02  0.7818608E-02  0.1130116E+00
         25   -1    0    0    0    0  0.00000000000E+00  0.00000000000E+00  0.99999998245E-14  0.12500000000E+03  0.12500000000E+03 0.  0.
        -13    1    3    3    0    0 -0.30530904098E+01 -0.47456655286E+02  0.33380361878E+02  0.58100905459E+02  0.10566000000E+00 0. -1.
         23    2    1    0    0    0 -0.38327450722E+00 -0.28493702359E+02  0.93250531290E-01  0.96503567431E+02  0.92200281224E+02 0.  0.
         13    1    3    3    0    0  0.26698159026E+01  0.18962952927E+02 -0.33287111347E+02  0.38402661972E+02  0.10566000000E+00 0.  1.
         22    1    1    0    0    0  0.38327450722E+00  0.28493702359E+02 -0.93250531290E-01  0.28496432569E+02  0.00000000000E+00 0. -1.
</event>
<event>
 5    1  0.1680526E-003  0.9118800E+02  0.7818608E-02  0.1130116E+00
         25   -1    0    0    0    0  0.00000000000E+00  0.00000000000E+00  0.99999998245E-14  0.12500000000E+03  0.12500000000E+03 0.  0.
        -13    1    3    3    0    0  0.46622361060E+02 -0.88101158665E+01  0.30661147955E+02  0.56492299035E+02  0.10566000000E+00 0. -1.
         23    2    1    0    0    0  0.14333272821E+02  0.12682619359E+02  0.21241815412E+02  0.96407933520E+02  0.92070534810E+02 0.  0.
         13    1    3    3    0    0 -0.32289088239E+02  0.21492735226E+02 -0.94193325429E+01  0.39915634485E+02  0.10566000000E+00 0.  1.
         22    1    1    0    0    0 -0.14333272821E+02 -0.12682619359E+02 -0.21241815412E+02  0.28592066480E+02  0.00000000000E+00 0. -1.
</event>
<event>
 5    1  0.1680526E-003  0.9118800E+02  0.7818608E-02  0.1130116E+00
         25   -1    0    0    0    0  0.00000000000E+00  0.00000000000E+00  0.99999998245E-14  0.12500000000E+03  0.12500000000E+03 0.  0.
        -13    1    3    3    0    0 -0.45630583909E+02  0.24705282009E+02 -0.12491003421E+02  0.53371691724E+02  0.10566000000E+00 0. -1.
         23    2    1    0    0    0 -0.52340396243E+01  0.22703521676E+02 -0.19740634124E+02  0.94462519703E+02  0.89390323446E+02 0.  0.
         13    1    3    3    0    0  0.40396544285E+02 -0.20017603332E+01 -0.72496307031E+01  0.41090827979E+02  0.10566000000E+00 0.  1.
         22    1    1    0    0    0  0.52340396243E+01 -0.22703521676E+02  0.19740634124E+02  0.30537480297E+02  0.00000000000E+00 0. -1.
</event>
<event>
 5    1  0.1680526E-003  0.9118800E+02  0.7818608E-02  0.1130116E+00
         25   -1    0    0    0    0  0.00000000000E+00  0.00000000000E+00  0.99999998245E-14  0.12500000000E+03  0.12500000000E+03 0.  0.
        -13    1    3    3    0    0  0.35097432011E+02  0.49516847382E+01 -0.10034626531E+02  0.36838211264E+02  0.10566000000E+00 0.  1.
         23    2    1    0    0    0 -0.14616556851E+02 -0.16081476920E+02  0.17186522871E+02  0.97293787655E+02  0.93265464743E+02 0.  0.
         13    1    3    3    0    0 -0.49713988862E+02 -0.21033161659E+02  0.27221149402E+02  0.60455576391E+02  0.10566000000E+00 0. -1.
         22    1    1    0    0    0  0.14616556851E+02  0.16081476920E+02 -0.17186522871E+02  0.27706212345E+02  0.00000000000E+00 0. -1.
</event>
<event>
 5    1  0.1680526E-003  0.9118800E+02  0.7818608E-02  0.1130116E+00
         25   -1    0    0    0    0  0.00000000000E+00  0.00000000000E+00  0.99999998245E-14  0.12500000000E+03  0.12500000000E+03 0.  0.
        -13    1    3    3    0    0  0.83137133954E+01 -0.15672565954E+02 -0.59212755610E+02  0.61813499698E+02  0.10566000000E+00 0. -1.
         23    2    1    0    0    0 -0.21520685344E+01 -0.94082955096E+01 -0.30489335410E+02  0.93019584163E+02  0.87349276132E+02 0.  0.
         13    1    3    3    0    0 -0.10465781930E+02  0.62642704444E+01  0.28723420200E+02  0.31206084465E+02  0.10566000000E+00 0.  1.
         22    1    1    0    0    0  0.21520685344E+01  0.94082955096E+01  0.30489335410E+02  0.31980415837E+02  0.00000000000E+00 0. -1.
</event>
<event>
 5    1  0.1680526E-003  0.9118800E+02  0.7818608E-02  0.1130116E+00
         25   -1    0    0    0    0  0.00000000000E+00  0.00000000000E+00  0.99999998245E-14  0.12500000000E+03  0.12500000000E+03 0.  0.
        -13    1    3    3    0    0 -0.30695760856E+02  0.15369197536E+02 -0.46358817433E+02  0.57685293492E+02  0.10566000000E+00 0. -1.
         23    2    1    0    0    0  0.52944040944E+00  0.11229982112E+02 -0.29540241989E+02  0.93392742888E+02  0.87881657483E+02 0.  0.
         13    1    3    3    0    0  0.31225201265E+02 -0.41392154236E+01  0.16818575444E+02  0.35707449396E+02  0.10566000000E+00 0.  1.
         22    1    1    0    0    0 -0.52944040944E+00 -0.11229982112E+02  0.29540241989E+02  0.31607257112E+02  0.00000000000E+00 0. -1.
</event>
<event>
 5    1  0.1680526E-003  0.9118800E+02  0.7818608E-02  0.1130116E+00
         25   -1    0    0    0    0  0.00000000000E+00  0.00000000000E+00  0.99999998245E-14  0.12500000000E+03  0.12500000000E+03 0.  0.
        -13    1    3    3    0    0 -0.30392134738E+02 -0.40966885924E+01 -0.27016594487E+02  0.40870187828E+02  0.10566000000E+00 0.  1.
         23    2    1    0    0    0 -0.53653573740E+01 -0.15006865726E+02  0.22507593866E+02  0.97421296980E+02  0.93436204144E+02 0.  0.
         13    1    3    3    0    0  0.25026777364E+02 -0.10910177134E+02  0.49524188352E+02  0.56551109152E+02  0.10566000000E+00 0. -1.
         22    1    1    0    0    0  0.53653573740E+01  0.15006865726E+02 -0.22507593866E+02  0.27578703020E+02  0.00000000000E+00 0. -1.
</event>
<event>
 5    1  0.1680526E-003  0.9118800E+02  0.7818608E-02  0.1130116E+00
         25   -1    0    0    0    0  0.00000000000E+00  0.00000000000E+00  0.99999998245E-14  0.12500000000E+03  0.12500000000E+03 0.  0.
        -13    1    3    3    0    0 -0.56408009479E+02  0.17621914731E+01 -0.76449308913E+01  0.56951075359E+02  0.10566000000E+00 0.  1.
         23    2    1    0    0    0 -0.23891941215E+02  0.12947206707E+02  0.10544013583E+02  0.95851565411E+02  0.91312054806E+02 0.  0.
         13    1    3    3    0    0  0.32516068264E+02  0.11185015234E+02  0.18188944474E+02  0.38900490052E+02  0.10566000000E+00 0. -1.
         22    1    1    0    0    0  0.23891941215E+02 -0.12947206707E+02 -0.10544013583E+02  0.29148434589E+02  0.00000000000E+00 0. -1.
</event>
<event>
 5    1  0.1680526E-003  0.9118800E+02  0.7818608E-02  0.1130116E+00
         25   -1    0    0    0    0  0.00000000000E+00  0.00000000000E+00  0.99999998245E-14  0.12500000000E+03  0.12500000000E+03 0.  0.
        -13    1    3    3    0    0  0.34399341474E+02 -0.12393445862E+02  0.47308787929E+02  0.59791678129E+02  0.10566000000E+00 0. -1.
         23    2    1    0    0    0  0.48015457543E+01 -0.57650410478E+01  0.28608142855E+02  0.95424395568E+02  0.90725403785E+02 0.  0.
         13    1    3    3    0    0 -0.29597795719E+02  0.66284048143E+01 -0.18700645074E+02  0.35632717439E+02  0.10566000000E+00 0.  1.
         22    1    1    0    0    0 -0.48015457543E+01  0.57650410478E+01 -0.28608142855E+02  0.29575604432E+02  0.00000000000E+00 0. -1.
</event>
<event>
 5    1  0.1680526E-003  0.9118800E+02  0.7818608E-02  0.1130116E+00
         25   -1    0    0    0    0  0.00000000000E+00  0.00000000000E+00  0.99999998245E-14  0.12500000000E+03  0.12500000000E+03 0.  0.
        -13    1    3    3    0    0 -0.20682678584E+02  0.43765148504E+02  0.39491740435E+02  0.62472154947E+02  0.10566000000E+00 0. -1.
         23    2    1    0    0    0 -0.11717290688E+02  0.21731031834E+02  0.19913074437E+02  0.93281500994E+02  0.87723287949E+02 0.  0.
         13    1    3    3    0    0  0.89653878963E+01 -0.22034116670E+02 -0.19578665998E+02  0.30809346048E+02  0.10566000000E+00 0.  1.
         22    1    1    0    0    0  0.11717290688E+02 -0.21731031834E+02 -0.19913074437E+02  0.31718499006E+02  0.00000000000E+00 0. -1.
</event>
<event>
 5    1  0.1680526E-003  0.9118800E+02  0.7818608E-02  0.1130116E+00
         25   -1    0    0    0    0  0.00000000000E+00  0.00000000000E+00  0.99999998245E-14  0.12500000000E+03  0.12500000000E+03 0.  0.
        -13    1    3    3    0    0  0.31175520527E+02  0.68156531583E+01 -0.14882924566E+02  0.35211912981E+02  0.10566000000E+00 0.  1.
         23    2    1    0    0    0 -0.28439267329E+02 -0.12750621051E+00 -0.29141194794E+01  0.96411535956E+02  0.92075425544E+02 0.  0.
         13    1    3    3    0    0 -0.59614787856E+02 -0.69431593688E+01  0.11968805086E+02  0.61199622976E+02  0.10566000000E+00 0. -1.
         22    1    1    0    0    0  0.28439267329E+02  0.12750621051E+00  0.29141194794E+01  0.28588464044E+02  0.00000000000E+00 0. -1.
</event>
<event>
 5    1  0.1680526E-003  0.9118800E+02  0.7818608E-02  0.1130116E+00
         25   -1    0    0    0    0  0.00000000000E+00  0.00000000000E+00  0.99999998245E-14  0.12500000000E+03  0.12500000000E+03 0.  0.
        -13    1    3    3    0    0  0.66325735995E+01 -0.51176247546E+02  0.34319457747E+02  0.61974476113E+02  0.10566000000E+00 0.  1.
         23    2    1    0    0    0  0.60153458666E+01 -0.25532839290E+02  0.11308129692E+02  0.96434565201E+02  0.92106684341E+02 0.  0.
         13    1    3    3    0    0 -0.61722773293E+00  0.25643408257E+02 -0.23011328054E+02  0.34460089088E+02  0.10566000000E+00 0. -1.
         22    1    1    0    0    0 -0.60153458666E+01  0.25532839290E+02 -0.11308129692E+02  0.28565434799E+02  0.00000000000E+00 0.  1.
</event>
<event>
 5    1  0.1680526E-003  0.9118800E+02  0.7818608E-02  0.1130116E+00
         25   -1    0    0    0    0  0.00000000000E+00  0.00000000000E+00  0.99999998245E-14  0.12500000000E+03  0.12500000000E+03 0.  0.
        -13    1    3    3    0    0  0.11774100758E+02 -0.13313503529E+02 -0.55302116591E+02  0.58087985749E+02  0.10566000000E+00 0.  1.
         23    2    1    0    0    0  0.53722324550E+01 -0.22025706289E+02 -0.20842828460E+02  0.94203634674E+02  0.89027572519E+02 0.  0.
         13    1    3    3    0    0 -0.64018683030E+01 -0.87122027602E+01  0.34459288132E+02  0.36115648925E+02  0.10566000000E+00 0. -1.
         22    1    1    0    0    0 -0.53722324550E+01  0.22025706289E+02  0.20842828460E+02  0.30796365326E+02  0.00000000000E+00 0.  1.
</event>
<event>
 5    1  0.1680526E-003  0.9118800E+02  0.7818608E-02  0.1130116E+00
         25   -1    0    0    0    0  0.00000000000E+00  0.00000000000E+00  0.99999998245E-14  0.12500000000E+03  0.12500000000E+03 0.  0.
        -13    1    3    3    0    0  0.93014320579E+01 -0.20673485603E+02 -0.24856588876E+02  0.33641801674E+02  0.10566000000E+00 0.  1.
         23    2    1    0    0    0 -0.16808865429E+02  0.15513182062E+02  0.18289924905E+02  0.95713174843E+02  0.91122410585E+02 0.  0.
         13    1    3    3    0    0 -0.26110297487E+02  0.36186667665E+02  0.43146513782E+02  0.62071373169E+02  0.10566000000E+00 0. -1.
         22    1    1    0    0    0  0.16808865429E+02 -0.15513182062E+02 -0.18289924905E+02  0.29286825157E+02  0.00000000000E+00 0. -1.
</event>
<event>
 5    1  0.1680526E-003  0.9118800E+02  0.7818608E-02  0.1130116E+00
         25   -1    0    0    0    0  0.00000000000E+00  0.00000000000E+00  0.99999998245E-14  0.12500000000E+03  0.12500000000E+03 0.  0.
        -13    1    3    3    0    0  0.34719960004E+02 -0.16663738836E+02  0.95357747049E+01  0.39674903629E+02  0.10566000000E+00 0.  1.
         23    2    1    0    0    0 -0.12719415524E+02 -0.28125090319E+02 -0.10448036721E+02  0.92412184669E+02  0.86475696975E+02 0.  0.
         13    1    3    3    0    0 -0.47439375529E+02 -0.11461351483E+02 -0.19983811426E+02  0.52737281040E+02  0.10566000000E+00 0. -1.
         22    1    1    0    0    0  0.12719415524E+02  0.28125090319E+02  0.10448036721E+02  0.32587815331E+02  0.00000000000E+00 0. -1.
</event>
<event>
 5    1  0.1680526E-003  0.9118800E+02  0.7818608E-02  0.1130116E+00
         25   -1    0    0    0    0  0.00000000000E+00  0.00000000000E+00  0.99999998245E-14  0.12500000000E+03  0.12500000000E+03 0.  0.
        -13    1    3    3    0    0 -0.44969764742E+00 -0.15449651219E+02 -0.35692006007E+02  0.38895043484E+02  0.10566000000E+00 0. -1.
         23    2    1    0    0    0  0.33354804516E+01 -0.20220028223E+02  0.20850383390E+02  0.95764517129E+02  0.91192813765E+02 0.  0.
         13    1    3    3    0    0  0.37851780990E+01 -0.47703770034E+01  0.56542389397E+02  0.56869473646E+02  0.10566000000E+00 0.  1.
         22    1    1    0    0    0 -0.33354804516E+01  0.20220028223E+02 -0.20850383390E+02  0.29235482871E+02  0.00000000000E+00 0.  1.
</event>
<event>
 5    1  0.1680526E-003  0.9118800E+02  0.7818608E-02  0.1130116E+00
         25   -1    0    0    0    0  0.00000000000E+00  0.00000000000E+00  0.99999998245E-14  0.12500000000E+03  0.12500000000E+03 0.  0.
        -13    1    3    3    0    0 -0.30564043303E+02  0.28600573356E+02  0.35881863916E+02  0.55133228288E+02  0.10566000000E+00 0.  1.
         23    2    1    0    0    0 -0.69314405864E+01  0.32983651892E+02  0.11455458444E+02  0.89402335907E+02  0.82009657826E+02 0.  0.
         13    1    3    3    0    0  0.23632602717E+02  0.43830785356E+01 -0.24426405473E+02  0.34269107618E+02  0.10566000000E+00 0. -1.
         22    1    1    0    0    0  0.69314405864E+01 -0.32983651892E+02 -0.11455458444E+02  0.35597664093E+02  0.00000000000E+00 0.  1.
</event>
<event>
 5    1  0.1680526E-003  0.9118800E+02  0.7818608E-02  0.1130116E+00
         25   -1    0    0    0    0  0.00000000000E+00  0.00000000000E+00  0.99999998245E-14  0.12500000000E+03  0.12500000000E+03 0.  0.
        -13    1    3    3    0    0  0.44598530172E+02  0.10219661307E+02  0.58027043626E+01  0.46121067991E+02  0.10566000000E+00 0. -1.
         23    2    1    0    0    0  0.12033551516E+02 -0.14378664614E+02 -0.22444437221E+02  0.95754399983E+02  0.91178944915E+02 0.  0.
         13    1    3    3    0    0 -0.32564978655E+02 -0.24598325921E+02 -0.28247141584E+02  0.49633331992E+02  0.10566000000E+00 0.  1.
         22    1    1    0    0    0 -0.12033551516E+02  0.14378664614E+02  0.22444437221E+02  0.29245600017E+02  0.00000000000E+00 0.  1.
</event>
<event>
 5    1  0.1680526E-003  0.9118800E+02  0.7818608E-02  0.1130116E+00
         25   -1    0    0    0    0  0.00000000000E+00  0.00000000000E+00  0.99999998245E-14  0.12500000000E+03  0.12500000000E+03 0.  0.
        -13    1    3    3    0    0 -0.29142217439E+02 -0.31863790757E+02 -0.31021425352E+02  0.53168693735E+02  0.10566000000E+00 0.  1.
         23    2    1    0    0    0 -0.12897025315E+02 -0.24608232385E+02  0.80279077164E+01  0.96080358484E+02  0.91624721670E+02 0.  0.
         13    1    3    3    0    0  0.16245192124E+02  0.72555583718E+01  0.39049333068E+02  0.42911664749E+02  0.10566000000E+00 0. -1.
         22    1    1    0    0    0  0.12897025315E+02  0.24608232385E+02 -0.80279077164E+01  0.28919641516E+02  0.00000000000E+00 0.  1.
</event>
<event>
 5    1  0.1680526E-003  0.9118800E+02  0.7818608E-02  0.1130116E+00
         25   -1    0    0    0    0  0.00000000000E+00  0.00000000000E+00  0.99999998245E-14  0.12500000000E+03  0.12500000000E+03 0.  0.
        -13    1    3    3    0    0  0.24500598557E+02 -0.16025766211E+02 -0.21237379363E+02  0.36168245168E+02  0.10566000000E+00 0.  1.
         23    2    1    0    0    0  0.59083480709E+01  0.24183876586E+02  0.17136055731E+02  0.94777278917E+02  0.89829392346E+02 0.  0.
         13    1    3    3    0    0 -0.18592250486E+02  0.40209642797E+02  0.38373435094E+02  0.58609033749E+02  0.10566000000E+00 0. -1.
         22    1    1    0    0    0 -0.59083480709E+01 -0.24183876586E+02 -0.17136055731E+02  0.30222721083E+02  0.00000000000E+00 0. -1.
</event>
<event>
 5    1  0.1680526E-003  0.9118800E+02  0.7818608E-02  0.1130116E+00
         25   -1    0    0    0    0  0.00000000000E+00  0.00000000000E+00  0.99999998245E-14  0.12500000000E+03  0.12500000000E+03 0.  0.
        -13    1    3    3    0    0  0.36901639546E+02 -0.11633149002E+02  0.29242161034E+02  0.48499240229E+02  0.10566000000E+00 0.  1.
         23    2    1    0    0    0  0.55368472205E+01  0.21980313035E+02  0.18574047088E+02  0.95694948158E+02  0.91097404131E+02 0.  0.
         13    1    3    3    0    0 -0.31364792325E+02  0.33613462036E+02 -0.10668113947E+02  0.47195707929E+02  0.10566000000E+00 0. -1.
         22    1    1    0    0    0 -0.55368472205E+01 -0.21980313035E+02 -0.18574047088E+02  0.29305051842E+02  0.00000000000E+00 0. -1.
</event>
<event>
 5    1  0.1680526E-003  0.9118800E+02  0.7818608E-02  0.1130116E+00
         25   -1    0    0    0    0  0.00000000000E+00  0.00000000000E+00  0.99999998245E-14  0.12500000000E+03  0.12500000000E+03 0.  0.
        -13    1    3    3    0    0  0.25641860171E+02 -0.16260191346E+02  0.13821656813E+02  0.33360877937E+02  0.10566000000E+00 0. -1.
         23    2    1    0    0    0 -0.17153400394E+02  0.20075962247E+02 -0.12985971007E+02  0.95573500918E+02  0.90930606671E+02 0.  0.
         13    1    3    3    0    0 -0.42795260565E+02  0.36336153593E+02 -0.26807627820E+02  0.62212622981E+02  0.10566000000E+00 0.  1.
         22    1    1    0    0    0  0.17153400394E+02 -0.20075962247E+02  0.12985971007E+02  0.29426499082E+02  0.00000000000E+00 0.  1.
</event>
<event>
 5    1  0.1680526E-003  0.9118800E+02  0.7818608E-02  0.1130116E+00
         25   -1    0    0    0    0  0.00000000000E+00  0.00000000000E+00  0.99999998245E-14  0.12500000000E+03  0.12500000000E+03 0.  0.
        -13    1    3    3    0    0 -0.42786300003E+02  0.36401982235E+01  0.32124648661E+02  0.53627630254E+02  0.10566000000E+00 0.  1.
         23    2    1    0    0    0  0.79052403906E-01  0.12386877459E+02  0.23811472980E+02  0.98159224527E+02  0.94418251053E+02 0.  0.
         13    1    3    3    0    0  0.42865352407E+02  0.87466792359E+01 -0.83131756806E+01  0.44531594273E+02  0.10566000000E+00 0. -1.
         22    1    1    0    0    0 -0.79052403906E-01 -0.12386877459E+02 -0.23811472980E+02  0.26840775473E+02  0.00000000000E+00 0.  1.
</event>
<event>
 5    1  0.1680526E-003  0.9118800E+02  0.7818608E-02  0.1130116E+00
         25   -1    0    0    0    0  0.00000000000E+00  0.00000000000E+00  0.99999998245E-14  0.12500000000E+03  0.12500000000E+03 0.  0.
        -13    1    3    3    0    0  0.33695073922E+02 -0.49356586690E+01  0.11678874448E+02  0.36001750034E+02  0.10566000000E+00 0. -1.
         23    2    1    0    0    0 -0.23587699980E+02  0.97823436177E+01  0.15257421964E+02  0.95253357131E+02  0.90489442935E+02 0.  0.
         13    1    3    3    0    0 -0.57282773902E+02  0.14718002287E+02  0.35785475163E+01  0.59251607097E+02  0.10566000000E+00 0.  1.
         22    1    1    0    0    0  0.23587699980E+02 -0.97823436177E+01 -0.15257421964E+02  0.29746642869E+02  0.00000000000E+00 0.  1.
</event>
<event>
 5    1  0.1680526E-003  0.9118800E+02  0.7818608E-02  0.1130116E+00
         25   -1    0    0    0    0  0.00000000000E+00  0.00000000000E+00  0.99999998245E-14  0.12500000000E+03  0.12500000000E+03 0.  0.
        -13    1    3    3    0    0  0.36078334681E+02  0.24039956012E+02 -0.33984931018E+02  0.55086771722E+02  0.10566000000E+00 0. -1.
         23    2    1    0    0    0  0.10392566725E+02 -0.75177785712E+01 -0.25213746697E+02  0.96711213170E+02  0.92481367272E+02 0.  0.
         13    1    3    3    0    0 -0.25685767956E+02 -0.31557734583E+02  0.87711843202E+01  0.41624441449E+02  0.10566000000E+00 0.  1.
         22    1    1    0    0    0 -0.10392566725E+02  0.75177785712E+01  0.25213746697E+02  0.28288786830E+02  0.00000000000E+00 0. -1.
</event>
<event>
 5    1  0.1680526E-003  0.9118800E+02  0.7818608E-02  0.1130116E+00
         25   -1    0    0    0    0  0.00000000000E+00  0.00000000000E+00  0.99999998245E-14  0.12500000000E+03  0.12500000000E+03 0.  0.
        -13    1    3    3    0    0  0.57630153619E+01 -0.30062900805E+02 -0.16579246491E+02  0.34811965316E+02  0.10566000000E+00 0.  1.
         23    2    1    0    0    0 -0.10274771415E+02  0.21315007074E+02  0.14777065114E+02  0.97102650528E+02  0.93008938452E+02 0.  0.
         13    1    3    3    0    0 -0.16037786776E+02  0.51377907879E+02  0.31356311605E+02  0.62290685212E+02  0.10566000000E+00 0. -1.
         22    1    1    0    0    0  0.10274771415E+02 -0.21315007074E+02 -0.14777065114E+02  0.27897349472E+02  0.00000000000E+00 0. -1.
</event>
<event>
 5    1  0.1680526E-003  0.9118800E+02  0.7818608E-02  0.1130116E+00
         25   -1    0    0    0    0  0.00000000000E+00  0.00000000000E+00  0.99999998245E-14  0.12500000000E+03  0.12500000000E+03 0.  0.
        -13    1    3    3    0    0 -0.25367802049E+01 -0.21785559682E+02 -0.37653066030E+02  0.43575341765E+02  0.10566000000E+00 0. -1.
         23    2    1    0    0    0  0.16255223207E+01 -0.25480052545E+02  0.14239627806E+02  0.95765732427E+02  0.91194479584E+02 0.  0.
         13    1    3    3    0    0  0.41623025256E+01 -0.36944928624E+01  0.51892693836E+02  0.52190390661E+02  0.10566000000E+00 0.  1.
         22    1    1    0    0    0 -0.16255223207E+01  0.25480052545E+02 -0.14239627806E+02  0.29234267573E+02  0.00000000000E+00 0.  1.
</event>
<event>
 5    1  0.1680526E-003  0.9118800E+02  0.7818608E-02  0.1130116E+00
         25   -1    0    0    0    0  0.00000000000E+00  0.00000000000E+00  0.99999998245E-14  0.12500000000E+03  0.12500000000E+03 0.  0.
        -13    1    3    3    0    0  0.26339458918E+02 -0.41162959680E+02 -0.14577805635E+02  0.50996861932E+02  0.10566000000E+00 0. -1.
         23    2    1    0    0    0 -0.79974791364E+01 -0.26254728768E+02  0.10012445265E+02  0.95784943687E+02  0.91220808600E+02 0.  0.
         13    1    3    3    0    0 -0.34336938055E+02  0.14908230913E+02  0.24590250900E+02  0.44788081755E+02  0.10566000000E+00 0.  1.
         22    1    1    0    0    0  0.79974791364E+01  0.26254728768E+02 -0.10012445265E+02  0.29215056313E+02  0.00000000000E+00 0. -1.
</event>
<event>
 5    1  0.1680526E-003  0.9118800E+02  0.7818608E-02  0.1130116E+00
         25   -1    0    0    0    0  0.00000000000E+00  0.00000000000E+00  0.99999998245E-14  0.12500000000E+03  0.12500000000E+03 0.  0.
        -13    1    3    3    0    0  0.54009074964E+01 -0.54658947483E+02  0.28982519864E+01  0.55001648796E+02  0.10566000000E+00 0. -1.
         23    2    1    0    0    0 -0.37489298746E+01 -0.19808369281E+02 -0.19109022771E+02  0.97222658154E+02  0.93170083925E+02 0.  0.
         13    1    3    3    0    0 -0.91498373710E+01  0.34850578202E+02 -0.22007274757E+02  0.42221009358E+02  0.10566000000E+00 0.  1.
         22    1    1    0    0    0  0.37489298746E+01  0.19808369281E+02  0.19109022771E+02  0.27777341846E+02  0.00000000000E+00 0. -1.
</event>
<event>
 5    1  0.1680526E-003  0.9118800E+02  0.7818608E-02  0.1130116E+00
         25   -1    0    0    0    0  0.00000000000E+00  0.00000000000E+00  0.99999998245E-14  0.12500000000E+03  0.12500000000E+03 0.  0.
        -13    1    3    3    0    0 -0.89119917314E+01 -0.45174105000E+02  0.37753514523E+02  0.59543785419E+02  0.10566000000E+00 0.  1.
         23    2    1    0    0    0  0.84780624518E+01 -0.17190091718E+02  0.21214142680E+02  0.96409500776E+02  0.92072662577E+02 0.  0.
         13    1    3    3    0    0  0.17390054183E+02  0.27984013281E+02 -0.16539371843E+02  0.36865715357E+02  0.10566000000E+00 0. -1.
         22    1    1    0    0    0 -0.84780624518E+01  0.17190091718E+02 -0.21214142680E+02  0.28590499224E+02  0.00000000000E+00 0.  1.
</event>
<event>
 5    1  0.1680526E-003  0.9118800E+02  0.7818608E-02  0.1130116E+00
         25   -1    0    0    0    0  0.00000000000E+00  0.00000000000E+00  0.99999998245E-14  0.12500000000E+03  0.12500000000E+03 0.  0.
        -13    1    3    3    0    0 -0.59787045946E+01 -0.26270769972E+02  0.18127061420E+02  0.32473062426E+02  0.10566000000E+00 0.  1.
         23    2    1    0    0    0 -0.16928566623E+02  0.22994360696E+02 -0.14905551909E+02  0.92789870081E+02  0.87019925995E+02 0.  0.
         13    1    3    3    0    0 -0.10949862028E+02  0.49265130669E+02 -0.33032613329E+02  0.60316807654E+02  0.10566000000E+00 0. -1.
         22    1    1    0    0    0  0.16928566623E+02 -0.22994360696E+02  0.14905551909E+02  0.32210129919E+02  0.00000000000E+00 0. -1.
</event>
<event>
 5    1  0.1680526E-003  0.9118800E+02  0.7818608E-02  0.1130116E+00
         25   -1    0    0    0    0  0.00000000000E+00  0.00000000000E+00  0.99999998245E-14  0.12500000000E+03  0.12500000000E+03 0.  0.
        -13    1    3    3    0    0  0.15104906947E+02  0.17678386972E+02 -0.26155835488E+02  0.34997463821E+02  0.10566000000E+00 0.  1.
         23    2    1    0    0    0 -0.56910044859E+01 -0.25389232465E+02  0.12160666094E+02  0.96279233000E+02  0.91895637818E+02 0.  0.
         13    1    3    3    0    0 -0.20795911433E+02 -0.43067619437E+02  0.38316501582E+02  0.61281769179E+02  0.10566000000E+00 0. -1.
         22    1    1    0    0    0  0.56910044859E+01  0.25389232465E+02 -0.12160666094E+02  0.28720767000E+02  0.00000000000E+00 0. -1.
</event>
<event>
 5    1  0.1680526E-003  0.9118800E+02  0.7818608E-02  0.1130116E+00
         25   -1    0    0    0    0  0.00000000000E+00  0.00000000000E+00  0.99999998245E-14  0.12500000000E+03  0.12500000000E+03 0.  0.
        -13    1    3    3    0    0 -0.13643843959E+01  0.30359622146E+02  0.16241827096E+02  0.34458327195E+02  0.10566000000E+00 0.  1.
         23    2    1    0    0    0  0.15191158118E+01 -0.18553961067E+02 -0.21684903838E+02  0.96420422701E+02  0.92087489244E+02 0.  0.
         13    1    3    3    0    0  0.28835002078E+01 -0.48913583213E+02 -0.37926730933E+02  0.61962095506E+02  0.10566000000E+00 0. -1.
         22    1    1    0    0    0 -0.15191158118E+01  0.18553961067E+02  0.21684903838E+02  0.28579577299E+02  0.00000000000E+00 0. -1.
</event>
<event>
 5    1  0.1680526E-003  0.9118800E+02  0.7818608E-02  0.1130116E+00
         25   -1    0    0    0    0  0.00000000000E+00  0.00000000000E+00  0.99999998245E-14  0.12500000000E+03  0.12500000000E+03 0.  0.
        -13    1    3    3    0    0  0.22429593309E+02 -0.34784791817E+02 -0.31754784356E+02  0.52167479250E+02  0.10566000000E+00 0.  1.
         23    2    1    0    0    0  0.13908754740E+01  0.50232221169E+01 -0.27066007877E+02  0.97436689651E+02  0.93456794364E+02 0.  0.
         13    1    3    3    0    0 -0.21038717835E+02  0.39808013933E+02  0.46887764794E+01  0.45269210401E+02  0.10566000000E+00 0. -1.
         22    1    1    0    0    0 -0.13908754740E+01 -0.50232221169E+01  0.27066007877E+02  0.27563310349E+02  0.00000000000E+00 0. -1.
</event>
<event>
 5    1  0.1680526E-003  0.9118800E+02  0.7818608E-02  0.1130116E+00
         25   -1    0    0    0    0  0.00000000000E+00  0.00000000000E+00  0.99999998245E-14  0.12500000000E+03  0.12500000000E+03 0.  0.
        -13    1    3    3    0    0 -0.15337878614E+02  0.36706174454E+02 -0.47304798584E+02  0.61808971004E+02  0.10566000000E+00 0.  1.
         23    2    1    0    0    0 -0.21709835688E+01  0.21116569069E+02 -0.20579780373E+02  0.95433971875E+02  0.90738596908E+02 0.  0.
         13    1    3    3    0    0  0.13166895045E+02 -0.15589605385E+02  0.26725018211E+02  0.33625000872E+02  0.10566000000E+00 0. -1.
         22    1    1    0    0    0  0.21709835688E+01 -0.21116569069E+02  0.20579780373E+02  0.29566028125E+02  0.00000000000E+00 0.  1.
</event>
<event>
 5    1  0.1680526E-003  0.9118800E+02  0.7818608E-02  0.1130116E+00
         25   -1    0    0    0    0  0.00000000000E+00  0.00000000000E+00  0.99999998245E-14  0.12500000000E+03  0.12500000000E+03 0.  0.
        -13    1    3    3    0    0  0.86669003616E+01 -0.11946476839E+02 -0.18664692273E+02  0.23795280465E+02  0.10566000000E+00 0.  1.
         23    2    1    0    0    0 -0.38930594684E+02 -0.32614443371E+01  0.15442057472E+02  0.82991841737E+02  0.71574858954E+02 0.  0.
         13    1    3    3    0    0 -0.47597495046E+02  0.86850325020E+01  0.34106749745E+02  0.59196561272E+02  0.10566000000E+00 0. -1.
         22    1    1    0    0    0  0.38930594684E+02  0.32614443371E+01 -0.15442057472E+02  0.42008158263E+02  0.00000000000E+00 0. -1.
</event>
<event>
 5    1  0.1680526E-003  0.9118800E+02  0.7818608E-02  0.1130116E+00
         25   -1    0    0    0    0  0.00000000000E+00  0.00000000000E+00  0.99999998245E-14  0.12500000000E+03  0.12500000000E+03 0.  0.
        -13    1    3    3    0    0 -0.10554272526E+02 -0.12764936418E+01  0.46117234698E+02  0.47326869797E+02  0.10566000000E+00 0. -1.
         23    2    1    0    0    0  0.10653264071E+02  0.25905401822E+02  0.19865453802E+02  0.90660254316E+02  0.83905086729E+02 0.  0.
         13    1    3    3    0    0  0.21207536598E+02  0.27181895464E+02 -0.26251780897E+02  0.43333384518E+02  0.10566000000E+00 0.  1.
         22    1    1    0    0    0 -0.10653264071E+02 -0.25905401822E+02 -0.19865453802E+02  0.34339745684E+02  0.00000000000E+00 0.  1.
</event>
<event>
 5    1  0.1680526E-003  0.9118800E+02  0.7818608E-02  0.1130116E+00
         25   -1    0    0    0    0  0.00000000000E+00  0.00000000000E+00  0.99999998245E-14  0.12500000000E+03  0.12500000000E+03 0.  0.
        -13    1    3    3    0    0 -0.16065278540E+02 -0.23566525416E+02 -0.42787126854E+02  0.51422015550E+02  0.10566000000E+00 0. -1.
         23    2    1    0    0    0 -0.16819351276E+02  0.14243524213E+02 -0.15830767447E+02  0.97863645099E+02  0.94026120173E+02 0.  0.
         13    1    3    3    0    0 -0.75407273632E+00  0.37810049630E+02  0.26956359407E+02  0.46441629549E+02  0.10566000000E+00 0.  1.
         22    1    1    0    0    0  0.16819351276E+02 -0.14243524213E+02  0.15830767447E+02  0.27136354901E+02  0.00000000000E+00 0. -1.
</event>
<event>
 5    1  0.1680526E-003  0.9118800E+02  0.7818608E-02  0.1130116E+00
         25   -1    0    0    0    0  0.00000000000E+00  0.00000000000E+00  0.99999998245E-14  0.12500000000E+03  0.12500000000E+03 0.  0.
        -13    1    3    3    0    0 -0.17032370083E+01 -0.47409376590E+02  0.69575971595E+01  0.47947568522E+02  0.10566000000E+00 0. -1.
         23    2    1    0    0    0 -0.28972222672E+02 -0.10563532354E+02  0.43007066745E+01  0.93863622879E+02  0.88548888868E+02 0.  0.
         13    1    3    3    0    0 -0.27268985663E+02  0.36845844236E+02 -0.26568904849E+01  0.45916054356E+02  0.10566000000E+00 0.  1.
         22    1    1    0    0    0  0.28972222672E+02  0.10563532354E+02 -0.43007066745E+01  0.31136377121E+02  0.00000000000E+00 0.  1.
</event>
<event>
 5    1  0.1680526E-003  0.9118800E+02  0.7818608E-02  0.1130116E+00
         25   -1    0    0    0    0  0.00000000000E+00  0.00000000000E+00  0.99999998245E-14  0.12500000000E+03  0.12500000000E+03 0.  0.
        -13    1    3    3    0    0 -0.28294129088E+02 -0.45063963927E+02 -0.14047530266E+02  0.55033288620E+02  0.10566000000E+00 0. -1.
         23    2    1    0    0    0 -0.26815992580E+02 -0.45012061332E+01 -0.10764414053E+02  0.95755668504E+02  0.91180683953E+02 0.  0.
         13    1    3    3    0    0  0.14781365077E+01  0.40562757794E+02  0.32831162133E+01  0.40722379885E+02  0.10566000000E+00 0.  1.
         22    1    1    0    0    0  0.26815992580E+02  0.45012061332E+01  0.10764414053E+02  0.29244331496E+02  0.00000000000E+00 0. -1.
</event>
<event>
 5    1  0.1680526E-003  0.9118800E+02  0.7818608E-02  0.1130116E+00
         25   -1    0    0    0    0  0.00000000000E+00  0.00000000000E+00  0.99999998245E-14  0.12500000000E+03  0.12500000000E+03 0.  0.
        -13    1    3    3    0    0  0.31018323773E+02 -0.37536404020E+02 -0.84071331426E+01  0.49414664707E+02  0.10566000000E+00 0.  1.
         23    2    1    0    0    0 -0.43768710460E+01 -0.16035230740E+02 -0.25780729964E+02  0.94325390589E+02  0.89198361236E+02 0.  0.
         13    1    3    3    0    0 -0.35395194819E+02  0.21501173280E+02 -0.17373596822E+02  0.44910725881E+02  0.10566000000E+00 0. -1.
         22    1    1    0    0    0  0.43768710460E+01  0.16035230740E+02  0.25780729964E+02  0.30674609411E+02  0.00000000000E+00 0.  1.
</event>
<event>
 5    1  0.1680526E-003  0.9118800E+02  0.7818608E-02  0.1130116E+00
         25   -1    0    0    0    0  0.00000000000E+00  0.00000000000E+00  0.99999998245E-14  0.12500000000E+03  0.12500000000E+03 0.  0.
        -13    1    3    3    0    0 -0.21151925469E+02 -0.19431857922E+02  0.42836408043E+02  0.51574897687E+02  0.10566000000E+00 0.  1.
         23    2    1    0    0    0 -0.33299296885E+02 -0.63391656928E+01  0.88531748063E+01  0.89965632603E+02  0.82863792762E+02 0.  0.
         13    1    3    3    0    0 -0.12147371416E+02  0.13092692229E+02 -0.33983233237E+02  0.38390734916E+02  0.10566000000E+00 0. -1.
         22    1    1    0    0    0  0.33299296885E+02  0.63391656928E+01 -0.88531748063E+01  0.35034367397E+02  0.00000000000E+00 0. -1.
</event>
<event>
 5    1  0.1680526E-003  0.9118800E+02  0.7818608E-02  0.1130116E+00
         25   -1    0    0    0    0  0.00000000000E+00  0.00000000000E+00  0.99999998245E-14  0.12500000000E+03  0.12500000000E+03 0.  0.
        -13    1    3    3    0    0  0.21475346941E+02 -0.15293202075E+02 -0.30478134025E+02  0.40298887995E+02  0.10566000000E+00 0. -1.
         23    2    1    0    0    0 -0.18127397735E+02  0.19274866166E+02 -0.10097558342E+02  0.96678917767E+02  0.92437705736E+02 0.  0.
         13    1    3    3    0    0 -0.39602744676E+02  0.34568068241E+02  0.20380575683E+02  0.56380029772E+02  0.10566000000E+00 0.  1.
         22    1    1    0    0    0  0.18127397735E+02 -0.19274866166E+02  0.10097558342E+02  0.28321082233E+02  0.00000000000E+00 0.  1.
</event>
<event>
 5    1  0.1680526E-003  0.9118800E+02  0.7818608E-02  0.1130116E+00
         25   -1    0    0    0    0  0.00000000000E+00  0.00000000000E+00  0.99999998245E-14  0.12500000000E+03  0.12500000000E+03 0.  0.
        -13    1    3    3    0    0  0.12839915771E+02 -0.55532827685E+02 -0.18729997703E+02  0.59996519613E+02  0.10566000000E+00 0.  1.
         23    2    1    0    0    0 -0.10882012439E+01 -0.24034721649E+02 -0.18847907229E+02  0.94437021846E+02  0.89354661107E+02 0.  0.
         13    1    3    3    0    0 -0.13928117015E+02  0.31498106036E+02 -0.11790952651E+00  0.34440502234E+02  0.10566000000E+00 0. -1.
         22    1    1    0    0    0  0.10882012439E+01  0.24034721649E+02  0.18847907229E+02  0.30562978154E+02  0.00000000000E+00 0.  1.
</event>
<event>
 5    1  0.1680526E-003  0.9118800E+02  0.7818608E-02  0.1130116E+00
         25   -1    0    0    0    0  0.00000000000E+00  0.00000000000E+00  0.99999998245E-14  0.12500000000E+03  0.12500000000E+03 0.  0.
        -13    1    3    3    0    0 -0.29395218985E+02  0.36722392756E+02  0.32138349276E+02  0.56969269673E+02  0.10566000000E+00 0.  1.
         23    2    1    0    0    0 -0.16310197293E+02  0.15534038826E+01  0.24911905458E+02  0.95183249122E+02  0.90392545492E+02 0.  0.
         13    1    3    3    0    0  0.13085021692E+02 -0.35168988873E+02 -0.72264438176E+01  0.38213979449E+02  0.10566000000E+00 0. -1.
         22    1    1    0    0    0  0.16310197293E+02 -0.15534038826E+01 -0.24911905458E+02  0.29816750878E+02  0.00000000000E+00 0.  1.
</event>
<event>
 5    1  0.1680526E-003  0.9118800E+02  0.7818608E-02  0.1130116E+00
         25   -1    0    0    0    0  0.00000000000E+00  0.00000000000E+00  0.99999998245E-14  0.12500000000E+03  0.12500000000E+03 0.  0.
        -13    1    3    3    0    0  0.30763826074E+02 -0.20806989191E+02 -0.36414808858E+02  0.52013395026E+02  0.10566000000E+00 0.  1.
         23    2    1    0    0    0  0.28106345672E+02  0.78032277565E+01 -0.36333936107E+01  0.95605126644E+02  0.90974071367E+02 0.  0.
         13    1    3    3    0    0 -0.26574804014E+01  0.28610216947E+02  0.32781415247E+02  0.43591731619E+02  0.10566000000E+00 0. -1.
         22    1    1    0    0    0 -0.28106345672E+02 -0.78032277565E+01  0.36333936107E+01  0.29394873356E+02  0.00000000000E+00 0.  1.
</event>
<event>
 5    1  0.1680526E-003  0.9118800E+02  0.7818608E-02  0.1130116E+00
         25   -1    0    0    0    0  0.00000000000E+00  0.00000000000E+00  0.99999998245E-14  0.12500000000E+03  0.12500000000E+03 0.  0.
        -13    1    3    3    0    0  0.42232936015E+02  0.12806959072E+02  0.38787716171E+02  0.58754890646E+02  0.10566000000E+00 0. -1.
         23    2    1    0    0    0  0.68091959006E+01  0.12251441205E+02  0.24127616737E+02  0.97096508286E+02  0.93000683177E+02 0.  0.
         13    1    3    3    0    0 -0.35423740114E+02 -0.55551786662E+00 -0.14660099433E+02  0.38341617639E+02  0.10566000000E+00 0.  1.
         22    1    1    0    0    0 -0.68091959006E+01 -0.12251441205E+02 -0.24127616737E+02  0.27903491714E+02  0.00000000000E+00 0. -1.
</event>
<event>
 5    1  0.1680526E-003  0.9118800E+02  0.7818608E-02  0.1130116E+00
         25   -1    0    0    0    0  0.00000000000E+00  0.00000000000E+00  0.99999998245E-14  0.12500000000E+03  0.12500000000E+03 0.  0.
        -13    1    3    3    0    0  0.59460246525E+01  0.34046167472E+02 -0.71512368620E+01  0.35293739975E+02  0.10566000000E+00 0. -1.
         23    2    1    0    0    0 -0.19477149495E+02 -0.20327974848E+02  0.46462925128E+01  0.96466266490E+02  0.92149696812E+02 0.  0.
         13    1    3    3    0    0 -0.25423174148E+02 -0.54374142321E+02  0.11797529375E+02  0.61172526515E+02  0.10566000000E+00 0.  1.
         22    1    1    0    0    0  0.19477149495E+02  0.20327974848E+02 -0.46462925128E+01  0.28533733510E+02  0.00000000000E+00 0.  1.
</event>
<event>
 5    1  0.1680526E-003  0.9118800E+02  0.7818608E-02  0.1130116E+00
         25   -1    0    0    0    0  0.00000000000E+00  0.00000000000E+00  0.99999998245E-14  0.12500000000E+03  0.12500000000E+03 0.  0.
        -13    1    3    3    0    0  0.21339305909E+02 -0.30378239357E+02 -0.27814413059E+01  0.37228362613E+02  0.10566000000E+00 0.  1.
         23    2    1    0    0    0 -0.55929877723E+01  0.16728752628E+02  0.21933013977E+02  0.96854133894E+02  0.92674340966E+02 0.  0.
         13    1    3    3    0    0 -0.26932293681E+02  0.47106991985E+02  0.24714455283E+02  0.59625771281E+02  0.10566000000E+00 0. -1.
         22    1    1    0    0    0  0.55929877723E+01 -0.16728752628E+02 -0.21933013977E+02  0.28145866106E+02  0.00000000000E+00 0. -1.
</event>
<event>
 5    1  0.1680526E-003  0.9118800E+02  0.7818608E-02  0.1130116E+00
         25   -1    0    0    0    0  0.00000000000E+00  0.00000000000E+00  0.99999998245E-14  0.12500000000E+03  0.12500000000E+03 0.  0.
        -13    1    3    3    0    0  0.40002618908E+02 -0.14584531328E+02  0.41197435975E+02  0.59246586134E+02  0.10566000000E+00 0.  1.
         23    2    1    0    0    0  0.95784727300E+01  0.16613263682E+01  0.26564693068E+02  0.96712369082E+02  0.92482929617E+02 0.  0.
         13    1    3    3    0    0 -0.30424146178E+02  0.16245857696E+02 -0.14632742907E+02  0.37465782948E+02  0.10566000000E+00 0. -1.
         22    1    1    0    0    0 -0.95784727300E+01 -0.16613263682E+01 -0.26564693068E+02  0.28287630918E+02  0.00000000000E+00 0.  1.
</event>
<event>
 5    1  0.1680526E-003  0.9118800E+02  0.7818608E-02  0.1130116E+00
         25   -1    0    0    0    0  0.00000000000E+00  0.00000000000E+00  0.99999998245E-14  0.12500000000E+03  0.12500000000E+03 0.  0.
        -13    1    3    3    0    0 -0.31435704990E+02  0.27780022516E+02 -0.26276196892E+02  0.49501342268E+02  0.10566000000E+00 0. -1.
         23    2    1    0    0    0 -0.29254490495E+02  0.99232912280E+01  0.12051330119E+02  0.91840816045E+02  0.85645805568E+02 0.  0.
         13    1    3    3    0    0  0.21812144955E+01 -0.17856731288E+02  0.38327527011E+02  0.42339473777E+02  0.10566000000E+00 0.  1.
         22    1    1    0    0    0  0.29254490495E+02 -0.99232912280E+01 -0.12051330119E+02  0.33159183955E+02  0.00000000000E+00 0. -1.
</event>
<event>
 5    1  0.1680526E-003  0.9118800E+02  0.7818608E-02  0.1130116E+00
         25   -1    0    0    0    0  0.00000000000E+00  0.00000000000E+00  0.99999998245E-14  0.12500000000E+03  0.12500000000E+03 0.  0.
        -13    1    3    3    0    0  0.54971932147E+02  0.24621530537E+02 -0.11693745073E+02  0.61358682579E+02  0.10566000000E+00 0.  1.
         23    2    1    0    0    0  0.20703966063E+02  0.10156030187E+02 -0.12903728759E+02  0.98574531683E+02  0.94966483144E+02 0.  0.
         13    1    3    3    0    0 -0.34267966085E+02 -0.14465500350E+02 -0.12099836856E+01  0.37215849104E+02  0.10566000000E+00 0. -1.
         22    1    1    0    0    0 -0.20703966063E+02 -0.10156030187E+02  0.12903728759E+02  0.26425468317E+02  0.00000000000E+00 0.  1.
</event>
<event>
 5    1  0.1680526E-003  0.9118800E+02  0.7818608E-02  0.1130116E+00
         25   -1    0    0    0    0  0.00000000000E+00  0.00000000000E+00  0.99999998245E-14  0.12500000000E+03  0.12500000000E+03 0.  0.
        -13    1    3    3    0    0  0.10886399440E+02  0.32380098299E+02  0.10190420830E+02  0.35648847097E+02  0.10566000000E+00 0.  1.
         23    2    1    0    0    0  0.98274868617E+01 -0.25992109389E+02  0.13463141959E+02  0.94122412012E+02  0.88913457941E+02 0.  0.
         13    1    3    3    0    0 -0.10589125785E+01 -0.58372207688E+02  0.32727211291E+01  0.58473564915E+02  0.10566000000E+00 0. -1.
         22    1    1    0    0    0 -0.98274868617E+01  0.25992109389E+02 -0.13463141959E+02  0.30877587988E+02  0.00000000000E+00 0. -1.
</event>
<event>
 5    1  0.1680526E-003  0.9118800E+02  0.7818608E-02  0.1130116E+00
         25   -1    0    0    0    0  0.00000000000E+00  0.00000000000E+00  0.99999998245E-14  0.12500000000E+03  0.12500000000E+03 0.  0.
        -13    1    3    3    0    0  0.15570668071E+02  0.21150798828E+01 -0.27105164971E+02  0.31330821873E+02  0.10566000000E+00 0. -1.
         23    2    1    0    0    0 -0.29704080684E+02 -0.52216181863E+00  0.13651238268E+02  0.92305025333E+02  0.86320659944E+02 0.  0.
         13    1    3    3    0    0 -0.45274748755E+02 -0.26372417014E+01  0.40756403239E+02  0.60974203460E+02  0.10566000000E+00 0.  1.
         22    1    1    0    0    0  0.29704080684E+02  0.52216181863E+00 -0.13651238268E+02  0.32694974667E+02  0.00000000000E+00 0.  1.
</event>
<event>
 5    1  0.1680526E-003  0.9118800E+02  0.7818608E-02  0.1130116E+00
         25   -1    0    0    0    0  0.00000000000E+00  0.00000000000E+00  0.99999998245E-14  0.12500000000E+03  0.12500000000E+03 0.  0.
        -13    1    3    3    0    0  0.48436149203E+02 -0.15580798114E+02  0.35782592469E+02  0.62203110110E+02  0.10566000000E+00 0. -1.
         23    2    1    0    0    0  0.18342216875E+02 -0.99980973524E+01  0.16514797624E+02  0.98370365923E+02  0.94697367866E+02 0.  0.
         13    1    3    3    0    0 -0.30093932329E+02  0.55827007614E+01 -0.19267794845E+02  0.36167255813E+02  0.10566000000E+00 0.  1.
         22    1    1    0    0    0 -0.18342216875E+02  0.99980973524E+01 -0.16514797624E+02  0.26629634077E+02  0.00000000000E+00 0. -1.
</event>
<event>
 5    1  0.1680526E-003  0.9118800E+02  0.7818608E-02  0.1130116E+00
         25   -1    0    0    0    0  0.00000000000E+00  0.00000000000E+00  0.99999998245E-14  0.12500000000E+03  0.12500000000E+03 0.  0.
        -13    1    3    3    0    0  0.25961330273E+02 -0.10958738139E+02  0.20853797009E+02  0.35056762898E+02  0.10566000000E+00 0.  1.
         23    2    1    0    0    0 -0.23665563878E+02 -0.47640964579E+01 -0.14987355867E+02  0.96585631019E+02  0.92311471414E+02 0.  0.
         13    1    3    3    0    0 -0.49626894151E+02  0.61946416813E+01 -0.35841152876E+02  0.61528868120E+02  0.10566000000E+00 0. -1.
         22    1    1    0    0    0  0.23665563878E+02  0.47640964579E+01  0.14987355867E+02  0.28414368981E+02  0.00000000000E+00 0. -1.
</event>
<event>
 5    1  0.1680526E-003  0.9118800E+02  0.7818608E-02  0.1130116E+00
         25   -1    0    0    0    0  0.00000000000E+00  0.00000000000E+00  0.99999998245E-14  0.12500000000E+03  0.12500000000E+03 0.  0.
        -13    1    3    3    0    0  0.12850751722E+02 -0.31373269656E+02  0.15027278340E+02  0.37084418926E+02  0.10566000000E+00 0. -1.
         23    2    1    0    0    0 -0.21329444062E+02  0.16962228065E+02  0.73074057445E+01  0.96785455104E+02  0.92581660042E+02 0.  0.
         13    1    3    3    0    0 -0.34180195784E+02  0.48335497722E+02 -0.77198725953E+01  0.59701036178E+02  0.10566000000E+00 0.  1.
         22    1    1    0    0    0  0.21329444062E+02 -0.16962228065E+02 -0.73074057445E+01  0.28214544896E+02  0.00000000000E+00 0.  1.
</event>
<event>
 5    1  0.1680526E-003  0.9118800E+02  0.7818608E-02  0.1130116E+00
         25   -1    0    0    0    0  0.00000000000E+00  0.00000000000E+00  0.99999998245E-14  0.12500000000E+03  0.12500000000E+03 0.  0.
        -13    1    3    3    0    0 -0.32096100761E+02 -0.24298272828E+02 -0.27519943182E+02  0.48763963982E+02  0.10566000000E+00 0.  1.
         23    2    1    0    0    0  0.12810658345E+02 -0.22147818902E+02 -0.14598404731E+02  0.95542364826E+02  0.90887794596E+02 0.  0.
         13    1    3    3    0    0  0.44906759107E+02  0.21504539264E+01  0.12921538451E+02  0.46778400844E+02  0.10566000000E+00 0. -1.
         22    1    1    0    0    0 -0.12810658345E+02  0.22147818902E+02  0.14598404731E+02  0.29457635174E+02  0.00000000000E+00 0.  1.
</event>
<event>
 5    1  0.1680526E-003  0.9118800E+02  0.7818608E-02  0.1130116E+00
         25   -1    0    0    0    0  0.00000000000E+00  0.00000000000E+00  0.99999998245E-14  0.12500000000E+03  0.12500000000E+03 0.  0.
        -13    1    3    3    0    0  0.26132705916E+02  0.44521929698E+02  0.11344091782E+02  0.52856599634E+02  0.10566000000E+00 0.  1.
         23    2    1    0    0    0  0.23392059340E+02 -0.80532494238E+00  0.12863559620E+02  0.98292170538E+02  0.94594094079E+02 0.  0.
         13    1    3    3    0    0 -0.27406465754E+01 -0.45327254640E+02  0.15194678381E+01  0.45435570904E+02  0.10566000000E+00 0. -1.
         22    1    1    0    0    0 -0.23392059340E+02  0.80532494238E+00 -0.12863559620E+02  0.26707829462E+02  0.00000000000E+00 0.  1.
</event>
<event>
 5    1  0.1680526E-003  0.9118800E+02  0.7818608E-02  0.1130116E+00
         25   -1    0    0    0    0  0.00000000000E+00  0.00000000000E+00  0.99999998245E-14  0.12500000000E+03  0.12500000000E+03 0.  0.
        -13    1    3    3    0    0  0.43028946139E+02  0.21473016889E+02  0.30582243842E+02  0.56990047049E+02  0.10566000000E+00 0.  1.
         23    2    1    0    0    0  0.29011788329E+02 -0.43075904139E+01  0.64836147359E+01  0.94962083007E+02  0.90086185132E+02 0.  0.
         13    1    3    3    0    0 -0.14017157810E+02 -0.25780607303E+02 -0.24098629106E+02  0.37972035958E+02  0.10566000000E+00 0. -1.
         22    1    1    0    0    0 -0.29011788329E+02  0.43075904139E+01 -0.64836147359E+01  0.30037916993E+02  0.00000000000E+00 0.  1.
</event>
<event>
 5    1  0.1680526E-003  0.9118800E+02  0.7818608E-02  0.1130116E+00
         25   -1    0    0    0    0  0.00000000000E+00  0.00000000000E+00  0.99999998245E-14  0.12500000000E+03  0.12500000000E+03 0.  0.
        -13    1    3    3    0    0 -0.39297892337E+01  0.26653169590E+02  0.38517982471E+02  0.47005114938E+02  0.10566000000E+00 0.  1.
         23    2    1    0    0    0 -0.88562156556E+01  0.23837924484E+02 -0.11319438912E+02  0.97164610713E+02  0.93092173024E+02 0.  0.
         13    1    3    3    0    0 -0.49264264219E+01 -0.28152451063E+01 -0.49837421383E+02  0.50159495776E+02  0.10566000000E+00 0. -1.
         22    1    1    0    0    0  0.88562156556E+01 -0.23837924484E+02  0.11319438912E+02  0.27835389287E+02  0.00000000000E+00 0.  1.
</event>
<event>
 5    1  0.1680526E-003  0.9118800E+02  0.7818608E-02  0.1130116E+00
         25   -1    0    0    0    0  0.00000000000E+00  0.00000000000E+00  0.99999998245E-14  0.12500000000E+03  0.12500000000E+03 0.  0.
        -13    1    3    3    0    0 -0.17364961388E+02 -0.89542050974E+01  0.31459214610E+02  0.37032594033E+02  0.10566000000E+00 0.  1.
         23    2    1    0    0    0  0.26349284624E+02 -0.38167929946E+01 -0.90778535096E+01  0.96870653521E+02  0.92696620113E+02 0.  0.
         13    1    3    3    0    0  0.43714246012E+02  0.51374121028E+01 -0.40537068119E+02  0.59838059488E+02  0.10566000000E+00 0. -1.
         22    1    1    0    0    0 -0.26349284624E+02  0.38167929946E+01  0.90778535096E+01  0.28129346479E+02  0.00000000000E+00 0. -1.
</event>
<event>
 5    1  0.1680526E-003  0.9118800E+02  0.7818608E-02  0.1130116E+00
         25   -1    0    0    0    0  0.00000000000E+00  0.00000000000E+00  0.99999998245E-14  0.12500000000E+03  0.12500000000E+03 0.  0.
        -13    1    3    3    0    0 -0.43262648697E+02  0.28307389565E+02 -0.90903209169E+01  0.52493906072E+02  0.10566000000E+00 0.  1.
         23    2    1    0    0    0 -0.11531507496E+02  0.15338109899E+02 -0.27548448783E+02  0.91426940700E+02  0.85039609448E+02 0.  0.
         13    1    3    3    0    0  0.31731141201E+02 -0.12969279666E+02 -0.18458127866E+02  0.38933034628E+02  0.10566000000E+00 0. -1.
         22    1    1    0    0    0  0.11531507496E+02 -0.15338109899E+02  0.27548448783E+02  0.33573059300E+02  0.00000000000E+00 0.  1.
</event>
<event>
 5    1  0.1680526E-003  0.9118800E+02  0.7818608E-02  0.1130116E+00
         25   -1    0    0    0    0  0.00000000000E+00  0.00000000000E+00  0.99999998245E-14  0.12500000000E+03  0.12500000000E+03 0.  0.
        -13    1    3    3    0    0 -0.21775086956E+02  0.27501276384E+02 -0.74585554828E+01  0.35862457091E+02  0.10566000000E+00 0.  1.
         23    2    1    0    0    0  0.25572996149E+02 -0.81368771790E+00  0.14902282742E+02  0.95390571591E+02  0.90678789680E+02 0.  0.
         13    1    3    3    0    0  0.47348083105E+02 -0.28314964102E+02  0.22360838225E+02  0.59528114500E+02  0.10566000000E+00 0. -1.
         22    1    1    0    0    0 -0.25572996149E+02  0.81368771790E+00 -0.14902282742E+02  0.29609428409E+02  0.00000000000E+00 0.  1.
</event>
<event>
 5    1  0.1680526E-003  0.9118800E+02  0.7818608E-02  0.1130116E+00
         25   -1    0    0    0    0  0.00000000000E+00  0.00000000000E+00  0.99999998245E-14  0.12500000000E+03  0.12500000000E+03 0.  0.
        -13    1    3    3    0    0  0.66951849882E+01  0.32234638971E+02  0.31140378130E+02  0.45317014087E+02  0.10566000000E+00 0. -1.
         23    2    1    0    0    0 -0.28030707484E+02  0.72408486569E+01  0.45450807464E+01  0.95694570293E+02  0.91096885639E+02 0.  0.
         13    1    3    3    0    0 -0.34725892472E+02 -0.24993790314E+02 -0.26595297384E+02  0.50377556206E+02  0.10566000000E+00 0.  1.
         22    1    1    0    0    0  0.28030707484E+02 -0.72408486569E+01 -0.45450807464E+01  0.29305429707E+02  0.00000000000E+00 0.  1.
</event>
<event>
 5    1  0.1680526E-003  0.9118800E+02  0.7818608E-02  0.1130116E+00
         25   -1    0    0    0    0  0.00000000000E+00  0.00000000000E+00  0.99999998245E-14  0.12500000000E+03  0.12500000000E+03 0.  0.
        -13    1    3    3    0    0 -0.99380652590E+01  0.29131643105E+02  0.43658792305E+01  0.31088419654E+02  0.10566000000E+00 0.  1.
         23    2    1    0    0    0  0.27233191646E+02 -0.18838203324E+02  0.21963682171E+01  0.91813426434E+02  0.85605821113E+02 0.  0.
         13    1    3    3    0    0  0.37171256905E+02 -0.47969846429E+02 -0.21695110134E+01  0.60725006780E+02  0.10566000000E+00 0. -1.
         22    1    1    0    0    0 -0.27233191646E+02  0.18838203324E+02 -0.21963682171E+01  0.33186573566E+02  0.00000000000E+00 0. -1.
</event>
<event>
 5    1  0.1680526E-003  0.9118800E+02  0.7818608E-02  0.1130116E+00
         25   -1    0    0    0    0  0.00000000000E+00  0.00000000000E+00  0.99999998245E-14  0.12500000000E+03  0.12500000000E+03 0.  0.
        -13    1    3    3    0    0  0.23135002340E+02  0.16053573624E+02  0.94843176877E+01  0.29713784771E+02  0.10566000000E+00 0.  1.
         23    2    1    0    0    0 -0.16555806538E+02 -0.16256713215E+02 -0.24584108689E+02  0.91195357497E+02  0.84698520497E+02 0.  0.
         13    1    3    3    0    0 -0.39690808878E+02 -0.32310286839E+02 -0.34068426377E+02  0.61481572726E+02  0.10566000000E+00 0. -1.
         22    1    1    0    0    0  0.16555806538E+02  0.16256713215E+02  0.24584108689E+02  0.33804642503E+02  0.00000000000E+00 0. -1.
</event>
<event>
 5    1  0.1680526E-003  0.9118800E+02  0.7818608E-02  0.1130116E+00
         25   -1    0    0    0    0  0.00000000000E+00  0.00000000000E+00  0.99999998245E-14  0.12500000000E+03  0.12500000000E+03 0.  0.
        -13    1    3    3    0    0 -0.38160242358E+01  0.46177718161E+02  0.38101839595E+02  0.59989207697E+02  0.10566000000E+00 0. -1.
         23    2    1    0    0    0  0.50296503200E+00  0.28012736555E+02  0.72356147823E+01  0.96063509121E+02  0.91601731863E+02 0.  0.
         13    1    3    3    0    0  0.43189892678E+01 -0.18164981606E+02 -0.30866224813E+02  0.36074301425E+02  0.10566000000E+00 0.  1.
         22    1    1    0    0    0 -0.50296503200E+00 -0.28012736555E+02 -0.72356147823E+01  0.28936490879E+02  0.00000000000E+00 0. -1.
</event>
<event>
 5    1  0.1680526E-003  0.9118800E+02  0.7818608E-02  0.1130116E+00
         25   -1    0    0    0    0  0.00000000000E+00  0.00000000000E+00  0.99999998245E-14  0.12500000000E+03  0.12500000000E+03 0.  0.
        -13    1    3    3    0    0  0.47796866871E+02 -0.13125606782E+01  0.32188086766E+02  0.57639807355E+02  0.10566000000E+00 0.  1.
         23    2    1    0    0    0  0.28536518342E+02 -0.59623440742E+01 -0.47565531088E+00  0.95843376843E+02  0.91300844523E+02 0.  0.
         13    1    3    3    0    0 -0.19260348528E+02 -0.46497833960E+01 -0.32663742077E+02  0.38203569488E+02  0.10566000000E+00 0. -1.
         22    1    1    0    0    0 -0.28536518342E+02  0.59623440742E+01  0.47565531088E+00  0.29156623157E+02  0.00000000000E+00 0.  1.
</event>
<event>
 5    1  0.1680526E-003  0.9118800E+02  0.7818608E-02  0.1130116E+00
         25   -1    0    0    0    0  0.00000000000E+00  0.00000000000E+00  0.99999998245E-14  0.12500000000E+03  0.12500000000E+03 0.  0.
        -13    1    3    3    0    0  0.18195909444E+01 -0.94348607359E+01 -0.27900920158E+02  0.29509320867E+02  0.10566000000E+00 0.  1.
         23    2    1    0    0    0  0.92704060865E+01  0.19380334132E+02  0.26115927064E+02  0.91183148779E+02  0.84680500677E+02 0.  0.
         13    1    3    3    0    0  0.74508151421E+01  0.28815194868E+02  0.54016847222E+02  0.61673827913E+02  0.10566000000E+00 0. -1.
         22    1    1    0    0    0 -0.92704060865E+01 -0.19380334132E+02 -0.26115927064E+02  0.33816851221E+02  0.00000000000E+00 0. -1.
</event>
<event>
 5    1  0.1680526E-003  0.9118800E+02  0.7818608E-02  0.1130116E+00
         25   -1    0    0    0    0  0.00000000000E+00  0.00000000000E+00  0.99999998245E-14  0.12500000000E+03  0.12500000000E+03 0.  0.
        -13    1    3    3    0    0  0.51043315878E+02 -0.71000839906E+01 -0.14698313712E+02  0.53589951283E+02  0.10566000000E+00 0.  1.
         23    2    1    0    0    0  0.27553948258E+02  0.19897682591E+02 -0.91406292101E+01  0.89804987009E+02  0.82621103552E+02 0.  0.
         13    1    3    3    0    0 -0.23489367620E+02  0.26997766582E+02  0.55576845017E+01  0.36215035726E+02  0.10566000000E+00 0. -1.
         22    1    1    0    0    0 -0.27553948258E+02 -0.19897682591E+02  0.91406292101E+01  0.35195012991E+02  0.00000000000E+00 0.  1.
</event>
<event>
 5    1  0.1680526E-003  0.9118800E+02  0.7818608E-02  0.1130116E+00
         25   -1    0    0    0    0  0.00000000000E+00  0.00000000000E+00  0.99999998245E-14  0.12500000000E+03  0.12500000000E+03 0.  0.
        -13    1    3    3    0    0  0.23055502946E+02  0.32734710157E+02 -0.45688623686E+02  0.60750135502E+02  0.10566000000E+00 0. -1.
         23    2    1    0    0    0  0.52465406792E+01  0.13642964257E+02 -0.31047285658E+02  0.90683959879E+02  0.83940395340E+02 0.  0.
         13    1    3    3    0    0 -0.17808962267E+02 -0.19091745900E+02  0.14641338028E+02  0.29933824377E+02  0.10566000000E+00 0.  1.
         22    1    1    0    0    0 -0.52465406792E+01 -0.13642964257E+02  0.31047285658E+02  0.34316040121E+02  0.00000000000E+00 0. -1.
</event>
<event>
 5    1  0.1680526E-003  0.9118800E+02  0.7818608E-02  0.1130116E+00
         25   -1    0    0    0    0  0.00000000000E+00  0.00000000000E+00  0.99999998245E-14  0.12500000000E+03  0.12500000000E+03 0.  0.
        -13    1    3    3    0    0 -0.25345041993E+02 -0.29133650405E+02  0.19021147910E+02  0.43045975090E+02  0.10566000000E+00 0.  1.
         23    2    1    0    0    0 -0.19548825350E+02  0.21321354128E+02  0.72088633118E+01  0.95188518576E+02  0.90399832102E+02 0.  0.
         13    1    3    3    0    0  0.57962166435E+01  0.50455004533E+02 -0.11812284598E+02  0.52142543487E+02  0.10566000000E+00 0. -1.
         22    1    1    0    0    0  0.19548825350E+02 -0.21321354128E+02 -0.72088633118E+01  0.29811481424E+02  0.00000000000E+00 0. -1.
</event>
<event>
 5    1  0.1680526E-003  0.9118800E+02  0.7818608E-02  0.1130116E+00
         25   -1    0    0    0    0  0.00000000000E+00  0.00000000000E+00  0.99999998245E-14  0.12500000000E+03  0.12500000000E+03 0.  0.
        -13    1    3    3    0    0  0.23546826232E+02  0.32960210912E+02 -0.54668010714E+01  0.40874510479E+02  0.10566000000E+00 0.  1.
         23    2    1    0    0    0  0.17021553227E+02 -0.20964966470E+02  0.79951415458E+01  0.96836452963E+02  0.92650489695E+02 0.  0.
         13    1    3    3    0    0 -0.65252730044E+01 -0.53925177382E+02  0.13461942617E+02  0.55961942484E+02  0.10566000000E+00 0. -1.
         22    1    1    0    0    0 -0.17021553227E+02  0.20964966470E+02 -0.79951415458E+01  0.28163547037E+02  0.00000000000E+00 0. -1.
</event>
<event>
 5    1  0.1680526E-003  0.9118800E+02  0.7818608E-02  0.1130116E+00
         25   -1    0    0    0    0  0.00000000000E+00  0.00000000000E+00  0.99999998245E-14  0.12500000000E+03  0.12500000000E+03 0.  0.
        -13    1    3    3    0    0 -0.14247997376E+02 -0.99245540763E+01  0.32403669458E+02  0.36762904690E+02  0.10566000000E+00 0.  1.
         23    2    1    0    0    0  0.23105973605E+02 -0.89537186916E+01 -0.14154973352E+02  0.96461983860E+02  0.92143887290E+02 0.  0.
         13    1    3    3    0    0  0.37353970981E+02  0.97083538476E+00 -0.46558642810E+02  0.59699079170E+02  0.10566000000E+00 0. -1.
         22    1    1    0    0    0 -0.23105973605E+02  0.89537186916E+01  0.14154973352E+02  0.28538016140E+02  0.00000000000E+00 0. -1.
</event>
<event>
 5    1  0.1680526E-003  0.9118800E+02  0.7818608E-02  0.1130116E+00
         25   -1    0    0    0    0  0.00000000000E+00  0.00000000000E+00  0.99999998245E-14  0.12500000000E+03  0.12500000000E+03 0.  0.
        -13    1    3    3    0    0  0.73830267295E+01 -0.25193417090E+01  0.54787266970E+02  0.55339967043E+02  0.10566000000E+00 0. -1.
         23    2    1    0    0    0  0.19038512612E+02  0.12022534290E+02  0.19645698320E+02  0.95117567774E+02  0.90301671876E+02 0.  0.
         13    1    3    3    0    0  0.11655485882E+02  0.14541875999E+02 -0.35141568649E+02  0.39777600731E+02  0.10566000000E+00 0.  1.
         22    1    1    0    0    0 -0.19038512612E+02 -0.12022534290E+02 -0.19645698320E+02  0.29882432226E+02  0.00000000000E+00 0. -1.
</event>
<event>
 5    1  0.1680526E-003  0.9118800E+02  0.7818608E-02  0.1130116E+00
         25   -1    0    0    0    0  0.00000000000E+00  0.00000000000E+00  0.99999998245E-14  0.12500000000E+03  0.12500000000E+03 0.  0.
        -13    1    3    3    0    0 -0.53496303320E+02 -0.97206944785E+01  0.44561779417E+01  0.54554697835E+02  0.10566000000E+00 0.  1.
         23    2    1    0    0    0 -0.27274704616E+02 -0.14797182398E+02  0.22398467155E+02  0.86730463163E+02  0.77830686691E+02 0.  0.
         13    1    3    3    0    0  0.26221598704E+02 -0.50764879195E+01  0.17942289213E+02  0.32175765328E+02  0.10566000000E+00 0. -1.
         22    1    1    0    0    0  0.27274704616E+02  0.14797182398E+02 -0.22398467155E+02  0.38269536837E+02  0.00000000000E+00 0.  1.
</event>
<event>
 5    1  0.1680526E-003  0.9118800E+02  0.7818608E-02  0.1130116E+00
         25   -1    0    0    0    0  0.00000000000E+00  0.00000000000E+00  0.99999998245E-14  0.12500000000E+03  0.12500000000E+03 0.  0.
        -13    1    3    3    0    0 -0.28978272995E+02 -0.42309326972E+02  0.26542352781E+02  0.57743632635E+02  0.10566000000E+00 0.  1.
         23    2    1    0    0    0 -0.72936299386E+01 -0.11256412082E+02  0.26138713447E+02  0.95620820445E+02  0.90995632375E+02 0.  0.
         13    1    3    3    0    0  0.21684643057E+02  0.31052914891E+02 -0.40363933374E+00  0.37877187811E+02  0.10566000000E+00 0. -1.
         22    1    1    0    0    0  0.72936299386E+01  0.11256412082E+02 -0.26138713447E+02  0.29379179555E+02  0.00000000000E+00 0.  1.
</event>
<event>
 5    1  0.1680526E-003  0.9118800E+02  0.7818608E-02  0.1130116E+00
         25   -1    0    0    0    0  0.00000000000E+00  0.00000000000E+00  0.99999998245E-14  0.12500000000E+03  0.12500000000E+03 0.  0.
        -13    1    3    3    0    0 -0.11130418091E+02 -0.10123575706E+02 -0.29974939867E+02  0.33539248293E+02  0.10566000000E+00 0.  1.
         23    2    1    0    0    0 -0.30554029197E+01  0.37081026743E+01  0.29488832875E+02  0.95122303021E+02  0.90308226398E+02 0.  0.
         13    1    3    3    0    0  0.80750151712E+01  0.13831678380E+02  0.59463772742E+02  0.61583054728E+02  0.10566000000E+00 0. -1.
         22    1    1    0    0    0  0.30554029197E+01 -0.37081026743E+01 -0.29488832875E+02  0.29877696979E+02  0.00000000000E+00 0. -1.
</event>
<event>
 5    1  0.1680526E-003  0.9118800E+02  0.7818608E-02  0.1130116E+00
         25   -1    0    0    0    0  0.00000000000E+00  0.00000000000E+00  0.99999998245E-14  0.12500000000E+03  0.12500000000E+03 0.  0.
        -13    1    3    3    0    0 -0.37960442351E+01  0.37155616030E+02  0.34659460084E+02  0.50953303050E+02  0.10566000000E+00 0. -1.
         23    2    1    0    0    0  0.26257038270E+00 -0.77446381330E+01  0.27285065880E+02  0.96635882120E+02  0.92379491934E+02 0.  0.
         13    1    3    3    0    0  0.40586146178E+01 -0.44900254163E+02 -0.73743942033E+01  0.45682579070E+02  0.10566000000E+00 0.  1.
         22    1    1    0    0    0 -0.26257038270E+00  0.77446381330E+01 -0.27285065880E+02  0.28364117880E+02  0.00000000000E+00 0. -1.
</event>
<event>
 5    1  0.1680526E-003  0.9118800E+02  0.7818608E-02  0.1130116E+00
         25   -1    0    0    0    0  0.00000000000E+00  0.00000000000E+00  0.99999998245E-14  0.12500000000E+03  0.12500000000E+03 0.  0.
        -13    1    3    3    0    0 -0.17257684303E+02  0.38495648943E+02 -0.41856856978E+02  0.59428530986E+02  0.10566000000E+00 0. -1.
         23    2    1    0    0    0 -0.20285901974E+02  0.12691639491E+02 -0.15204798724E+02  0.96648960582E+02  0.92397186892E+02 0.  0.
         13    1    3    3    0    0 -0.30282176705E+01 -0.25804009452E+02  0.26652058254E+02  0.37220429596E+02  0.10566000000E+00 0.  1.
         22    1    1    0    0    0  0.20285901974E+02 -0.12691639491E+02  0.15204798724E+02  0.28351039418E+02  0.00000000000E+00 0. -1.
</event>
<event>
 5    1  0.1680526E-003  0.9118800E+02  0.7818608E-02  0.1130116E+00
         25   -1    0    0    0    0  0.00000000000E+00  0.00000000000E+00  0.99999998245E-14  0.12500000000E+03  0.12500000000E+03 0.  0.
        -13    1    3    3    0    0  0.35069725936E+02  0.47247024009E+02 -0.14464125993E+02  0.60591988412E+02  0.10566000000E+00 0.  1.
         23    2    1    0    0    0  0.23900136194E+02  0.14510968112E+02 -0.91079728266E+01  0.95593540256E+02  0.90958150070E+02 0.  0.
         13    1    3    3    0    0 -0.11169589742E+02 -0.32736055897E+02  0.53561531663E+01  0.35001551844E+02  0.10566000000E+00 0. -1.
         22    1    1    0    0    0 -0.23900136194E+02 -0.14510968112E+02  0.91079728266E+01  0.29406459744E+02  0.00000000000E+00 0.  1.
</event>
<event>
 5    1  0.1680526E-003  0.9118800E+02  0.7818608E-02  0.1130116E+00
         25   -1    0    0    0    0  0.00000000000E+00  0.00000000000E+00  0.99999998245E-14  0.12500000000E+03  0.12500000000E+03 0.  0.
        -13    1    3    3    0    0 -0.17518871034E+02 -0.20230488269E+02 -0.13725510955E+02  0.30076308166E+02  0.10566000000E+00 0.  1.
         23    2    1    0    0    0 -0.29076677224E+01  0.15529643472E+02  0.31624140106E+02  0.89648753976E+02  0.82384394724E+02 0.  0.
         13    1    3    3    0    0  0.14611203312E+02  0.35760131741E+02  0.45349651061E+02  0.59572445810E+02  0.10566000000E+00 0. -1.
         22    1    1    0    0    0  0.29076677224E+01 -0.15529643472E+02 -0.31624140106E+02  0.35351246024E+02  0.00000000000E+00 0. -1.
</event>
<event>
 5    1  0.1680526E-003  0.9118800E+02  0.7818608E-02  0.1130116E+00
         25   -1    0    0    0    0  0.00000000000E+00  0.00000000000E+00  0.99999998245E-14  0.12500000000E+03  0.12500000000E+03 0.  0.
        -13    1    3    3    0    0 -0.13691751414E+02  0.15247248263E+02 -0.31646880526E+02  0.37702504524E+02  0.10566000000E+00 0.  1.
         23    2    1    0    0    0  0.21199359707E+02 -0.20256017948E+02 -0.20671266452E+01  0.95606256998E+02  0.90975624480E+02 0.  0.
         13    1    3    3    0    0  0.34891111120E+02 -0.35503266211E+02  0.29579753880E+02  0.57903752474E+02  0.10566000000E+00 0. -1.
         22    1    1    0    0    0 -0.21199359707E+02  0.20256017948E+02  0.20671266452E+01  0.29393743002E+02  0.00000000000E+00 0. -1.
</event>
<event>
 5    1  0.1680526E-003  0.9118800E+02  0.7818608E-02  0.1130116E+00
         25   -1    0    0    0    0  0.00000000000E+00  0.00000000000E+00  0.99999998245E-14  0.12500000000E+03  0.12500000000E+03 0.  0.
        -13    1    3    3    0    0  0.20179388797E+02 -0.22537117777E+02 -0.18345875433E+02  0.35379538145E+02  0.10566000000E+00 0.  1.
         23    2    1    0    0    0 -0.13848255562E+02  0.25248785937E+02 -0.93141308645E+01  0.94734038803E+02  0.89769202407E+02 0.  0.
         13    1    3    3    0    0 -0.34027644358E+02  0.47785903714E+02  0.90317445686E+01  0.59354500658E+02  0.10566000000E+00 0. -1.
         22    1    1    0    0    0  0.13848255562E+02 -0.25248785937E+02  0.93141308645E+01  0.30265961197E+02  0.00000000000E+00 0. -1.
</event>
<event>
 5    1  0.1680526E-003  0.9118800E+02  0.7818608E-02  0.1130116E+00
         25   -1    0    0    0    0  0.00000000000E+00  0.00000000000E+00  0.99999998245E-14  0.12500000000E+03  0.12500000000E+03 0.  0.
        -13    1    3    3    0    0  0.32940628522E+02  0.58909636460E+01  0.16111005528E+01  0.33502168125E+02  0.10566000000E+00 0. -1.
         23    2    1    0    0    0 -0.27437422509E+02  0.10689786896E+02  0.82139240981E+01  0.94429552720E+02  0.89344211788E+02 0.  0.
         13    1    3    3    0    0 -0.60378051030E+02  0.47988232495E+01  0.66028235453E+01  0.60927384595E+02  0.10566000000E+00 0.  1.
         22    1    1    0    0    0  0.27437422509E+02 -0.10689786896E+02 -0.82139240981E+01  0.30570447280E+02  0.00000000000E+00 0.  1.
</event>
<event>
 5    1  0.1680526E-003  0.9118800E+02  0.7818608E-02  0.1130116E+00
         25   -1    0    0    0    0  0.00000000000E+00  0.00000000000E+00  0.99999998245E-14  0.12500000000E+03  0.12500000000E+03 0.  0.
        -13    1    3    3    0    0 -0.22527145196E+02  0.28952452740E+02  0.61084364629E+01  0.37189258535E+02  0.10566000000E+00 0. -1.
         23    2    1    0    0    0 -0.15881562117E+02 -0.26696349398E+02 -0.22593154478E+01  0.93854798239E+02  0.88536430692E+02 0.  0.
         13    1    3    3    0    0  0.66455830787E+01 -0.55648802138E+02 -0.83677519107E+01  0.56665539704E+02  0.10566000000E+00 0.  1.
         22    1    1    0    0    0  0.15881562117E+02  0.26696349398E+02  0.22593154478E+01  0.31145201761E+02  0.00000000000E+00 0.  1.
</event>
<event>
 5    1  0.1680526E-003  0.9118800E+02  0.7818608E-02  0.1130116E+00
         25   -1    0    0    0    0  0.00000000000E+00  0.00000000000E+00  0.99999998245E-14  0.12500000000E+03  0.12500000000E+03 0.  0.
        -13    1    3    3    0    0 -0.18969447297E+02  0.56715825899E+02 -0.93973117349E+01  0.60537967178E+02  0.10566000000E+00 0.  1.
         23    2    1    0    0    0 -0.20216837355E+02  0.27933343231E+02 -0.11741737161E+01  0.90498248442E+02  0.83663385722E+02 0.  0.
         13    1    3    3    0    0 -0.12473900587E+01 -0.28782482668E+02  0.82231380187E+01  0.29960281264E+02  0.10566000000E+00 0. -1.
         22    1    1    0    0    0  0.20216837355E+02 -0.27933343231E+02  0.11741737161E+01  0.34501751558E+02  0.00000000000E+00 0.  1.
</event>
<event>
 5    1  0.1680526E-003  0.9118800E+02  0.7818608E-02  0.1130116E+00
         25   -1    0    0    0    0  0.00000000000E+00  0.00000000000E+00  0.99999998245E-14  0.12500000000E+03  0.12500000000E+03 0.  0.
        -13    1    3    3    0    0 -0.56206508617E+01  0.38459628914E+02  0.18722404155E+02  0.43142488960E+02  0.10566000000E+00 0. -1.
         23    2    1    0    0    0  0.29986874551E+02  0.51708257832E+01  0.11738133467E+02  0.92385066888E+02  0.86436489528E+02 0.  0.
         13    1    3    3    0    0  0.35607525413E+02 -0.33288803131E+02 -0.69842706878E+01  0.49242577928E+02  0.10566000000E+00 0.  1.
         22    1    1    0    0    0 -0.29986874551E+02 -0.51708257832E+01 -0.11738133467E+02  0.32614933112E+02  0.00000000000E+00 0.  1.
</event>
<event>
 5    1  0.1680526E-003  0.9118800E+02  0.7818608E-02  0.1130116E+00
         25   -1    0    0    0    0  0.00000000000E+00  0.00000000000E+00  0.99999998245E-14  0.12500000000E+03  0.12500000000E+03 0.  0.
        -13    1    3    3    0    0 -0.31718243408E+02  0.44796330225E+02 -0.18112291936E+02  0.57799865482E+02  0.10566000000E+00 0.  1.
         23    2    1    0    0    0  0.34754137966E+01  0.22516199495E+02 -0.93969736297E+01  0.10035530779E+03  0.97282202624E+02 0.  0.
         13    1    3    3    0    0  0.35193657205E+02 -0.22280130730E+02  0.87153183062E+01  0.42555442308E+02  0.10566000000E+00 0. -1.
         22    1    1    0    0    0 -0.34754137966E+01 -0.22516199495E+02  0.93969736297E+01  0.24644692210E+02  0.00000000000E+00 0.  1.
</event>
<event>
 5    1  0.1680526E-003  0.9118800E+02  0.7818608E-02  0.1130116E+00
         25   -1    0    0    0    0  0.00000000000E+00  0.00000000000E+00  0.99999998245E-14  0.12500000000E+03  0.12500000000E+03 0.  0.
        -13    1    3    3    0    0  0.27794830033E+01 -0.25975210129E+02 -0.28715589205E+02  0.38820526715E+02  0.10566000000E+00 0.  1.
         23    2    1    0    0    0 -0.76372261437E+01 -0.11669288827E+02  0.25546017709E+02  0.95895042592E+02  0.91371552729E+02 0.  0.
         13    1    3    3    0    0 -0.10416709147E+02  0.14305921302E+02  0.54261606914E+02  0.57074515878E+02  0.10566000000E+00 0. -1.
         22    1    1    0    0    0  0.76372261437E+01  0.11669288827E+02 -0.25546017709E+02  0.29104957408E+02  0.00000000000E+00 0. -1.
</event>
<event>
 5    1  0.1680526E-003  0.9118800E+02  0.7818608E-02  0.1130116E+00
         25   -1    0    0    0    0  0.00000000000E+00  0.00000000000E+00  0.99999998245E-14  0.12500000000E+03  0.12500000000E+03 0.  0.
        -13    1    3    3    0    0 -0.20077539895E+02  0.22761433801E+02 -0.49164384316E+02  0.57778355170E+02  0.10566000000E+00 0. -1.
         23    2    1    0    0    0 -0.22012794916E+02 -0.47812822376E+00 -0.18917885831E+02  0.95971080782E+02  0.91475516919E+02 0.  0.
         13    1    3    3    0    0 -0.19352550212E+01 -0.23239562025E+02  0.30246498485E+02  0.38192725613E+02  0.10566000000E+00 0.  1.
         22    1    1    0    0    0  0.22012794916E+02  0.47812822376E+00  0.18917885831E+02  0.29028919218E+02  0.00000000000E+00 0. -1.
</event>
<event>
 5    1  0.1680526E-003  0.9118800E+02  0.7818608E-02  0.1130116E+00
         25   -1    0    0    0    0  0.00000000000E+00  0.00000000000E+00  0.99999998245E-14  0.12500000000E+03  0.12500000000E+03 0.  0.
        -13    1    3    3    0    0 -0.43705668133E+02  0.26633942598E+02  0.30478999538E+02  0.59569563555E+02  0.10566000000E+00 0. -1.
         23    2    1    0    0    0 -0.28960220185E+02  0.12202487126E+02  0.37271096980E+01  0.93353730205E+02  0.87826149587E+02 0.  0.
         13    1    3    3    0    0  0.14745447948E+02 -0.14431455472E+02 -0.26751889840E+02  0.33784166650E+02  0.10566000000E+00 0.  1.
         22    1    1    0    0    0  0.28960220185E+02 -0.12202487126E+02 -0.37271096980E+01  0.31646269795E+02  0.00000000000E+00 0. -1.
</event>
<event>
 5    1  0.1680526E-003  0.9118800E+02  0.7818608E-02  0.1130116E+00
         25   -1    0    0    0    0  0.00000000000E+00  0.00000000000E+00  0.99999998245E-14  0.12500000000E+03  0.12500000000E+03 0.  0.
        -13    1    3    3    0    0  0.13934446158E+02  0.45538132733E+02 -0.17131574263E+02  0.50610199795E+02  0.10566000000E+00 0. -1.
         23    2    1    0    0    0  0.25721703216E+02  0.11600120872E+02  0.93858355816E+01  0.95263444548E+02  0.90503376385E+02 0.  0.
         13    1    3    3    0    0  0.11787257058E+02 -0.33938011861E+02  0.26517409845E+02  0.44653244753E+02  0.10566000000E+00 0.  1.
         22    1    1    0    0    0 -0.25721703216E+02 -0.11600120872E+02 -0.93858355816E+01  0.29736555452E+02  0.00000000000E+00 0.  1.
</event>
<event>
 5    1  0.1680526E-003  0.9118800E+02  0.7818608E-02  0.1130116E+00
         25   -1    0    0    0    0  0.00000000000E+00  0.00000000000E+00  0.99999998245E-14  0.12500000000E+03  0.12500000000E+03 0.  0.
        -13    1    3    3    0    0  0.50589068148E+02 -0.17667196163E+02 -0.79374867363E+00  0.53591275757E+02  0.10566000000E+00 0.  1.
         23    2    1    0    0    0  0.23789505019E+02  0.14222046699E+02  0.79740745570E+01  0.96159177778E+02  0.91732188705E+02 0.  0.
         13    1    3    3    0    0 -0.26799563128E+02  0.31889242863E+02  0.87678232306E+01  0.42567902021E+02  0.10566000000E+00 0. -1.
         22    1    1    0    0    0 -0.23789505019E+02 -0.14222046699E+02 -0.79740745570E+01  0.28840822222E+02  0.00000000000E+00 0. -1.
</event>
<event>
 5    1  0.1680526E-003  0.9118800E+02  0.7818608E-02  0.1130116E+00
         25   -1    0    0    0    0  0.00000000000E+00  0.00000000000E+00  0.99999998245E-14  0.12500000000E+03  0.12500000000E+03 0.  0.
        -13    1    3    3    0    0 -0.35088055125E+02  0.41769342691E+02 -0.10586050217E+02  0.55569103146E+02  0.10566000000E+00 0.  1.
         23    2    1    0    0    0 -0.13414736870E+02  0.20590461470E+02  0.15828473049E+02  0.95768803858E+02  0.91198689489E+02 0.  0.
         13    1    3    3    0    0  0.21673318255E+02 -0.21178881221E+02  0.26414523265E+02  0.40199700712E+02  0.10566000000E+00 0. -1.
         22    1    1    0    0    0  0.13414736870E+02 -0.20590461470E+02 -0.15828473049E+02  0.29231196142E+02  0.00000000000E+00 0.  1.
</event>
<event>
 5    1  0.1680526E-003  0.9118800E+02  0.7818608E-02  0.1130116E+00
         25   -1    0    0    0    0  0.00000000000E+00  0.00000000000E+00  0.99999998245E-14  0.12500000000E+03  0.12500000000E+03 0.  0.
        -13    1    3    3    0    0  0.32148450182E+02 -0.24767274196E+02  0.16833474230E+02  0.43935381402E+02  0.10566000000E+00 0.  1.
         23    2    1    0    0    0  0.17351752478E+02  0.23057347083E+02  0.99916672285E+01  0.94462187659E+02  0.89389859127E+02 0.  0.
         13    1    3    3    0    0 -0.14796697704E+02  0.47824621279E+02 -0.68418070019E+01  0.50526806257E+02  0.10566000000E+00 0. -1.
         22    1    1    0    0    0 -0.17351752478E+02 -0.23057347083E+02 -0.99916672285E+01  0.30537812341E+02  0.00000000000E+00 0. -1.
</event>
<event>
 5    1  0.1680526E-003  0.9118800E+02  0.7818608E-02  0.1130116E+00
         25   -1    0    0    0    0  0.00000000000E+00  0.00000000000E+00  0.99999998245E-14  0.12500000000E+03  0.12500000000E+03 0.  0.
        -13    1    3    3    0    0 -0.36219423584E+02 -0.68685493032E+01  0.23363932670E+02  0.43645253214E+02  0.10566000000E+00 0. -1.
         23    2    1    0    0    0  0.13725212626E+02 -0.21508196575E+02  0.11431847679E+02  0.97041618021E+02  0.92926877196E+02 0.  0.
         13    1    3    3    0    0  0.49944636209E+02 -0.14639647272E+02 -0.11932084991E+02  0.53396364807E+02  0.10566000000E+00 0.  1.
         22    1    1    0    0    0 -0.13725212626E+02  0.21508196575E+02 -0.11431847679E+02  0.27958381979E+02  0.00000000000E+00 0.  1.
</event>
<event>
 5    1  0.1680526E-003  0.9118800E+02  0.7818608E-02  0.1130116E+00
         25   -1    0    0    0    0  0.00000000000E+00  0.00000000000E+00  0.99999998245E-14  0.12500000000E+03  0.12500000000E+03 0.  0.
        -13    1    3    3    0    0  0.99308498876E+01 -0.37512856025E+02  0.26725896550E+02  0.47118158464E+02  0.10566000000E+00 0.  1.
         23    2    1    0    0    0 -0.13836753399E+02 -0.22442143164E+02 -0.12842009697E+02  0.95673855564E+02  0.91068457168E+02 0.  0.
         13    1    3    3    0    0 -0.23767603287E+02  0.15070712861E+02 -0.39567906246E+02  0.48555697100E+02  0.10566000000E+00 0. -1.
         22    1    1    0    0    0  0.13836753399E+02  0.22442143164E+02  0.12842009697E+02  0.29326144436E+02  0.00000000000E+00 0. -1.
</event>
<event>
 5    1  0.1680526E-003  0.9118800E+02  0.7818608E-02  0.1130116E+00
         25   -1    0    0    0    0  0.00000000000E+00  0.00000000000E+00  0.99999998245E-14  0.12500000000E+03  0.12500000000E+03 0.  0.
        -13    1    3    3    0    0 -0.21145902296E+02  0.13908016862E+02  0.42363027728E+02  0.49347942199E+02  0.10566000000E+00 0. -1.
         23    2    1    0    0    0  0.59755594398E+01  0.27552264079E+02  0.70089812498E+01  0.95949003724E+02  0.91445343954E+02 0.  0.
         13    1    3    3    0    0  0.27121461736E+02  0.13644247217E+02 -0.35354046478E+02  0.46601061525E+02  0.10566000000E+00 0.  1.
         22    1    1    0    0    0 -0.59755594398E+01 -0.27552264079E+02 -0.70089812498E+01  0.29050996276E+02  0.00000000000E+00 0. -1.
</event>
<event>
 5    1  0.1680526E-003  0.9118800E+02  0.7818608E-02  0.1130116E+00
         25   -1    0    0    0    0  0.00000000000E+00  0.00000000000E+00  0.99999998245E-14  0.12500000000E+03  0.12500000000E+03 0.  0.
        -13    1    3    3    0    0  0.14698170377E+02 -0.11663823379E+02 -0.30952861349E+02  0.36196295086E+02  0.10566000000E+00 0.  1.
         23    2    1    0    0    0 -0.27421160993E+02  0.98377270189E+01  0.47922992237E+01  0.95475991551E+02  0.90796464070E+02 0.  0.
         13    1    3    3    0    0 -0.42119331370E+02  0.21501550398E+02  0.35745160572E+02  0.59279696464E+02  0.10566000000E+00 0. -1.
         22    1    1    0    0    0  0.27421160993E+02 -0.98377270189E+01 -0.47922992237E+01  0.29524008449E+02  0.00000000000E+00 0. -1.
</event>
<event>
 5    1  0.1680526E-003  0.9118800E+02  0.7818608E-02  0.1130116E+00
         25   -1    0    0    0    0  0.00000000000E+00  0.00000000000E+00  0.99999998245E-14  0.12500000000E+03  0.12500000000E+03 0.  0.
        -13    1    3    3    0    0 -0.17321038864E+01 -0.24526022410E+02  0.34176305678E+02  0.42101745723E+02  0.10566000000E+00 0. -1.
         23    2    1    0    0    0 -0.37475476570E+01  0.25336973412E+02  0.10985092623E+02  0.97131046036E+02  0.93047092964E+02 0.  0.
         13    1    3    3    0    0 -0.20154437706E+01  0.49862995822E+02 -0.23191213055E+02  0.55029300313E+02  0.10566000000E+00 0.  1.
         22    1    1    0    0    0  0.37475476570E+01 -0.25336973412E+02 -0.10985092623E+02  0.27868953964E+02  0.00000000000E+00 0.  1.
</event>
<event>
 5    1  0.1680526E-003  0.9118800E+02  0.7818608E-02  0.1130116E+00
         25   -1    0    0    0    0  0.00000000000E+00  0.00000000000E+00  0.99999998245E-14  0.12500000000E+03  0.12500000000E+03 0.  0.
        -13    1    3    3    0    0 -0.19923499699E+01  0.23793450872E+02  0.24053278706E+02  0.33892021824E+02  0.10566000000E+00 0.  1.
         23    2    1    0    0    0  0.13172756130E+02 -0.16848530647E+02 -0.20000490168E+02  0.95718365893E+02  0.91129531290E+02 0.  0.
         13    1    3    3    0    0  0.15165106100E+02 -0.40641981519E+02 -0.44053768874E+02  0.61826344068E+02  0.10566000000E+00 0. -1.
         22    1    1    0    0    0 -0.13172756130E+02  0.16848530647E+02  0.20000490168E+02  0.29281634107E+02  0.00000000000E+00 0. -1.
</event>
<event>
 5    1  0.1680526E-003  0.9118800E+02  0.7818608E-02  0.1130116E+00
         25   -1    0    0    0    0  0.00000000000E+00  0.00000000000E+00  0.99999998245E-14  0.12500000000E+03  0.12500000000E+03 0.  0.
        -13    1    3    3    0    0 -0.21018815031E+02 -0.27422785381E+02 -0.20787293556E+02  0.40322729084E+02  0.10566000000E+00 0. -1.
         23    2    1    0    0    0  0.13140238968E+02  0.16304389935E+02 -0.20332381715E+02  0.95812592484E+02  0.91258687921E+02 0.  0.
         13    1    3    3    0    0  0.34159054000E+02  0.43727175317E+02  0.45491184122E+00  0.55489863400E+02  0.10566000000E+00 0.  1.
         22    1    1    0    0    0 -0.13140238968E+02 -0.16304389935E+02  0.20332381715E+02  0.29187407516E+02  0.00000000000E+00 0.  1.
</event>
<event>
 5    1  0.1680526E-003  0.9118800E+02  0.7818608E-02  0.1130116E+00
         25   -1    0    0    0    0  0.00000000000E+00  0.00000000000E+00  0.99999998245E-14  0.12500000000E+03  0.12500000000E+03 0.  0.
        -13    1    3    3    0    0  0.35599856011E+02 -0.13091961375E+02  0.10421507031E+02  0.39336600940E+02  0.10566000000E+00 0.  1.
         23    2    1    0    0    0 -0.19993402232E+02 -0.11544130646E+02  0.18343559329E+02  0.95512896819E+02  0.90847257552E+02 0.  0.
         13    1    3    3    0    0 -0.55593258243E+02  0.15478307291E+01  0.79220522974E+01  0.56176295879E+02  0.10566000000E+00 0. -1.
         22    1    1    0    0    0  0.19993402232E+02  0.11544130646E+02 -0.18343559329E+02  0.29487103181E+02  0.00000000000E+00 0. -1.
</event>
<event>
 5    1  0.1680526E-003  0.9118800E+02  0.7818608E-02  0.1130116E+00
         25   -1    0    0    0    0  0.00000000000E+00  0.00000000000E+00  0.99999998245E-14  0.12500000000E+03  0.12500000000E+03 0.  0.
        -13    1    3    3    0    0 -0.38918404379E+02 -0.15181122945E+02 -0.28125934961E+02  0.50360580564E+02  0.10566000000E+00 0. -1.
         23    2    1    0    0    0 -0.27564757058E+02 -0.27683386965E+02  0.30475264052E+01  0.85814885955E+02  0.76346064003E+02 0.  0.
         13    1    3    3    0    0  0.11353647321E+02 -0.12502264020E+02  0.31173461367E+02  0.35454305391E+02  0.10566000000E+00 0.  1.
         22    1    1    0    0    0  0.27564757058E+02  0.27683386965E+02 -0.30475264052E+01  0.39185114045E+02  0.00000000000E+00 0. -1.
</event>
<event>
 5    1  0.1680526E-003  0.9118800E+02  0.7818608E-02  0.1130116E+00
         25   -1    0    0    0    0  0.00000000000E+00  0.00000000000E+00  0.99999998245E-14  0.12500000000E+03  0.12500000000E+03 0.  0.
        -13    1    3    3    0    0  0.11358462108E+01  0.55171007146E+02  0.18703882434E+02  0.58266427369E+02  0.10566000000E+00 0. -1.
         23    2    1    0    0    0 -0.77963337585E+01  0.27183599962E+02 -0.53292298337E+01  0.96222723938E+02  0.91818739832E+02 0.  0.
         13    1    3    3    0    0 -0.89321799693E+01 -0.27987407185E+02 -0.24033112268E+02  0.37956296569E+02  0.10566000000E+00 0.  1.
         22    1    1    0    0    0  0.77963337585E+01 -0.27183599962E+02  0.53292298337E+01  0.28777276062E+02  0.00000000000E+00 0. -1.
</event>
<event>
 5    1  0.1680526E-003  0.9118800E+02  0.7818608E-02  0.1130116E+00
         25   -1    0    0    0    0  0.00000000000E+00  0.00000000000E+00  0.99999998245E-14  0.12500000000E+03  0.12500000000E+03 0.  0.
        -13    1    3    3    0    0 -0.11808601189E+02 -0.45248696767E+01 -0.42173522742E+02  0.44028793898E+02  0.10566000000E+00 0. -1.
         23    2    1    0    0    0  0.27182050459E+02 -0.44455395450E+01 -0.69039902810E+01  0.96604722737E+02  0.92337320106E+02 0.  0.
         13    1    3    3    0    0  0.38990651648E+02  0.79330131754E-01  0.35269532461E+02  0.52575928839E+02  0.10566000000E+00 0.  1.
         22    1    1    0    0    0 -0.27182050459E+02  0.44455395450E+01  0.69039902810E+01  0.28395277263E+02  0.00000000000E+00 0.  1.
</event>
<event>
 5    1  0.1680526E-003  0.9118800E+02  0.7818608E-02  0.1130116E+00
         25   -1    0    0    0    0  0.00000000000E+00  0.00000000000E+00  0.99999998245E-14  0.12500000000E+03  0.12500000000E+03 0.  0.
        -13    1    3    3    0    0 -0.42494717997E+02 -0.41838366591E+02  0.15920849535E+02  0.61723047482E+02  0.10566000000E+00 0. -1.
         23    2    1    0    0    0 -0.25135175540E+02 -0.17812474207E+02  0.30354138662E+01  0.94043982424E+02  0.88803128358E+02 0.  0.
         13    1    3    3    0    0  0.17359542456E+02  0.24025892384E+02 -0.12885435668E+02  0.32320934942E+02  0.10566000000E+00 0.  1.
         22    1    1    0    0    0  0.25135175540E+02  0.17812474207E+02 -0.30354138662E+01  0.30956017576E+02  0.00000000000E+00 0. -1.
</event>
<event>
 5    1  0.1680526E-003  0.9118800E+02  0.7818608E-02  0.1130116E+00
         25   -1    0    0    0    0  0.00000000000E+00  0.00000000000E+00  0.99999998245E-14  0.12500000000E+03  0.12500000000E+03 0.  0.
        -13    1    3    3    0    0  0.31754036628E+02  0.23045540721E+02 -0.45889039320E+02  0.60375747474E+02  0.10566000000E+00 0.  1.
         23    2    1    0    0    0  0.25297281807E+02  0.89938934141E+01 -0.16775770856E+02  0.93341366528E+02  0.87808551018E+02 0.  0.
         13    1    3    3    0    0 -0.64567548216E+01 -0.14051647307E+02  0.29113268464E+02  0.32965619053E+02  0.10566000000E+00 0. -1.
         22    1    1    0    0    0 -0.25297281807E+02 -0.89938934141E+01  0.16775770856E+02  0.31658633472E+02  0.00000000000E+00 0.  1.
</event>
<event>
 5    1  0.1680526E-003  0.9118800E+02  0.7818608E-02  0.1130116E+00
         25   -1    0    0    0    0  0.00000000000E+00  0.00000000000E+00  0.99999998245E-14  0.12500000000E+03  0.12500000000E+03 0.  0.
        -13    1    3    3    0    0 -0.19551334438E+02  0.26723473109E+02  0.43829312737E+02  0.54931034146E+02  0.10566000000E+00 0.  1.
         23    2    1    0    0    0 -0.18075427629E+02 -0.70817159537E+01  0.23928652618E+02  0.94186817741E+02  0.89003957413E+02 0.  0.
         13    1    3    3    0    0  0.14759068091E+01 -0.33805189063E+02 -0.19900660118E+02  0.39255783595E+02  0.10566000000E+00 0. -1.
         22    1    1    0    0    0  0.18075427629E+02  0.70817159537E+01 -0.23928652618E+02  0.30813182259E+02  0.00000000000E+00 0.  1.
</event>
<event>
 5    1  0.1680526E-003  0.9118800E+02  0.7818608E-02  0.1130116E+00
         25   -1    0    0    0    0  0.00000000000E+00  0.00000000000E+00  0.99999998245E-14  0.12500000000E+03  0.12500000000E+03 0.  0.
        -13    1    3    3    0    0  0.19547799547E+01  0.40723098545E+02 -0.53418177723E+00  0.40773624244E+02  0.10566000000E+00 0. -1.
         23    2    1    0    0    0  0.10794028957E+02 -0.91842416470E+01 -0.24389920323E+02  0.96791321032E+02  0.92589579641E+02 0.  0.
         13    1    3    3    0    0  0.88392490023E+01 -0.49907340192E+02 -0.23855738545E+02  0.56017696789E+02  0.10566000000E+00 0.  1.
         22    1    1    0    0    0 -0.10794028957E+02  0.91842416470E+01  0.24389920323E+02  0.28208678968E+02  0.00000000000E+00 0.  1.
</event>
<event>
 5    1  0.1680526E-003  0.9118800E+02  0.7818608E-02  0.1130116E+00
         25   -1    0    0    0    0  0.00000000000E+00  0.00000000000E+00  0.99999998245E-14  0.12500000000E+03  0.12500000000E+03 0.  0.
        -13    1    3    3    0    0  0.17304393419E+02  0.42389701885E+02 -0.25184734948E+02  0.52255247544E+02  0.10566000000E+00 0.  1.
         23    2    1    0    0    0 -0.16721831171E+02  0.21568226723E+02 -0.16589692307E+02  0.93062155168E+02  0.87410175563E+02 0.  0.
         13    1    3    3    0    0 -0.34026224590E+02 -0.20821475162E+02  0.85950426411E+01  0.40806907624E+02  0.10566000000E+00 0. -1.
         22    1    1    0    0    0  0.16721831171E+02 -0.21568226723E+02  0.16589692307E+02  0.31937844832E+02  0.00000000000E+00 0.  1.
</event>
<event>
 5    1  0.1680526E-003  0.9118800E+02  0.7818608E-02  0.1130116E+00
         25   -1    0    0    0    0  0.00000000000E+00  0.00000000000E+00  0.99999998245E-14  0.12500000000E+03  0.12500000000E+03 0.  0.
        -13    1    3    3    0    0 -0.36399340850E+02  0.38019441989E+02  0.17084318985E+02  0.55337827051E+02  0.10566000000E+00 0.  1.
         23    2    1    0    0    0 -0.10231213851E+02  0.11951727035E+02  0.27149683968E+02  0.93621235596E+02  0.88206059310E+02 0.  0.
         13    1    3    3    0    0  0.26168126999E+02 -0.26067714953E+02  0.10065364983E+02  0.38283408545E+02  0.10566000000E+00 0. -1.
         22    1    1    0    0    0  0.10231213851E+02 -0.11951727035E+02 -0.27149683968E+02  0.31378764404E+02  0.00000000000E+00 0.  1.
</event>
<event>
 5    1  0.1680526E-003  0.9118800E+02  0.7818608E-02  0.1130116E+00
         25   -1    0    0    0    0  0.00000000000E+00  0.00000000000E+00  0.99999998245E-14  0.12500000000E+03  0.12500000000E+03 0.  0.
        -13    1    3    3    0    0 -0.32770830065E+02 -0.11767910653E+02  0.17311070861E+02  0.38885670403E+02  0.10566000000E+00 0. -1.
         23    2    1    0    0    0  0.23040462388E+02 -0.15385211926E+02  0.11085117857E+02  0.95159633197E+02  0.90359882133E+02 0.  0.
         13    1    3    3    0    0  0.55811292452E+02 -0.36173012725E+01 -0.62259530039E+01  0.56273962794E+02  0.10566000000E+00 0.  1.
         22    1    1    0    0    0 -0.23040462388E+02  0.15385211926E+02 -0.11085117857E+02  0.29840366803E+02  0.00000000000E+00 0.  1.
</event>
<event>
 5    1  0.1680526E-003  0.9118800E+02  0.7818608E-02  0.1130116E+00
         25   -1    0    0    0    0  0.00000000000E+00  0.00000000000E+00  0.99999998245E-14  0.12500000000E+03  0.12500000000E+03 0.  0.
        -13    1    3    3    0    0  0.39779849595E+02 -0.28517882835E+02 -0.26111425157E+02  0.55475433869E+02  0.10566000000E+00 0.  1.
         23    2    1    0    0    0  0.23264416215E+02  0.72575342131E+01 -0.14870501704E+02  0.96451152639E+02  0.92129192766E+02 0.  0.
         13    1    3    3    0    0 -0.16515433379E+02  0.35775417048E+02  0.11240923453E+02  0.40975718770E+02  0.10566000000E+00 0. -1.
         22    1    1    0    0    0 -0.23264416215E+02 -0.72575342131E+01  0.14870501704E+02  0.28548847361E+02  0.00000000000E+00 0.  1.
</event>
<event>
 5    1  0.1680526E-003  0.9118800E+02  0.7818608E-02  0.1130116E+00
         25   -1    0    0    0    0  0.00000000000E+00  0.00000000000E+00  0.99999998245E-14  0.12500000000E+03  0.12500000000E+03 0.  0.
        -13    1    3    3    0    0 -0.24318540113E+02  0.42575811239E+02 -0.35455900041E+02  0.60508041677E+02  0.10566000000E+00 0.  1.
         23    2    1    0    0    0 -0.42527314305E+01  0.17234284532E+02 -0.24716840291E+02  0.94569283907E+02  0.89539493950E+02 0.  0.
         13    1    3    3    0    0  0.20065808682E+02 -0.25341526707E+02  0.10739059750E+02  0.34061242230E+02  0.10566000000E+00 0. -1.
         22    1    1    0    0    0  0.42527314305E+01 -0.17234284532E+02  0.24716840291E+02  0.30430716093E+02  0.00000000000E+00 0.  1.
</event>
<event>
 5    1  0.1680526E-003  0.9118800E+02  0.7818608E-02  0.1130116E+00
         25   -1    0    0    0    0  0.00000000000E+00  0.00000000000E+00  0.99999998245E-14  0.12500000000E+03  0.12500000000E+03 0.  0.
        -13    1    3    3    0    0 -0.14495543035E+02  0.51668766728E+02  0.16398018017E+02  0.56113174763E+02  0.10566000000E+00 0. -1.
         23    2    1    0    0    0  0.13148023593E+02  0.25945604820E+02  0.57000570488E+01  0.95359899051E+02  0.90636497962E+02 0.  0.
         13    1    3    3    0    0  0.27643566628E+02 -0.25723161908E+02 -0.10697960968E+02  0.39246724288E+02  0.10566000000E+00 0.  1.
         22    1    1    0    0    0 -0.13148023593E+02 -0.25945604820E+02 -0.57000570488E+01  0.29640100949E+02  0.00000000000E+00 0. -1.
</event>
<event>
 5    1  0.1680526E-003  0.9118800E+02  0.7818608E-02  0.1130116E+00
         25   -1    0    0    0    0  0.00000000000E+00  0.00000000000E+00  0.99999998245E-14  0.12500000000E+03  0.12500000000E+03 0.  0.
        -13    1    3    3    0    0 -0.52086842638E+02  0.62056554221E+01  0.24106855086E+02  0.57729550157E+02  0.10566000000E+00 0. -1.
         23    2    1    0    0    0 -0.14008996189E+02  0.69046265319E+01  0.24651010456E+02  0.95817845209E+02  0.91265882465E+02 0.  0.
         13    1    3    3    0    0  0.38077846449E+02  0.69897110981E+00  0.54415536960E+00  0.38088295051E+02  0.10566000000E+00 0.  1.
         22    1    1    0    0    0  0.14008996189E+02 -0.69046265319E+01 -0.24651010456E+02  0.29182154791E+02  0.00000000000E+00 0. -1.
</event>
<event>
 5    1  0.1680526E-003  0.9118800E+02  0.7818608E-02  0.1130116E+00
         25   -1    0    0    0    0  0.00000000000E+00  0.00000000000E+00  0.99999998245E-14  0.12500000000E+03  0.12500000000E+03 0.  0.
        -13    1    3    3    0    0  0.62013346693E+00 -0.33440378937E+02 -0.35008695163E+02  0.48417594013E+02  0.10566000000E+00 0. -1.
         23    2    1    0    0    0 -0.28981013810E+01  0.12954935068E+02 -0.25995300940E+02  0.95811217819E+02  0.91256804978E+02 0.  0.
         13    1    3    3    0    0 -0.35182348480E+01  0.46395314005E+02  0.90133942224E+01  0.47393623806E+02  0.10566000000E+00 0.  1.
         22    1    1    0    0    0  0.28981013810E+01 -0.12954935068E+02  0.25995300940E+02  0.29188782181E+02  0.00000000000E+00 0.  1.
</event>
<event>
 5    1  0.1680526E-003  0.9118800E+02  0.7818608E-02  0.1130116E+00
         25   -1    0    0    0    0  0.00000000000E+00  0.00000000000E+00  0.99999998245E-14  0.12500000000E+03  0.12500000000E+03 0.  0.
        -13    1    3    3    0    0  0.13708077114E+02 -0.31716007697E+00  0.21106121215E+02  0.25169256752E+02  0.10566000000E+00 0.  1.
         23    2    1    0    0    0 -0.25351804447E+02 -0.25407383061E+02 -0.17052196418E+02  0.85263033515E+02  0.75437115392E+02 0.  0.
         13    1    3    3    0    0 -0.39059881562E+02 -0.25090222984E+02 -0.38158317633E+02  0.60093776763E+02  0.10566000000E+00 0. -1.
         22    1    1    0    0    0  0.25351804447E+02  0.25407383061E+02  0.17052196418E+02  0.39736966485E+02  0.00000000000E+00 0. -1.
</event>
<event>
 5    1  0.1680526E-003  0.9118800E+02  0.7818608E-02  0.1130116E+00
         25   -1    0    0    0    0  0.00000000000E+00  0.00000000000E+00  0.99999998245E-14  0.12500000000E+03  0.12500000000E+03 0.  0.
        -13    1    3    3    0    0  0.45313864072E+02  0.37929422944E+02 -0.25003181615E+01  0.59146007109E+02  0.10566000000E+00 0.  1.
         23    2    1    0    0    0  0.18000783421E+02  0.19124063711E+02  0.12935923390E+02  0.95723795830E+02  0.91136979090E+02 0.  0.
         13    1    3    3    0    0 -0.27313080650E+02 -0.18805359233E+02  0.15436241552E+02  0.36577788721E+02  0.10566000000E+00 0. -1.
         22    1    1    0    0    0 -0.18000783421E+02 -0.19124063711E+02 -0.12935923390E+02  0.29276204170E+02  0.00000000000E+00 0.  1.
</event>
<event>
 5    1  0.1680526E-003  0.9118800E+02  0.7818608E-02  0.1130116E+00
         25   -1    0    0    0    0  0.00000000000E+00  0.00000000000E+00  0.99999998245E-14  0.12500000000E+03  0.12500000000E+03 0.  0.
        -13    1    3    3    0    0 -0.31884513002E+02  0.22544082501E+02 -0.16715073895E+02  0.42476613383E+02  0.10566000000E+00 0. -1.
         23    2    1    0    0    0  0.15688631333E+02  0.28497134587E+02 -0.10472255551E+02  0.90825624086E+02  0.84151090436E+02 0.  0.
         13    1    3    3    0    0  0.47573144335E+02  0.59530520862E+01  0.62428183442E+01  0.48349010703E+02  0.10566000000E+00 0.  1.
         22    1    1    0    0    0 -0.15688631333E+02 -0.28497134587E+02  0.10472255551E+02  0.34174375914E+02  0.00000000000E+00 0.  1.
</event>
<event>
 5    1  0.1680526E-003  0.9118800E+02  0.7818608E-02  0.1130116E+00
         25   -1    0    0    0    0  0.00000000000E+00  0.00000000000E+00  0.99999998245E-14  0.12500000000E+03  0.12500000000E+03 0.  0.
        -13    1    3    3    0    0 -0.16003148207E+02  0.38174947952E+02 -0.14843255886E+02  0.43974547331E+02  0.10566000000E+00 0.  1.
         23    2    1    0    0    0  0.24783723875E+02  0.39764753058E+01 -0.11733227851E+02  0.97292348336E+02  0.93263535661E+02 0.  0.
         13    1    3    3    0    0  0.40786872081E+02 -0.34198472646E+02  0.31100280351E+01  0.53317801004E+02  0.10566000000E+00 0. -1.
         22    1    1    0    0    0 -0.24783723875E+02 -0.39764753058E+01  0.11733227851E+02  0.27707651664E+02  0.00000000000E+00 0. -1.
</event>
<event>
 5    1  0.1680526E-003  0.9118800E+02  0.7818608E-02  0.1130116E+00
         25   -1    0    0    0    0  0.00000000000E+00  0.00000000000E+00  0.99999998245E-14  0.12500000000E+03  0.12500000000E+03 0.  0.
        -13    1    3    3    0    0 -0.21420288953E+02  0.26061571623E+02 -0.11408909960E+02  0.35611917735E+02  0.10566000000E+00 0.  1.
         23    2    1    0    0    0  0.20340446219E+02 -0.16121514046E+02  0.76276064966E+01  0.97947877193E+02  0.94138033218E+02 0.  0.
         13    1    3    3    0    0  0.41760735172E+02 -0.42183085669E+02  0.19036516456E+02  0.62335959457E+02  0.10566000000E+00 0. -1.
         22    1    1    0    0    0 -0.20340446219E+02  0.16121514046E+02 -0.76276064966E+01  0.27052122807E+02  0.00000000000E+00 0. -1.
</event>
<event>
 5    1  0.1680526E-003  0.9118800E+02  0.7818608E-02  0.1130116E+00
         25   -1    0    0    0    0  0.00000000000E+00  0.00000000000E+00  0.99999998245E-14  0.12500000000E+03  0.12500000000E+03 0.  0.
        -13    1    3    3    0    0  0.41123789988E+00  0.24962000475E+02 -0.22055792449E+02  0.33312756249E+02  0.10566000000E+00 0. -1.
         23    2    1    0    0    0  0.39301923603E+01 -0.27208394265E+02  0.11237212827E+02  0.95301210756E+02  0.90555522686E+02 0.  0.
         13    1    3    3    0    0  0.35189544604E+01 -0.52170394740E+02  0.33293005276E+02  0.61988454507E+02  0.10566000000E+00 0.  1.
         22    1    1    0    0    0 -0.39301923603E+01  0.27208394265E+02 -0.11237212827E+02  0.29698789244E+02  0.00000000000E+00 0.  1.
</event>
<event>
 5    1  0.1680526E-003  0.9118800E+02  0.7818608E-02  0.1130116E+00
         25   -1    0    0    0    0  0.00000000000E+00  0.00000000000E+00  0.99999998245E-14  0.12500000000E+03  0.12500000000E+03 0.  0.
        -13    1    3    3    0    0  0.12174745996E+01  0.28533025163E+02  0.18287510976E+02  0.33912534425E+02  0.10566000000E+00 0.  1.
         23    2    1    0    0    0 -0.14388463109E+02 -0.21492714563E+02 -0.14125092114E+02  0.95529966455E+02  0.90870741241E+02 0.  0.
         13    1    3    3    0    0 -0.15605937708E+02 -0.50025739726E+02 -0.32412603090E+02  0.61617432030E+02  0.10566000000E+00 0. -1.
         22    1    1    0    0    0  0.14388463109E+02  0.21492714563E+02  0.14125092114E+02  0.29470033545E+02  0.00000000000E+00 0. -1.
</event>
<event>
 5    1  0.1680526E-003  0.9118800E+02  0.7818608E-02  0.1130116E+00
         25   -1    0    0    0    0  0.00000000000E+00  0.00000000000E+00  0.99999998245E-14  0.12500000000E+03  0.12500000000E+03 0.  0.
        -13    1    3    3    0    0 -0.16037696203E+02 -0.48125204485E+02 -0.24607476890E+02  0.56380688974E+02  0.10566000000E+00 0. -1.
         23    2    1    0    0    0 -0.19805913621E+02 -0.71425435897E+01 -0.16316588161E+02  0.98363160989E+02  0.94687856915E+02 0.  0.
         13    1    3    3    0    0 -0.37682174176E+01  0.40982660895E+02  0.82908887287E+01  0.41982472015E+02  0.10566000000E+00 0.  1.
         22    1    1    0    0    0  0.19805913621E+02  0.71425435897E+01  0.16316588161E+02  0.26636839011E+02  0.00000000000E+00 0.  1.
</event>
<event>
 5    1  0.1680526E-003  0.9118800E+02  0.7818608E-02  0.1130116E+00
         25   -1    0    0    0    0  0.00000000000E+00  0.00000000000E+00  0.99999998245E-14  0.12500000000E+03  0.12500000000E+03 0.  0.
        -13    1    3    3    0    0 -0.27847465587E+01  0.27980175574E+02  0.21508675615E+02  0.35401685401E+02  0.10566000000E+00 0.  1.
         23    2    1    0    0    0 -0.16686991658E+02 -0.14319110009E+02 -0.19257750642E+02  0.95770672915E+02  0.91201251245E+02 0.  0.
         13    1    3    3    0    0 -0.13902245099E+02 -0.42299285583E+02 -0.40766426257E+02  0.60368987514E+02  0.10566000000E+00 0. -1.
         22    1    1    0    0    0  0.16686991658E+02  0.14319110009E+02  0.19257750642E+02  0.29229327085E+02  0.00000000000E+00 0. -1.
</event>
<event>
 5    1  0.1680526E-003  0.9118800E+02  0.7818608E-02  0.1130116E+00
         25   -1    0    0    0    0  0.00000000000E+00  0.00000000000E+00  0.99999998245E-14  0.12500000000E+03  0.12500000000E+03 0.  0.
        -13    1    3    3    0    0 -0.57927420880E+01  0.41811125551E+02 -0.37390552797E+02  0.56389632763E+02  0.10566000000E+00 0. -1.
         23    2    1    0    0    0 -0.20572236749E+02  0.16834552394E+02 -0.91422708042E+01  0.96889500278E+02  0.92722031198E+02 0.  0.
         13    1    3    3    0    0 -0.14779494661E+02 -0.24976573157E+02  0.28248281992E+02  0.40499867514E+02  0.10566000000E+00 0.  1.
         22    1    1    0    0    0  0.20572236749E+02 -0.16834552394E+02  0.91422708042E+01  0.28110499722E+02  0.00000000000E+00 0. -1.
</event>
<event>
 5    1  0.1680526E-003  0.9118800E+02  0.7818608E-02  0.1130116E+00
         25   -1    0    0    0    0  0.00000000000E+00  0.00000000000E+00  0.99999998245E-14  0.12500000000E+03  0.12500000000E+03 0.  0.
        -13    1    3    3    0    0 -0.23897798813E+02  0.85517976328E+01  0.40454895535E+02  0.47758221990E+02  0.10566000000E+00 0. -1.
         23    2    1    0    0    0  0.13655879941E+02  0.21925038659E+02  0.13774988011E+02  0.95726450986E+02  0.91140620727E+02 0.  0.
         13    1    3    3    0    0  0.37553678754E+02  0.13373241026E+02 -0.26679907524E+02  0.47968228996E+02  0.10566000000E+00 0.  1.
         22    1    1    0    0    0 -0.13655879941E+02 -0.21925038659E+02 -0.13774988011E+02  0.29273549014E+02  0.00000000000E+00 0.  1.
</event>
<event>
 5    1  0.1680526E-003  0.9118800E+02  0.7818608E-02  0.1130116E+00
         25   -1    0    0    0    0  0.00000000000E+00  0.00000000000E+00  0.99999998245E-14  0.12500000000E+03  0.12500000000E+03 0.  0.
        -13    1    3    3    0    0  0.16582353363E+02  0.12925993570E+02 -0.74660266358E+01  0.22311621873E+02  0.10566000000E+00 0.  1.
         23    2    1    0    0    0  0.76355917579E+01  0.22634624685E+02  0.43723618779E+02  0.75176478092E+02  0.56294933370E+02 0.  0.
         13    1    3    3    0    0 -0.89467616053E+01  0.97086311149E+01  0.51189645415E+02  0.52864856220E+02  0.10566000000E+00 0. -1.
         22    1    1    0    0    0 -0.76355917579E+01 -0.22634624685E+02 -0.43723618779E+02  0.49823521908E+02  0.00000000000E+00 0. -1.
</event>
<event>
 5    1  0.1680526E-003  0.9118800E+02  0.7818608E-02  0.1130116E+00
         25   -1    0    0    0    0  0.00000000000E+00  0.00000000000E+00  0.99999998245E-14  0.12500000000E+03  0.12500000000E+03 0.  0.
        -13    1    3    3    0    0  0.43127517335E+02 -0.20619510286E+02  0.38128948693E+01  0.47955148705E+02  0.10566000000E+00 0.  1.
         23    2    1    0    0    0  0.86951445069E+00 -0.13237674604E+02  0.25673097536E+02  0.96101902806E+02  0.91654109027E+02 0.  0.
         13    1    3    3    0    0 -0.42258002885E+02  0.73818356820E+01  0.21860202667E+02  0.48146754102E+02  0.10566000000E+00 0. -1.
         22    1    1    0    0    0 -0.86951445069E+00  0.13237674604E+02 -0.25673097536E+02  0.28898097194E+02  0.00000000000E+00 0. -1.
</event>
<event>
 5    1  0.1680526E-003  0.9118800E+02  0.7818608E-02  0.1130116E+00
         25   -1    0    0    0    0  0.00000000000E+00  0.00000000000E+00  0.99999998245E-14  0.12500000000E+03  0.12500000000E+03 0.  0.
        -13    1    3    3    0    0 -0.19746280985E+02 -0.29636348514E+02  0.41294291908E+02  0.54529427598E+02  0.10566000000E+00 0.  1.
         23    2    1    0    0    0 -0.97950358420E+01  0.83333833853E+01  0.24714725810E+02  0.97139531991E+02  0.93058492347E+02 0.  0.
         13    1    3    3    0    0  0.99512451428E+01  0.37969731899E+02 -0.16579566098E+02  0.42610104393E+02  0.10566000000E+00 0. -1.
         22    1    1    0    0    0  0.97950358420E+01 -0.83333833853E+01 -0.24714725810E+02  0.27860468009E+02  0.00000000000E+00 0.  1.
</event>
<event>
 5    1  0.1680526E-003  0.9118800E+02  0.7818608E-02  0.1130116E+00
         25   -1    0    0    0    0  0.00000000000E+00  0.00000000000E+00  0.99999998245E-14  0.12500000000E+03  0.12500000000E+03 0.  0.
        -13    1    3    3    0    0 -0.44040326342E+02 -0.10381259334E+02  0.24056875031E+02  0.51245148941E+02  0.10566000000E+00 0. -1.
         23    2    1    0    0    0 -0.22211167235E+02  0.19181556954E+02 -0.85182639763E+00  0.95640271028E+02  0.91022347569E+02 0.  0.
         13    1    3    3    0    0  0.21829159107E+02  0.29562816288E+02 -0.24908701429E+02  0.44395122087E+02  0.10566000000E+00 0.  1.
         22    1    1    0    0    0  0.22211167235E+02 -0.19181556954E+02  0.85182639763E+00  0.29359728972E+02  0.00000000000E+00 0. -1.
</event>
<event>
 5    1  0.1680526E-003  0.9118800E+02  0.7818608E-02  0.1130116E+00
         25   -1    0    0    0    0  0.00000000000E+00  0.00000000000E+00  0.99999998245E-14  0.12500000000E+03  0.12500000000E+03 0.  0.
        -13    1    3    3    0    0  0.13110917223E+02 -0.52349176292E+02 -0.64743498747E+01  0.54353111955E+02  0.10566000000E+00 0. -1.
         23    2    1    0    0    0  0.48862203354E+01 -0.21326530369E+02  0.19539187673E+02  0.95666130469E+02  0.91057853133E+02 0.  0.
         13    1    3    3    0    0 -0.82246968875E+01  0.31022645923E+02  0.26013537547E+02  0.41313018514E+02  0.10566000000E+00 0.  1.
         22    1    1    0    0    0 -0.48862203354E+01  0.21326530369E+02 -0.19539187673E+02  0.29333869531E+02  0.00000000000E+00 0. -1.
</event>
<event>
 5    1  0.1680526E-003  0.9118800E+02  0.7818608E-02  0.1130116E+00
         25   -1    0    0    0    0  0.00000000000E+00  0.00000000000E+00  0.99999998245E-14  0.12500000000E+03  0.12500000000E+03 0.  0.
        -13    1    3    3    0    0 -0.30776077946E+02 -0.30017666533E+02 -0.14947950583E+02  0.45515707931E+02  0.10566000000E+00 0.  1.
         23    2    1    0    0    0  0.60416098802E+01 -0.60455091550E+01 -0.31421471237E+02  0.92436860017E+02  0.86511357660E+02 0.  0.
         13    1    3    3    0    0  0.36817687826E+02  0.23972157378E+02 -0.16473520654E+02  0.46921152085E+02  0.10566000000E+00 0. -1.
         22    1    1    0    0    0 -0.60416098802E+01  0.60455091550E+01  0.31421471237E+02  0.32563139983E+02  0.00000000000E+00 0. -1.
</event>
<event>
 5    1  0.1680526E-003  0.9118800E+02  0.7818608E-02  0.1130116E+00
         25   -1    0    0    0    0  0.00000000000E+00  0.00000000000E+00  0.99999998245E-14  0.12500000000E+03  0.12500000000E+03 0.  0.
        -13    1    3    3    0    0  0.17178806507E+02 -0.35167303279E+02 -0.36725201297E+02  0.53671241715E+02  0.10566000000E+00 0.  1.
         23    2    1    0    0    0  0.26330566551E+02 -0.22481415940E+01 -0.11309082527E+02  0.96255466204E+02  0.91863303615E+02 0.  0.
         13    1    3    3    0    0  0.91517600441E+01  0.32919161685E+02  0.25416118770E+02  0.42584224489E+02  0.10566000000E+00 0. -1.
         22    1    1    0    0    0 -0.26330566551E+02  0.22481415940E+01  0.11309082527E+02  0.28744533796E+02  0.00000000000E+00 0.  1.
</event>
<event>
 5    1  0.1680526E-003  0.9118800E+02  0.7818608E-02  0.1130116E+00
         25   -1    0    0    0    0  0.00000000000E+00  0.00000000000E+00  0.99999998245E-14  0.12500000000E+03  0.12500000000E+03 0.  0.
        -13    1    3    3    0    0  0.22277106353E+02 -0.39100434796E+02 -0.13292619939E+02  0.46923537565E+02  0.10566000000E+00 0.  1.
         23    2    1    0    0    0  0.21411841430E+01 -0.14653953473E+02  0.24585804065E+02  0.96298348768E+02  0.91921636147E+02 0.  0.
         13    1    3    3    0    0 -0.20135922210E+02  0.24446481323E+02  0.37878424004E+02  0.49374811203E+02  0.10566000000E+00 0. -1.
         22    1    1    0    0    0 -0.21411841430E+01  0.14653953473E+02 -0.24585804065E+02  0.28701651232E+02  0.00000000000E+00 0. -1.
</event>
<event>
 5    1  0.1680526E-003  0.9118800E+02  0.7818608E-02  0.1130116E+00
         25   -1    0    0    0    0  0.00000000000E+00  0.00000000000E+00  0.99999998245E-14  0.12500000000E+03  0.12500000000E+03 0.  0.
        -13    1    3    3    0    0 -0.82714016837E+01 -0.72933517938E+01  0.53806796916E+02  0.54925327715E+02  0.10566000000E+00 0.  1.
         23    2    1    0    0    0  0.65597760230E+01 -0.21570207738E+02  0.18326613363E+02  0.95945408613E+02  0.91440429533E+02 0.  0.
         13    1    3    3    0    0  0.14831177707E+02 -0.14276855944E+02 -0.35480183554E+02  0.41020080898E+02  0.10566000000E+00 0. -1.
         22    1    1    0    0    0 -0.65597760230E+01  0.21570207738E+02 -0.18326613363E+02  0.29054591387E+02  0.00000000000E+00 0.  1.
</event>
<event>
 5    1  0.1680526E-003  0.9118800E+02  0.7818608E-02  0.1130116E+00
         25   -1    0    0    0    0  0.00000000000E+00  0.00000000000E+00  0.99999998245E-14  0.12500000000E+03  0.12500000000E+03 0.  0.
        -13    1    3    3    0    0  0.41371634711E+02  0.57310678901E+01  0.99967110422E+01  0.42946509677E+02  0.10566000000E+00 0. -1.
         23    2    1    0    0    0  0.11137538262E+02 -0.15596557600E+01 -0.29622430465E+02  0.93314582672E+02  0.87770414537E+02 0.  0.
         13    1    3    3    0    0 -0.30234096448E+02 -0.72907236501E+01 -0.39619141507E+02  0.50368072994E+02  0.10566000000E+00 0.  1.
         22    1    1    0    0    0 -0.11137538262E+02  0.15596557600E+01  0.29622430465E+02  0.31685417328E+02  0.00000000000E+00 0.  1.
</event>
<event>
 5    1  0.1680526E-003  0.9118800E+02  0.7818608E-02  0.1130116E+00
         25   -1    0    0    0    0  0.00000000000E+00  0.00000000000E+00  0.99999998245E-14  0.12500000000E+03  0.12500000000E+03 0.  0.
        -13    1    3    3    0    0 -0.47726531228E+02 -0.16299704502E+02  0.22951934358E+01  0.50485455597E+02  0.10566000000E+00 0.  1.
         23    2    1    0    0    0 -0.19738222973E+02  0.12850988703E+02 -0.17665608208E+02  0.95558208782E+02  0.90909582528E+02 0.  0.
         13    1    3    3    0    0  0.27988308255E+02  0.29150693205E+02 -0.19960801644E+02  0.45072753184E+02  0.10566000000E+00 0. -1.
         22    1    1    0    0    0  0.19738222973E+02 -0.12850988703E+02  0.17665608208E+02  0.29441791218E+02  0.00000000000E+00 0.  1.
</event>
<event>
 5    1  0.1680526E-003  0.9118800E+02  0.7818608E-02  0.1130116E+00
         25   -1    0    0    0    0  0.00000000000E+00  0.00000000000E+00  0.99999998245E-14  0.12500000000E+03  0.12500000000E+03 0.  0.
        -13    1    3    3    0    0 -0.36290096166E+02 -0.24923442870E+02  0.43360972676E+02  0.61792671084E+02  0.10566000000E+00 0. -1.
         23    2    1    0    0    0 -0.11462479784E+02 -0.15792777020E+02  0.17457921796E+02  0.98816431064E+02  0.95284352157E+02 0.  0.
         13    1    3    3    0    0  0.24827616382E+02  0.91306658500E+01 -0.25903050880E+02  0.37023759980E+02  0.10566000000E+00 0.  1.
         22    1    1    0    0    0  0.11462479784E+02  0.15792777020E+02 -0.17457921796E+02  0.26183568936E+02  0.00000000000E+00 0. -1.
</event>
<event>
 5    1  0.1680526E-003  0.9118800E+02  0.7818608E-02  0.1130116E+00
         25   -1    0    0    0    0  0.00000000000E+00  0.00000000000E+00  0.99999998245E-14  0.12500000000E+03  0.12500000000E+03 0.  0.
        -13    1    3    3    0    0 -0.29773977485E+02 -0.18689758226E+02 -0.29221742218E+02  0.45713435444E+02  0.10566000000E+00 0. -1.
         23    2    1    0    0    0 -0.81472274755E+00 -0.23944157270E+02  0.13429983399E+02  0.97534550894E+02  0.93587593854E+02 0.  0.
         13    1    3    3    0    0  0.28959254738E+02 -0.52543990437E+01  0.42651725617E+02  0.51821115449E+02  0.10566000000E+00 0.  1.
         22    1    1    0    0    0  0.81472274755E+00  0.23944157270E+02 -0.13429983399E+02  0.27465449106E+02  0.00000000000E+00 0.  1.
</event>
<event>
 5    1  0.1680526E-003  0.9118800E+02  0.7818608E-02  0.1130116E+00
         25   -1    0    0    0    0  0.00000000000E+00  0.00000000000E+00  0.99999998245E-14  0.12500000000E+03  0.12500000000E+03 0.  0.
        -13    1    3    3    0    0 -0.41996705169E+02  0.68274102960E+00 -0.17140565333E+02  0.45365179647E+02  0.10566000000E+00 0. -1.
         23    2    1    0    0    0  0.16277417414E+02  0.89871483897E+01 -0.11035627945E+01  0.10637364757E+03  0.10473018616E+03 0.  0.
         13    1    3    3    0    0  0.58274122583E+02  0.83044073601E+01  0.16037002539E+02  0.61008467928E+02  0.10566000000E+00 0.  1.
         22    1    1    0    0    0 -0.16277417414E+02 -0.89871483897E+01  0.11035627945E+01  0.18626352426E+02  0.00000000000E+00 0.  1.
</event>
<event>
 5    1  0.1680526E-003  0.9118800E+02  0.7818608E-02  0.1130116E+00
         25   -1    0    0    0    0  0.00000000000E+00  0.00000000000E+00  0.99999998245E-14  0.12500000000E+03  0.12500000000E+03 0.  0.
        -13    1    3    3    0    0 -0.13831420781E+02  0.23476735084E+02 -0.20944738350E+02  0.34367986842E+02  0.10566000000E+00 0. -1.
         23    2    1    0    0    0  0.25960566175E+02  0.95599723399E+01  0.18191800993E+02  0.91889794767E+02  0.85717260173E+02 0.  0.
         13    1    3    3    0    0  0.39791986955E+02 -0.13916762744E+02  0.39136539342E+02  0.57521807924E+02  0.10566000000E+00 0.  1.
         22    1    1    0    0    0 -0.25960566175E+02 -0.95599723399E+01 -0.18191800993E+02  0.33110205233E+02  0.00000000000E+00 0.  1.
</event>
<event>
 5    1  0.1680526E-003  0.9118800E+02  0.7818608E-02  0.1130116E+00
         25   -1    0    0    0    0  0.00000000000E+00  0.00000000000E+00  0.99999998245E-14  0.12500000000E+03  0.12500000000E+03 0.  0.
        -13    1    3    3    0    0 -0.41130979455E+02  0.19756108504E+00 -0.14515010913E+02  0.43617579107E+02  0.10566000000E+00 0.  1.
         23    2    1    0    0    0 -0.99160707991E+01 -0.19673427218E+02  0.20751364359E+02  0.94734651475E+02  0.89770055523E+02 0.  0.
         13    1    3    3    0    0  0.31214908656E+02 -0.19870988303E+02  0.35266375272E+02  0.51117072368E+02  0.10566000000E+00 0. -1.
         22    1    1    0    0    0  0.99160707991E+01  0.19673427218E+02 -0.20751364359E+02  0.30265348525E+02  0.00000000000E+00 0. -1.
</event>
<event>
 5    1  0.1680526E-003  0.9118800E+02  0.7818608E-02  0.1130116E+00
         25   -1    0    0    0    0  0.00000000000E+00  0.00000000000E+00  0.99999998245E-14  0.12500000000E+03  0.12500000000E+03 0.  0.
        -13    1    3    3    0    0  0.10728129121E+02  0.29651935146E+02 -0.32250978882E+02  0.45105064186E+02  0.10566000000E+00 0. -1.
         23    2    1    0    0    0  0.19358120606E+02 -0.16776657465E+02 -0.14567241652E+02  0.95531413362E+02  0.90872731557E+02 0.  0.
         13    1    3    3    0    0  0.86299914844E+01 -0.46428592611E+02  0.17683737230E+02  0.50426349176E+02  0.10566000000E+00 0.  1.
         22    1    1    0    0    0 -0.19358120606E+02  0.16776657465E+02  0.14567241652E+02  0.29468586638E+02  0.00000000000E+00 0.  1.
</event>
<event>
 5    1  0.1680526E-003  0.9118800E+02  0.7818608E-02  0.1130116E+00
         25   -1    0    0    0    0  0.00000000000E+00  0.00000000000E+00  0.99999998245E-14  0.12500000000E+03  0.12500000000E+03 0.  0.
        -13    1    3    3    0    0  0.23506565328E+02 -0.28863914781E+02 -0.43939451481E+02  0.57587939280E+02  0.10566000000E+00 0.  1.
         23    2    1    0    0    0  0.20571116500E+02  0.80686615850E+00 -0.23610582127E+02  0.93674587706E+02  0.88281634140E+02 0.  0.
         13    1    3    3    0    0 -0.29354488286E+01  0.29670780940E+02  0.20328869354E+02  0.36086648426E+02  0.10566000000E+00 0. -1.
         22    1    1    0    0    0 -0.20571116500E+02 -0.80686615850E+00  0.23610582127E+02  0.31325412294E+02  0.00000000000E+00 0.  1.
</event>
<event>
 5    1  0.1680526E-003  0.9118800E+02  0.7818608E-02  0.1130116E+00
         25   -1    0    0    0    0  0.00000000000E+00  0.00000000000E+00  0.99999998245E-14  0.12500000000E+03  0.12500000000E+03 0.  0.
        -13    1    3    3    0    0 -0.32278171593E+01  0.35789181675E+02  0.48198077519E+02  0.60119465809E+02  0.10566000000E+00 0.  1.
         23    2    1    0    0    0 -0.12080848027E+02  0.17628524070E+02  0.15334561353E+02  0.98696758339E+02  0.95127228409E+02 0.  0.
         13    1    3    3    0    0 -0.88530308681E+01 -0.18160657604E+02 -0.32863516166E+02  0.38577292531E+02  0.10566000000E+00 0. -1.
         22    1    1    0    0    0  0.12080848027E+02 -0.17628524070E+02 -0.15334561353E+02  0.26303241661E+02  0.00000000000E+00 0.  1.
</event>
<event>
 5    1  0.1680526E-003  0.9118800E+02  0.7818608E-02  0.1130116E+00
         25   -1    0    0    0    0  0.00000000000E+00  0.00000000000E+00  0.99999998245E-14  0.12500000000E+03  0.12500000000E+03 0.  0.
        -13    1    3    3    0    0  0.13961801545E+01  0.28387622136E+02 -0.20842180153E+02  0.35245057059E+02  0.10566000000E+00 0. -1.
         23    2    1    0    0    0 -0.13998242016E+02 -0.25218516951E+02  0.32013174299E+01  0.95979786182E+02  0.91487411952E+02 0.  0.
         13    1    3    3    0    0 -0.15394422171E+02 -0.53606139086E+02  0.24043497583E+02  0.60734729124E+02  0.10566000000E+00 0.  1.
         22    1    1    0    0    0  0.13998242016E+02  0.25218516951E+02 -0.32013174299E+01  0.29020213818E+02  0.00000000000E+00 0.  1.
</event>
<event>
 5    1  0.1680526E-003  0.9118800E+02  0.7818608E-02  0.1130116E+00
         25   -1    0    0    0    0  0.00000000000E+00  0.00000000000E+00  0.99999998245E-14  0.12500000000E+03  0.12500000000E+03 0.  0.
        -13    1    3    3    0    0 -0.32388075587E+02  0.21043835194E+02 -0.37067233534E+02  0.53533367219E+02  0.10566000000E+00 0. -1.
         23    2    1    0    0    0 -0.25091316542E+02 -0.11407295535E+02 -0.13421943048E+02  0.94343041371E+02  0.89223093102E+02 0.  0.
         13    1    3    3    0    0  0.72967590450E+01 -0.32451130729E+02  0.23645290486E+02  0.40809674152E+02  0.10566000000E+00 0.  1.
         22    1    1    0    0    0  0.25091316542E+02  0.11407295535E+02  0.13421943048E+02  0.30656958629E+02  0.00000000000E+00 0. -1.
</event>
<event>
 5    1  0.1680526E-003  0.9118800E+02  0.7818608E-02  0.1130116E+00
         25   -1    0    0    0    0  0.00000000000E+00  0.00000000000E+00  0.99999998245E-14  0.12500000000E+03  0.12500000000E+03 0.  0.
        -13    1    3    3    0    0  0.47198907915E+02  0.14060250766E+02  0.23992911009E+02  0.54782282744E+02  0.10566000000E+00 0.  1.
         23    2    1    0    0    0  0.70456409485E+01  0.14195634185E+02  0.25513942223E+02  0.94964715183E+02  0.90089837361E+02 0.  0.
         13    1    3    3    0    0 -0.40153266966E+02  0.13538341967E+00  0.15210312140E+01  0.40182432439E+02  0.10566000000E+00 0. -1.
         22    1    1    0    0    0 -0.70456409485E+01 -0.14195634185E+02 -0.25513942223E+02  0.30035284817E+02  0.00000000000E+00 0.  1.
</event>
<event>
 5    1  0.1680526E-003  0.9118800E+02  0.7818608E-02  0.1130116E+00
         25   -1    0    0    0    0  0.00000000000E+00  0.00000000000E+00  0.99999998245E-14  0.12500000000E+03  0.12500000000E+03 0.  0.
        -13    1    3    3    0    0  0.44438720815E+02  0.17441964117E+02  0.33479015928E+02  0.58308470152E+02  0.10566000000E+00 0.  1.
         23    2    1    0    0    0  0.60874827975E+01  0.17818578152E+01  0.23142460988E+02  0.10100404274E+03  0.98112235149E+02 0.  0.
         13    1    3    3    0    0 -0.38351238017E+02 -0.15660106302E+02 -0.10336554940E+02  0.42695572592E+02  0.10566000000E+00 0. -1.
         22    1    1    0    0    0 -0.60874827975E+01 -0.17818578152E+01 -0.23142460988E+02  0.23995957256E+02  0.00000000000E+00 0.  1.
</event>
<event>
 5    1  0.1680526E-003  0.9118800E+02  0.7818608E-02  0.1130116E+00
         25   -1    0    0    0    0  0.00000000000E+00  0.00000000000E+00  0.99999998245E-14  0.12500000000E+03  0.12500000000E+03 0.  0.
        -13    1    3    3    0    0 -0.43296006342E+02 -0.43026024498E+01  0.84478328441E+01  0.44321931330E+02  0.10566000000E+00 0. -1.
         23    2    1    0    0    0  0.48207123675E+00  0.12435021999E+02  0.27422524935E+02  0.94885932879E+02  0.89980460211E+02 0.  0.
         13    1    3    3    0    0  0.43778077579E+02  0.16737624449E+02  0.18974692090E+02  0.50564001549E+02  0.10566000000E+00 0.  1.
         22    1    1    0    0    0 -0.48207123675E+00 -0.12435021999E+02 -0.27422524935E+02  0.30114067121E+02  0.00000000000E+00 0. -1.
</event>
<event>
 5    1  0.1680526E-003  0.9118800E+02  0.7818608E-02  0.1130116E+00
         25   -1    0    0    0    0  0.00000000000E+00  0.00000000000E+00  0.99999998245E-14  0.12500000000E+03  0.12500000000E+03 0.  0.
        -13    1    3    3    0    0  0.29356332503E-01 -0.12587365596E+02  0.34044891127E+02  0.36297498679E+02  0.10566000000E+00 0.  1.
         23    2    1    0    0    0 -0.21575003157E+02  0.12158020880E+02 -0.15530243142E+02  0.95768395785E+02  0.91198130168E+02 0.  0.
         13    1    3    3    0    0 -0.21604359490E+02  0.24745386476E+02 -0.49575134269E+02  0.59470897106E+02  0.10566000000E+00 0. -1.
         22    1    1    0    0    0  0.21575003157E+02 -0.12158020880E+02  0.15530243142E+02  0.29231604215E+02  0.00000000000E+00 0. -1.
</event>
<event>
 5    1  0.1680526E-003  0.9118800E+02  0.7818608E-02  0.1130116E+00
         25   -1    0    0    0    0  0.00000000000E+00  0.00000000000E+00  0.99999998245E-14  0.12500000000E+03  0.12500000000E+03 0.  0.
        -13    1    3    3    0    0 -0.22330740065E+02  0.18498048220E+02 -0.51325652249E+02  0.58950602055E+02  0.10566000000E+00 0.  1.
         23    2    1    0    0    0  0.28274667762E+01  0.15154622519E+02 -0.25792530430E+02  0.94951509555E+02  0.90071512637E+02 0.  0.
         13    1    3    3    0    0  0.25158206842E+02 -0.33434257014E+01  0.25533121819E+02  0.36000907499E+02  0.10566000000E+00 0. -1.
         22    1    1    0    0    0 -0.28274667762E+01 -0.15154622519E+02  0.25792530430E+02  0.30048490445E+02  0.00000000000E+00 0.  1.
</event>
<event>
 5    1  0.1680526E-003  0.9118800E+02  0.7818608E-02  0.1130116E+00
         25   -1    0    0    0    0  0.00000000000E+00  0.00000000000E+00  0.99999998245E-14  0.12500000000E+03  0.12500000000E+03 0.  0.
        -13    1    3    3    0    0 -0.12006680117E+02 -0.18458316526E+02 -0.40494134548E+02  0.46093989990E+02  0.10566000000E+00 0.  1.
         23    2    1    0    0    0 -0.30436702100E+02  0.22213322699E+01 -0.83296278072E+00  0.94470981366E+02  0.89402155128E+02 0.  0.
         13    1    3    3    0    0 -0.18430021983E+02  0.20679648796E+02  0.39661171767E+02  0.48376991376E+02  0.10566000000E+00 0. -1.
         22    1    1    0    0    0  0.30436702100E+02 -0.22213322699E+01  0.83296278072E+00  0.30529018634E+02  0.00000000000E+00 0.  1.
</event>
<event>
 5    1  0.1680526E-003  0.9118800E+02  0.7818608E-02  0.1130116E+00
         25   -1    0    0    0    0  0.00000000000E+00  0.00000000000E+00  0.99999998245E-14  0.12500000000E+03  0.12500000000E+03 0.  0.
        -13    1    3    3    0    0 -0.32689580788E+02 -0.19025240094E+02  0.47554890804E+01  0.38120785579E+02  0.10566000000E+00 0.  1.
         23    2    1    0    0    0  0.17574755430E+01  0.26293506174E+02  0.12959763049E+02  0.95633477470E+02  0.91013017572E+02 0.  0.
         13    1    3    3    0    0  0.34447056331E+02  0.45318746268E+02  0.82042739684E+01  0.57512691891E+02  0.10566000000E+00 0. -1.
         22    1    1    0    0    0 -0.17574755430E+01 -0.26293506174E+02 -0.12959763049E+02  0.29366522530E+02  0.00000000000E+00 0. -1.
</event>
<event>
 5    1  0.1680526E-003  0.9118800E+02  0.7818608E-02  0.1130116E+00
         25   -1    0    0    0    0  0.00000000000E+00  0.00000000000E+00  0.99999998245E-14  0.12500000000E+03  0.12500000000E+03 0.  0.
        -13    1    3    3    0    0 -0.28898187331E+02 -0.28378036139E+02 -0.48664279180E+01  0.40793522168E+02  0.10566000000E+00 0. -1.
         23    2    1    0    0    0 -0.27858560516E+01  0.15544437023E+02  0.21523717406E+02  0.98304290096E+02  0.94610107938E+02 0.  0.
         13    1    3    3    0    0  0.26112331280E+02  0.43922473161E+02  0.26390145324E+02  0.57510767929E+02  0.10566000000E+00 0.  1.
         22    1    1    0    0    0  0.27858560516E+01 -0.15544437023E+02 -0.21523717406E+02  0.26695709904E+02  0.00000000000E+00 0. -1.
</event>
<event>
 5    1  0.1680526E-003  0.9118800E+02  0.7818608E-02  0.1130116E+00
         25   -1    0    0    0    0  0.00000000000E+00  0.00000000000E+00  0.99999998245E-14  0.12500000000E+03  0.12500000000E+03 0.  0.
        -13    1    3    3    0    0 -0.23178886037E+02  0.10518475764E+02 -0.32699618382E+02  0.41438813891E+02  0.10566000000E+00 0.  1.
         23    2    1    0    0    0 -0.35582313608E+01 -0.10700537834E+02  0.20284172590E+02  0.10179202340E+03  0.99111078338E+02 0.  0.
         13    1    3    3    0    0  0.19620654677E+02 -0.21219013598E+02  0.52983790971E+02  0.60353209506E+02  0.10566000000E+00 0. -1.
         22    1    1    0    0    0  0.35582313608E+01  0.10700537834E+02 -0.20284172590E+02  0.23207976603E+02  0.00000000000E+00 0. -1.
</event>
<event>
 5    1  0.1680526E-003  0.9118800E+02  0.7818608E-02  0.1130116E+00
         25   -1    0    0    0    0  0.00000000000E+00  0.00000000000E+00  0.99999998245E-14  0.12500000000E+03  0.12500000000E+03 0.  0.
        -13    1    3    3    0    0 -0.36563279991E+02  0.13568233695E+01 -0.25889376883E+02  0.44821706938E+02  0.10566000000E+00 0. -1.
         23    2    1    0    0    0  0.51572898914E+00  0.29390949692E+02 -0.10422185732E+02  0.93811607037E+02  0.88475430257E+02 0.  0.
         13    1    3    3    0    0  0.37079008980E+02  0.28034126322E+02  0.15467191151E+02  0.48989900099E+02  0.10566000000E+00 0.  1.
         22    1    1    0    0    0 -0.51572898914E+00 -0.29390949692E+02  0.10422185732E+02  0.31188392963E+02  0.00000000000E+00 0.  1.
</event>
<event>
 5    1  0.1680526E-003  0.9118800E+02  0.7818608E-02  0.1130116E+00
         25   -1    0    0    0    0  0.00000000000E+00  0.00000000000E+00  0.99999998245E-14  0.12500000000E+03  0.12500000000E+03 0.  0.
        -13    1    3    3    0    0  0.13406431812E+02 -0.15432225398E+02 -0.48723961798E+02  0.52838637492E+02  0.10566000000E+00 0. -1.
         23    2    1    0    0    0 -0.10021688848E+02  0.12316284373E+02 -0.21722573348E+02  0.98092839225E+02  0.94330322835E+02 0.  0.
         13    1    3    3    0    0 -0.23428120660E+02  0.27748509771E+02  0.27001388450E+02  0.45254201733E+02  0.10566000000E+00 0.  1.
         22    1    1    0    0    0  0.10021688848E+02 -0.12316284373E+02  0.21722573348E+02  0.26907160775E+02  0.00000000000E+00 0. -1.
</event>
<event>
 5    1  0.1680526E-003  0.9118800E+02  0.7818608E-02  0.1130116E+00
         25   -1    0    0    0    0  0.00000000000E+00  0.00000000000E+00  0.99999998245E-14  0.12500000000E+03  0.12500000000E+03 0.  0.
        -13    1    3    3    0    0  0.58621254065E+01  0.13759892381E+02  0.35275712836E+02  0.38315613433E+02  0.10566000000E+00 0.  1.
         23    2    1    0    0    0  0.42079811936E+01  0.13901118794E+02 -0.23639979886E+02  0.97254786747E+02  0.93213178718E+02 0.  0.
         13    1    3    3    0    0 -0.16541442129E+01  0.14122641306E+00 -0.58915692722E+02  0.58939173314E+02  0.10566000000E+00 0. -1.
         22    1    1    0    0    0 -0.42079811936E+01 -0.13901118794E+02  0.23639979886E+02  0.27745213253E+02  0.00000000000E+00 0. -1.
</event>
<event>
 5    1  0.1680526E-003  0.9118800E+02  0.7818608E-02  0.1130116E+00
         25   -1    0    0    0    0  0.00000000000E+00  0.00000000000E+00  0.99999998245E-14  0.12500000000E+03  0.12500000000E+03 0.  0.
        -13    1    3    3    0    0 -0.10122064785E+02  0.16526229338E+01 -0.22497331952E+02  0.24725057473E+02  0.10566000000E+00 0. -1.
         23    2    1    0    0    0  0.15704669490E+02 -0.40457448757E+02  0.50872796287E+01  0.81304208238E+02  0.68564218507E+02 0.  0.
         13    1    3    3    0    0  0.25826734275E+02 -0.42110071691E+02  0.27584611581E+02  0.56579150764E+02  0.10566000000E+00 0.  1.
         22    1    1    0    0    0 -0.15704669490E+02  0.40457448757E+02 -0.50872796287E+01  0.43695791762E+02  0.00000000000E+00 0.  1.
</event>
<event>
 5    1  0.1680526E-003  0.9118800E+02  0.7818608E-02  0.1130116E+00
         25   -1    0    0    0    0  0.00000000000E+00  0.00000000000E+00  0.99999998245E-14  0.12500000000E+03  0.12500000000E+03 0.  0.
        -13    1    3    3    0    0  0.44173057539E+02  0.24765806614E+02 -0.10845869034E+02  0.51790426034E+02  0.10566000000E+00 0.  1.
         23    2    1    0    0    0  0.11653452759E+01  0.29023772381E+02 -0.21606758057E+01  0.95872591725E+02  0.91340833866E+02 0.  0.
         13    1    3    3    0    0 -0.43007712263E+02  0.42579657669E+01  0.86851932281E+01  0.44082165692E+02  0.10566000000E+00 0. -1.
         22    1    1    0    0    0 -0.11653452759E+01 -0.29023772381E+02  0.21606758057E+01  0.29127408275E+02  0.00000000000E+00 0. -1.
</event>
<event>
 5    1  0.1680526E-003  0.9118800E+02  0.7818608E-02  0.1130116E+00
         25   -1    0    0    0    0  0.00000000000E+00  0.00000000000E+00  0.99999998245E-14  0.12500000000E+03  0.12500000000E+03 0.  0.
        -13    1    3    3    0    0  0.27248954902E+01  0.80640882441E+01 -0.35271662342E+02  0.36284375468E+02  0.10566000000E+00 0. -1.
         23    2    1    0    0    0  0.23799501213E+02 -0.34502743619E+01  0.18160223081E+02  0.94865064236E+02  0.89951465018E+02 0.  0.
         13    1    3    3    0    0  0.21074605723E+02 -0.11514362606E+02  0.53431885423E+02  0.58580688768E+02  0.10566000000E+00 0.  1.
         22    1    1    0    0    0 -0.23799501213E+02  0.34502743619E+01 -0.18160223081E+02  0.30134935764E+02  0.00000000000E+00 0. -1.
</event>
<event>
 5    1  0.1680526E-003  0.9118800E+02  0.7818608E-02  0.1130116E+00
         25   -1    0    0    0    0  0.00000000000E+00  0.00000000000E+00  0.99999998245E-14  0.12500000000E+03  0.12500000000E+03 0.  0.
        -13    1    3    3    0    0  0.15805173145E+02  0.59056610244E+02  0.51305732923E+01  0.61349984988E+02  0.10566000000E+00 0. -1.
         23    2    1    0    0    0  0.78854933616E+01  0.26767482336E+02  0.10803479083E+02  0.95076860518E+02  0.90245305304E+02 0.  0.
         13    1    3    3    0    0 -0.79196797833E+01 -0.32289127908E+02  0.56729057903E+01  0.33726875530E+02  0.10566000000E+00 0.  1.
         22    1    1    0    0    0 -0.78854933616E+01 -0.26767482336E+02 -0.10803479083E+02  0.29923139482E+02  0.00000000000E+00 0. -1.
</event>
<event>
 5    1  0.1680526E-003  0.9118800E+02  0.7818608E-02  0.1130116E+00
         25   -1    0    0    0    0  0.00000000000E+00  0.00000000000E+00  0.99999998245E-14  0.12500000000E+03  0.12500000000E+03 0.  0.
        -13    1    3    3    0    0  0.36633277335E+02  0.19798999353E+02  0.10974360929E+02  0.43063269099E+02  0.10566000000E+00 0.  1.
         23    2    1    0    0    0 -0.41690182317E+01  0.43706566941E+01 -0.24797854250E+02  0.99477129308E+02  0.96147190947E+02 0.  0.
         13    1    3    3    0    0 -0.40802295567E+02 -0.15428342659E+02 -0.35772215180E+02  0.56413860208E+02  0.10566000000E+00 0. -1.
         22    1    1    0    0    0  0.41690182317E+01 -0.43706566941E+01  0.24797854250E+02  0.25522870692E+02  0.00000000000E+00 0. -1.
</event>
<event>
 5    1  0.1680526E-003  0.9118800E+02  0.7818608E-02  0.1130116E+00
         25   -1    0    0    0    0  0.00000000000E+00  0.00000000000E+00  0.99999998245E-14  0.12500000000E+03  0.12500000000E+03 0.  0.
        -13    1    3    3    0    0 -0.26460614503E+02 -0.17960301831E+01  0.51558223752E+02  0.57979750300E+02  0.10566000000E+00 0.  1.
         23    2    1    0    0    0 -0.79824554943E+01  0.15461933357E+02  0.23650285731E+02  0.95638000851E+02  0.91019229906E+02 0.  0.
         13    1    3    3    0    0  0.18478159009E+02  0.17257963540E+02 -0.27907938021E+02  0.37658250551E+02  0.10566000000E+00 0. -1.
         22    1    1    0    0    0  0.79824554943E+01 -0.15461933357E+02 -0.23650285731E+02  0.29361999149E+02  0.00000000000E+00 0.  1.
</event>
<event>
 5    1  0.1680526E-003  0.9118800E+02  0.7818608E-02  0.1130116E+00
         25   -1    0    0    0    0  0.00000000000E+00  0.00000000000E+00  0.99999998245E-14  0.12500000000E+03  0.12500000000E+03 0.  0.
        -13    1    3    3    0    0 -0.50604406721E+02 -0.22105527179E+02  0.17638854049E+02  0.57970687831E+02  0.10566000000E+00 0.  1.
         23    2    1    0    0    0 -0.16050228036E+02 -0.17963595812E+02  0.21142610527E+02  0.92948314017E+02  0.87247226341E+02 0.  0.
         13    1    3    3    0    0  0.34554178685E+02  0.41419313673E+01  0.35037564784E+01  0.34977626185E+02  0.10566000000E+00 0. -1.
         22    1    1    0    0    0  0.16050228036E+02  0.17963595812E+02 -0.21142610527E+02  0.32051685983E+02  0.00000000000E+00 0.  1.
</event>
<event>
 5    1  0.1680526E-003  0.9118800E+02  0.7818608E-02  0.1130116E+00
         25   -1    0    0    0    0  0.00000000000E+00  0.00000000000E+00  0.99999998245E-14  0.12500000000E+03  0.12500000000E+03 0.  0.
        -13    1    3    3    0    0  0.11396732209E+02  0.36389976462E+02  0.27010579294E+02  0.46730059382E+02  0.10566000000E+00 0. -1.
         23    2    1    0    0    0  0.86840588741E+01  0.19047028210E+02 -0.19468052441E+02  0.96413163378E+02  0.92077634877E+02 0.  0.
         13    1    3    3    0    0 -0.27126733345E+01 -0.17342948252E+02 -0.46478631736E+02  0.49683103997E+02  0.10566000000E+00 0.  1.
         22    1    1    0    0    0 -0.86840588741E+01 -0.19047028210E+02  0.19468052441E+02  0.28586836622E+02  0.00000000000E+00 0.  1.
</event>
<event>
 5    1  0.1680526E-003  0.9118800E+02  0.7818608E-02  0.1130116E+00
         25   -1    0    0    0    0  0.00000000000E+00  0.00000000000E+00  0.99999998245E-14  0.12500000000E+03  0.12500000000E+03 0.  0.
        -13    1    3    3    0    0 -0.18273753122E+02  0.31359182003E+02 -0.20012933044E+02  0.41447038521E+02  0.10566000000E+00 0.  1.
         23    2    1    0    0    0  0.22952009670E+02  0.16468566169E+01 -0.23147429460E+02  0.92360907255E+02  0.86401544047E+02 0.  0.
         13    1    3    3    0    0  0.41225762792E+02 -0.29712325387E+02 -0.31344964158E+01  0.50913868734E+02  0.10566000000E+00 0. -1.
         22    1    1    0    0    0 -0.22952009670E+02 -0.16468566169E+01  0.23147429460E+02  0.32639092745E+02  0.00000000000E+00 0. -1.
</event>
<event>
 5    1  0.1680526E-003  0.9118800E+02  0.7818608E-02  0.1130116E+00
         25   -1    0    0    0    0  0.00000000000E+00  0.00000000000E+00  0.99999998245E-14  0.12500000000E+03  0.12500000000E+03 0.  0.
        -13    1    3    3    0    0 -0.82903456837E+01  0.37461459592E+02  0.27073725655E+02  0.46958370619E+02  0.10566000000E+00 0.  1.
         23    2    1    0    0    0  0.23356202244E+02  0.46327679743E+01  0.21540111166E+02  0.92891572580E+02  0.87165894391E+02 0.  0.
         13    1    3    3    0    0  0.31646547928E+02 -0.32828691617E+02 -0.55336144894E+01  0.45933201961E+02  0.10566000000E+00 0. -1.
         22    1    1    0    0    0 -0.23356202244E+02 -0.46327679743E+01 -0.21540111166E+02  0.32108427420E+02  0.00000000000E+00 0. -1.
</event>
<event>
 5    1  0.1680526E-003  0.9118800E+02  0.7818608E-02  0.1130116E+00
         25   -1    0    0    0    0  0.00000000000E+00  0.00000000000E+00  0.99999998245E-14  0.12500000000E+03  0.12500000000E+03 0.  0.
        -13    1    3    3    0    0  0.33985193979E+02  0.17458596719E+02  0.11558101008E+02  0.39917375567E+02  0.10566000000E+00 0. -1.
         23    2    1    0    0    0 -0.13551804153E+01 -0.27037020630E+02 -0.12547793065E+00  0.97928746922E+02  0.94112627901E+02 0.  0.
         13    1    3    3    0    0 -0.35340374394E+02 -0.44495617349E+02 -0.11683578939E+02  0.58011371355E+02  0.10566000000E+00 0.  1.
         22    1    1    0    0    0  0.13551804153E+01  0.27037020630E+02  0.12547793065E+00  0.27071253078E+02  0.00000000000E+00 0.  1.
</event>
<event>
 5    1  0.1680526E-003  0.9118800E+02  0.7818608E-02  0.1130116E+00
         25   -1    0    0    0    0  0.00000000000E+00  0.00000000000E+00  0.99999998245E-14  0.12500000000E+03  0.12500000000E+03 0.  0.
        -13    1    3    3    0    0  0.18429543068E+01 -0.21844323971E+02  0.33924040627E+02  0.40390873559E+02  0.10566000000E+00 0.  1.
         23    2    1    0    0    0 -0.83550945132E+01 -0.13339781113E+02 -0.22044275595E+02  0.97912965261E+02  0.94091664430E+02 0.  0.
         13    1    3    3    0    0 -0.10198048820E+02  0.85045428582E+01 -0.55968316222E+02  0.57522091702E+02  0.10566000000E+00 0. -1.
         22    1    1    0    0    0  0.83550945132E+01  0.13339781113E+02  0.22044275595E+02  0.27087034739E+02  0.00000000000E+00 0. -1.
</event>
<event>
 5    1  0.1680526E-003  0.9118800E+02  0.7818608E-02  0.1130116E+00
         25   -1    0    0    0    0  0.00000000000E+00  0.00000000000E+00  0.99999998245E-14  0.12500000000E+03  0.12500000000E+03 0.  0.
        -13    1    3    3    0    0  0.63260425416E+01 -0.78036725582E+00  0.51747010800E+02  0.52138201715E+02  0.10566000000E+00 0. -1.
         23    2    1    0    0    0  0.13334970916E+02 -0.21219774881E+02  0.12376359127E+02  0.97048710932E+02  0.92936417690E+02 0.  0.
         13    1    3    3    0    0  0.70089283748E+01 -0.20439407625E+02 -0.39370651672E+02  0.44910509217E+02  0.10566000000E+00 0.  1.
         22    1    1    0    0    0 -0.13334970916E+02  0.21219774881E+02 -0.12376359127E+02  0.27951289068E+02  0.00000000000E+00 0. -1.
</event>
<event>
 5    1  0.1680526E-003  0.9118800E+02  0.7818608E-02  0.1130116E+00
         25   -1    0    0    0    0  0.00000000000E+00  0.00000000000E+00  0.99999998245E-14  0.12500000000E+03  0.12500000000E+03 0.  0.
        -13    1    3    3    0    0  0.16177458106E+02  0.11852255161E+02  0.54496871411E+02  0.58069839511E+02  0.10566000000E+00 0. -1.
         23    2    1    0    0    0 -0.42018543497E+01  0.17256585115E+02  0.24140666734E+02  0.95029729728E+02  0.90180000177E+02 0.  0.
         13    1    3    3    0    0 -0.20379312456E+02  0.54043299539E+01 -0.30356204677E+02  0.36959890217E+02  0.10566000000E+00 0.  1.
         22    1    1    0    0    0  0.42018543497E+01 -0.17256585115E+02 -0.24140666734E+02  0.29970270272E+02  0.00000000000E+00 0. -1.
</event>
<event>
 5    1  0.1680526E-003  0.9118800E+02  0.7818608E-02  0.1130116E+00
         25   -1    0    0    0    0  0.00000000000E+00  0.00000000000E+00  0.99999998245E-14  0.12500000000E+03  0.12500000000E+03 0.  0.
        -13    1    3    3    0    0  0.33417866443E+02 -0.20236283153E+02  0.81843492780E+01  0.39915607105E+02  0.10566000000E+00 0. -1.
         23    2    1    0    0    0 -0.21352487933E+02 -0.16116936948E+02 -0.78257788401E+01  0.97126585930E+02  0.93041101038E+02 0.  0.
         13    1    3    3    0    0 -0.54770354376E+02  0.41193462049E+01 -0.16010128118E+02  0.57210978824E+02  0.10566000000E+00 0.  1.
         22    1    1    0    0    0  0.21352487933E+02  0.16116936948E+02  0.78257788401E+01  0.27873414070E+02  0.00000000000E+00 0.  1.
</event>
<event>
 5    1  0.1680526E-003  0.9118800E+02  0.7818608E-02  0.1130116E+00
         25   -1    0    0    0    0  0.00000000000E+00  0.00000000000E+00  0.99999998245E-14  0.12500000000E+03  0.12500000000E+03 0.  0.
        -13    1    3    3    0    0  0.46991927009E+02  0.32624631524E+02 -0.70819933512E+01  0.57643504230E+02  0.10566000000E+00 0. -1.
         23    2    1    0    0    0  0.95412903232E+01  0.27524983462E+02 -0.44359864119E+01  0.95532409141E+02  0.90874101289E+02 0.  0.
         13    1    3    3    0    0 -0.37450636686E+02 -0.50996480618E+01  0.26460069392E+01  0.37888904910E+02  0.10566000000E+00 0.  1.
         22    1    1    0    0    0 -0.95412903232E+01 -0.27524983462E+02  0.44359864119E+01  0.29467590859E+02  0.00000000000E+00 0. -1.
</event>
<event>
 5    1  0.1680526E-003  0.9118800E+02  0.7818608E-02  0.1130116E+00
         25   -1    0    0    0    0  0.00000000000E+00  0.00000000000E+00  0.99999998245E-14  0.12500000000E+03  0.12500000000E+03 0.  0.
        -13    1    3    3    0    0 -0.55300023807E+02 -0.13041792493E+02  0.53717328600E+01  0.57070549870E+02  0.10566000000E+00 0.  1.
         23    2    1    0    0    0 -0.23826289314E+02  0.53563275958E+01  0.16894256489E+02  0.95304912694E+02  0.90560632581E+02 0.  0.
         13    1    3    3    0    0  0.31473734493E+02  0.18398120089E+02  0.11522523629E+02  0.38234362824E+02  0.10566000000E+00 0. -1.
         22    1    1    0    0    0  0.23826289314E+02 -0.53563275958E+01 -0.16894256489E+02  0.29695087306E+02  0.00000000000E+00 0.  1.
</event>
<event>
 5    1  0.1680526E-003  0.9118800E+02  0.7818608E-02  0.1130116E+00
         25   -1    0    0    0    0  0.00000000000E+00  0.00000000000E+00  0.99999998245E-14  0.12500000000E+03  0.12500000000E+03 0.  0.
        -13    1    3    3    0    0  0.39873796381E+02 -0.18310498172E+02 -0.41030675831E+02  0.60072635237E+02  0.10566000000E+00 0. -1.
         23    2    1    0    0    0  0.22847204263E+02  0.29982870469E+01 -0.18908478961E+02  0.95192030521E+02  0.90404688098E+02 0.  0.
         13    1    3    3    0    0 -0.17026592118E+02  0.21308785219E+02  0.22122196870E+02  0.35119395283E+02  0.10566000000E+00 0.  1.
         22    1    1    0    0    0 -0.22847204263E+02 -0.29982870469E+01  0.18908478961E+02  0.29807969479E+02  0.00000000000E+00 0. -1.
</event>
<event>
 5    1  0.1680526E-003  0.9118800E+02  0.7818608E-02  0.1130116E+00
         25   -1    0    0    0    0  0.00000000000E+00  0.00000000000E+00  0.99999998245E-14  0.12500000000E+03  0.12500000000E+03 0.  0.
        -13    1    3    3    0    0 -0.75013290231E+01 -0.14854474445E+02  0.45002890541E+02  0.47981211628E+02  0.10566000000E+00 0. -1.
         23    2    1    0    0    0 -0.14100945884E+02  0.21171900308E+02  0.14018579392E+02  0.95955093293E+02  0.91453667631E+02 0.  0.
         13    1    3    3    0    0 -0.65996168610E+01  0.36026374753E+02 -0.30984311150E+02  0.47973881665E+02  0.10566000000E+00 0.  1.
         22    1    1    0    0    0  0.14100945884E+02 -0.21171900308E+02 -0.14018579392E+02  0.29044906707E+02  0.00000000000E+00 0.  1.
</event>
<event>
 5    1  0.1680526E-003  0.9118800E+02  0.7818608E-02  0.1130116E+00
         25   -1    0    0    0    0  0.00000000000E+00  0.00000000000E+00  0.99999998245E-14  0.12500000000E+03  0.12500000000E+03 0.  0.
        -13    1    3    3    0    0  0.11034569397E+02 -0.11172558513E+02 -0.36948195313E+02  0.40146831587E+02  0.10566000000E+00 0.  1.
         23    2    1    0    0    0 -0.10346398691E+02 -0.21724978730E+02  0.14538226052E+02  0.96886254547E+02  0.92717655474E+02 0.  0.
         13    1    3    3    0    0 -0.21380968088E+02 -0.10552420216E+02  0.51486421365E+02  0.56739422960E+02  0.10566000000E+00 0. -1.
         22    1    1    0    0    0  0.10346398691E+02  0.21724978730E+02 -0.14538226052E+02  0.28113745453E+02  0.00000000000E+00 0. -1.
</event>
<event>
 5    1  0.1680526E-003  0.9118800E+02  0.7818608E-02  0.1130116E+00
         25   -1    0    0    0    0  0.00000000000E+00  0.00000000000E+00  0.99999998245E-14  0.12500000000E+03  0.12500000000E+03 0.  0.
        -13    1    3    3    0    0  0.26633301952E+02  0.49250245103E+01  0.48088615530E+02  0.55191618448E+02  0.10566000000E+00 0.  1.
         23    2    1    0    0    0  0.24792807440E+02  0.92973480956E+01  0.56112073650E+01  0.97933237533E+02  0.94118592123E+02 0.  0.
         13    1    3    3    0    0 -0.18404945120E+01  0.43723235853E+01 -0.42477408165E+02  0.42741619085E+02  0.10566000000E+00 0. -1.
         22    1    1    0    0    0 -0.24792807440E+02 -0.92973480956E+01 -0.56112073650E+01  0.27066762467E+02  0.00000000000E+00 0.  1.
</event>
<event>
 5    1  0.1680526E-003  0.9118800E+02  0.7818608E-02  0.1130116E+00
         25   -1    0    0    0    0  0.00000000000E+00  0.00000000000E+00  0.99999998245E-14  0.12500000000E+03  0.12500000000E+03 0.  0.
        -13    1    3    3    0    0  0.36670472049E+02  0.23022959157E+01  0.34262854506E+01  0.36902231407E+02  0.10566000000E+00 0. -1.
         23    2    1    0    0    0 -0.20897209286E+02  0.13505972959E+02 -0.11752172027E+02  0.97482401834E+02  0.93517915173E+02 0.  0.
         13    1    3    3    0    0 -0.57567681335E+02  0.11203677043E+02 -0.15178457477E+02  0.60580170427E+02  0.10566000000E+00 0.  1.
         22    1    1    0    0    0  0.20897209286E+02 -0.13505972959E+02  0.11752172027E+02  0.27517598166E+02  0.00000000000E+00 0.  1.
</event>
<event>
 5    1  0.1680526E-003  0.9118800E+02  0.7818608E-02  0.1130116E+00
         25   -1    0    0    0    0  0.00000000000E+00  0.00000000000E+00  0.99999998245E-14  0.12500000000E+03  0.12500000000E+03 0.  0.
        -13    1    3    3    0    0  0.33146267528E+02  0.27692474248E+02 -0.23021657040E+02  0.48944417842E+02  0.10566000000E+00 0. -1.
         23    2    1    0    0    0  0.13323754740E+02  0.19448219624E+02  0.18063558252E+02  0.95300710048E+02  0.90554831523E+02 0.  0.
         13    1    3    3    0    0 -0.19822512788E+02 -0.82442546234E+01  0.41085215292E+02  0.46356292206E+02  0.10566000000E+00 0.  1.
         22    1    1    0    0    0 -0.13323754740E+02 -0.19448219624E+02 -0.18063558252E+02  0.29699289952E+02  0.00000000000E+00 0. -1.
</event>
<event>
 5    1  0.1680526E-003  0.9118800E+02  0.7818608E-02  0.1130116E+00
         25   -1    0    0    0    0  0.00000000000E+00  0.00000000000E+00  0.99999998245E-14  0.12500000000E+03  0.12500000000E+03 0.  0.
        -13    1    3    3    0    0 -0.14335638880E+02  0.19031234544E+00 -0.49374782456E+02  0.51414269104E+02  0.10566000000E+00 0.  1.
         23    2    1    0    0    0 -0.19724540206E+02 -0.19923379123E+02 -0.11376791561E+02  0.94743927746E+02  0.89782971306E+02 0.  0.
         13    1    3    3    0    0 -0.53889013260E+01 -0.20113691468E+02  0.37997990894E+02  0.43329658642E+02  0.10566000000E+00 0. -1.
         22    1    1    0    0    0  0.19724540206E+02  0.19923379123E+02  0.11376791561E+02  0.30256072254E+02  0.00000000000E+00 0. -1.
</event>
<event>
 5    1  0.1680526E-003  0.9118800E+02  0.7818608E-02  0.1130116E+00
         25   -1    0    0    0    0  0.00000000000E+00  0.00000000000E+00  0.99999998245E-14  0.12500000000E+03  0.12500000000E+03 0.  0.
        -13    1    3    3    0    0  0.44053786805E+01 -0.14849662448E+02 -0.34954613073E+02  0.38232917431E+02  0.10566000000E+00 0.  1.
         23    2    1    0    0    0  0.32339154512E+02  0.55411339084E+01  0.57965289898E+01  0.91681464200E+02  0.85412915007E+02 0.  0.
         13    1    3    3    0    0  0.27933775832E+02  0.20390796356E+02  0.40751142063E+02  0.53448546769E+02  0.10566000000E+00 0. -1.
         22    1    1    0    0    0 -0.32339154512E+02 -0.55411339084E+01 -0.57965289898E+01  0.33318535800E+02  0.00000000000E+00 0. -1.
</event>
<event>
 5    1  0.1680526E-003  0.9118800E+02  0.7818608E-02  0.1130116E+00
         25   -1    0    0    0    0  0.00000000000E+00  0.00000000000E+00  0.99999998245E-14  0.12500000000E+03  0.12500000000E+03 0.  0.
        -13    1    3    3    0    0  0.30293020746E+02 -0.34781527321E+02 -0.12125757531E+02  0.47691371425E+02  0.10566000000E+00 0.  1.
         23    2    1    0    0    0  0.25471942858E+02  0.10996293143E+02  0.50072902605E+01  0.96807602237E+02  0.92611557374E+02 0.  0.
         13    1    3    3    0    0 -0.48210778877E+01  0.45777820464E+02  0.17133047792E+02  0.49116230812E+02  0.10566000000E+00 0. -1.
         22    1    1    0    0    0 -0.25471942858E+02 -0.10996293143E+02 -0.50072902605E+01  0.28192397763E+02  0.00000000000E+00 0. -1.
</event>
<event>
 5    1  0.1680526E-003  0.9118800E+02  0.7818608E-02  0.1130116E+00
         25   -1    0    0    0    0  0.00000000000E+00  0.00000000000E+00  0.99999998245E-14  0.12500000000E+03  0.12500000000E+03 0.  0.
        -13    1    3    3    0    0  0.30521165676E+01 -0.72938559112E+01  0.35490060952E+02  0.36360298953E+02  0.10566000000E+00 0. -1.
         23    2    1    0    0    0 -0.22201574424E+02 -0.22425853206E+01 -0.18393222425E+02  0.96082017238E+02  0.91626984614E+02 0.  0.
         13    1    3    3    0    0 -0.25253690992E+02  0.50512705905E+01 -0.53883283377E+02  0.59721718284E+02  0.10566000000E+00 0.  1.
         22    1    1    0    0    0  0.22201574424E+02  0.22425853206E+01  0.18393222425E+02  0.28917982762E+02  0.00000000000E+00 0.  1.
</event>
<event>
 5    1  0.1680526E-003  0.9118800E+02  0.7818608E-02  0.1130116E+00
         25   -1    0    0    0    0  0.00000000000E+00  0.00000000000E+00  0.99999998245E-14  0.12500000000E+03  0.12500000000E+03 0.  0.
        -13    1    3    3    0    0 -0.49491709559E+02  0.25551253992E+01 -0.23145450961E+02  0.54696261711E+02  0.10566000000E+00 0. -1.
         23    2    1    0    0    0 -0.23500206292E+02  0.16565309362E+02  0.53769746714E+01  0.95749683307E+02  0.91172478450E+02 0.  0.
         13    1    3    3    0    0  0.25991503267E+02  0.14010183963E+02  0.28522425633E+02  0.41053421596E+02  0.10566000000E+00 0.  1.
         22    1    1    0    0    0  0.23500206292E+02 -0.16565309362E+02 -0.53769746714E+01  0.29250316693E+02  0.00000000000E+00 0. -1.
</event>
<event>
 5    1  0.1680526E-003  0.9118800E+02  0.7818608E-02  0.1130116E+00
         25   -1    0    0    0    0  0.00000000000E+00  0.00000000000E+00  0.99999998245E-14  0.12500000000E+03  0.12500000000E+03 0.  0.
        -13    1    3    3    0    0 -0.70594064372E+01 -0.11111802467E+02  0.32765232743E+02  0.35311174068E+02  0.10566000000E+00 0.  1.
         23    2    1    0    0    0  0.11311970355E+02 -0.25405106780E+02 -0.18490128053E+02  0.91604417070E+02  0.85300083632E+02 0.  0.
         13    1    3    3    0    0  0.18371376792E+02 -0.14293304313E+02 -0.51255360796E+02  0.56293243003E+02  0.10566000000E+00 0. -1.
         22    1    1    0    0    0 -0.11311970355E+02  0.25405106780E+02  0.18490128053E+02  0.33395582930E+02  0.00000000000E+00 0. -1.
</event>
<event>
 5    1  0.1680526E-003  0.9118800E+02  0.7818608E-02  0.1130116E+00
         25   -1    0    0    0    0  0.00000000000E+00  0.00000000000E+00  0.99999998245E-14  0.12500000000E+03  0.12500000000E+03 0.  0.
        -13    1    3    3    0    0 -0.43158092345E+02 -0.16622674808E+02 -0.20670216264E+02  0.50657706788E+02  0.10566000000E+00 0. -1.
         23    2    1    0    0    0 -0.63143301646E+01 -0.30478418993E+02 -0.32436989437E+01  0.93705809284E+02  0.88325830429E+02 0.  0.
         13    1    3    3    0    0  0.36843762180E+02 -0.13855744186E+02  0.17426517320E+02  0.43048102496E+02  0.10566000000E+00 0.  1.
         22    1    1    0    0    0  0.63143301646E+01  0.30478418993E+02  0.32436989437E+01  0.31294190716E+02  0.00000000000E+00 0. -1.
</event>
<event>
 5    1  0.1680526E-003  0.9118800E+02  0.7818608E-02  0.1130116E+00
         25   -1    0    0    0    0  0.00000000000E+00  0.00000000000E+00  0.99999998245E-14  0.12500000000E+03  0.12500000000E+03 0.  0.
        -13    1    3    3    0    0 -0.39464057525E+02  0.35648129233E+02  0.13335481769E+02  0.54827431020E+02  0.10566000000E+00 0. -1.
         23    2    1    0    0    0 -0.23667276393E+02 -0.35653171824E+01  0.14309174641E+02  0.97114449308E+02  0.93024794152E+02 0.  0.
         13    1    3    3    0    0  0.15796781132E+02 -0.39213446416E+02  0.97369287148E+00  0.42287018289E+02  0.10566000000E+00 0.  1.
         22    1    1    0    0    0  0.23667276393E+02  0.35653171824E+01 -0.14309174641E+02  0.27885550692E+02  0.00000000000E+00 0. -1.
</event>
<event>
 5    1  0.1680526E-003  0.9118800E+02  0.7818608E-02  0.1130116E+00
         25   -1    0    0    0    0  0.00000000000E+00  0.00000000000E+00  0.99999998245E-14  0.12500000000E+03  0.12500000000E+03 0.  0.
        -13    1    3    3    0    0 -0.52396653408E+02 -0.28283433419E+02 -0.18620405471E+01  0.59572143266E+02  0.10566000000E+00 0.  1.
         23    2    1    0    0    0 -0.22038079171E+02 -0.25838549319E+02  0.46649646475E+01  0.90720713840E+02  0.83995109739E+02 0.  0.
         13    1    3    3    0    0  0.30358574237E+02  0.24448841004E+01  0.65270051946E+01  0.31148570574E+02  0.10566000000E+00 0. -1.
         22    1    1    0    0    0  0.22038079171E+02  0.25838549319E+02 -0.46649646475E+01  0.34279286160E+02  0.00000000000E+00 0.  1.
</event>
<event>
 5    1  0.1680526E-003  0.9118800E+02  0.7818608E-02  0.1130116E+00
         25   -1    0    0    0    0  0.00000000000E+00  0.00000000000E+00  0.99999998245E-14  0.12500000000E+03  0.12500000000E+03 0.  0.
        -13    1    3    3    0    0 -0.27618215674E+02  0.33551652860E+02  0.52882673790E+00  0.43459982380E+02  0.10566000000E+00 0.  1.
         23    2    1    0    0    0  0.16675876802E+02  0.14190324278E+02 -0.19398225875E+02  0.95746943112E+02  0.91168721489E+02 0.  0.
         13    1    3    3    0    0  0.44294092476E+02 -0.19361328582E+02 -0.19927052613E+02  0.52286960732E+02  0.10566000000E+00 0. -1.
         22    1    1    0    0    0 -0.16675876802E+02 -0.14190324278E+02  0.19398225875E+02  0.29253056888E+02  0.00000000000E+00 0. -1.
</event>
<event>
 5    1  0.1680526E-003  0.9118800E+02  0.7818608E-02  0.1130116E+00
         25   -1    0    0    0    0  0.00000000000E+00  0.00000000000E+00  0.99999998245E-14  0.12500000000E+03  0.12500000000E+03 0.  0.
        -13    1    3    3    0    0 -0.47889238715E+02 -0.15207916374E+02  0.12871534351E+02  0.51868559511E+02  0.10566000000E+00 0.  1.
         23    2    1    0    0    0 -0.98031370007E+01 -0.26828049909E+02 -0.58092641889E+01  0.95852216081E+02  0.91312945524E+02 0.  0.
         13    1    3    3    0    0  0.38086101714E+02 -0.11620133535E+02 -0.18680798540E+02  0.43983656570E+02  0.10566000000E+00 0. -1.
         22    1    1    0    0    0  0.98031370007E+01  0.26828049909E+02  0.58092641889E+01  0.29147783919E+02  0.00000000000E+00 0.  1.
</event>
<event>
 5    1  0.1680526E-003  0.9118800E+02  0.7818608E-02  0.1130116E+00
         25   -1    0    0    0    0  0.00000000000E+00  0.00000000000E+00  0.99999998245E-14  0.12500000000E+03  0.12500000000E+03 0.  0.
        -13    1    3    3    0    0 -0.10511420972E+02 -0.17399289650E+02 -0.53461687104E+02  0.57196052340E+02  0.10566000000E+00 0.  1.
         23    2    1    0    0    0 -0.51304372405E+01  0.99487578214E+01 -0.27591611419E+02  0.95224234869E+02  0.90449205177E+02 0.  0.
         13    1    3    3    0    0  0.53809837318E+01  0.27348047472E+02  0.25870075685E+02  0.38028182529E+02  0.10566000000E+00 0. -1.
         22    1    1    0    0    0  0.51304372405E+01 -0.99487578214E+01  0.27591611419E+02  0.29775765131E+02  0.00000000000E+00 0.  1.
</event>
<event>
 5    1  0.1680526E-003  0.9118800E+02  0.7818608E-02  0.1130116E+00
         25   -1    0    0    0    0  0.00000000000E+00  0.00000000000E+00  0.99999998245E-14  0.12500000000E+03  0.12500000000E+03 0.  0.
        -13    1    3    3    0    0 -0.64234781579E+01 -0.35675481721E+02  0.27680504787E+02  0.45609457100E+02  0.10566000000E+00 0.  1.
         23    2    1    0    0    0 -0.27952183843E+02  0.47747854671E+01  0.75773938564E+01  0.95647997419E+02  0.91032957519E+02 0.  0.
         13    1    3    3    0    0 -0.21528705685E+02  0.40450267188E+02 -0.20103110931E+02  0.50038540319E+02  0.10566000000E+00 0. -1.
         22    1    1    0    0    0  0.27952183843E+02 -0.47747854671E+01 -0.75773938564E+01  0.29352002581E+02  0.00000000000E+00 0. -1.
</event>
<event>
 5    1  0.1680526E-003  0.9118800E+02  0.7818608E-02  0.1130116E+00
         25   -1    0    0    0    0  0.00000000000E+00  0.00000000000E+00  0.99999998245E-14  0.12500000000E+03  0.12500000000E+03 0.  0.
        -13    1    3    3    0    0  0.21703143689E+01 -0.21490630141E+02  0.32529004378E+02  0.39047467756E+02  0.10566000000E+00 0.  1.
         23    2    1    0    0    0  0.25174729941E+02  0.13962232294E+02 -0.52544461678E+01  0.95737051366E+02  0.91155158063E+02 0.  0.
         13    1    3    3    0    0  0.23004415572E+02  0.35452862435E+02 -0.37783450546E+02  0.56689583610E+02  0.10566000000E+00 0. -1.
         22    1    1    0    0    0 -0.25174729941E+02 -0.13962232294E+02  0.52544461678E+01  0.29262948634E+02  0.00000000000E+00 0.  1.
</event>
<event>
 5    1  0.1680526E-003  0.9118800E+02  0.7818608E-02  0.1130116E+00
         25   -1    0    0    0    0  0.00000000000E+00  0.00000000000E+00  0.99999998245E-14  0.12500000000E+03  0.12500000000E+03 0.  0.
        -13    1    3    3    0    0 -0.18487710604E+02  0.50747554380E+01 -0.38117322112E+02  0.42667200461E+02  0.10566000000E+00 0.  1.
         23    2    1    0    0    0 -0.22489681548E+02 -0.13326246449E+02  0.12022303256E+02  0.96226567877E+02  0.91823972738E+02 0.  0.
         13    1    3    3    0    0 -0.40019709440E+01 -0.18401001887E+02  0.50139625369E+02  0.53559367416E+02  0.10566000000E+00 0. -1.
         22    1    1    0    0    0  0.22489681548E+02  0.13326246449E+02 -0.12022303256E+02  0.28773432123E+02  0.00000000000E+00 0. -1.
</event>
<event>
 5    1  0.1680526E-003  0.9118800E+02  0.7818608E-02  0.1130116E+00
         25   -1    0    0    0    0  0.00000000000E+00  0.00000000000E+00  0.99999998245E-14  0.12500000000E+03  0.12500000000E+03 0.  0.
        -13    1    3    3    0    0 -0.41643861849E+01  0.27356204508E+02  0.15564492238E+02  0.31748521541E+02  0.10566000000E+00 0.  1.
         23    2    1    0    0    0  0.82589496758E+01 -0.31013798493E+02  0.81649930493E+01  0.91883039719E+02  0.85707408839E+02 0.  0.
         13    1    3    3    0    0  0.12423335861E+02 -0.58370003001E+02 -0.73994991886E+01  0.60134518178E+02  0.10566000000E+00 0. -1.
         22    1    1    0    0    0 -0.82589496758E+01  0.31013798493E+02 -0.81649930493E+01  0.33116960281E+02  0.00000000000E+00 0. -1.
</event>
<event>
 5    1  0.1680526E-003  0.9118800E+02  0.7818608E-02  0.1130116E+00
         25   -1    0    0    0    0  0.00000000000E+00  0.00000000000E+00  0.99999998245E-14  0.12500000000E+03  0.12500000000E+03 0.  0.
        -13    1    3    3    0    0 -0.37032529773E+02  0.23529950655E+02 -0.41734949095E+02  0.60554801455E+02  0.10566000000E+00 0. -1.
         23    2    1    0    0    0 -0.10611328145E+02  0.19727407460E+02 -0.19749990812E+02  0.95136426416E+02  0.90327773160E+02 0.  0.
         13    1    3    3    0    0  0.26421201628E+02 -0.38025431949E+01  0.21984958283E+02  0.34581624961E+02  0.10566000000E+00 0.  1.
         22    1    1    0    0    0  0.10611328145E+02 -0.19727407460E+02  0.19749990812E+02  0.29863573584E+02  0.00000000000E+00 0. -1.
</event>
<event>
 5    1  0.1680526E-003  0.9118800E+02  0.7818608E-02  0.1130116E+00
         25   -1    0    0    0    0  0.00000000000E+00  0.00000000000E+00  0.99999998245E-14  0.12500000000E+03  0.12500000000E+03 0.  0.
        -13    1    3    3    0    0  0.21716736711E+02  0.18715822665E+02 -0.28268564833E+02  0.40261912438E+02  0.10566000000E+00 0. -1.
         23    2    1    0    0    0  0.16893687353E+02  0.62759079011E+01  0.24440521803E+02  0.94633525091E+02  0.89629131831E+02 0.  0.
         13    1    3    3    0    0 -0.48230493578E+01 -0.12439914764E+02  0.52709086636E+02  0.54371612653E+02  0.10566000000E+00 0.  1.
         22    1    1    0    0    0 -0.16893687353E+02 -0.62759079011E+01 -0.24440521803E+02  0.30366474909E+02  0.00000000000E+00 0.  1.
</event>
<event>
 5    1  0.1680526E-003  0.9118800E+02  0.7818608E-02  0.1130116E+00
         25   -1    0    0    0    0  0.00000000000E+00  0.00000000000E+00  0.99999998245E-14  0.12500000000E+03  0.12500000000E+03 0.  0.
        -13    1    3    3    0    0  0.15719490011E+01  0.42300771043E+02  0.20856304048E+02  0.47189223739E+02  0.10566000000E+00 0.  1.
         23    2    1    0    0    0  0.24400830692E+02 -0.19655776329E+00  0.16321875726E+02  0.95642840727E+02  0.91025876440E+02 0.  0.
         13    1    3    3    0    0  0.22828881690E+02 -0.42497328806E+02 -0.45344283224E+01  0.48453616987E+02  0.10566000000E+00 0. -1.
         22    1    1    0    0    0 -0.24400830692E+02  0.19655776329E+00 -0.16321875726E+02  0.29357159273E+02  0.00000000000E+00 0.  1.
</event>
<event>
 5    1  0.1680526E-003  0.9118800E+02  0.7818608E-02  0.1130116E+00
         25   -1    0    0    0    0  0.00000000000E+00  0.00000000000E+00  0.99999998245E-14  0.12500000000E+03  0.12500000000E+03 0.  0.
        -13    1    3    3    0    0 -0.30443863627E+02  0.27371449004E+02  0.82849736304E+01  0.41769330916E+02  0.10566000000E+00 0.  1.
         23    2    1    0    0    0  0.15302452388E+02  0.16299502929E+02 -0.18550260959E+02  0.95949164788E+02  0.91445564119E+02 0.  0.
         13    1    3    3    0    0  0.45746316015E+02 -0.11071946074E+02 -0.26835234590E+02  0.54179833872E+02  0.10566000000E+00 0. -1.
         22    1    1    0    0    0 -0.15302452388E+02 -0.16299502929E+02  0.18550260959E+02  0.29050835212E+02  0.00000000000E+00 0. -1.
</event>
<event>
 5    1  0.1680526E-003  0.9118800E+02  0.7818608E-02  0.1130116E+00
         25   -1    0    0    0    0  0.00000000000E+00  0.00000000000E+00  0.99999998245E-14  0.12500000000E+03  0.12500000000E+03 0.  0.
        -13    1    3    3    0    0 -0.14828187496E+01  0.21485890325E+02  0.57122621262E+02  0.61047909533E+02  0.10566000000E+00 0. -1.
         23    2    1    0    0    0 -0.93956154758E+01  0.64674717241E+01  0.28139753793E+02  0.94636345342E+02  0.89633064967E+02 0.  0.
         13    1    3    3    0    0 -0.79127967262E+01 -0.15018418601E+02 -0.28982867469E+02  0.33588435808E+02  0.10566000000E+00 0.  1.
         22    1    1    0    0    0  0.93956154758E+01 -0.64674717241E+01 -0.28139753793E+02  0.30363654658E+02  0.00000000000E+00 0. -1.
</event>
<event>
 5    1  0.1680526E-003  0.9118800E+02  0.7818608E-02  0.1130116E+00
         25   -1    0    0    0    0  0.00000000000E+00  0.00000000000E+00  0.99999998245E-14  0.12500000000E+03  0.12500000000E+03 0.  0.
        -13    1    3    3    0    0 -0.34513842638E+02  0.25477178030E+01  0.16383419800E+02  0.38289996187E+02  0.10566000000E+00 0. -1.
         23    2    1    0    0    0  0.22493845959E+02 -0.10774900787E+02  0.12856691510E+02  0.96939955282E+02  0.92790025436E+02 0.  0.
         13    1    3    3    0    0  0.57007688597E+02 -0.13322618590E+02 -0.35267282901E+01  0.58649959094E+02  0.10566000000E+00 0.  1.
         22    1    1    0    0    0 -0.22493845959E+02  0.10774900787E+02 -0.12856691510E+02  0.28060044718E+02  0.00000000000E+00 0.  1.
</event>
<event>
 5    1  0.1680526E-003  0.9118800E+02  0.7818608E-02  0.1130116E+00
         25   -1    0    0    0    0  0.00000000000E+00  0.00000000000E+00  0.99999998245E-14  0.12500000000E+03  0.12500000000E+03 0.  0.
        -13    1    3    3    0    0  0.27364817087E+01  0.47271301311E+01 -0.35123495710E+02  0.35545818409E+02  0.10566000000E+00 0.  1.
         23    2    1    0    0    0 -0.17475282108E+02 -0.12479139983E+02  0.19319361786E+02  0.96114845347E+02  0.91671758665E+02 0.  0.
         13    1    3    3    0    0 -0.20211763817E+02 -0.17206270115E+02  0.54442857496E+02  0.60569026938E+02  0.10566000000E+00 0. -1.
         22    1    1    0    0    0  0.17475282108E+02  0.12479139983E+02 -0.19319361786E+02  0.28885154653E+02  0.00000000000E+00 0. -1.
</event>
<event>
 5    1  0.1680526E-003  0.9118800E+02  0.7818608E-02  0.1130116E+00
         25   -1    0    0    0    0  0.00000000000E+00  0.00000000000E+00  0.99999998245E-14  0.12500000000E+03  0.12500000000E+03 0.  0.
        -13    1    3    3    0    0  0.24861998802E+01  0.45540002659E+02  0.28681390296E+02  0.53876769997E+02  0.10566000000E+00 0.  1.
         23    2    1    0    0    0  0.23201681033E+02  0.16834098954E+02  0.66479432047E+01  0.95573820513E+02  0.90931046009E+02 0.  0.
         13    1    3    3    0    0  0.20715481153E+02 -0.28705903705E+02 -0.22033447091E+02  0.41697050516E+02  0.10566000000E+00 0. -1.
         22    1    1    0    0    0 -0.23201681033E+02 -0.16834098954E+02 -0.66479432047E+01  0.29426179487E+02  0.00000000000E+00 0. -1.
</event>
<event>
 5    1  0.1680526E-003  0.9118800E+02  0.7818608E-02  0.1130116E+00
         25   -1    0    0    0    0  0.00000000000E+00  0.00000000000E+00  0.99999998245E-14  0.12500000000E+03  0.12500000000E+03 0.  0.
        -13    1    3    3    0    0 -0.20516976728E+02 -0.57663558268E+02 -0.66922240998E+00  0.61208588521E+02  0.10566000000E+00 0.  1.
         23    2    1    0    0    0 -0.16295176642E+02 -0.24069463939E+02  0.49034684724E+01  0.95522620891E+02  0.90860636266E+02 0.  0.
         13    1    3    3    0    0  0.42218000857E+01  0.33594094329E+02  0.55726908823E+01  0.34314032369E+02  0.10566000000E+00 0. -1.
         22    1    1    0    0    0  0.16295176642E+02  0.24069463939E+02 -0.49034684724E+01  0.29477379109E+02  0.00000000000E+00 0.  1.
</event>
<event>
 5    1  0.1680526E-003  0.9118800E+02  0.7818608E-02  0.1130116E+00
         25   -1    0    0    0    0  0.00000000000E+00  0.00000000000E+00  0.99999998245E-14  0.12500000000E+03  0.12500000000E+03 0.  0.
        -13    1    3    3    0    0  0.41435422198E+02 -0.13705141655E+02 -0.34368764800E+02  0.55551312121E+02  0.10566000000E+00 0. -1.
         23    2    1    0    0    0  0.14578526760E+02  0.12969314330E+02 -0.22492334771E+02  0.95223470986E+02  0.90448149491E+02 0.  0.
         13    1    3    3    0    0 -0.26856895438E+02  0.26674455985E+02  0.11876430029E+02  0.39672158864E+02  0.10566000000E+00 0.  1.
         22    1    1    0    0    0 -0.14578526760E+02 -0.12969314330E+02  0.22492334771E+02  0.29776529014E+02  0.00000000000E+00 0. -1.
</event>
<event>
 5    1  0.1680526E-003  0.9118800E+02  0.7818608E-02  0.1130116E+00
         25   -1    0    0    0    0  0.00000000000E+00  0.00000000000E+00  0.99999998245E-14  0.12500000000E+03  0.12500000000E+03 0.  0.
        -13    1    3    3    0    0 -0.27717739855E+02  0.44183565447E+02 -0.12691473884E+02  0.53680026375E+02  0.10566000000E+00 0. -1.
         23    2    1    0    0    0  0.58777116773E+01  0.22590126819E+02 -0.19977616939E+02  0.94275962134E+02  0.89129066715E+02 0.  0.
         13    1    3    3    0    0  0.33595451532E+02 -0.21593438628E+02 -0.72861430545E+01  0.40595935758E+02  0.10566000000E+00 0.  1.
         22    1    1    0    0    0 -0.58777116773E+01 -0.22590126819E+02  0.19977616939E+02  0.30724037866E+02  0.00000000000E+00 0.  1.
</event>
<event>
 5    1  0.1680526E-003  0.9118800E+02  0.7818608E-02  0.1130116E+00
         25   -1    0    0    0    0  0.00000000000E+00  0.00000000000E+00  0.99999998245E-14  0.12500000000E+03  0.12500000000E+03 0.  0.
        -13    1    3    3    0    0  0.69546119483E+00  0.34056253190E+02 -0.78229780104E+01  0.34950281782E+02  0.10566000000E+00 0.  1.
         23    2    1    0    0    0  0.10026631284E+02 -0.21934878100E+02  0.15513443825E+02  0.96323543603E+02  0.91955891060E+02 0.  0.
         13    1    3    3    0    0  0.93311700897E+01 -0.55991131291E+02  0.23336421835E+02  0.61373261821E+02  0.10566000000E+00 0. -1.
         22    1    1    0    0    0 -0.10026631284E+02  0.21934878100E+02 -0.15513443825E+02  0.28676456397E+02  0.00000000000E+00 0. -1.
</event>
<event>
 5    1  0.1680526E-003  0.9118800E+02  0.7818608E-02  0.1130116E+00
         25   -1    0    0    0    0  0.00000000000E+00  0.00000000000E+00  0.99999998245E-14  0.12500000000E+03  0.12500000000E+03 0.  0.
        -13    1    3    3    0    0 -0.45199863029E+02  0.13189426660E+02  0.40999017842E+02  0.62433318200E+02  0.10566000000E+00 0.  1.
         23    2    1    0    0    0 -0.21826208712E+02  0.63983444351E+01  0.17110025868E+02  0.96538180250E+02  0.92247195418E+02 0.  0.
         13    1    3    3    0    0  0.23373654316E+02 -0.67910822247E+01 -0.23888991974E+02  0.34104862050E+02  0.10566000000E+00 0. -1.
         22    1    1    0    0    0  0.21826208712E+02 -0.63983444351E+01 -0.17110025868E+02  0.28461819750E+02  0.00000000000E+00 0.  1.
</event>
<event>
 5    1  0.1680526E-003  0.9118800E+02  0.7818608E-02  0.1130116E+00
         25   -1    0    0    0    0  0.00000000000E+00  0.00000000000E+00  0.99999998245E-14  0.12500000000E+03  0.12500000000E+03 0.  0.
        -13    1    3    3    0    0 -0.30378625500E+02  0.49232076030E+01 -0.21776717474E+02  0.37700602758E+02  0.10566000000E+00 0.  1.
         23    2    1    0    0    0 -0.32473821481E+01  0.20651057614E+01  0.29215474946E+02  0.95532150928E+02  0.90873746110E+02 0.  0.
         13    1    3    3    0    0  0.27131243352E+02 -0.28581018416E+01  0.50992192419E+02  0.57831548170E+02  0.10566000000E+00 0. -1.
         22    1    1    0    0    0  0.32473821481E+01 -0.20651057614E+01 -0.29215474946E+02  0.29467849072E+02  0.00000000000E+00 0. -1.
</event>
<event>
 5    1  0.1680526E-003  0.9118800E+02  0.7818608E-02  0.1130116E+00
         25   -1    0    0    0    0  0.00000000000E+00  0.00000000000E+00  0.99999998245E-14  0.12500000000E+03  0.12500000000E+03 0.  0.
        -13    1    3    3    0    0 -0.51933045747E+01  0.40258453553E+02 -0.28356611428E+02  0.49515876955E+02  0.10566000000E+00 0.  1.
         23    2    1    0    0    0  0.17531213386E+02  0.19652740686E+02  0.83679773785E+01  0.97366746398E+02  0.93363197243E+02 0.  0.
         13    1    3    3    0    0  0.22724517960E+02 -0.20605712867E+02  0.36724588807E+02  0.47850869442E+02  0.10566000000E+00 0. -1.
         22    1    1    0    0    0 -0.17531213386E+02 -0.19652740686E+02 -0.83679773785E+01  0.27633253602E+02  0.00000000000E+00 0.  1.
</event>
<event>
 5    1  0.1680526E-003  0.9118800E+02  0.7818608E-02  0.1130116E+00
         25   -1    0    0    0    0  0.00000000000E+00  0.00000000000E+00  0.99999998245E-14  0.12500000000E+03  0.12500000000E+03 0.  0.
        -13    1    3    3    0    0  0.16690509595E+02 -0.27866739529E+02 -0.23138803045E+01  0.32565219001E+02  0.10566000000E+00 0.  1.
         23    2    1    0    0    0 -0.48571883441E+01  0.30077012462E+02 -0.29657399736E+01  0.94389306267E+02  0.89287885890E+02 0.  0.
         13    1    3    3    0    0 -0.21547697939E+02  0.57943751990E+02 -0.65185966910E+00  0.61824087266E+02  0.10566000000E+00 0. -1.
         22    1    1    0    0    0  0.48571883441E+01 -0.30077012462E+02  0.29657399736E+01  0.30610693733E+02  0.00000000000E+00 0. -1.
</event>
<event>
 5    1  0.1680526E-003  0.9118800E+02  0.7818608E-02  0.1130116E+00
         25   -1    0    0    0    0  0.00000000000E+00  0.00000000000E+00  0.99999998245E-14  0.12500000000E+03  0.12500000000E+03 0.  0.
        -13    1    3    3    0    0  0.77177960212E+01 -0.59378420258E+01  0.39762357735E+02  0.40937496260E+02  0.10566000000E+00 0.  1.
         23    2    1    0    0    0  0.29558483653E+02  0.11116084340E+02 -0.44423081094E+01  0.93109478081E+02  0.87477823020E+02 0.  0.
         13    1    3    3    0    0  0.21840687631E+02  0.17053926366E+02 -0.44204665845E+02  0.52171981821E+02  0.10566000000E+00 0. -1.
         22    1    1    0    0    0 -0.29558483653E+02 -0.11116084340E+02  0.44423081094E+01  0.31890521919E+02  0.00000000000E+00 0. -1.
</event>
<event>
 5    1  0.1680526E-003  0.9118800E+02  0.7818608E-02  0.1130116E+00
         25   -1    0    0    0    0  0.00000000000E+00  0.00000000000E+00  0.99999998245E-14  0.12500000000E+03  0.12500000000E+03 0.  0.
        -13    1    3    3    0    0  0.17639566442E+02  0.22487216767E+02 -0.37468700475E+02  0.47124769511E+02  0.10566000000E+00 0.  1.
         23    2    1    0    0    0 -0.19805835303E+02 -0.41918884017E+01 -0.20649248058E+02  0.96082280764E+02  0.91627344123E+02 0.  0.
         13    1    3    3    0    0 -0.37445401745E+02 -0.26679105169E+02  0.16819452416E+02  0.48957511253E+02  0.10566000000E+00 0. -1.
         22    1    1    0    0    0  0.19805835303E+02  0.41918884017E+01  0.20649248058E+02  0.28917719236E+02  0.00000000000E+00 0.  1.
</event>
<event>
 5    1  0.1680526E-003  0.9118800E+02  0.7818608E-02  0.1130116E+00
         25   -1    0    0    0    0  0.00000000000E+00  0.00000000000E+00  0.99999998245E-14  0.12500000000E+03  0.12500000000E+03 0.  0.
        -13    1    3    3    0    0 -0.20412445975E+02 -0.15015969124E+02  0.41024210820E+02  0.48219750278E+02  0.10566000000E+00 0. -1.
         23    2    1    0    0    0  0.18788160164E+02  0.10101760703E+01  0.25465778090E+02  0.93337383687E+02  0.87802881056E+02 0.  0.
         13    1    3    3    0    0  0.39200606139E+02  0.16026145194E+02 -0.15558432729E+02  0.45117633409E+02  0.10566000000E+00 0.  1.
         22    1    1    0    0    0 -0.18788160164E+02 -0.10101760703E+01 -0.25465778090E+02  0.31662616313E+02  0.00000000000E+00 0. -1.
</event>
<event>
 5    1  0.1680526E-003  0.9118800E+02  0.7818608E-02  0.1130116E+00
         25   -1    0    0    0    0  0.00000000000E+00  0.00000000000E+00  0.99999998245E-14  0.12500000000E+03  0.12500000000E+03 0.  0.
        -13    1    3    3    0    0  0.25507129579E+02  0.51012234586E+02  0.24657186639E+02  0.62135736528E+02  0.10566000000E+00 0.  1.
         23    2    1    0    0    0  0.88149914526E+01  0.28049778860E+02  0.11437175278E+02  0.93451574576E+02  0.87965297953E+02 0.  0.
         13    1    3    3    0    0 -0.16692138127E+02 -0.22962455726E+02 -0.13220011361E+02  0.31315838048E+02  0.10566000000E+00 0. -1.
         22    1    1    0    0    0 -0.88149914526E+01 -0.28049778860E+02 -0.11437175278E+02  0.31548425424E+02  0.00000000000E+00 0.  1.
</event>
<event>
 5    1  0.1680526E-003  0.9118800E+02  0.7818608E-02  0.1130116E+00
         25   -1    0    0    0    0  0.00000000000E+00  0.00000000000E+00  0.99999998245E-14  0.12500000000E+03  0.12500000000E+03 0.  0.
        -13    1    3    3    0    0 -0.84760491485E+01  0.50131922307E+02  0.79081985278E+00  0.50849676532E+02  0.10566000000E+00 0.  1.
         23    2    1    0    0    0 -0.14899747929E+02  0.96514154527E+01  0.21782526517E+02  0.96899630428E+02  0.92735686805E+02 0.  0.
         13    1    3    3    0    0 -0.64236987805E+01 -0.40480506854E+02  0.20991706664E+02  0.46049953897E+02  0.10566000000E+00 0. -1.
         22    1    1    0    0    0  0.14899747929E+02 -0.96514154527E+01 -0.21782526517E+02  0.28100369572E+02  0.00000000000E+00 0.  1.
</event>
<event>
 5    1  0.1680526E-003  0.9118800E+02  0.7818608E-02  0.1130116E+00
         25   -1    0    0    0    0  0.00000000000E+00  0.00000000000E+00  0.99999998245E-14  0.12500000000E+03  0.12500000000E+03 0.  0.
        -13    1    3    3    0    0 -0.35161103398E+02  0.59123076402E+01 -0.27066938084E+02  0.44764817380E+02  0.10566000000E+00 0.  1.
         23    2    1    0    0    0 -0.99798644785E+01 -0.26373358476E+02  0.44732156740E+01  0.96448968657E+02  0.92126229513E+02 0.  0.
         13    1    3    3    0    0  0.25181238919E+02 -0.32285666116E+02  0.31540153758E+02  0.51684151277E+02  0.10566000000E+00 0. -1.
         22    1    1    0    0    0  0.99798644785E+01  0.26373358476E+02 -0.44732156740E+01  0.28551031343E+02  0.00000000000E+00 0. -1.
</event>
<event>
 5    1  0.1680526E-003  0.9118800E+02  0.7818608E-02  0.1130116E+00
         25   -1    0    0    0    0  0.00000000000E+00  0.00000000000E+00  0.99999998245E-14  0.12500000000E+03  0.12500000000E+03 0.  0.
        -13    1    3    3    0    0  0.25287071431E+02  0.77677441919E+01 -0.24822862845E+02  0.36276156291E+02  0.10566000000E+00 0.  1.
         23    2    1    0    0    0 -0.25089110403E+02 -0.13937625613E+02 -0.46188605298E+00  0.96295745834E+02  0.91918096468E+02 0.  0.
         13    1    3    3    0    0 -0.50376181834E+02 -0.21705369805E+02  0.24360976792E+02  0.60019589542E+02  0.10566000000E+00 0. -1.
         22    1    1    0    0    0  0.25089110403E+02  0.13937625613E+02  0.46188605298E+00  0.28704254166E+02  0.00000000000E+00 0. -1.
</event>
<event>
 5    1  0.1680526E-003  0.9118800E+02  0.7818608E-02  0.1130116E+00
         25   -1    0    0    0    0  0.00000000000E+00  0.00000000000E+00  0.99999998245E-14  0.12500000000E+03  0.12500000000E+03 0.  0.
        -13    1    3    3    0    0  0.30470601917E+02 -0.11469466181E+02 -0.27781277562E+02  0.42799728768E+02  0.10566000000E+00 0.  1.
         23    2    1    0    0    0  0.76492077159E+01  0.28504619294E+02 -0.23359519202E+01  0.95394588820E+02  0.90684327229E+02 0.  0.
         13    1    3    3    0    0 -0.22821394201E+02  0.39974085474E+02  0.25445325641E+02  0.52594860052E+02  0.10566000000E+00 0. -1.
         22    1    1    0    0    0 -0.76492077159E+01 -0.28504619294E+02  0.23359519202E+01  0.29605411180E+02  0.00000000000E+00 0. -1.
</event>
<event>
 5    1  0.1680526E-003  0.9118800E+02  0.7818608E-02  0.1130116E+00
         25   -1    0    0    0    0  0.00000000000E+00  0.00000000000E+00  0.99999998245E-14  0.12500000000E+03  0.12500000000E+03 0.  0.
        -13    1    3    3    0    0  0.31161439515E+02 -0.44266256358E+01 -0.21039941157E+02  0.37859221005E+02  0.10566000000E+00 0.  1.
         23    2    1    0    0    0  0.14688250376E+01  0.20194631658E+02  0.21624624776E+02  0.95375601415E+02  0.90658151061E+02 0.  0.
         13    1    3    3    0    0 -0.29692614477E+02  0.24621257294E+02  0.42664565933E+02  0.57516380411E+02  0.10566000000E+00 0. -1.
         22    1    1    0    0    0 -0.14688250376E+01 -0.20194631658E+02 -0.21624624776E+02  0.29624398585E+02  0.00000000000E+00 0. -1.
</event>
<event>
 5    1  0.1680526E-003  0.9118800E+02  0.7818608E-02  0.1130116E+00
         25   -1    0    0    0    0  0.00000000000E+00  0.00000000000E+00  0.99999998245E-14  0.12500000000E+03  0.12500000000E+03 0.  0.
        -13    1    3    3    0    0 -0.22732971261E+02  0.13556955411E+02 -0.21642047249E+02  0.34190179811E+02  0.10566000000E+00 0.  1.
         23    2    1    0    0    0  0.20900845685E+02 -0.19571727972E+02  0.62874254434E+01  0.95683970172E+02  0.91082339358E+02 0.  0.
         13    1    3    3    0    0  0.43633816946E+02 -0.33128683383E+02  0.27929472692E+02  0.61493790361E+02  0.10566000000E+00 0. -1.
         22    1    1    0    0    0 -0.20900845685E+02  0.19571727972E+02 -0.62874254434E+01  0.29316029828E+02  0.00000000000E+00 0. -1.
</event>
<event>
 5    1  0.1680526E-003  0.9118800E+02  0.7818608E-02  0.1130116E+00
         25   -1    0    0    0    0  0.00000000000E+00  0.00000000000E+00  0.99999998245E-14  0.12500000000E+03  0.12500000000E+03 0.  0.
        -13    1    3    3    0    0 -0.26551945161E+02  0.31878324915E+02  0.93933258218E+01  0.42537972745E+02  0.10566000000E+00 0.  1.
         23    2    1    0    0    0  0.15378468642E+02  0.16517942506E+01  0.24175888998E+02  0.96299837442E+02  0.91923660504E+02 0.  0.
         13    1    3    3    0    0  0.41930413802E+02 -0.30226530664E+02  0.14782563176E+02  0.53761864697E+02  0.10566000000E+00 0. -1.
         22    1    1    0    0    0 -0.15378468642E+02 -0.16517942506E+01 -0.24175888998E+02  0.28700162558E+02  0.00000000000E+00 0. -1.
</event>
<event>
 5    1  0.1680526E-003  0.9118800E+02  0.7818608E-02  0.1130116E+00
         25   -1    0    0    0    0  0.00000000000E+00  0.00000000000E+00  0.99999998245E-14  0.12500000000E+03  0.12500000000E+03 0.  0.
        -13    1    3    3    0    0  0.26099110611E+02  0.20597486959E+02  0.23227458357E+02  0.40557934236E+02  0.10566000000E+00 0. -1.
         23    2    1    0    0    0 -0.14675929535E+02 -0.15105411817E+02  0.21676425345E+02  0.94777098260E+02  0.89829140956E+02 0.  0.
         13    1    3    3    0    0 -0.40775040146E+02 -0.35702898777E+02 -0.15510330123E+01  0.54219164023E+02  0.10566000000E+00 0.  1.
         22    1    1    0    0    0  0.14675929535E+02  0.15105411817E+02 -0.21676425345E+02  0.30222901740E+02  0.00000000000E+00 0. -1.
</event>
<event>
 5    1  0.1680526E-003  0.9118800E+02  0.7818608E-02  0.1130116E+00
         25   -1    0    0    0    0  0.00000000000E+00  0.00000000000E+00  0.99999998245E-14  0.12500000000E+03  0.12500000000E+03 0.  0.
        -13    1    3    3    0    0  0.20596005618E+02 -0.12599605287E+02  0.37868630457E+02  0.44910910005E+02  0.10566000000E+00 0.  1.
         23    2    1    0    0    0 -0.23875189744E+02 -0.51404173054E+01  0.68728633831E+01  0.99629055468E+02  0.96344506158E+02 0.  0.
         13    1    3    3    0    0 -0.44471195362E+02  0.74591879819E+01 -0.30995767074E+02  0.54718145462E+02  0.10566000000E+00 0. -1.
         22    1    1    0    0    0  0.23875189744E+02  0.51404173054E+01 -0.68728633831E+01  0.25370944532E+02  0.00000000000E+00 0. -1.
</event>
<event>
 5    1  0.1680526E-003  0.9118800E+02  0.7818608E-02  0.1130116E+00
         25   -1    0    0    0    0  0.00000000000E+00  0.00000000000E+00  0.99999998245E-14  0.12500000000E+03  0.12500000000E+03 0.  0.
        -13    1    3    3    0    0 -0.33698034386E+02 -0.55489970063E+01  0.47093618061E+02  0.58173610128E+02  0.10566000000E+00 0.  1.
         23    2    1    0    0    0 -0.18030413084E+02 -0.17536623301E+02  0.15393086458E+02  0.95511424865E+02  0.90845232215E+02 0.  0.
         13    1    3    3    0    0  0.15667621302E+02 -0.11987626295E+02 -0.31700531602E+02  0.37337814737E+02  0.10566000000E+00 0. -1.
         22    1    1    0    0    0  0.18030413084E+02  0.17536623301E+02 -0.15393086458E+02  0.29488575135E+02  0.00000000000E+00 0.  1.
</event>
<event>
 5    1  0.1680526E-003  0.9118800E+02  0.7818608E-02  0.1130116E+00
         25   -1    0    0    0    0  0.00000000000E+00  0.00000000000E+00  0.99999998245E-14  0.12500000000E+03  0.12500000000E+03 0.  0.
        -13    1    3    3    0    0 -0.32186874268E+02  0.25479606416E+02 -0.20651541475E+02  0.45953264820E+02  0.10566000000E+00 0.  1.
         23    2    1    0    0    0  0.11413741124E+02  0.23971780484E+02  0.69205443656E+01  0.97562549675E+02  0.93624982877E+02 0.  0.
         13    1    3    3    0    0  0.43600615392E+02 -0.15078259315E+01  0.27572085841E+02  0.51609284855E+02  0.10566000000E+00 0. -1.
         22    1    1    0    0    0 -0.11413741124E+02 -0.23971780484E+02 -0.69205443656E+01  0.27437450325E+02  0.00000000000E+00 0. -1.
</event>
<event>
 5    1  0.1680526E-003  0.9118800E+02  0.7818608E-02  0.1130116E+00
         25   -1    0    0    0    0  0.00000000000E+00  0.00000000000E+00  0.99999998245E-14  0.12500000000E+03  0.12500000000E+03 0.  0.
        -13    1    3    3    0    0 -0.11353860756E+02 -0.23117051349E+02 -0.22412279865E+02  0.34141319100E+02  0.10566000000E+00 0.  1.
         23    2    1    0    0    0  0.20975881178E+02  0.10542154162E+02  0.17634421561E+02  0.95638504306E+02  0.91019921317E+02 0.  0.
         13    1    3    3    0    0  0.32329741934E+02  0.33659205511E+02  0.40046701426E+02  0.61497185206E+02  0.10566000000E+00 0. -1.
         22    1    1    0    0    0 -0.20975881178E+02 -0.10542154162E+02 -0.17634421561E+02  0.29361495694E+02  0.00000000000E+00 0. -1.
</event>
<event>
 5    1  0.1680526E-003  0.9118800E+02  0.7818608E-02  0.1130116E+00
         25   -1    0    0    0    0  0.00000000000E+00  0.00000000000E+00  0.99999998245E-14  0.12500000000E+03  0.12500000000E+03 0.  0.
        -13    1    3    3    0    0  0.26079732460E+02 -0.28018430272E+02  0.69592852528E+01  0.38905368464E+02  0.10566000000E+00 0.  1.
         23    2    1    0    0    0  0.45063289086E+01  0.26283615133E+02  0.73545389013E+01  0.97337305497E+02  0.93323771754E+02 0.  0.
         13    1    3    3    0    0 -0.21573403551E+02  0.54302045405E+02  0.39525364849E+00  0.58431937033E+02  0.10566000000E+00 0. -1.
         22    1    1    0    0    0 -0.45063289086E+01 -0.26283615133E+02 -0.73545389013E+01  0.27662694503E+02  0.00000000000E+00 0. -1.
</event>
<event>
 5    1  0.1680526E-003  0.9118800E+02  0.7818608E-02  0.1130116E+00
         25   -1    0    0    0    0  0.00000000000E+00  0.00000000000E+00  0.99999998245E-14  0.12500000000E+03  0.12500000000E+03 0.  0.
        -13    1    3    3    0    0 -0.45375388168E+02  0.25278195868E+02 -0.31253821831E+02  0.60619514851E+02  0.10566000000E+00 0.  1.
         23    2    1    0    0    0 -0.20826830499E+02  0.19478890948E+02 -0.69466310672E+01  0.95649706230E+02  0.91035303907E+02 0.  0.
         13    1    3    3    0    0  0.24548557669E+02 -0.57993049197E+01  0.24307190763E+02  0.35030191379E+02  0.10566000000E+00 0. -1.
         22    1    1    0    0    0  0.20826830499E+02 -0.19478890948E+02  0.69466310672E+01  0.29350293770E+02  0.00000000000E+00 0.  1.
</event>
<event>
 5    1  0.1680526E-003  0.9118800E+02  0.7818608E-02  0.1130116E+00
         25   -1    0    0    0    0  0.00000000000E+00  0.00000000000E+00  0.99999998245E-14  0.12500000000E+03  0.12500000000E+03 0.  0.
        -13    1    3    3    0    0 -0.29512650039E+02  0.66921204602E+01 -0.44368140805E+02  0.53705903503E+02  0.10566000000E+00 0. -1.
         23    2    1    0    0    0 -0.20402400832E+02  0.20954996236E+02 -0.67084648463E+01  0.94993778519E+02  0.90130153832E+02 0.  0.
         13    1    3    3    0    0  0.91102492072E+01  0.14262875776E+02  0.37659675958E+02  0.41287875016E+02  0.10566000000E+00 0.  1.
         22    1    1    0    0    0  0.20402400832E+02 -0.20954996236E+02  0.67084648463E+01  0.30006221481E+02  0.00000000000E+00 0. -1.
</event>
<event>
 5    1  0.1680526E-003  0.9118800E+02  0.7818608E-02  0.1130116E+00
         25   -1    0    0    0    0  0.00000000000E+00  0.00000000000E+00  0.99999998245E-14  0.12500000000E+03  0.12500000000E+03 0.  0.
        -13    1    3    3    0    0 -0.14935975110E+02 -0.81578119493E+01  0.17032553328E+02  0.24078045710E+02  0.10566000000E+00 0. -1.
         23    2    1    0    0    0  0.47372588377E+01 -0.19792036215E+02 -0.37014760024E+02  0.82759512569E+02  0.71167957272E+02 0.  0.
         13    1    3    3    0    0  0.19673233948E+02 -0.11634224265E+02 -0.54047313351E+02  0.58681466859E+02  0.10566000000E+00 0.  1.
         22    1    1    0    0    0 -0.47372588377E+01  0.19792036215E+02  0.37014760024E+02  0.42240487431E+02  0.00000000000E+00 0.  1.
</event>
<event>
 5    1  0.1680526E-003  0.9118800E+02  0.7818608E-02  0.1130116E+00
         25   -1    0    0    0    0  0.00000000000E+00  0.00000000000E+00  0.99999998245E-14  0.12500000000E+03  0.12500000000E+03 0.  0.
        -13    1    3    3    0    0  0.22596248200E+02  0.12662725712E+02 -0.25644376131E+02  0.36449694737E+02  0.10566000000E+00 0. -1.
         23    2    1    0    0    0 -0.12834205501E+02  0.16152657652E+02  0.21286446397E+02  0.95356485021E+02  0.90631789430E+02 0.  0.
         13    1    3    3    0    0 -0.35430453701E+02  0.34899319403E+01  0.46930822529E+02  0.58906790285E+02  0.10566000000E+00 0.  1.
         22    1    1    0    0    0  0.12834205501E+02 -0.16152657652E+02 -0.21286446397E+02  0.29643514979E+02  0.00000000000E+00 0.  1.
</event>
<event>
 5    1  0.1680526E-003  0.9118800E+02  0.7818608E-02  0.1130116E+00
         25   -1    0    0    0    0  0.00000000000E+00  0.00000000000E+00  0.99999998245E-14  0.12500000000E+03  0.12500000000E+03 0.  0.
        -13    1    3    3    0    0 -0.18737323693E+02 -0.13221652747E+01 -0.39911949877E+02  0.44111340120E+02  0.10566000000E+00 0. -1.
         23    2    1    0    0    0 -0.24783836134E+02  0.26980334939E+01  0.12560809506E+02  0.97084200644E+02  0.92984139298E+02 0.  0.
         13    1    3    3    0    0 -0.60465124413E+01  0.40201987686E+01  0.52472759383E+02  0.52972860524E+02  0.10566000000E+00 0.  1.
         22    1    1    0    0    0  0.24783836134E+02 -0.26980334939E+01 -0.12560809506E+02  0.27915799356E+02  0.00000000000E+00 0.  1.
</event>
<event>
 5    1  0.1680526E-003  0.9118800E+02  0.7818608E-02  0.1130116E+00
         25   -1    0    0    0    0  0.00000000000E+00  0.00000000000E+00  0.99999998245E-14  0.12500000000E+03  0.12500000000E+03 0.  0.
        -13    1    3    3    0    0  0.20144942922E+02 -0.21968702186E+02 -0.21708470502E+02  0.36874265506E+02  0.10566000000E+00 0. -1.
         23    2    1    0    0    0 -0.72412285283E+01  0.27709333715E+02 -0.86148241245E+01  0.95092513308E+02  0.90266983593E+02 0.  0.
         13    1    3    3    0    0 -0.27386171450E+02  0.49678035901E+02  0.13093646377E+02  0.58218247802E+02  0.10566000000E+00 0.  1.
         22    1    1    0    0    0  0.72412285283E+01 -0.27709333715E+02  0.86148241245E+01  0.29907486692E+02  0.00000000000E+00 0.  1.
</event>
<event>
 5    1  0.1680526E-003  0.9118800E+02  0.7818608E-02  0.1130116E+00
         25   -1    0    0    0    0  0.00000000000E+00  0.00000000000E+00  0.99999998245E-14  0.12500000000E+03  0.12500000000E+03 0.  0.
        -13    1    3    3    0    0 -0.20586958185E+02  0.40202294144E+02 -0.36092577408E+02  0.57816369739E+02  0.10566000000E+00 0.  1.
         23    2    1    0    0    0 -0.18779749447E+02  0.22238669739E+02 -0.27122149304E+01  0.95766568267E+02  0.91195625261E+02 0.  0.
         13    1    3    3    0    0  0.18072087381E+01 -0.17963624405E+02  0.33380362477E+02  0.37950198528E+02  0.10566000000E+00 0. -1.
         22    1    1    0    0    0  0.18779749447E+02 -0.22238669739E+02  0.27122149304E+01  0.29233431733E+02  0.00000000000E+00 0.  1.
</event>
<event>
 5    1  0.1680526E-003  0.9118800E+02  0.7818608E-02  0.1130116E+00
         25   -1    0    0    0    0  0.00000000000E+00  0.00000000000E+00  0.99999998245E-14  0.12500000000E+03  0.12500000000E+03 0.  0.
        -13    1    3    3    0    0 -0.35132051549E+02 -0.13609181334E+02 -0.10530872012E+02  0.39120088088E+02  0.10566000000E+00 0.  1.
         23    2    1    0    0    0  0.13731092985E+02  0.13407439929E+02 -0.21668458491E+02  0.96054802585E+02  0.91589850126E+02 0.  0.
         13    1    3    3    0    0  0.48863144534E+02  0.27016621263E+02 -0.11137586480E+02  0.56934714497E+02  0.10566000000E+00 0. -1.
         22    1    1    0    0    0 -0.13731092985E+02 -0.13407439929E+02  0.21668458491E+02  0.28945197415E+02  0.00000000000E+00 0. -1.
</event>
<event>
 5    1  0.1680526E-003  0.9118800E+02  0.7818608E-02  0.1130116E+00
         25   -1    0    0    0    0  0.00000000000E+00  0.00000000000E+00  0.99999998245E-14  0.12500000000E+03  0.12500000000E+03 0.  0.
        -13    1    3    3    0    0  0.42624147516E+02  0.92455933413E+00 -0.92432715623E+01  0.43624786471E+02  0.10566000000E+00 0. -1.
         23    2    1    0    0    0 -0.84668324145E+01 -0.20952311746E+02 -0.12270817703E+02  0.99285031874E+02  0.95897121794E+02 0.  0.
         13    1    3    3    0    0 -0.51090979931E+02 -0.21876871081E+02 -0.30275461404E+01  0.55660245402E+02  0.10566000000E+00 0.  1.
         22    1    1    0    0    0  0.84668324145E+01  0.20952311746E+02  0.12270817703E+02  0.25714968126E+02  0.00000000000E+00 0.  1.
</event>
<event>
 5    1  0.1680526E-003  0.9118800E+02  0.7818608E-02  0.1130116E+00
         25   -1    0    0    0    0  0.00000000000E+00  0.00000000000E+00  0.99999998245E-14  0.12500000000E+03  0.12500000000E+03 0.  0.
        -13    1    3    3    0    0 -0.17520388029E+02  0.69562202325E+00  0.31440822069E+02  0.35999782543E+02  0.10566000000E+00 0. -1.
         23    2    1    0    0    0  0.22709395615E+02 -0.15649085352E+02 -0.96481658163E+01  0.95781895593E+02  0.91216631697E+02 0.  0.
         13    1    3    3    0    0  0.40229783644E+02 -0.16344707375E+02 -0.41088987885E+02  0.59782113050E+02  0.10566000000E+00 0.  1.
         22    1    1    0    0    0 -0.22709395615E+02  0.15649085352E+02  0.96481658163E+01  0.29218104407E+02  0.00000000000E+00 0.  1.
</event>
<event>
 5    1  0.1680526E-003  0.9118800E+02  0.7818608E-02  0.1130116E+00
         25   -1    0    0    0    0  0.00000000000E+00  0.00000000000E+00  0.99999998245E-14  0.12500000000E+03  0.12500000000E+03 0.  0.
        -13    1    3    3    0    0 -0.48785419168E+02 -0.85227824063E+01 -0.21817360745E+02  0.54117126099E+02  0.10566000000E+00 0. -1.
         23    2    1    0    0    0 -0.71638058412E+01 -0.60338335080E+01 -0.27268231797E+02  0.96168008632E+02  0.91744221387E+02 0.  0.
         13    1    3    3    0    0  0.41621613327E+02  0.24889488982E+01 -0.54508710520E+01  0.42050882533E+02  0.10566000000E+00 0.  1.
         22    1    1    0    0    0  0.71638058412E+01  0.60338335080E+01  0.27268231797E+02  0.28831991368E+02  0.00000000000E+00 0. -1.
</event>
<event>
 5    1  0.1680526E-003  0.9118800E+02  0.7818608E-02  0.1130116E+00
         25   -1    0    0    0    0  0.00000000000E+00  0.00000000000E+00  0.99999998245E-14  0.12500000000E+03  0.12500000000E+03 0.  0.
        -13    1    3    3    0    0  0.47929865527E+02 -0.18191002182E+02  0.27675451698E+02  0.58259131134E+02  0.10566000000E+00 0.  1.
         23    2    1    0    0    0  0.21214549530E+02 -0.21102430880E+02  0.26845674110E+01  0.94957087309E+02  0.90079253034E+02 0.  0.
         13    1    3    3    0    0 -0.26715315997E+02 -0.29114286981E+01 -0.24990884287E+02  0.36697956174E+02  0.10566000000E+00 0. -1.
         22    1    1    0    0    0 -0.21214549530E+02  0.21102430880E+02 -0.26845674110E+01  0.30042912691E+02  0.00000000000E+00 0.  1.
</event>
<event>
 5    1  0.1680526E-003  0.9118800E+02  0.7818608E-02  0.1130116E+00
         25   -1    0    0    0    0  0.00000000000E+00  0.00000000000E+00  0.99999998245E-14  0.12500000000E+03  0.12500000000E+03 0.  0.
        -13    1    3    3    0    0 -0.48076546427E+02  0.15728409209E+02 -0.31554756246E+02  0.59619216519E+02  0.10566000000E+00 0.  1.
         23    2    1    0    0    0 -0.13096150601E+02  0.77888831085E+01 -0.24456626697E+02  0.96185030799E+02  0.91767410881E+02 0.  0.
         13    1    3    3    0    0  0.34980395826E+02 -0.79395261007E+01  0.70981295482E+01  0.36565814280E+02  0.10566000000E+00 0. -1.
         22    1    1    0    0    0  0.13096150601E+02 -0.77888831085E+01  0.24456626697E+02  0.28814969201E+02  0.00000000000E+00 0.  1.
</event>
<event>
 5    1  0.1680526E-003  0.9118800E+02  0.7818608E-02  0.1130116E+00
         25   -1    0    0    0    0  0.00000000000E+00  0.00000000000E+00  0.99999998245E-14  0.12500000000E+03  0.12500000000E+03 0.  0.
        -13    1    3    3    0    0  0.54221870080E+01 -0.18577983436E+02 -0.27084558096E+02  0.33288527030E+02  0.10566000000E+00 0. -1.
         23    2    1    0    0    0 -0.91208917229E+01  0.11959846003E+02  0.25254478926E+02  0.95605829012E+02  0.90975036427E+02 0.  0.
         13    1    3    3    0    0 -0.14543078731E+02  0.30537829439E+02  0.52339037023E+02  0.62317301982E+02  0.10566000000E+00 0.  1.
         22    1    1    0    0    0  0.91208917229E+01 -0.11959846003E+02 -0.25254478926E+02  0.29394170988E+02  0.00000000000E+00 0.  1.
</event>
<event>
 5    1  0.1680526E-003  0.9118800E+02  0.7818608E-02  0.1130116E+00
         25   -1    0    0    0    0  0.00000000000E+00  0.00000000000E+00  0.99999998245E-14  0.12500000000E+03  0.12500000000E+03 0.  0.
        -13    1    3    3    0    0 -0.47003853252E+02 -0.38341904400E+02  0.98977152255E+01  0.61460880114E+02  0.10566000000E+00 0.  1.
         23    2    1    0    0    0 -0.22412434659E+02 -0.16633502365E+02  0.12605650924E+02  0.94374960188E+02  0.89267799608E+02 0.  0.
         13    1    3    3    0    0  0.24591418593E+02  0.21708402035E+02  0.27079356984E+01  0.32914080074E+02  0.10566000000E+00 0. -1.
         22    1    1    0    0    0  0.22412434659E+02  0.16633502365E+02 -0.12605650924E+02  0.30625039812E+02  0.00000000000E+00 0.  1.
</event>
<event>
 5    1  0.1680526E-003  0.9118800E+02  0.7818608E-02  0.1130116E+00
         25   -1    0    0    0    0  0.00000000000E+00  0.00000000000E+00  0.99999998245E-14  0.12500000000E+03  0.12500000000E+03 0.  0.
        -13    1    3    3    0    0  0.28038346548E+02 -0.10686868422E+02  0.47469259012E+01  0.30379310449E+02  0.10566000000E+00 0.  1.
         23    2    1    0    0    0 -0.26023630579E+02 -0.22556463507E+02 -0.12514174730E+02  0.88358111898E+02  0.80402288367E+02 0.  0.
         13    1    3    3    0    0 -0.54061977128E+02 -0.11869595086E+02 -0.17261100631E+02  0.57978801449E+02  0.10566000000E+00 0. -1.
         22    1    1    0    0    0  0.26023630579E+02  0.22556463507E+02  0.12514174730E+02  0.36641888102E+02  0.00000000000E+00 0. -1.
</event>
<event>
 5    1  0.1680526E-003  0.9118800E+02  0.7818608E-02  0.1130116E+00
         25   -1    0    0    0    0  0.00000000000E+00  0.00000000000E+00  0.99999998245E-14  0.12500000000E+03  0.12500000000E+03 0.  0.
        -13    1    3    3    0    0  0.30647016453E+02  0.30692268181E+02  0.24902439447E+02  0.50013974028E+02  0.10566000000E+00 0. -1.
         23    2    1    0    0    0  0.27318419666E+02  0.77718432099E+00 -0.98137250478E+01  0.95961934158E+02  0.91463017333E+02 0.  0.
         13    1    3    3    0    0 -0.33285967874E+01 -0.29915083861E+02 -0.34716164494E+02  0.45947960131E+02  0.10566000000E+00 0.  1.
         22    1    1    0    0    0 -0.27318419666E+02 -0.77718432099E+00  0.98137250478E+01  0.29038065842E+02  0.00000000000E+00 0. -1.
</event>
<event>
 5    1  0.1680526E-003  0.9118800E+02  0.7818608E-02  0.1130116E+00
         25   -1    0    0    0    0  0.00000000000E+00  0.00000000000E+00  0.99999998245E-14  0.12500000000E+03  0.12500000000E+03 0.  0.
        -13    1    3    3    0    0  0.10947669342E+02 -0.15103778701E+02  0.48804035376E+02  0.52247685385E+02  0.10566000000E+00 0.  1.
         23    2    1    0    0    0 -0.72701155757E+01 -0.26285139663E+02  0.11169026468E+02  0.95529501195E+02  0.90870101237E+02 0.  0.
         13    1    3    3    0    0 -0.18217784917E+02 -0.11181360961E+02 -0.37635008908E+02  0.43281815810E+02  0.10566000000E+00 0. -1.
         22    1    1    0    0    0  0.72701155757E+01  0.26285139663E+02 -0.11169026468E+02  0.29470498805E+02  0.00000000000E+00 0.  1.
</event>
<event>
 5    1  0.1680526E-003  0.9118800E+02  0.7818608E-02  0.1130116E+00
         25   -1    0    0    0    0  0.00000000000E+00  0.00000000000E+00  0.99999998245E-14  0.12500000000E+03  0.12500000000E+03 0.  0.
        -13    1    3    3    0    0 -0.35205830746E+02 -0.12283284708E+02  0.61313011642E+01  0.37788008941E+02  0.10566000000E+00 0.  1.
         23    2    1    0    0    0  0.15011069803E+02 -0.79280427289E+01 -0.23311269027E+02  0.96162501118E+02  0.91736717182E+02 0.  0.
         13    1    3    3    0    0  0.50216900549E+02  0.43552419788E+01 -0.29442570191E+02  0.58374492177E+02  0.10566000000E+00 0. -1.
         22    1    1    0    0    0 -0.15011069803E+02  0.79280427289E+01  0.23311269027E+02  0.28837498882E+02  0.00000000000E+00 0.  1.
</event>
<event>
 5    1  0.1680526E-003  0.9118800E+02  0.7818608E-02  0.1130116E+00
         25   -1    0    0    0    0  0.00000000000E+00  0.00000000000E+00  0.99999998245E-14  0.12500000000E+03  0.12500000000E+03 0.  0.
        -13    1    3    3    0    0  0.41121328399E+02 -0.34081672118E+02 -0.26809969997E+02  0.59760435732E+02  0.10566000000E+00 0.  1.
         23    2    1    0    0    0  0.19958296057E+02 -0.66295906637E+01 -0.21671063748E+02  0.94801985862E+02  0.89863766144E+02 0.  0.
         13    1    3    3    0    0 -0.21163032341E+02  0.27452081454E+02  0.51389062490E+01  0.35041550130E+02  0.10566000000E+00 0. -1.
         22    1    1    0    0    0 -0.19958296057E+02  0.66295906637E+01  0.21671063748E+02  0.30198014138E+02  0.00000000000E+00 0.  1.
</event>
<event>
 5    1  0.1680526E-003  0.9118800E+02  0.7818608E-02  0.1130116E+00
         25   -1    0    0    0    0  0.00000000000E+00  0.00000000000E+00  0.99999998245E-14  0.12500000000E+03  0.12500000000E+03 0.  0.
        -13    1    3    3    0    0 -0.36245476125E+02  0.60165515047E+00 -0.10104336132E+02  0.37632503253E+02  0.10566000000E+00 0.  1.
         23    2    1    0    0    0  0.13200611824E+02  0.72632670259E+01  0.22996611012E+02  0.97507176965E+02  0.93551024800E+02 0.  0.
         13    1    3    3    0    0  0.49446087948E+02  0.66616118754E+01  0.33100947144E+02  0.59874673711E+02  0.10566000000E+00 0. -1.
         22    1    1    0    0    0 -0.13200611824E+02 -0.72632670259E+01 -0.22996611012E+02  0.27492823035E+02  0.00000000000E+00 0. -1.
</event>
<event>
 5    1  0.1680526E-003  0.9118800E+02  0.7818608E-02  0.1130116E+00
         25   -1    0    0    0    0  0.00000000000E+00  0.00000000000E+00  0.99999998245E-14  0.12500000000E+03  0.12500000000E+03 0.  0.
        -13    1    3    3    0    0 -0.31487116145E+02 -0.90641422528E+01  0.21991459044E+02  0.39461786489E+02  0.10566000000E+00 0.  1.
         23    2    1    0    0    0  0.13512014782E+01 -0.15515561168E+02 -0.24029692267E+02  0.96364628618E+02  0.92011722918E+02 0.  0.
         13    1    3    3    0    0  0.32838317624E+02 -0.64514189148E+01 -0.46021151311E+02  0.56902842129E+02  0.10566000000E+00 0. -1.
         22    1    1    0    0    0 -0.13512014782E+01  0.15515561168E+02  0.24029692267E+02  0.28635371382E+02  0.00000000000E+00 0. -1.
</event>
<event>
 5    1  0.1680526E-003  0.9118800E+02  0.7818608E-02  0.1130116E+00
         25   -1    0    0    0    0  0.00000000000E+00  0.00000000000E+00  0.99999998245E-14  0.12500000000E+03  0.12500000000E+03 0.  0.
        -13    1    3    3    0    0 -0.70444290797E+01  0.37873579025E+02 -0.10462761030E+02  0.39918823901E+02  0.10566000000E+00 0.  1.
         23    2    1    0    0    0 -0.14176195226E+01 -0.11225687480E+02  0.22838490987E+02  0.99512309342E+02  0.96192917283E+02 0.  0.
         13    1    3    3    0    0  0.56268095571E+01 -0.49099266504E+02  0.33301252018E+02  0.59593485441E+02  0.10566000000E+00 0. -1.
         22    1    1    0    0    0  0.14176195226E+01  0.11225687480E+02 -0.22838490987E+02  0.25487690658E+02  0.00000000000E+00 0. -1.
</event>
<event>
 5    1  0.1680526E-003  0.9118800E+02  0.7818608E-02  0.1130116E+00
         25   -1    0    0    0    0  0.00000000000E+00  0.00000000000E+00  0.99999998245E-14  0.12500000000E+03  0.12500000000E+03 0.  0.
        -13    1    3    3    0    0 -0.95492582277E+01  0.58105740557E+02  0.23378741253E+01  0.58931674317E+02  0.10566000000E+00 0. -1.
         23    2    1    0    0    0 -0.14081627100E+02  0.35047114964E+02  0.13423605434E+02  0.84915268843E+02  0.74858648203E+02 0.  0.
         13    1    3    3    0    0 -0.45323688722E+01 -0.23058625593E+02  0.11085731309E+02  0.25983594526E+02  0.10566000000E+00 0.  1.
         22    1    1    0    0    0  0.14081627100E+02 -0.35047114964E+02 -0.13423605434E+02  0.40084731157E+02  0.00000000000E+00 0. -1.
</event>
<event>
 5    1  0.1680526E-003  0.9118800E+02  0.7818608E-02  0.1130116E+00
         25   -1    0    0    0    0  0.00000000000E+00  0.00000000000E+00  0.99999998245E-14  0.12500000000E+03  0.12500000000E+03 0.  0.
        -13    1    3    3    0    0  0.17851507279E+02 -0.51336148025E+00  0.17492437027E+02  0.24998727354E+02  0.10566000000E+00 0. -1.
         23    2    1    0    0    0 -0.32407900886E+02 -0.26415209385E+02  0.51175575081E+01  0.82878453002E+02  0.71376559531E+02 0.  0.
         13    1    3    3    0    0 -0.50259408165E+02 -0.25901847904E+02 -0.12374879519E+02  0.57879725648E+02  0.10566000000E+00 0.  1.
         22    1    1    0    0    0  0.32407900886E+02  0.26415209385E+02 -0.51175575081E+01  0.42121546998E+02  0.00000000000E+00 0.  1.
</event>
<event>
 5    1  0.1680526E-003  0.9118800E+02  0.7818608E-02  0.1130116E+00
         25   -1    0    0    0    0  0.00000000000E+00  0.00000000000E+00  0.99999998245E-14  0.12500000000E+03  0.12500000000E+03 0.  0.
        -13    1    3    3    0    0  0.34888547588E+02  0.12517154972E+02 -0.36663705020E+01  0.37247058382E+02  0.10566000000E+00 0.  1.
         23    2    1    0    0    0 -0.55354539964E+01 -0.23853937782E+02  0.16750169707E+02  0.95331501827E+02  0.90597325880E+02 0.  0.
         13    1    3    3    0    0 -0.40424001584E+02 -0.36371092754E+02  0.20416540209E+02  0.58084443445E+02  0.10566000000E+00 0. -1.
         22    1    1    0    0    0  0.55354539964E+01  0.23853937782E+02 -0.16750169707E+02  0.29668498173E+02  0.00000000000E+00 0. -1.
</event>
<event>
 5    1  0.1680526E-003  0.9118800E+02  0.7818608E-02  0.1130116E+00
         25   -1    0    0    0    0  0.00000000000E+00  0.00000000000E+00  0.99999998245E-14  0.12500000000E+03  0.12500000000E+03 0.  0.
        -13    1    3    3    0    0  0.35212014229E+01 -0.34238079215E+02  0.11989259435E+02  0.36447200628E+02  0.10566000000E+00 0. -1.
         23    2    1    0    0    0  0.11615707368E+02  0.15990032446E+02  0.28836852681E+02  0.90040453838E+02  0.82976583803E+02 0.  0.
         13    1    3    3    0    0  0.80945059456E+01  0.50228111660E+02  0.16847593246E+02  0.53593253211E+02  0.10566000000E+00 0.  1.
         22    1    1    0    0    0 -0.11615707368E+02 -0.15990032446E+02 -0.28836852681E+02  0.34959546162E+02  0.00000000000E+00 0.  1.
</event>
<event>
 5    1  0.1680526E-003  0.9118800E+02  0.7818608E-02  0.1130116E+00
         25   -1    0    0    0    0  0.00000000000E+00  0.00000000000E+00  0.99999998245E-14  0.12500000000E+03  0.12500000000E+03 0.  0.
        -13    1    3    3    0    0  0.19095625924E+02  0.27269193411E+02 -0.79915604774E+01  0.34236355554E+02  0.10566000000E+00 0.  1.
         23    2    1    0    0    0 -0.89957639993E+01 -0.24282389967E+02  0.12272616467E+02  0.96343842766E+02  0.91983480536E+02 0.  0.
         13    1    3    3    0    0 -0.28091389923E+02 -0.51551583378E+02  0.20264176945E+02  0.62107487213E+02  0.10566000000E+00 0. -1.
         22    1    1    0    0    0  0.89957639993E+01  0.24282389967E+02 -0.12272616467E+02  0.28656157234E+02  0.00000000000E+00 0. -1.
</event>
<event>
 5    1  0.1680526E-003  0.9118800E+02  0.7818608E-02  0.1130116E+00
         25   -1    0    0    0    0  0.00000000000E+00  0.00000000000E+00  0.99999998245E-14  0.12500000000E+03  0.12500000000E+03 0.  0.
        -13    1    3    3    0    0  0.24772326796E+02 -0.35077461073E+01  0.31875558947E+02  0.40522029562E+02  0.10566000000E+00 0.  1.
         23    2    1    0    0    0  0.16553263678E+02  0.47514537221E+01 -0.22800754606E+02  0.96426213736E+02  0.92095349687E+02 0.  0.
         13    1    3    3    0    0 -0.82190631176E+01  0.82591998294E+01 -0.54676313553E+02  0.55904184173E+02  0.10566000000E+00 0. -1.
         22    1    1    0    0    0 -0.16553263678E+02 -0.47514537221E+01  0.22800754606E+02  0.28573786264E+02  0.00000000000E+00 0. -1.
</event>
<event>
 5    1  0.1680526E-003  0.9118800E+02  0.7818608E-02  0.1130116E+00
         25   -1    0    0    0    0  0.00000000000E+00  0.00000000000E+00  0.99999998245E-14  0.12500000000E+03  0.12500000000E+03 0.  0.
        -13    1    3    3    0    0 -0.50883868836E+02 -0.67321613743E+01  0.14652170306E+02  0.53377779676E+02  0.10566000000E+00 0. -1.
         23    2    1    0    0    0 -0.20583307344E+02 -0.18459763575E+02 -0.11469227938E+02  0.95067098337E+02  0.90231782561E+02 0.  0.
         13    1    3    3    0    0  0.30300561491E+02 -0.11727602201E+02 -0.26121398245E+02  0.41689318661E+02  0.10566000000E+00 0.  1.
         22    1    1    0    0    0  0.20583307344E+02  0.18459763575E+02  0.11469227938E+02  0.29932901663E+02  0.00000000000E+00 0.  1.
</event>
<event>
 5    1  0.1680526E-003  0.9118800E+02  0.7818608E-02  0.1130116E+00
         25   -1    0    0    0    0  0.00000000000E+00  0.00000000000E+00  0.99999998245E-14  0.12500000000E+03  0.12500000000E+03 0.  0.
        -13    1    3    3    0    0 -0.14677414792E+02 -0.27598877127E+02 -0.14084627880E+02  0.34285746750E+02  0.10566000000E+00 0. -1.
         23    2    1    0    0    0  0.58211488316E+01  0.28904488059E+02 -0.55915324015E+01  0.94989661144E+02  0.90124443332E+02 0.  0.
         13    1    3    3    0    0  0.20498563624E+02  0.56503365186E+02  0.84930954784E+01  0.60703914394E+02  0.10566000000E+00 0.  1.
         22    1    1    0    0    0 -0.58211488316E+01 -0.28904488059E+02  0.55915324015E+01  0.30010338856E+02  0.00000000000E+00 0.  1.
</event>
<event>
 5    1  0.1680526E-003  0.9118800E+02  0.7818608E-02  0.1130116E+00
         25   -1    0    0    0    0  0.00000000000E+00  0.00000000000E+00  0.99999998245E-14  0.12500000000E+03  0.12500000000E+03 0.  0.
        -13    1    3    3    0    0 -0.52676671208E+01 -0.62702799785E+01  0.32234694533E+02  0.33258854815E+02  0.10566000000E+00 0. -1.
         23    2    1    0    0    0 -0.11519309529E+02  0.10249010307E+02 -0.26362117191E+02  0.94459896413E+02  0.89386655062E+02 0.  0.
         13    1    3    3    0    0 -0.62516424080E+01  0.16519290286E+02 -0.58596811725E+02  0.61201041598E+02  0.10566000000E+00 0.  1.
         22    1    1    0    0    0  0.11519309529E+02 -0.10249010307E+02  0.26362117191E+02  0.30540103587E+02  0.00000000000E+00 0.  1.
</event>
<event>
 5    1  0.1680526E-003  0.9118800E+02  0.7818608E-02  0.1130116E+00
         25   -1    0    0    0    0  0.00000000000E+00  0.00000000000E+00  0.99999998245E-14  0.12500000000E+03  0.12500000000E+03 0.  0.
        -13    1    3    3    0    0  0.37977982815E+02 -0.31074056456E+02  0.35463726539E+02  0.60544291451E+02  0.10566000000E+00 0. -1.
         23    2    1    0    0    0  0.11253407296E+02 -0.12079902592E+02  0.25150142112E+02  0.94915238564E+02  0.90021162184E+02 0.  0.
         13    1    3    3    0    0 -0.26724575519E+02  0.18994153864E+02 -0.10313584427E+02  0.34370947113E+02  0.10566000000E+00 0.  1.
         22    1    1    0    0    0 -0.11253407296E+02  0.12079902592E+02 -0.25150142112E+02  0.30084761436E+02  0.00000000000E+00 0. -1.
</event>
<event>
 5    1  0.1680526E-003  0.9118800E+02  0.7818608E-02  0.1130116E+00
         25   -1    0    0    0    0  0.00000000000E+00  0.00000000000E+00  0.99999998245E-14  0.12500000000E+03  0.12500000000E+03 0.  0.
        -13    1    3    3    0    0  0.22830823355E+02 -0.26172331527E+02  0.29540223926E+01  0.34856489280E+02  0.10566000000E+00 0. -1.
         23    2    1    0    0    0 -0.31423301831E+02 -0.69297312389E+01  0.48768840846E+01  0.92454200403E+02  0.86536409105E+02 0.  0.
         13    1    3    3    0    0 -0.54254125186E+02  0.19242600288E+02  0.19228616920E+01  0.57597711123E+02  0.10566000000E+00 0.  1.
         22    1    1    0    0    0  0.31423301831E+02  0.69297312389E+01 -0.48768840846E+01  0.32545799597E+02  0.00000000000E+00 0.  1.
</event>
<event>
 5    1  0.1680526E-003  0.9118800E+02  0.7818608E-02  0.1130116E+00
         25   -1    0    0    0    0  0.00000000000E+00  0.00000000000E+00  0.99999998245E-14  0.12500000000E+03  0.12500000000E+03 0.  0.
        -13    1    3    3    0    0 -0.27426405943E+02  0.27456632776E+02  0.26485006212E+01  0.38898587968E+02  0.10566000000E+00 0.  1.
         23    2    1    0    0    0  0.20868268245E+02  0.10645498151E+02 -0.19397027933E+02  0.94585267664E+02  0.89561805006E+02 0.  0.
         13    1    3    3    0    0  0.48294674188E+02 -0.16811134625E+02 -0.22045528554E+02  0.55686679696E+02  0.10566000000E+00 0. -1.
         22    1    1    0    0    0 -0.20868268245E+02 -0.10645498151E+02  0.19397027933E+02  0.30414732336E+02  0.00000000000E+00 0. -1.
</event>
<event>
 5    1  0.1680526E-003  0.9118800E+02  0.7818608E-02  0.1130116E+00
         25   -1    0    0    0    0  0.00000000000E+00  0.00000000000E+00  0.99999998245E-14  0.12500000000E+03  0.12500000000E+03 0.  0.
        -13    1    3    3    0    0 -0.53821099670E+01  0.21861981750E+02  0.29860610976E+02  0.37397601602E+02  0.10566000000E+00 0. -1.
         23    2    1    0    0    0 -0.23916945350E+02 -0.89743813866E+01 -0.15366062648E+02  0.95189336179E+02  0.90400962631E+02 0.  0.
         13    1    3    3    0    0 -0.18534835383E+02 -0.30836363136E+02 -0.45226673624E+02  0.57791734576E+02  0.10566000000E+00 0.  1.
         22    1    1    0    0    0  0.23916945350E+02  0.89743813866E+01  0.15366062648E+02  0.29810663821E+02  0.00000000000E+00 0.  1.
</event>
<event>
 5    1  0.1680526E-003  0.9118800E+02  0.7818608E-02  0.1130116E+00
         25   -1    0    0    0    0  0.00000000000E+00  0.00000000000E+00  0.99999998245E-14  0.12500000000E+03  0.12500000000E+03 0.  0.
        -13    1    3    3    0    0  0.22014687649E+02  0.19760275692E+02  0.19207844063E+02  0.35271339715E+02  0.10566000000E+00 0. -1.
         23    2    1    0    0    0 -0.13349904153E+01 -0.25672008799E+02 -0.13536865238E+02  0.95946928636E+02  0.91442507397E+02 0.  0.
         13    1    3    3    0    0 -0.23349678065E+02 -0.45432284491E+02 -0.32744709301E+02  0.60675588922E+02  0.10566000000E+00 0.  1.
         22    1    1    0    0    0  0.13349904153E+01  0.25672008799E+02  0.13536865238E+02  0.29053071364E+02  0.00000000000E+00 0.  1.
</event>
<event>
 5    1  0.1680526E-003  0.9118800E+02  0.7818608E-02  0.1130116E+00
         25   -1    0    0    0    0  0.00000000000E+00  0.00000000000E+00  0.99999998245E-14  0.12500000000E+03  0.12500000000E+03 0.  0.
        -13    1    3    3    0    0 -0.38911923167E+02  0.86792831414E+01 -0.43060839940E+02  0.58683173234E+02  0.10566000000E+00 0.  1.
         23    2    1    0    0    0 -0.22561122398E+02  0.15438894184E+02 -0.10549583628E+02  0.95697143275E+02  0.91100416128E+02 0.  0.
         13    1    3    3    0    0  0.16350800768E+02  0.67596110429E+01  0.32511256312E+02  0.37013970041E+02  0.10566000000E+00 0. -1.
         22    1    1    0    0    0  0.22561122398E+02 -0.15438894184E+02  0.10549583628E+02  0.29302856725E+02  0.00000000000E+00 0.  1.
</event>
<event>
 5    1  0.1680526E-003  0.9118800E+02  0.7818608E-02  0.1130116E+00
         25   -1    0    0    0    0  0.00000000000E+00  0.00000000000E+00  0.99999998245E-14  0.12500000000E+03  0.12500000000E+03 0.  0.
        -13    1    3    3    0    0 -0.11879914292E+01 -0.21755772082E+02  0.25531200872E+02  0.33564539688E+02  0.10566000000E+00 0.  1.
         23    2    1    0    0    0  0.16715018544E+02 -0.45353269225E+02 -0.53673894637E+01  0.76367503210E+02  0.58880181748E+02 0.  0.
         13    1    3    3    0    0  0.17903009973E+02 -0.23597497143E+02 -0.30898590335E+02  0.42802963522E+02  0.10566000000E+00 0. -1.
         22    1    1    0    0    0 -0.16715018544E+02  0.45353269225E+02  0.53673894637E+01  0.48632496790E+02  0.00000000000E+00 0. -1.
</event>
<event>
 5    1  0.1680526E-003  0.9118800E+02  0.7818608E-02  0.1130116E+00
         25   -1    0    0    0    0  0.00000000000E+00  0.00000000000E+00  0.99999998245E-14  0.12500000000E+03  0.12500000000E+03 0.  0.
        -13    1    3    3    0    0 -0.39194872100E+02  0.41118860041E+02 -0.11668366743E+01  0.56818758538E+02  0.10566000000E+00 0.  1.
         23    2    1    0    0    0 -0.16245332299E+02  0.16012844760E+02  0.18072682671E+02  0.95897699786E+02  0.91375187805E+02 0.  0.
         13    1    3    3    0    0  0.22949539801E+02 -0.25106015281E+02  0.19239519346E+02  0.39078941247E+02  0.10566000000E+00 0. -1.
         22    1    1    0    0    0  0.16245332299E+02 -0.16012844760E+02 -0.18072682671E+02  0.29102300214E+02  0.00000000000E+00 0.  1.
</event>
<event>
 5    1  0.1680526E-003  0.9118800E+02  0.7818608E-02  0.1130116E+00
         25   -1    0    0    0    0  0.00000000000E+00  0.00000000000E+00  0.99999998245E-14  0.12500000000E+03  0.12500000000E+03 0.  0.
        -13    1    3    3    0    0 -0.36286453157E+02  0.32814354050E+02  0.34752434573E+02  0.60010260683E+02  0.10566000000E+00 0. -1.
         23    2    1    0    0    0 -0.17407380888E+02  0.27723928674E+02  0.11705882084E+02  0.90234200630E+02  0.83267941955E+02 0.  0.
         13    1    3    3    0    0  0.18879072268E+02 -0.50904253768E+01 -0.23046552490E+02  0.30223939947E+02  0.10566000000E+00 0.  1.
         22    1    1    0    0    0  0.17407380888E+02 -0.27723928674E+02 -0.11705882084E+02  0.34765799370E+02  0.00000000000E+00 0. -1.
</event>
<event>
 5    1  0.1680526E-003  0.9118800E+02  0.7818608E-02  0.1130116E+00
         25   -1    0    0    0    0  0.00000000000E+00  0.00000000000E+00  0.99999998245E-14  0.12500000000E+03  0.12500000000E+03 0.  0.
        -13    1    3    3    0    0  0.36467030663E+02  0.71503781233E+00 -0.35482634179E+02  0.50885991164E+02  0.10566000000E+00 0. -1.
         23    2    1    0    0    0 -0.76944085807E+01  0.13255755649E+01 -0.28313292688E+02  0.95629885652E+02  0.91008084327E+02 0.  0.
         13    1    3    3    0    0 -0.44161439244E+02  0.61053775260E+00  0.71693414907E+01  0.44743894488E+02  0.10566000000E+00 0.  1.
         22    1    1    0    0    0  0.76944085807E+01 -0.13255755649E+01  0.28313292688E+02  0.29370114348E+02  0.00000000000E+00 0. -1.
</event>
<event>
 5    1  0.1680526E-003  0.9118800E+02  0.7818608E-02  0.1130116E+00
         25   -1    0    0    0    0  0.00000000000E+00  0.00000000000E+00  0.99999998245E-14  0.12500000000E+03  0.12500000000E+03 0.  0.
        -13    1    3    3    0    0 -0.38205681734E+02  0.12554015725E+02 -0.23010407285E+02  0.46333221721E+02  0.10566000000E+00 0. -1.
         23    2    1    0    0    0  0.35305154754E+01  0.27582737233E+02  0.17533055623E+01  0.97137013564E+02  0.93055109429E+02 0.  0.
         13    1    3    3    0    0  0.41736197209E+02  0.15028721507E+02  0.24763712847E+02  0.50803791843E+02  0.10566000000E+00 0.  1.
         22    1    1    0    0    0 -0.35305154754E+01 -0.27582737233E+02 -0.17533055623E+01  0.27862986436E+02  0.00000000000E+00 0. -1.
</event>
<event>
 5    1  0.1680526E-003  0.9118800E+02  0.7818608E-02  0.1130116E+00
         25   -1    0    0    0    0  0.00000000000E+00  0.00000000000E+00  0.99999998245E-14  0.12500000000E+03  0.12500000000E+03 0.  0.
        -13    1    3    3    0    0  0.17872110192E+02  0.21793224611E+02 -0.34070571713E+02  0.44217326723E+02  0.10566000000E+00 0. -1.
         23    2    1    0    0    0 -0.25099965623E+02  0.48730759523E+00 -0.14402585098E+02  0.96057294521E+02  0.91593251008E+02 0.  0.
         13    1    3    3    0    0 -0.42972075815E+02 -0.21305917016E+02  0.19667986614E+02  0.51839967798E+02  0.10566000000E+00 0.  1.
         22    1    1    0    0    0  0.25099965623E+02 -0.48730759523E+00  0.14402585098E+02  0.28942705479E+02  0.00000000000E+00 0.  1.
</event>
<event>
 5    1  0.1680526E-003  0.9118800E+02  0.7818608E-02  0.1130116E+00
         25   -1    0    0    0    0  0.00000000000E+00  0.00000000000E+00  0.99999998245E-14  0.12500000000E+03  0.12500000000E+03 0.  0.
        -13    1    3    3    0    0 -0.35774102450E+02  0.32763586477E+02 -0.34342114080E+02  0.59435940040E+02  0.10566000000E+00 0. -1.
         23    2    1    0    0    0 -0.26416925875E+02  0.71390432944E+01 -0.10420736191E+02  0.95718407581E+02  0.91129588473E+02 0.  0.
         13    1    3    3    0    0  0.93571765747E+01 -0.25624543182E+02  0.23921377889E+02  0.36282467541E+02  0.10566000000E+00 0.  1.
         22    1    1    0    0    0  0.26416925875E+02 -0.71390432944E+01  0.10420736191E+02  0.29281592419E+02  0.00000000000E+00 0. -1.
</event>
<event>
 5    1  0.1680526E-003  0.9118800E+02  0.7818608E-02  0.1130116E+00
         25   -1    0    0    0    0  0.00000000000E+00  0.00000000000E+00  0.99999998245E-14  0.12500000000E+03  0.12500000000E+03 0.  0.
        -13    1    3    3    0    0 -0.47619783433E+01 -0.25569927273E+02  0.26278078240E+02  0.36973587579E+02  0.10566000000E+00 0. -1.
         23    2    1    0    0    0 -0.12324359243E+02  0.26412570767E+02 -0.31647869001E+00  0.95851863112E+02  0.91312462337E+02 0.  0.
         13    1    3    3    0    0 -0.75623808995E+01  0.51982498040E+02 -0.26594556930E+02  0.58878275533E+02  0.10566000000E+00 0.  1.
         22    1    1    0    0    0  0.12324359243E+02 -0.26412570767E+02  0.31647869001E+00  0.29148136888E+02  0.00000000000E+00 0.  1.
</event>
<event>
 5    1  0.1680526E-003  0.9118800E+02  0.7818608E-02  0.1130116E+00
         25   -1    0    0    0    0  0.00000000000E+00  0.00000000000E+00  0.99999998245E-14  0.12500000000E+03  0.12500000000E+03 0.  0.
        -13    1    3    3    0    0  0.51739466456E+02  0.62606867812E+01  0.27692966362E+02  0.59017625656E+02  0.10566000000E+00 0. -1.
         23    2    1    0    0    0  0.16956931605E+02 -0.37681933663E+01  0.23955096846E+02  0.95409740191E+02  0.90705209595E+02 0.  0.
         13    1    3    3    0    0 -0.34782534852E+02 -0.10028880147E+02 -0.37378695166E+01  0.36392114534E+02  0.10566000000E+00 0.  1.
         22    1    1    0    0    0 -0.16956931605E+02  0.37681933663E+01 -0.23955096846E+02  0.29590259809E+02  0.00000000000E+00 0. -1.
</event>
<event>
 5    1  0.1680526E-003  0.9118800E+02  0.7818608E-02  0.1130116E+00
         25   -1    0    0    0    0  0.00000000000E+00  0.00000000000E+00  0.99999998245E-14  0.12500000000E+03  0.12500000000E+03 0.  0.
        -13    1    3    3    0    0  0.48708904395E+02 -0.15053294355E+01 -0.13214921842E+02  0.50492263837E+02  0.10566000000E+00 0.  1.
         23    2    1    0    0    0  0.14706022603E+02 -0.92626090437E+01  0.19895288743E+02  0.98582476625E+02  0.94976940129E+02 0.  0.
         13    1    3    3    0    0 -0.34002881791E+02 -0.77572796082E+01  0.33110210585E+02  0.48090212788E+02  0.10566000000E+00 0. -1.
         22    1    1    0    0    0 -0.14706022603E+02  0.92626090437E+01 -0.19895288743E+02  0.26417523375E+02  0.00000000000E+00 0. -1.
</event>
<event>
 5    1  0.1680526E-003  0.9118800E+02  0.7818608E-02  0.1130116E+00
         25   -1    0    0    0    0  0.00000000000E+00  0.00000000000E+00  0.99999998245E-14  0.12500000000E+03  0.12500000000E+03 0.  0.
        -13    1    3    3    0    0  0.42991459166E+02 -0.92254469059E+01  0.13800998937E+02  0.46085281463E+02  0.10566000000E+00 0.  1.
         23    2    1    0    0    0  0.12410894174E+02  0.26637985734E+02 -0.13205729915E+01  0.95583057753E+02  0.90943743260E+02 0.  0.
         13    1    3    3    0    0 -0.30580564993E+02  0.35863432640E+02 -0.15121571929E+02  0.49497776289E+02  0.10566000000E+00 0. -1.
         22    1    1    0    0    0 -0.12410894174E+02 -0.26637985734E+02  0.13205729915E+01  0.29416942247E+02  0.00000000000E+00 0. -1.
</event>
<event>
 5    1  0.1680526E-003  0.9118800E+02  0.7818608E-02  0.1130116E+00
         25   -1    0    0    0    0  0.00000000000E+00  0.00000000000E+00  0.99999998245E-14  0.12500000000E+03  0.12500000000E+03 0.  0.
        -13    1    3    3    0    0 -0.12935561899E+02  0.54072067488E+02 -0.17548238280E+02  0.58301535784E+02  0.10566000000E+00 0. -1.
         23    2    1    0    0    0 -0.32817319952E+01  0.21338611080E+02 -0.23658152772E+02  0.92971664416E+02  0.87280674287E+02 0.  0.
         13    1    3    3    0    0  0.96538299038E+01 -0.32733456408E+02 -0.61099144916E+01  0.34670128632E+02  0.10566000000E+00 0.  1.
         22    1    1    0    0    0  0.32817319952E+01 -0.21338611080E+02  0.23658152772E+02  0.32028335584E+02  0.00000000000E+00 0.  1.
</event>
<event>
 5    1  0.1680526E-003  0.9118800E+02  0.7818608E-02  0.1130116E+00
         25   -1    0    0    0    0  0.00000000000E+00  0.00000000000E+00  0.99999998245E-14  0.12500000000E+03  0.12500000000E+03 0.  0.
        -13    1    3    3    0    0  0.37857341164E+02 -0.14461815671E+02 -0.42635353845E+01  0.40749371658E+02  0.10566000000E+00 0. -1.
         23    2    1    0    0    0 -0.15858878224E+01 -0.18805510568E+02  0.27547560126E+02  0.91607930031E+02  0.85305231421E+02 0.  0.
         13    1    3    3    0    0 -0.39443228986E+02 -0.43436948974E+01  0.31811095510E+02  0.50858558374E+02  0.10566000000E+00 0.  1.
         22    1    1    0    0    0  0.15858878224E+01  0.18805510568E+02 -0.27547560126E+02  0.33392069969E+02  0.00000000000E+00 0. -1.
</event>
<event>
 5    1  0.1680526E-003  0.9118800E+02  0.7818608E-02  0.1130116E+00
         25   -1    0    0    0    0  0.00000000000E+00  0.00000000000E+00  0.99999998245E-14  0.12500000000E+03  0.12500000000E+03 0.  0.
        -13    1    3    3    0    0 -0.14724042984E+02 -0.28767511859E+02 -0.45016408848E+02  0.55415299421E+02  0.10566000000E+00 0. -1.
         23    2    1    0    0    0  0.14487436575E+02 -0.14291003924E+02 -0.19499156604E+02  0.96816037895E+02  0.92622942481E+02 0.  0.
         13    1    3    3    0    0  0.29211479559E+02  0.14476507935E+02  0.25517252244E+02  0.41400738474E+02  0.10566000000E+00 0.  1.
         22    1    1    0    0    0 -0.14487436575E+02  0.14291003924E+02  0.19499156604E+02  0.28183962105E+02  0.00000000000E+00 0. -1.
</event>
<event>
 5    1  0.1680526E-003  0.9118800E+02  0.7818608E-02  0.1130116E+00
         25   -1    0    0    0    0  0.00000000000E+00  0.00000000000E+00  0.99999998245E-14  0.12500000000E+03  0.12500000000E+03 0.  0.
        -13    1    3    3    0    0 -0.38736066255E+02 -0.10279379008E+02 -0.16184856294E+02  0.43221628834E+02  0.10566000000E+00 0.  1.
         23    2    1    0    0    0  0.71889413360E+01 -0.26265447575E+02  0.66864858854E+01  0.96959605792E+02  0.92816493405E+02 0.  0.
         13    1    3    3    0    0  0.45925007591E+02 -0.15986068566E+02  0.22871342180E+02  0.53737976959E+02  0.10566000000E+00 0. -1.
         22    1    1    0    0    0 -0.71889413360E+01  0.26265447575E+02 -0.66864858854E+01  0.28040394208E+02  0.00000000000E+00 0.  1.
</event>
<event>
 5    1  0.1680526E-003  0.9118800E+02  0.7818608E-02  0.1130116E+00
         25   -1    0    0    0    0  0.00000000000E+00  0.00000000000E+00  0.99999998245E-14  0.12500000000E+03  0.12500000000E+03 0.  0.
        -13    1    3    3    0    0  0.19104422990E+02 -0.31558415572E+02 -0.36845816848E+02  0.52139600635E+02  0.10566000000E+00 0.  1.
         23    2    1    0    0    0 -0.16081220410E+02 -0.20333644653E+02 -0.15122056769E+02  0.94987679935E+02  0.90121695411E+02 0.  0.
         13    1    3    3    0    0 -0.35185643401E+02  0.11224770919E+02  0.21723760079E+02  0.42848079300E+02  0.10566000000E+00 0. -1.
         22    1    1    0    0    0  0.16081220410E+02  0.20333644653E+02  0.15122056769E+02  0.30012320065E+02  0.00000000000E+00 0.  1.
</event>
<event>
 5    1  0.1680526E-003  0.9118800E+02  0.7818608E-02  0.1130116E+00
         25   -1    0    0    0    0  0.00000000000E+00  0.00000000000E+00  0.99999998245E-14  0.12500000000E+03  0.12500000000E+03 0.  0.
        -13    1    3    3    0    0  0.16868974985E+02 -0.22355046693E+02 -0.39526270367E+02  0.48442209310E+02  0.10566000000E+00 0.  1.
         23    2    1    0    0    0  0.23479397383E+02  0.14083728824E+02 -0.98382996417E+01  0.95906604548E+02  0.91387368586E+02 0.  0.
         13    1    3    3    0    0  0.66104223982E+01  0.36438775517E+02  0.29687970726E+02  0.47464395238E+02  0.10566000000E+00 0. -1.
         22    1    1    0    0    0 -0.23479397383E+02 -0.14083728824E+02  0.98382996417E+01  0.29093395452E+02  0.00000000000E+00 0.  1.
</event>
<event>
 5    1  0.1680526E-003  0.9118800E+02  0.7818608E-02  0.1130116E+00
         25   -1    0    0    0    0  0.00000000000E+00  0.00000000000E+00  0.99999998245E-14  0.12500000000E+03  0.12500000000E+03 0.  0.
        -13    1    3    3    0    0  0.66529309330E+01 -0.37508341426E+02  0.16438353546E+02  0.41489369698E+02  0.10566000000E+00 0.  1.
         23    2    1    0    0    0  0.20628577142E+02  0.12114408892E+02 -0.95728586031E+01  0.99233030455E+02  0.95829315002E+02 0.  0.
         13    1    3    3    0    0  0.13975646209E+02  0.49622750319E+02 -0.26011212150E+02  0.57743660757E+02  0.10566000000E+00 0. -1.
         22    1    1    0    0    0 -0.20628577142E+02 -0.12114408892E+02  0.95728586031E+01  0.25766969545E+02  0.00000000000E+00 0. -1.
</event>
<event>
 5    1  0.1680526E-003  0.9118800E+02  0.7818608E-02  0.1130116E+00
         25   -1    0    0    0    0  0.00000000000E+00  0.00000000000E+00  0.99999998245E-14  0.12500000000E+03  0.12500000000E+03 0.  0.
        -13    1    3    3    0    0  0.27605547070E+02  0.78390138795E+01  0.22697004779E+02  0.36587997453E+02  0.10566000000E+00 0.  1.
         23    2    1    0    0    0 -0.38432401793E+01  0.59626633148E+01 -0.27911246975E+02  0.96201361898E+02  0.91789653417E+02 0.  0.
         13    1    3    3    0    0 -0.31448787249E+02 -0.18763505647E+01 -0.50608251753E+02  0.59613364445E+02  0.10566000000E+00 0. -1.
         22    1    1    0    0    0  0.38432401793E+01 -0.59626633148E+01  0.27911246975E+02  0.28798638102E+02  0.00000000000E+00 0. -1.
</event>
<event>
 5    1  0.1680526E-003  0.9118800E+02  0.7818608E-02  0.1130116E+00
         25   -1    0    0    0    0  0.00000000000E+00  0.00000000000E+00  0.99999998245E-14  0.12500000000E+03  0.12500000000E+03 0.  0.
        -13    1    3    3    0    0 -0.34758925949E+00  0.32013043482E+02  0.25967572921E+02  0.41222345624E+02  0.10566000000E+00 0.  1.
         23    2    1    0    0    0 -0.18209603047E+02  0.10747224279E+02 -0.20623777523E+02  0.95463028724E+02  0.90778616320E+02 0.  0.
         13    1    3    3    0    0 -0.17862013787E+02 -0.21265819203E+02 -0.46591350444E+02  0.54240683100E+02  0.10566000000E+00 0. -1.
         22    1    1    0    0    0  0.18209603047E+02 -0.10747224279E+02  0.20623777523E+02  0.29536971276E+02  0.00000000000E+00 0. -1.
</event>
<event>
 5    1  0.1680526E-003  0.9118800E+02  0.7818608E-02  0.1130116E+00
         25   -1    0    0    0    0  0.00000000000E+00  0.00000000000E+00  0.99999998245E-14  0.12500000000E+03  0.12500000000E+03 0.  0.
        -13    1    3    3    0    0  0.22850642496E+02  0.11958521352E+01  0.27247070809E+02  0.35580836928E+02  0.10566000000E+00 0. -1.
         23    2    1    0    0    0 -0.34359241325E+01 -0.21696441764E+01 -0.27921401003E+02  0.96784444637E+02  0.92580295739E+02 0.  0.
         13    1    3    3    0    0 -0.26286566628E+02 -0.33654963116E+01 -0.55168471812E+02  0.61203607709E+02  0.10566000000E+00 0.  1.
         22    1    1    0    0    0  0.34359241325E+01  0.21696441764E+01  0.27921401003E+02  0.28215555363E+02  0.00000000000E+00 0.  1.
</event>
<event>
 5    1  0.1680526E-003  0.9118800E+02  0.7818608E-02  0.1130116E+00
         25   -1    0    0    0    0  0.00000000000E+00  0.00000000000E+00  0.99999998245E-14  0.12500000000E+03  0.12500000000E+03 0.  0.
        -13    1    3    3    0    0  0.30252227947E+02 -0.45165907845E+01 -0.39627137208E+02  0.50059145573E+02  0.10566000000E+00 0. -1.
         23    2    1    0    0    0  0.20680151586E+02 -0.23547646953E+02 -0.16329099141E+01  0.93618050707E+02  0.88201545773E+02 0.  0.
         13    1    3    3    0    0 -0.95720763613E+01 -0.19031056169E+02  0.37994227294E+02  0.43558905134E+02  0.10566000000E+00 0.  1.
         22    1    1    0    0    0 -0.20680151586E+02  0.23547646953E+02  0.16329099141E+01  0.31381949293E+02  0.00000000000E+00 0.  1.
</event>
<event>
 5    1  0.1680526E-003  0.9118800E+02  0.7818608E-02  0.1130116E+00
         25   -1    0    0    0    0  0.00000000000E+00  0.00000000000E+00  0.99999998245E-14  0.12500000000E+03  0.12500000000E+03 0.  0.
        -13    1    3    3    0    0  0.51968831844E+02  0.28524792030E+02  0.19532201744E+02  0.62417476019E+02  0.10566000000E+00 0. -1.
         23    2    1    0    0    0  0.24658671247E+02  0.14924531815E+02  0.74742406926E+01  0.95223230674E+02  0.90447817378E+02 0.  0.
         13    1    3    3    0    0 -0.27310160597E+02 -0.13600260215E+02 -0.12057961052E+02  0.32805754655E+02  0.10566000000E+00 0.  1.
         22    1    1    0    0    0 -0.24658671247E+02 -0.14924531815E+02 -0.74742406926E+01  0.29776769326E+02  0.00000000000E+00 0. -1.
</event>
<event>
 5    1  0.1680526E-003  0.9118800E+02  0.7818608E-02  0.1130116E+00
         25   -1    0    0    0    0  0.00000000000E+00  0.00000000000E+00  0.99999998245E-14  0.12500000000E+03  0.12500000000E+03 0.  0.
        -13    1    3    3    0    0 -0.28896235968E+02 -0.38613517281E+02  0.37588222861E+02  0.61146396720E+02  0.10566000000E+00 0.  1.
         23    2    1    0    0    0 -0.52888618511E+01 -0.22307234487E+02  0.16842652966E+02  0.96552509266E+02  0.92266609976E+02 0.  0.
         13    1    3    3    0    0  0.23607374117E+02  0.16306282794E+02 -0.20745569896E+02  0.35406112546E+02  0.10566000000E+00 0. -1.
         22    1    1    0    0    0  0.52888618511E+01  0.22307234487E+02 -0.16842652966E+02  0.28447490734E+02  0.00000000000E+00 0.  1.
</event>
<event>
 5    1  0.1680526E-003  0.9118800E+02  0.7818608E-02  0.1130116E+00
         25   -1    0    0    0    0  0.00000000000E+00  0.00000000000E+00  0.99999998245E-14  0.12500000000E+03  0.12500000000E+03 0.  0.
        -13    1    3    3    0    0 -0.85231164712E+01 -0.15008968747E+01  0.38887537022E+02  0.39839024906E+02  0.10566000000E+00 0. -1.
         23    2    1    0    0    0 -0.85172813133E+01 -0.24317110090E+02 -0.12720212197E+02  0.96265530761E+02  0.91876997613E+02 0.  0.
         13    1    3    3    0    0  0.58351579413E-02 -0.22816213215E+02 -0.51607749219E+02  0.56426505855E+02  0.10566000000E+00 0.  1.
         22    1    1    0    0    0  0.85172813133E+01  0.24317110090E+02  0.12720212197E+02  0.28734469239E+02  0.00000000000E+00 0.  1.
</event>
<event>
 5    1  0.1680526E-003  0.9118800E+02  0.7818608E-02  0.1130116E+00
         25   -1    0    0    0    0  0.00000000000E+00  0.00000000000E+00  0.99999998245E-14  0.12500000000E+03  0.12500000000E+03 0.  0.
        -13    1    3    3    0    0  0.75516691689E+01  0.26177017461E+02  0.37308876197E+02  0.46197698617E+02  0.10566000000E+00 0.  1.
         23    2    1    0    0    0  0.48358675322E+00 -0.20232921211E+02  0.20845265072E+02  0.95946084037E+02  0.91441352840E+02 0.  0.
         13    1    3    3    0    0 -0.70680824156E+01 -0.46409938672E+02 -0.16463611125E+02  0.49748385420E+02  0.10566000000E+00 0. -1.
         22    1    1    0    0    0 -0.48358675322E+00  0.20232921211E+02 -0.20845265072E+02  0.29053915963E+02  0.00000000000E+00 0.  1.
</event>
<event>
 5    1  0.1680526E-003  0.9118800E+02  0.7818608E-02  0.1130116E+00
         25   -1    0    0    0    0  0.00000000000E+00  0.00000000000E+00  0.99999998245E-14  0.12500000000E+03  0.12500000000E+03 0.  0.
        -13    1    3    3    0    0 -0.23989007945E+02  0.25211596511E+01  0.36915378677E+02  0.44097449984E+02  0.10566000000E+00 0. -1.
         23    2    1    0    0    0 -0.28440830420E+02 -0.17066055298E+00 -0.12605087189E+02  0.93890545118E+02  0.88586885483E+02 0.  0.
         13    1    3    3    0    0 -0.44518224753E+01 -0.26918202041E+01 -0.49520465867E+02  0.49793095134E+02  0.10566000000E+00 0.  1.
         22    1    1    0    0    0  0.28440830420E+02  0.17066055298E+00  0.12605087189E+02  0.31109454882E+02  0.00000000000E+00 0. -1.
</event>
<event>
 5    1  0.1680526E-003  0.9118800E+02  0.7818608E-02  0.1130116E+00
         25   -1    0    0    0    0  0.00000000000E+00  0.00000000000E+00  0.99999998245E-14  0.12500000000E+03  0.12500000000E+03 0.  0.
        -13    1    3    3    0    0  0.40943879385E+02  0.18269263156E+02 -0.24249638423E+02  0.50972770800E+02  0.10566000000E+00 0.  1.
         23    2    1    0    0    0  0.23376996774E+02 -0.17874641492E+01  0.14071094424E+02  0.97656358974E+02  0.93750145298E+02 0.  0.
         13    1    3    3    0    0 -0.17566882610E+02 -0.20056727305E+02  0.38320732847E+02  0.46683588174E+02  0.10566000000E+00 0. -1.
         22    1    1    0    0    0 -0.23376996774E+02  0.17874641492E+01 -0.14071094424E+02  0.27343641026E+02  0.00000000000E+00 0.  1.
</event>
<event>
 5    1  0.1680526E-003  0.9118800E+02  0.7818608E-02  0.1130116E+00
         25   -1    0    0    0    0  0.00000000000E+00  0.00000000000E+00  0.99999998245E-14  0.12500000000E+03  0.12500000000E+03 0.  0.
        -13    1    3    3    0    0  0.77894528536E+01 -0.31850059060E+02  0.16140423437E+02  0.36546221017E+02  0.10566000000E+00 0. -1.
         23    2    1    0    0    0  0.77411654332E+01  0.26254900397E+02 -0.23616950215E+01  0.97525956968E+02  0.93576114699E+02 0.  0.
         13    1    3    3    0    0 -0.48287420450E-01  0.58104959457E+02 -0.18502118459E+02  0.60979735951E+02  0.10566000000E+00 0.  1.
         22    1    1    0    0    0 -0.77411654332E+01 -0.26254900397E+02  0.23616950215E+01  0.27474043032E+02  0.00000000000E+00 0.  1.
</event>
<event>
 5    1  0.1680526E-003  0.9118800E+02  0.7818608E-02  0.1130116E+00
         25   -1    0    0    0    0  0.00000000000E+00  0.00000000000E+00  0.99999998245E-14  0.12500000000E+03  0.12500000000E+03 0.  0.
        -13    1    3    3    0    0  0.10960023671E+01  0.47384421062E+02  0.13191570598E+02  0.49198712173E+02  0.10566000000E+00 0. -1.
         23    2    1    0    0    0  0.20522098546E+02  0.18891661831E+02 -0.14625557611E+02  0.93504629691E+02  0.88040657783E+02 0.  0.
         13    1    3    3    0    0  0.19426096178E+02 -0.28492759232E+02 -0.27817128209E+02  0.44305917519E+02  0.10566000000E+00 0.  1.
         22    1    1    0    0    0 -0.20522098546E+02 -0.18891661831E+02  0.14625557611E+02  0.31495370309E+02  0.00000000000E+00 0. -1.
</event>
<event>
 5    1  0.1680526E-003  0.9118800E+02  0.7818608E-02  0.1130116E+00
         25   -1    0    0    0    0  0.00000000000E+00  0.00000000000E+00  0.99999998245E-14  0.12500000000E+03  0.12500000000E+03 0.  0.
        -13    1    3    3    0    0 -0.95655251296E+01 -0.52667618220E+02  0.14356400063E+02  0.55421066994E+02  0.10566000000E+00 0.  1.
         23    2    1    0    0    0  0.16729768238E+02 -0.22867144179E+02  0.55615363338E+01  0.96125753436E+02  0.91686631300E+02 0.  0.
         13    1    3    3    0    0  0.26295293368E+02  0.29800474040E+02 -0.87948637289E+01  0.40704686442E+02  0.10566000000E+00 0. -1.
         22    1    1    0    0    0 -0.16729768238E+02  0.22867144179E+02 -0.55615363338E+01  0.28874246564E+02  0.00000000000E+00 0.  1.
</event>
<event>
 5    1  0.1680526E-003  0.9118800E+02  0.7818608E-02  0.1130116E+00
         25   -1    0    0    0    0  0.00000000000E+00  0.00000000000E+00  0.99999998245E-14  0.12500000000E+03  0.12500000000E+03 0.  0.
        -13    1    3    3    0    0 -0.50806070250E+02  0.67754982780E+01  0.53807794087E+00  0.51258802591E+02  0.10566000000E+00 0.  1.
         23    2    1    0    0    0 -0.14007209397E+02 -0.19779173665E+01  0.24978792067E+02  0.96293657054E+02  0.91915255880E+02 0.  0.
         13    1    3    3    0    0  0.36798860853E+02 -0.87534156445E+01  0.24440714126E+02  0.45034854463E+02  0.10566000000E+00 0. -1.
         22    1    1    0    0    0  0.14007209397E+02  0.19779173665E+01 -0.24978792067E+02  0.28706342946E+02  0.00000000000E+00 0. -1.
</event>
<event>
 5    1  0.1680526E-003  0.9118800E+02  0.7818608E-02  0.1130116E+00
         25   -1    0    0    0    0  0.00000000000E+00  0.00000000000E+00  0.99999998245E-14  0.12500000000E+03  0.12500000000E+03 0.  0.
        -13    1    3    3    0    0 -0.24191969314E+02  0.45546575727E+02  0.23111345931E+02  0.56514488537E+02  0.10566000000E+00 0.  1.
         23    2    1    0    0    0  0.77309285659E+01  0.25507267957E+02  0.74947684363E+01  0.97313188536E+02  0.93291463350E+02 0.  0.
         13    1    3    3    0    0  0.31922897880E+02 -0.20039307770E+02 -0.15616577495E+02  0.40798699999E+02  0.10566000000E+00 0. -1.
         22    1    1    0    0    0 -0.77309285659E+01 -0.25507267957E+02 -0.74947684363E+01  0.27686811464E+02  0.00000000000E+00 0. -1.
</event>
<event>
 5    1  0.1680526E-003  0.9118800E+02  0.7818608E-02  0.1130116E+00
         25   -1    0    0    0    0  0.00000000000E+00  0.00000000000E+00  0.99999998245E-14  0.12500000000E+03  0.12500000000E+03 0.  0.
        -13    1    3    3    0    0  0.26977534676E+02  0.28858598602E+02  0.17423734667E+02  0.43176426256E+02  0.10566000000E+00 0.  1.
         23    2    1    0    0    0 -0.34248473442E+01 -0.15667061275E+02  0.22543535166E+02  0.97334184160E+02  0.93319590869E+02 0.  0.
         13    1    3    3    0    0 -0.30402382020E+02 -0.44525659877E+02  0.51198004995E+01  0.54157757904E+02  0.10566000000E+00 0. -1.
         22    1    1    0    0    0  0.34248473442E+01  0.15667061275E+02 -0.22543535166E+02  0.27665815840E+02  0.00000000000E+00 0. -1.
</event>
<event>
 5    1  0.1680526E-003  0.9118800E+02  0.7818608E-02  0.1130116E+00
         25   -1    0    0    0    0  0.00000000000E+00  0.00000000000E+00  0.99999998245E-14  0.12500000000E+03  0.12500000000E+03 0.  0.
        -13    1    3    3    0    0  0.89330404012E+01  0.33189373864E+02 -0.21927731394E+01  0.34440574419E+02  0.10566000000E+00 0. -1.
         23    2    1    0    0    0  0.91526912164E+01 -0.25591228783E+02  0.12582202007E+02  0.95050132647E+02  0.90208276570E+02 0.  0.
         13    1    3    3    0    0  0.21965081523E+00 -0.58780602646E+02  0.14774975147E+02  0.60609558228E+02  0.10566000000E+00 0.  1.
         22    1    1    0    0    0 -0.91526912164E+01  0.25591228783E+02 -0.12582202007E+02  0.29949867353E+02  0.00000000000E+00 0.  1.
</event>
<event>
 5    1  0.1680526E-003  0.9118800E+02  0.7818608E-02  0.1130116E+00
         25   -1    0    0    0    0  0.00000000000E+00  0.00000000000E+00  0.99999998245E-14  0.12500000000E+03  0.12500000000E+03 0.  0.
        -13    1    3    3    0    0 -0.29651325415E+01 -0.14693438645E+02  0.26537366790E+02  0.30478388251E+02  0.10566000000E+00 0. -1.
         23    2    1    0    0    0  0.18897229829E+02  0.25671681394E+02 -0.12521426241E+02  0.90751983475E+02  0.84041631759E+02 0.  0.
         13    1    3    3    0    0  0.21862362371E+02  0.40365120038E+02 -0.39058793031E+02  0.60273595224E+02  0.10566000000E+00 0.  1.
         22    1    1    0    0    0 -0.18897229829E+02 -0.25671681394E+02  0.12521426241E+02  0.34248016525E+02  0.00000000000E+00 0.  1.
</event>
<event>
 5    1  0.1680526E-003  0.9118800E+02  0.7818608E-02  0.1130116E+00
         25   -1    0    0    0    0  0.00000000000E+00  0.00000000000E+00  0.99999998245E-14  0.12500000000E+03  0.12500000000E+03 0.  0.
        -13    1    3    3    0    0  0.40477593620E+02  0.24355362411E+02  0.14187566944E+02  0.49324613361E+02  0.10566000000E+00 0.  1.
         23    2    1    0    0    0  0.18933918914E+02  0.53278445142E+01 -0.21967799073E+02  0.95513335069E+02  0.90847860555E+02 0.  0.
         13    1    3    3    0    0 -0.21543674706E+02 -0.19027517896E+02 -0.36155366017E+02  0.46188721708E+02  0.10566000000E+00 0. -1.
         22    1    1    0    0    0 -0.18933918914E+02 -0.53278445142E+01  0.21967799073E+02  0.29486664931E+02  0.00000000000E+00 0. -1.
</event>
<event>
 5    1  0.1680526E-003  0.9118800E+02  0.7818608E-02  0.1130116E+00
         25   -1    0    0    0    0  0.00000000000E+00  0.00000000000E+00  0.99999998245E-14  0.12500000000E+03  0.12500000000E+03 0.  0.
        -13    1    3    3    0    0  0.11445006348E+02  0.31835188168E+02 -0.24952937297E+02  0.42037217080E+02  0.10566000000E+00 0. -1.
         23    2    1    0    0    0 -0.20896571047E+02 -0.11061953345E+02 -0.15873318166E+02  0.96522013363E+02  0.92225285799E+02 0.  0.
         13    1    3    3    0    0 -0.32341577395E+02 -0.42897141513E+02  0.90796191310E+01  0.54484796283E+02  0.10566000000E+00 0.  1.
         22    1    1    0    0    0  0.20896571047E+02  0.11061953345E+02  0.15873318166E+02  0.28477986637E+02  0.00000000000E+00 0.  1.
</event>
<event>
 5    1  0.1680526E-003  0.9118800E+02  0.7818608E-02  0.1130116E+00
         25   -1    0    0    0    0  0.00000000000E+00  0.00000000000E+00  0.99999998245E-14  0.12500000000E+03  0.12500000000E+03 0.  0.
        -13    1    3    3    0    0  0.19265870453E+02  0.48806489283E+01 -0.28226113968E+02  0.34521285782E+02  0.10566000000E+00 0. -1.
         23    2    1    0    0    0 -0.19899395766E+02  0.19719182812E+02  0.13727939437E+02  0.93802428880E+02  0.88462462208E+02 0.  0.
         13    1    3    3    0    0 -0.39165266220E+02  0.14838533884E+02  0.41954053404E+02  0.59281143098E+02  0.10566000000E+00 0.  1.
         22    1    1    0    0    0  0.19899395766E+02 -0.19719182812E+02 -0.13727939437E+02  0.31197571120E+02  0.00000000000E+00 0.  1.
</event>
<event>
 5    1  0.1680526E-003  0.9118800E+02  0.7818608E-02  0.1130116E+00
         25   -1    0    0    0    0  0.00000000000E+00  0.00000000000E+00  0.99999998245E-14  0.12500000000E+03  0.12500000000E+03 0.  0.
        -13    1    3    3    0    0 -0.46301704396E+02  0.76177059389E+01 -0.37047517523E+02  0.59786344531E+02  0.10566000000E+00 0. -1.
         23    2    1    0    0    0 -0.18706484305E+02  0.15924505807E+02 -0.13729279900E+02  0.96857228871E+02  0.92678515406E+02 0.  0.
         13    1    3    3    0    0  0.27595220091E+02  0.83067998681E+01  0.23318237623E+02  0.37070884340E+02  0.10566000000E+00 0.  1.
         22    1    1    0    0    0  0.18706484305E+02 -0.15924505807E+02  0.13729279900E+02  0.28142771129E+02  0.00000000000E+00 0. -1.
</event>
<event>
 5    1  0.1680526E-003  0.9118800E+02  0.7818608E-02  0.1130116E+00
         25   -1    0    0    0    0  0.00000000000E+00  0.00000000000E+00  0.99999998245E-14  0.12500000000E+03  0.12500000000E+03 0.  0.
        -13    1    3    3    0    0 -0.12670959445E+02  0.41914770432E+02  0.21888076125E+02  0.48954062489E+02  0.10566000000E+00 0. -1.
         23    2    1    0    0    0  0.49672777676E+01 -0.18986785010E+01  0.27928771797E+02  0.96569468479E+02  0.92289582943E+02 0.  0.
         13    1    3    3    0    0  0.17638237213E+02 -0.43813448933E+02  0.60406956722E+01  0.47615405991E+02  0.10566000000E+00 0.  1.
         22    1    1    0    0    0 -0.49672777676E+01  0.18986785010E+01 -0.27928771797E+02  0.28430531521E+02  0.00000000000E+00 0.  1.
</event>
<event>
 5    1  0.1680526E-003  0.9118800E+02  0.7818608E-02  0.1130116E+00
         25   -1    0    0    0    0  0.00000000000E+00  0.00000000000E+00  0.99999998245E-14  0.12500000000E+03  0.12500000000E+03 0.  0.
        -13    1    3    3    0    0  0.49709837885E+02  0.63034866992E+01 -0.35041245503E+02  0.61144926016E+02  0.10566000000E+00 0.  1.
         23    2    1    0    0    0  0.11842295642E+02 -0.97729709089E+00 -0.18293491912E+02  0.10318608421E+03  0.10085395903E+03 0.  0.
         13    1    3    3    0    0 -0.37867542242E+02 -0.72807837901E+01  0.16747753590E+02  0.42041158196E+02  0.10566000000E+00 0. -1.
         22    1    1    0    0    0 -0.11842295642E+02  0.97729709089E+00  0.18293491912E+02  0.21813915788E+02  0.00000000000E+00 0.  1.
</event>
<event>
 5    1  0.1680526E-003  0.9118800E+02  0.7818608E-02  0.1130116E+00
         25   -1    0    0    0    0  0.00000000000E+00  0.00000000000E+00  0.99999998245E-14  0.12500000000E+03  0.12500000000E+03 0.  0.
        -13    1    3    3    0    0  0.27346971033E+02 -0.26404423808E+02  0.21605247906E+02  0.43724687791E+02  0.10566000000E+00 0.  1.
         23    2    1    0    0    0  0.22922439873E+02  0.98776594368E+01 -0.15346253647E+02  0.95699592039E+02  0.91103776046E+02 0.  0.
         13    1    3    3    0    0 -0.44245311600E+01  0.36282083245E+02 -0.36951501552E+02  0.51974904248E+02  0.10566000000E+00 0. -1.
         22    1    1    0    0    0 -0.22922439873E+02 -0.98776594368E+01  0.15346253647E+02  0.29300407961E+02  0.00000000000E+00 0. -1.
</event>
<event>
 5    1  0.1680526E-003  0.9118800E+02  0.7818608E-02  0.1130116E+00
         25   -1    0    0    0    0  0.00000000000E+00  0.00000000000E+00  0.99999998245E-14  0.12500000000E+03  0.12500000000E+03 0.  0.
        -13    1    3    3    0    0  0.55276543650E+02 -0.10397207429E+02 -0.24806767509E+02  0.61473450191E+02  0.10566000000E+00 0. -1.
         23    2    1    0    0    0  0.28482609310E+02  0.92308260102E+00 -0.67358102974E+01  0.95717202064E+02  0.91127934882E+02 0.  0.
         13    1    3    3    0    0 -0.26793934339E+02  0.11320290030E+02  0.18070957211E+02  0.34243751872E+02  0.10566000000E+00 0.  1.
         22    1    1    0    0    0 -0.28482609310E+02 -0.92308260102E+00  0.67358102974E+01  0.29282797936E+02  0.00000000000E+00 0. -1.
</event>
<event>
 5    1  0.1680526E-003  0.9118800E+02  0.7818608E-02  0.1130116E+00
         25   -1    0    0    0    0  0.00000000000E+00  0.00000000000E+00  0.99999998245E-14  0.12500000000E+03  0.12500000000E+03 0.  0.
        -13    1    3    3    0    0  0.16994151848E+02 -0.68809372761E+01 -0.29903002558E+02  0.35076334199E+02  0.10566000000E+00 0. -1.
         23    2    1    0    0    0 -0.22761227583E+02  0.14321287447E+02  0.11015207858E+02  0.95939587764E+02  0.91432472027E+02 0.  0.
         13    1    3    3    0    0 -0.39755379430E+02  0.21202224723E+02  0.40918210416E+02  0.60863253565E+02  0.10566000000E+00 0.  1.
         22    1    1    0    0    0  0.22761227583E+02 -0.14321287447E+02 -0.11015207858E+02  0.29060412236E+02  0.00000000000E+00 0.  1.
</event>
<event>
 5    1  0.1680526E-003  0.9118800E+02  0.7818608E-02  0.1130116E+00
         25   -1    0    0    0    0  0.00000000000E+00  0.00000000000E+00  0.99999998245E-14  0.12500000000E+03  0.12500000000E+03 0.  0.
        -13    1    3    3    0    0  0.21752781592E+02  0.18908394744E+02 -0.20315579618E+02  0.35262513212E+02  0.10566000000E+00 0. -1.
         23    2    1    0    0    0 -0.51020885357E+00 -0.20751838555E+02  0.20098961698E+02  0.96105928327E+02  0.91659598961E+02 0.  0.
         13    1    3    3    0    0 -0.22262990445E+02 -0.39660233300E+02  0.40414541317E+02  0.60843415115E+02  0.10566000000E+00 0.  1.
         22    1    1    0    0    0  0.51020885357E+00  0.20751838555E+02 -0.20098961698E+02  0.28894071673E+02  0.00000000000E+00 0.  1.
</event>
<event>
 5    1  0.1680526E-003  0.9118800E+02  0.7818608E-02  0.1130116E+00
         25   -1    0    0    0    0  0.00000000000E+00  0.00000000000E+00  0.99999998245E-14  0.12500000000E+03  0.12500000000E+03 0.  0.
        -13    1    3    3    0    0 -0.40187065540E+02  0.65990367449E+01  0.21366819158E+02  0.45990212520E+02  0.10566000000E+00 0.  1.
         23    2    1    0    0    0  0.94176614263E+01  0.42526160449E+01  0.27115641023E+02  0.95982159315E+02  0.91490654324E+02 0.  0.
         13    1    3    3    0    0  0.49604726966E+02 -0.23464207000E+01  0.57488218646E+01  0.49991946795E+02  0.10566000000E+00 0. -1.
         22    1    1    0    0    0 -0.94176614263E+01 -0.42526160449E+01 -0.27115641023E+02  0.29017840685E+02  0.00000000000E+00 0. -1.
</event>
<event>
 5    1  0.1680526E-003  0.9118800E+02  0.7818608E-02  0.1130116E+00
         25   -1    0    0    0    0  0.00000000000E+00  0.00000000000E+00  0.99999998245E-14  0.12500000000E+03  0.12500000000E+03 0.  0.
        -13    1    3    3    0    0  0.38341401114E+02  0.25655738866E+01 -0.40514615553E+02  0.55839864310E+02  0.10566000000E+00 0. -1.
         23    2    1    0    0    0  0.11152580257E+00  0.24653609290E+01 -0.29181307134E+02  0.95714523590E+02  0.91124260752E+02 0.  0.
         13    1    3    3    0    0 -0.38229875311E+02 -0.10021295754E+00  0.11333308419E+02  0.39874659280E+02  0.10566000000E+00 0.  1.
         22    1    1    0    0    0 -0.11152580257E+00 -0.24653609290E+01  0.29181307134E+02  0.29285476410E+02  0.00000000000E+00 0. -1.
</event>
<event>
 5    1  0.1680526E-003  0.9118800E+02  0.7818608E-02  0.1130116E+00
         25   -1    0    0    0    0  0.00000000000E+00  0.00000000000E+00  0.99999998245E-14  0.12500000000E+03  0.12500000000E+03 0.  0.
        -13    1    3    3    0    0 -0.28654047019E+02 -0.36267577472E+01  0.34938061993E+02  0.45330862800E+02  0.10566000000E+00 0. -1.
         23    2    1    0    0    0 -0.27764872790E+02 -0.10592571344E+02 -0.12117439252E+02  0.92907585588E+02  0.87188854776E+02 0.  0.
         13    1    3    3    0    0  0.88917422832E+00 -0.69658135970E+01 -0.47055501245E+02  0.47576722789E+02  0.10566000000E+00 0.  1.
         22    1    1    0    0    0  0.27764872790E+02  0.10592571344E+02  0.12117439252E+02  0.32092414412E+02  0.00000000000E+00 0.  1.
</event>
<event>
 5    1  0.1680526E-003  0.9118800E+02  0.7818608E-02  0.1130116E+00
         25   -1    0    0    0    0  0.00000000000E+00  0.00000000000E+00  0.99999998245E-14  0.12500000000E+03  0.12500000000E+03 0.  0.
        -13    1    3    3    0    0  0.36157544322E+02 -0.35494210525E+02  0.97806090991E+01  0.51603085863E+02  0.10566000000E+00 0. -1.
         23    2    1    0    0    0  0.33316990233E+01 -0.39447664356E+02  0.71560116104E+01  0.84770322600E+02  0.74616222433E+02 0.  0.
         13    1    3    3    0    0 -0.32825845299E+02 -0.39534538310E+01 -0.26245974887E+01  0.33167236737E+02  0.10566000000E+00 0.  1.
         22    1    1    0    0    0 -0.33316990233E+01  0.39447664356E+02 -0.71560116104E+01  0.40229677400E+02  0.00000000000E+00 0. -1.
</event>
<event>
 5    1  0.1680526E-003  0.9118800E+02  0.7818608E-02  0.1130116E+00
         25   -1    0    0    0    0  0.00000000000E+00  0.00000000000E+00  0.99999998245E-14  0.12500000000E+03  0.12500000000E+03 0.  0.
        -13    1    3    3    0    0 -0.34785400137E+02 -0.32056946972E+02  0.12112838344E+02  0.48830358678E+02  0.10566000000E+00 0. -1.
         23    2    1    0    0    0 -0.28097733776E+02  0.11198357255E+02 -0.16370793535E+01  0.94708650123E+02  0.89733842728E+02 0.  0.
         13    1    3    3    0    0  0.66876663611E+01  0.43255304227E+02 -0.13749917698E+02  0.45878291445E+02  0.10566000000E+00 0.  1.
         22    1    1    0    0    0  0.28097733776E+02 -0.11198357255E+02  0.16370793535E+01  0.30291349877E+02  0.00000000000E+00 0. -1.
</event>
<event>
 5    1  0.1680526E-003  0.9118800E+02  0.7818608E-02  0.1130116E+00
         25   -1    0    0    0    0  0.00000000000E+00  0.00000000000E+00  0.99999998245E-14  0.12500000000E+03  0.12500000000E+03 0.  0.
        -13    1    3    3    0    0 -0.37258681885E+02  0.10998102350E+02  0.76134906075E+01  0.39587170073E+02  0.10566000000E+00 0. -1.
         23    2    1    0    0    0  0.17078843177E+02  0.20703439835E+02 -0.80782331574E+01  0.96971850645E+02  0.92832982616E+02 0.  0.
         13    1    3    3    0    0  0.54337525063E+02  0.97053374851E+01 -0.15691723765E+02  0.57384680572E+02  0.10566000000E+00 0.  1.
         22    1    1    0    0    0 -0.17078843177E+02 -0.20703439835E+02  0.80782331574E+01  0.28028149355E+02  0.00000000000E+00 0.  1.
</event>
<event>
 5    1  0.1680526E-003  0.9118800E+02  0.7818608E-02  0.1130116E+00
         25   -1    0    0    0    0  0.00000000000E+00  0.00000000000E+00  0.99999998245E-14  0.12500000000E+03  0.12500000000E+03 0.  0.
        -13    1    3    3    0    0  0.39444900802E+02  0.52179757289E+01 -0.33718487905E+02  0.52154338847E+02  0.10566000000E+00 0.  1.
         23    2    1    0    0    0 -0.49269443023E+01 -0.52319602084E+01 -0.25540099074E+02  0.98468040998E+02  0.94826210773E+02 0.  0.
         13    1    3    3    0    0 -0.44371845104E+02 -0.10449935937E+02  0.81783888316E+01  0.46313702151E+02  0.10566000000E+00 0. -1.
         22    1    1    0    0    0  0.49269443023E+01  0.52319602084E+01  0.25540099074E+02  0.26531959002E+02  0.00000000000E+00 0.  1.
</event>
<event>
 5    1  0.1680526E-003  0.9118800E+02  0.7818608E-02  0.1130116E+00
         25   -1    0    0    0    0  0.00000000000E+00  0.00000000000E+00  0.99999998245E-14  0.12500000000E+03  0.12500000000E+03 0.  0.
        -13    1    3    3    0    0  0.76467119393E+01  0.38080823924E+02 -0.10362441723E+02  0.40199660654E+02  0.10566000000E+00 0.  1.
         23    2    1    0    0    0 -0.22799455701E+02 -0.82906969675E+01 -0.15969363889E+02  0.95955699018E+02  0.91454495541E+02 0.  0.
         13    1    3    3    0    0 -0.30446167641E+02 -0.46371520892E+02 -0.56069221664E+01  0.55756038364E+02  0.10566000000E+00 0. -1.
         22    1    1    0    0    0  0.22799455701E+02  0.82906969675E+01  0.15969363889E+02  0.29044300982E+02  0.00000000000E+00 0. -1.
</event>
<event>
 5    1  0.1680526E-003  0.9118800E+02  0.7818608E-02  0.1130116E+00
         25   -1    0    0    0    0  0.00000000000E+00  0.00000000000E+00  0.99999998245E-14  0.12500000000E+03  0.12500000000E+03 0.  0.
        -13    1    3    3    0    0 -0.14782526590E+02 -0.49721851466E+02  0.11291286099E+02  0.53087568332E+02  0.10566000000E+00 0.  1.
         23    2    1    0    0    0 -0.23284053168E+02 -0.96206794997E+01  0.17187785302E+02  0.94502056306E+02  0.89445592829E+02 0.  0.
         13    1    3    3    0    0 -0.85015265788E+01  0.40101171966E+02  0.58964992028E+01  0.41414487974E+02  0.10566000000E+00 0. -1.
         22    1    1    0    0    0  0.23284053168E+02  0.96206794997E+01 -0.17187785302E+02  0.30497943694E+02  0.00000000000E+00 0.  1.
</event>
<event>
 5    1  0.1680526E-003  0.9118800E+02  0.7818608E-02  0.1130116E+00
         25   -1    0    0    0    0  0.00000000000E+00  0.00000000000E+00  0.99999998245E-14  0.12500000000E+03  0.12500000000E+03 0.  0.
        -13    1    3    3    0    0  0.41637950110E+01  0.39979848107E+02  0.90781926579E+01  0.41208617904E+02  0.10566000000E+00 0. -1.
         23    2    1    0    0    0  0.74189620598E+01 -0.89462109944E+01  0.28709889347E+02  0.94026891737E+02  0.88779068108E+02 0.  0.
         13    1    3    3    0    0  0.32551670488E+01 -0.48926059102E+02  0.19631696689E+02  0.52818273833E+02  0.10566000000E+00 0.  1.
         22    1    1    0    0    0 -0.74189620598E+01  0.89462109944E+01 -0.28709889347E+02  0.30973108263E+02  0.00000000000E+00 0.  1.
</event>
<event>
 5    1  0.1680526E-003  0.9118800E+02  0.7818608E-02  0.1130116E+00
         25   -1    0    0    0    0  0.00000000000E+00  0.00000000000E+00  0.99999998245E-14  0.12500000000E+03  0.12500000000E+03 0.  0.
        -13    1    3    3    0    0  0.34545600170E+02  0.44610398209E+02 -0.46315031790E+01  0.56612261085E+02  0.10566000000E+00 0. -1.
         23    2    1    0    0    0  0.23826458106E+02  0.11564288218E+02  0.12916232790E+02  0.95533715244E+02  0.90875897855E+02 0.  0.
         13    1    3    3    0    0 -0.10719142064E+02 -0.33046109991E+02  0.17547735969E+02  0.38921454158E+02  0.10566000000E+00 0.  1.
         22    1    1    0    0    0 -0.23826458106E+02 -0.11564288218E+02 -0.12916232790E+02  0.29466284756E+02  0.00000000000E+00 0. -1.
</event>
<event>
 5    1  0.1680526E-003  0.9118800E+02  0.7818608E-02  0.1130116E+00
         25   -1    0    0    0    0  0.00000000000E+00  0.00000000000E+00  0.99999998245E-14  0.12500000000E+03  0.12500000000E+03 0.  0.
        -13    1    3    3    0    0  0.50043804254E+02  0.10934448815E+02  0.62181080728E+01  0.51600586694E+02  0.10566000000E+00 0.  1.
         23    2    1    0    0    0  0.97581447680E+01  0.26995761711E+02  0.85962667131E+01  0.95035214984E+02  0.90187603061E+02 0.  0.
         13    1    3    3    0    0 -0.40285659486E+02  0.16061312896E+02  0.23781586403E+01  0.43434628290E+02  0.10566000000E+00 0. -1.
         22    1    1    0    0    0 -0.97581447680E+01 -0.26995761711E+02 -0.85962667131E+01  0.29964785016E+02  0.00000000000E+00 0. -1.
</event>
<event>
 5    1  0.1680526E-003  0.9118800E+02  0.7818608E-02  0.1130116E+00
         25   -1    0    0    0    0  0.00000000000E+00  0.00000000000E+00  0.99999998245E-14  0.12500000000E+03  0.12500000000E+03 0.  0.
        -13    1    3    3    0    0  0.19734715777E+02  0.23792345221E+02  0.14020343285E+02  0.33942832642E+02  0.10566000000E+00 0. -1.
         23    2    1    0    0    0 -0.23929790569E+02 -0.17544076768E+02  0.72888853436E+01  0.94445829158E+02  0.89366980980E+02 0.  0.
         13    1    3    3    0    0 -0.43664506346E+02 -0.41336421989E+02 -0.67314579409E+01  0.60502996515E+02  0.10566000000E+00 0.  1.
         22    1    1    0    0    0  0.23929790569E+02  0.17544076768E+02 -0.72888853436E+01  0.30554170842E+02  0.00000000000E+00 0.  1.
</event>
<event>
 5    1  0.1680526E-003  0.9118800E+02  0.7818608E-02  0.1130116E+00
         25   -1    0    0    0    0  0.00000000000E+00  0.00000000000E+00  0.99999998245E-14  0.12500000000E+03  0.12500000000E+03 0.  0.
        -13    1    3    3    0    0 -0.40921412772E+02  0.24319065003E+02 -0.70753598125E+01  0.48125365727E+02  0.10566000000E+00 0.  1.
         23    2    1    0    0    0 -0.20239184818E+02 -0.19412682527E+02 -0.45579011798E+00  0.96952101868E+02  0.92806386995E+02 0.  0.
         13    1    3    3    0    0  0.20682227954E+02 -0.43731747530E+02  0.66195696945E+01  0.48826736141E+02  0.10566000000E+00 0. -1.
         22    1    1    0    0    0  0.20239184818E+02  0.19412682527E+02  0.45579011798E+00  0.28047898132E+02  0.00000000000E+00 0. -1.
</event>
<event>
 5    1  0.1680526E-003  0.9118800E+02  0.7818608E-02  0.1130116E+00
         25   -1    0    0    0    0  0.00000000000E+00  0.00000000000E+00  0.99999998245E-14  0.12500000000E+03  0.12500000000E+03 0.  0.
        -13    1    3    3    0    0  0.24377109657E+02 -0.45130128220E+02  0.14361501421E+01  0.51313211160E+02  0.10566000000E+00 0.  1.
         23    2    1    0    0    0 -0.20706348867E+01 -0.18655496922E+02  0.23630672419E+02  0.94821799702E+02  0.89891322861E+02 0.  0.
         13    1    3    3    0    0 -0.26447744543E+02  0.26474631298E+02  0.22194522277E+02  0.43508588542E+02  0.10566000000E+00 0. -1.
         22    1    1    0    0    0  0.20706348867E+01  0.18655496922E+02 -0.23630672419E+02  0.30178200298E+02  0.00000000000E+00 0. -1.
</event>
<event>
 5    1  0.1680526E-003  0.9118800E+02  0.7818608E-02  0.1130116E+00
         25   -1    0    0    0    0  0.00000000000E+00  0.00000000000E+00  0.99999998245E-14  0.12500000000E+03  0.12500000000E+03 0.  0.
        -13    1    3    3    0    0  0.42077222956E+02 -0.79892184735E+01  0.10123594576E+02  0.44009301684E+02  0.10566000000E+00 0. -1.
         23    2    1    0    0    0  0.95691499349E+01  0.83303087327E+01 -0.26495274230E+02  0.95623781207E+02  0.90999699459E+02 0.  0.
         13    1    3    3    0    0 -0.32508073021E+02  0.16319527206E+02 -0.36618868806E+02  0.51614479523E+02  0.10566000000E+00 0.  1.
         22    1    1    0    0    0 -0.95691499349E+01 -0.83303087327E+01  0.26495274230E+02  0.29376218793E+02  0.00000000000E+00 0.  1.
</event>
<event>
 5    1  0.1680526E-003  0.9118800E+02  0.7818608E-02  0.1130116E+00
         25   -1    0    0    0    0  0.00000000000E+00  0.00000000000E+00  0.99999998245E-14  0.12500000000E+03  0.12500000000E+03 0.  0.
        -13    1    3    3    0    0  0.18000944095E+02  0.18101482373E+02 -0.25552143688E+02  0.36119535760E+02  0.10566000000E+00 0. -1.
         23    2    1    0    0    0 -0.18038340019E+02 -0.17335734459E+02  0.10150571271E+02  0.98001046372E+02  0.94208606789E+02 0.  0.
         13    1    3    3    0    0 -0.36039284115E+02 -0.35437216831E+02  0.35702714959E+02  0.61881510613E+02  0.10566000000E+00 0.  1.
         22    1    1    0    0    0  0.18038340019E+02  0.17335734459E+02 -0.10150571271E+02  0.26998953628E+02  0.00000000000E+00 0.  1.
</event>
<event>
 5    1  0.1680526E-003  0.9118800E+02  0.7818608E-02  0.1130116E+00
         25   -1    0    0    0    0  0.00000000000E+00  0.00000000000E+00  0.99999998245E-14  0.12500000000E+03  0.12500000000E+03 0.  0.
        -13    1    3    3    0    0 -0.19049047829E+02  0.28793335020E+02  0.17595800998E+02  0.38749783761E+02  0.10566000000E+00 0.  1.
         23    2    1    0    0    0  0.28286659084E+02  0.54523802085E-01  0.48789163670E+00  0.96709081082E+02  0.92478485447E+02 0.  0.
         13    1    3    3    0    0  0.47335706913E+02 -0.28738811218E+02 -0.17107909361E+02  0.57959297321E+02  0.10566000000E+00 0. -1.
         22    1    1    0    0    0 -0.28286659084E+02 -0.54523802085E-01 -0.48789163670E+00  0.28290918918E+02  0.00000000000E+00 0. -1.
</event>
<event>
 5    1  0.1680526E-003  0.9118800E+02  0.7818608E-02  0.1130116E+00
         25   -1    0    0    0    0  0.00000000000E+00  0.00000000000E+00  0.99999998245E-14  0.12500000000E+03  0.12500000000E+03 0.  0.
        -13    1    3    3    0    0  0.23353726536E+02 -0.45953096925E+02  0.95792868883E+01  0.52429548553E+02  0.10566000000E+00 0.  1.
         23    2    1    0    0    0  0.17152097255E+02 -0.10523870815E+02  0.26127129700E+02  0.92021625213E+02  0.85909291135E+02 0.  0.
         13    1    3    3    0    0 -0.62016292809E+01  0.35429226110E+02  0.16547842812E+02  0.39592076660E+02  0.10566000000E+00 0. -1.
         22    1    1    0    0    0 -0.17152097255E+02  0.10523870815E+02 -0.26127129700E+02  0.32978374787E+02  0.00000000000E+00 0.  1.
</event>
<event>
 5    1  0.1680526E-003  0.9118800E+02  0.7818608E-02  0.1130116E+00
         25   -1    0    0    0    0  0.00000000000E+00  0.00000000000E+00  0.99999998245E-14  0.12500000000E+03  0.12500000000E+03 0.  0.
        -13    1    3    3    0    0 -0.85825548792E+00  0.11738320827E+02  0.60988704128E+02  0.62114072267E+02  0.10566000000E+00 0. -1.
         23    2    1    0    0    0  0.37855865528E+01  0.79376910038E+01  0.27763785256E+02  0.95876721068E+02  0.91346484700E+02 0.  0.
         13    1    3    3    0    0  0.46438420407E+01 -0.38006298235E+01 -0.33224918872E+02  0.33762648801E+02  0.10566000000E+00 0.  1.
         22    1    1    0    0    0 -0.37855865528E+01 -0.79376910038E+01 -0.27763785256E+02  0.29123278932E+02  0.00000000000E+00 0. -1.
</event>
<event>
 5    1  0.1680526E-003  0.9118800E+02  0.7818608E-02  0.1130116E+00
         25   -1    0    0    0    0  0.00000000000E+00  0.00000000000E+00  0.99999998245E-14  0.12500000000E+03  0.12500000000E+03 0.  0.
        -13    1    3    3    0    0 -0.39566590646E+02  0.76446862825E+01 -0.30135349064E+02  0.50320043233E+02  0.10566000000E+00 0.  1.
         23    2    1    0    0    0 -0.30387229471E+02 -0.26787231748E+01  0.10104319738E+02  0.92865026060E+02  0.87127817113E+02 0.  0.
         13    1    3    3    0    0  0.91793611752E+01 -0.10323409457E+02  0.40239668802E+02  0.42544982827E+02  0.10566000000E+00 0. -1.
         22    1    1    0    0    0  0.30387229471E+02  0.26787231748E+01 -0.10104319738E+02  0.32134973940E+02  0.00000000000E+00 0. -1.
</event>
<event>
 5    1  0.1680526E-003  0.9118800E+02  0.7818608E-02  0.1130116E+00
         25   -1    0    0    0    0  0.00000000000E+00  0.00000000000E+00  0.99999998245E-14  0.12500000000E+03  0.12500000000E+03 0.  0.
        -13    1    3    3    0    0 -0.88356866848E+01  0.44737831842E+02  0.13565183743E+02  0.47576972699E+02  0.10566000000E+00 0. -1.
         23    2    1    0    0    0  0.23791016623E+02  0.84573639474E+01  0.13495163037E+02  0.96370314317E+02  0.92019446746E+02 0.  0.
         13    1    3    3    0    0  0.32626703307E+02 -0.36280467895E+02 -0.70020706219E-01  0.48793341619E+02  0.10566000000E+00 0.  1.
         22    1    1    0    0    0 -0.23791016623E+02 -0.84573639474E+01 -0.13495163037E+02  0.28629685683E+02  0.00000000000E+00 0.  1.
</event>
<event>
 5    1  0.1680526E-003  0.9118800E+02  0.7818608E-02  0.1130116E+00
         25   -1    0    0    0    0  0.00000000000E+00  0.00000000000E+00  0.99999998245E-14  0.12500000000E+03  0.12500000000E+03 0.  0.
        -13    1    3    3    0    0 -0.21157752341E+02 -0.48509862763E+01  0.40194558593E+02  0.45681465131E+02  0.10566000000E+00 0. -1.
         23    2    1    0    0    0  0.26465541320E+01  0.27614633869E+02  0.12327557201E+02  0.94643107553E+02  0.89642494880E+02 0.  0.
         13    1    3    3    0    0  0.23804306473E+02  0.32465620145E+02 -0.27867001392E+02  0.48961642422E+02  0.10566000000E+00 0.  1.
         22    1    1    0    0    0 -0.26465541320E+01 -0.27614633869E+02 -0.12327557201E+02  0.30356892447E+02  0.00000000000E+00 0.  1.
</event>
<event>
 5    1  0.1680526E-003  0.9118800E+02  0.7818608E-02  0.1130116E+00
         25   -1    0    0    0    0  0.00000000000E+00  0.00000000000E+00  0.99999998245E-14  0.12500000000E+03  0.12500000000E+03 0.  0.
        -13    1    3    3    0    0  0.12472650594E+02 -0.12713639338E+02 -0.59637248289E+02  0.62239988637E+02  0.10566000000E+00 0.  1.
         23    2    1    0    0    0  0.45328583480E+01 -0.15064721462E+01 -0.25851300224E+02  0.98711105264E+02  0.95146078827E+02 0.  0.
         13    1    3    3    0    0 -0.79397922462E+01  0.11207167192E+02  0.33785948065E+02  0.36471116627E+02  0.10566000000E+00 0. -1.
         22    1    1    0    0    0 -0.45328583480E+01  0.15064721462E+01  0.25851300224E+02  0.26288894736E+02  0.00000000000E+00 0.  1.
</event>
<event>
 5    1  0.1680526E-003  0.9118800E+02  0.7818608E-02  0.1130116E+00
         25   -1    0    0    0    0  0.00000000000E+00  0.00000000000E+00  0.99999998245E-14  0.12500000000E+03  0.12500000000E+03 0.  0.
        -13    1    3    3    0    0 -0.42275359261E+02  0.66405576857E+01 -0.90378720450E+01  0.43737824616E+02  0.10566000000E+00 0.  1.
         23    2    1    0    0    0  0.11204683913E+01 -0.13682639170E+02 -0.26836684594E+02  0.94855718551E+02  0.89938476959E+02 0.  0.
         13    1    3    3    0    0  0.43395827653E+02 -0.20323196855E+02 -0.17798812549E+02  0.51117893934E+02  0.10566000000E+00 0. -1.
         22    1    1    0    0    0 -0.11204683913E+01  0.13682639170E+02  0.26836684594E+02  0.30144281449E+02  0.00000000000E+00 0. -1.
</event>
<event>
 5    1  0.1680526E-003  0.9118800E+02  0.7818608E-02  0.1130116E+00
         25   -1    0    0    0    0  0.00000000000E+00  0.00000000000E+00  0.99999998245E-14  0.12500000000E+03  0.12500000000E+03 0.  0.
        -13    1    3    3    0    0 -0.37241819458E+02  0.34142573950E+02  0.33318820025E+02  0.60521264068E+02  0.10566000000E+00 0.  1.
         23    2    1    0    0    0 -0.16496233463E+02  0.23955543532E+02  0.79340479200E+01  0.94851320082E+02  0.89932363588E+02 0.  0.
         13    1    3    3    0    0  0.20745585995E+02 -0.10187030418E+02 -0.25384772105E+02  0.34330056014E+02  0.10566000000E+00 0. -1.
         22    1    1    0    0    0  0.16496233463E+02 -0.23955543532E+02 -0.79340479200E+01  0.30148679918E+02  0.00000000000E+00 0.  1.
</event>
<event>
 5    1  0.1680526E-003  0.9118800E+02  0.7818608E-02  0.1130116E+00
         25   -1    0    0    0    0  0.00000000000E+00  0.00000000000E+00  0.99999998245E-14  0.12500000000E+03  0.12500000000E+03 0.  0.
        -13    1    3    3    0    0  0.20725477254E+02  0.12460599661E+02  0.34820971818E+02  0.42394848669E+02  0.10566000000E+00 0.  1.
         23    2    1    0    0    0 -0.22838248091E+02  0.15093154407E+02  0.10037928235E+01  0.97606634273E+02  0.93683822340E+02 0.  0.
         13    1    3    3    0    0 -0.43563725345E+02  0.26325547459E+01 -0.33817178994E+02  0.55211785604E+02  0.10566000000E+00 0. -1.
         22    1    1    0    0    0  0.22838248091E+02 -0.15093154407E+02 -0.10037928235E+01  0.27393365727E+02  0.00000000000E+00 0. -1.
</event>
<event>
 5    1  0.1680526E-003  0.9118800E+02  0.7818608E-02  0.1130116E+00
         25   -1    0    0    0    0  0.00000000000E+00  0.00000000000E+00  0.99999998245E-14  0.12500000000E+03  0.12500000000E+03 0.  0.
        -13    1    3    3    0    0 -0.49923662346E+02 -0.29372905813E+02 -0.76889526510E+01  0.58431762038E+02  0.10566000000E+00 0.  1.
         23    2    1    0    0    0 -0.25002424725E+02 -0.20611613412E+01 -0.14495335708E+02  0.96026143068E+02  0.91550727835E+02 0.  0.
         13    1    3    3    0    0  0.24921237621E+02  0.27311744472E+02 -0.68063830568E+01  0.37594381030E+02  0.10566000000E+00 0. -1.
         22    1    1    0    0    0  0.25002424725E+02  0.20611613412E+01  0.14495335708E+02  0.28973856932E+02  0.00000000000E+00 0.  1.
</event>
<event>
 5    1  0.1680526E-003  0.9118800E+02  0.7818608E-02  0.1130116E+00
         25   -1    0    0    0    0  0.00000000000E+00  0.00000000000E+00  0.99999998245E-14  0.12500000000E+03  0.12500000000E+03 0.  0.
        -13    1    3    3    0    0  0.27846266689E+02 -0.55000784497E+00  0.21390870637E+02  0.35118336916E+02  0.10566000000E+00 0. -1.
         23    2    1    0    0    0 -0.15793174428E+02 -0.17782865754E+02 -0.17019265126E+02  0.95754315560E+02  0.91178829176E+02 0.  0.
         13    1    3    3    0    0 -0.43639441117E+02 -0.17232857909E+02 -0.38410135762E+02  0.60635978644E+02  0.10566000000E+00 0.  1.
         22    1    1    0    0    0  0.15793174428E+02  0.17782865754E+02  0.17019265126E+02  0.29245684440E+02  0.00000000000E+00 0.  1.
</event>
<event>
 5    1  0.1680526E-003  0.9118800E+02  0.7818608E-02  0.1130116E+00
         25   -1    0    0    0    0  0.00000000000E+00  0.00000000000E+00  0.99999998245E-14  0.12500000000E+03  0.12500000000E+03 0.  0.
        -13    1    3    3    0    0 -0.20108327058E+02  0.19089565684E+02  0.32363924329E+02  0.42616793604E+02  0.10566000000E+00 0.  1.
         23    2    1    0    0    0 -0.17088570834E+02  0.10725564172E+02 -0.20507967042E+02  0.96231376603E+02  0.91830518624E+02 0.  0.
         13    1    3    3    0    0  0.30197562235E+01 -0.83640015123E+01 -0.52871891371E+02  0.53614582999E+02  0.10566000000E+00 0. -1.
         22    1    1    0    0    0  0.17088570834E+02 -0.10725564172E+02  0.20507967042E+02  0.28768623397E+02  0.00000000000E+00 0. -1.
</event>
<event>
 5    1  0.1680526E-003  0.9118800E+02  0.7818608E-02  0.1130116E+00
         25   -1    0    0    0    0  0.00000000000E+00  0.00000000000E+00  0.99999998245E-14  0.12500000000E+03  0.12500000000E+03 0.  0.
        -13    1    3    3    0    0 -0.31246755409E+02 -0.26221399351E+02 -0.10351708299E+00  0.40791462187E+02  0.10566000000E+00 0.  1.
         23    2    1    0    0    0 -0.19232591070E+02 -0.90544071514E+01  0.36380395845E+02  0.82864408750E+02  0.71351959942E+02 0.  0.
         13    1    3    3    0    0  0.12014164339E+02  0.17166992199E+02  0.36483912928E+02  0.42072946563E+02  0.10566000000E+00 0. -1.
         22    1    1    0    0    0  0.19232591070E+02  0.90544071514E+01 -0.36380395845E+02  0.42135591250E+02  0.00000000000E+00 0. -1.
</event>
<event>
 5    1  0.1680526E-003  0.9118800E+02  0.7818608E-02  0.1130116E+00
         25   -1    0    0    0    0  0.00000000000E+00  0.00000000000E+00  0.99999998245E-14  0.12500000000E+03  0.12500000000E+03 0.  0.
        -13    1    3    3    0    0 -0.16631178995E+02  0.43830083143E+02 -0.52050191740E+01  0.47167527938E+02  0.10566000000E+00 0. -1.
         23    2    1    0    0    0 -0.18907061694E+02 -0.46601070910E+00 -0.23229797532E+02  0.95044739339E+02  0.90200802850E+02 0.  0.
         13    1    3    3    0    0 -0.22758826986E+01 -0.44296093853E+02 -0.18024778358E+02  0.47877211401E+02  0.10566000000E+00 0.  1.
         22    1    1    0    0    0  0.18907061694E+02  0.46601070910E+00  0.23229797532E+02  0.29955260661E+02  0.00000000000E+00 0.  1.
</event>
<event>
 5    1  0.1680526E-003  0.9118800E+02  0.7818608E-02  0.1130116E+00
         25   -1    0    0    0    0  0.00000000000E+00  0.00000000000E+00  0.99999998245E-14  0.12500000000E+03  0.12500000000E+03 0.  0.
        -13    1    3    3    0    0  0.31543138725E+00  0.74938164116E+01  0.35382976180E+02  0.36169364783E+02  0.10566000000E+00 0.  1.
         23    2    1    0    0    0 -0.97427084480E+01 -0.99823020552E+01 -0.23091307710E+02  0.98022690757E+02  0.94237321107E+02 0.  0.
         13    1    3    3    0    0 -0.10058139835E+02 -0.17476118467E+02 -0.58474283890E+02  0.61853325975E+02  0.10566000000E+00 0. -1.
         22    1    1    0    0    0  0.97427084480E+01  0.99823020552E+01  0.23091307710E+02  0.26977309243E+02  0.00000000000E+00 0. -1.
</event>
<event>
 5    1  0.1680526E-003  0.9118800E+02  0.7818608E-02  0.1130116E+00
         25   -1    0    0    0    0  0.00000000000E+00  0.00000000000E+00  0.99999998245E-14  0.12500000000E+03  0.12500000000E+03 0.  0.
        -13    1    3    3    0    0 -0.34492664674E+02  0.27043998406E+02  0.40958749663E+02  0.59989599966E+02  0.10566000000E+00 0. -1.
         23    2    1    0    0    0 -0.21655596642E+02  0.13723859855E+02  0.73902402641E+01  0.98318080159E+02  0.94628325779E+02 0.  0.
         13    1    3    3    0    0  0.12837068032E+02 -0.13320138551E+02 -0.33568509399E+02  0.38328480194E+02  0.10566000000E+00 0.  1.
         22    1    1    0    0    0  0.21655596642E+02 -0.13723859855E+02 -0.73902402641E+01  0.26681919841E+02  0.00000000000E+00 0. -1.
</event>
<event>
 5    1  0.1680526E-003  0.9118800E+02  0.7818608E-02  0.1130116E+00
         25   -1    0    0    0    0  0.00000000000E+00  0.00000000000E+00  0.99999998245E-14  0.12500000000E+03  0.12500000000E+03 0.  0.
        -13    1    3    3    0    0  0.28977949246E+02  0.18003006229E+02 -0.18424933141E+02  0.38772659196E+02  0.10566000000E+00 0.  1.
         23    2    1    0    0    0 -0.24518192131E+02 -0.35103682788E+00 -0.16655629363E+02  0.95357547980E+02  0.90633255459E+02 0.  0.
         13    1    3    3    0    0 -0.53496141378E+02 -0.18354043057E+02  0.17693037779E+01  0.56584888784E+02  0.10566000000E+00 0. -1.
         22    1    1    0    0    0  0.24518192131E+02  0.35103682788E+00  0.16655629363E+02  0.29642452020E+02  0.00000000000E+00 0. -1.
</event>
<event>
 5    1  0.1680526E-003  0.9118800E+02  0.7818608E-02  0.1130116E+00
         25   -1    0    0    0    0  0.00000000000E+00  0.00000000000E+00  0.99999998245E-14  0.12500000000E+03  0.12500000000E+03 0.  0.
        -13    1    3    3    0    0  0.44283179491E+02  0.19625360621E+01 -0.12176198726E+02  0.45968712328E+02  0.10566000000E+00 0. -1.
         23    2    1    0    0    0  0.79234611103E+01 -0.28744209961E+02 -0.97811032875E+01  0.93620375659E+02  0.88204840654E+02 0.  0.
         13    1    3    3    0    0 -0.36359718381E+02 -0.30706746023E+02  0.23950954381E+01  0.47651663331E+02  0.10566000000E+00 0.  1.
         22    1    1    0    0    0 -0.79234611103E+01  0.28744209961E+02  0.97811032875E+01  0.31379624341E+02  0.00000000000E+00 0.  1.
</event>
<event>
 5    1  0.1680526E-003  0.9118800E+02  0.7818608E-02  0.1130116E+00
         25   -1    0    0    0    0  0.00000000000E+00  0.00000000000E+00  0.99999998245E-14  0.12500000000E+03  0.12500000000E+03 0.  0.
        -13    1    3    3    0    0  0.34115034934E+02  0.32910289246E+02  0.51971490338E+01  0.47685891718E+02  0.10566000000E+00 0.  1.
         23    2    1    0    0    0 -0.12035740207E+02  0.26368091657E+02 -0.54702422713E+01  0.95503240001E+02  0.90833969417E+02 0.  0.
         13    1    3    3    0    0 -0.46150775142E+02 -0.65421975898E+01 -0.10667391305E+02  0.47817348282E+02  0.10566000000E+00 0. -1.
         22    1    1    0    0    0  0.12035740207E+02 -0.26368091657E+02  0.54702422713E+01  0.29496759999E+02  0.00000000000E+00 0.  1.
</event>
<event>
 5    1  0.1680526E-003  0.9118800E+02  0.7818608E-02  0.1130116E+00
         25   -1    0    0    0    0  0.00000000000E+00  0.00000000000E+00  0.99999998245E-14  0.12500000000E+03  0.12500000000E+03 0.  0.
        -13    1    3    3    0    0 -0.60782873121E+02  0.11389106561E+02 -0.39594530569E+01  0.61967393407E+02  0.10566000000E+00 0.  1.
         23    2    1    0    0    0 -0.29803550200E+02  0.12799985587E+01  0.20282637214E+01  0.95100102767E+02  0.90277492720E+02 0.  0.
         13    1    3    3    0    0  0.30979322921E+02 -0.10109108002E+02  0.59877167783E+01  0.33132709360E+02  0.10566000000E+00 0. -1.
         22    1    1    0    0    0  0.29803550200E+02 -0.12799985587E+01 -0.20282637214E+01  0.29899897233E+02  0.00000000000E+00 0.  1.
</event>
<event>
 5    1  0.1680526E-003  0.9118800E+02  0.7818608E-02  0.1130116E+00
         25   -1    0    0    0    0  0.00000000000E+00  0.00000000000E+00  0.99999998245E-14  0.12500000000E+03  0.12500000000E+03 0.  0.
        -13    1    3    3    0    0  0.36629006495E+02  0.23790478036E+01  0.10389766200E+02  0.38148425800E+02  0.10566000000E+00 0.  1.
         23    2    1    0    0    0 -0.19166458868E+02 -0.90646105557E+01  0.19932995057E+02  0.95899405470E+02  0.91377521128E+02 0.  0.
         13    1    3    3    0    0 -0.55795465364E+02 -0.11443658359E+02  0.95432288566E+01  0.57750979670E+02  0.10566000000E+00 0. -1.
         22    1    1    0    0    0  0.19166458868E+02  0.90646105557E+01 -0.19932995057E+02  0.29100594530E+02  0.00000000000E+00 0. -1.
</event>
<event>
 5    1  0.1680526E-003  0.9118800E+02  0.7818608E-02  0.1130116E+00
         25   -1    0    0    0    0  0.00000000000E+00  0.00000000000E+00  0.99999998245E-14  0.12500000000E+03  0.12500000000E+03 0.  0.
        -13    1    3    3    0    0 -0.45163854981E+02  0.14085591200E+01 -0.34233345248E+02  0.56689425173E+02  0.10566000000E+00 0.  1.
         23    2    1    0    0    0 -0.26234384929E+02 -0.12440912597E+02 -0.29120788444E+01  0.95819536295E+02  0.91268198589E+02 0.  0.
         13    1    3    3    0    0  0.18929470052E+02 -0.13849471717E+02  0.31321266403E+02  0.39130111122E+02  0.10566000000E+00 0. -1.
         22    1    1    0    0    0  0.26234384929E+02  0.12440912597E+02  0.29120788444E+01  0.29180463705E+02  0.00000000000E+00 0.  1.
</event>
<event>
 5    1  0.1680526E-003  0.9118800E+02  0.7818608E-02  0.1130116E+00
         25   -1    0    0    0    0  0.00000000000E+00  0.00000000000E+00  0.99999998245E-14  0.12500000000E+03  0.12500000000E+03 0.  0.
        -13    1    3    3    0    0 -0.12702113443E+02  0.14856884180E+02  0.40331261100E+02  0.44818439055E+02  0.10566000000E+00 0. -1.
         23    2    1    0    0    0 -0.27425738589E+02 -0.99890033895E+01 -0.16391978604E+01  0.95765802637E+02  0.91194575821E+02 0.  0.
         13    1    3    3    0    0 -0.14723625146E+02 -0.24845887570E+02 -0.41970458960E+02  0.50947363581E+02  0.10566000000E+00 0.  1.
         22    1    1    0    0    0  0.27425738589E+02  0.99890033895E+01  0.16391978604E+01  0.29234197363E+02  0.00000000000E+00 0.  1.
</event>
<event>
 5    1  0.1680526E-003  0.9118800E+02  0.7818608E-02  0.1130116E+00
         25   -1    0    0    0    0  0.00000000000E+00  0.00000000000E+00  0.99999998245E-14  0.12500000000E+03  0.12500000000E+03 0.  0.
        -13    1    3    3    0    0 -0.38840997344E+02  0.69916595703E+01  0.31040376977E+01  0.39587278162E+02  0.10566000000E+00 0. -1.
         23    2    1    0    0    0  0.12131168982E+02  0.85890924805E+01  0.25656562678E+02  0.95348744058E+02  0.90621112410E+02 0.  0.
         13    1    3    3    0    0  0.50972166325E+02  0.15974329102E+01  0.22552524980E+02  0.55761465896E+02  0.10566000000E+00 0.  1.
         22    1    1    0    0    0 -0.12131168982E+02 -0.85890924805E+01 -0.25656562678E+02  0.29651255942E+02  0.00000000000E+00 0.  1.
</event>
<event>
 5    1  0.1680526E-003  0.9118800E+02  0.7818608E-02  0.1130116E+00
         25   -1    0    0    0    0  0.00000000000E+00  0.00000000000E+00  0.99999998245E-14  0.12500000000E+03  0.12500000000E+03 0.  0.
        -13    1    3    3    0    0  0.26097718825E+02  0.88461857654E+01 -0.27616449606E+02  0.39013143725E+02  0.10566000000E+00 0.  1.
         23    2    1    0    0    0 -0.24243354779E+01  0.24637073611E+02  0.17505061806E+02  0.94680204693E+02  0.89694209251E+02 0.  0.
         13    1    3    3    0    0 -0.28522054303E+02  0.15790887846E+02  0.45121511412E+02  0.55667060968E+02  0.10566000000E+00 0. -1.
         22    1    1    0    0    0  0.24243354779E+01 -0.24637073611E+02 -0.17505061806E+02  0.30319795307E+02  0.00000000000E+00 0.  1.
</event>
<event>
 5    1  0.1680526E-003  0.9118800E+02  0.7818608E-02  0.1130116E+00
         25   -1    0    0    0    0  0.00000000000E+00  0.00000000000E+00  0.99999998245E-14  0.12500000000E+03  0.12500000000E+03 0.  0.
        -13    1    3    3    0    0  0.18048194474E+02 -0.30503843042E+02  0.83109096167E+01  0.36404726984E+02  0.10566000000E+00 0. -1.
         23    2    1    0    0    0 -0.22167760197E+02 -0.19727900610E+00 -0.20825812519E+02  0.94583508121E+02  0.89559349207E+02 0.  0.
         13    1    3    3    0    0 -0.40215954671E+02  0.30306564036E+02 -0.29136722135E+02  0.58178781137E+02  0.10566000000E+00 0.  1.
         22    1    1    0    0    0  0.22167760197E+02  0.19727900610E+00  0.20825812519E+02  0.30416491879E+02  0.00000000000E+00 0.  1.
</event>
<event>
 5    1  0.1680526E-003  0.9118800E+02  0.7818608E-02  0.1130116E+00
         25   -1    0    0    0    0  0.00000000000E+00  0.00000000000E+00  0.99999998245E-14  0.12500000000E+03  0.12500000000E+03 0.  0.
        -13    1    3    3    0    0  0.15282073656E+02 -0.46215010830E+02 -0.33352293155E+02  0.59006403246E+02  0.10566000000E+00 0. -1.
         23    2    1    0    0    0  0.33306965097E+01 -0.11423977424E+02 -0.25839085157E+02  0.96552519951E+02  0.92266624451E+02 0.  0.
         13    1    3    3    0    0 -0.11951377147E+02  0.34791033406E+02  0.75132079985E+01  0.37546116705E+02  0.10566000000E+00 0.  1.
         22    1    1    0    0    0 -0.33306965097E+01  0.11423977424E+02  0.25839085157E+02  0.28447480049E+02  0.00000000000E+00 0. -1.
</event>
<event>
 5    1  0.1680526E-003  0.9118800E+02  0.7818608E-02  0.1130116E+00
         25   -1    0    0    0    0  0.00000000000E+00  0.00000000000E+00  0.99999998245E-14  0.12500000000E+03  0.12500000000E+03 0.  0.
        -13    1    3    3    0    0 -0.39083104866E+02 -0.14614654869E+02 -0.13084828159E+02  0.43729865251E+02  0.10566000000E+00 0.  1.
         23    2    1    0    0    0 -0.76520116666E+01  0.32487622981E+01  0.26433366256E+02  0.97290243764E+02  0.93260714886E+02 0.  0.
         13    1    3    3    0    0  0.31431093200E+02  0.17863417167E+02  0.39518194415E+02  0.53560378513E+02  0.10566000000E+00 0. -1.
         22    1    1    0    0    0  0.76520116666E+01 -0.32487622981E+01 -0.26433366256E+02  0.27709756236E+02  0.00000000000E+00 0. -1.
</event>
<event>
 5    1  0.1680526E-003  0.9118800E+02  0.7818608E-02  0.1130116E+00
         25   -1    0    0    0    0  0.00000000000E+00  0.00000000000E+00  0.99999998245E-14  0.12500000000E+03  0.12500000000E+03 0.  0.
        -13    1    3    3    0    0  0.41122410804E+02  0.30198325406E+01  0.29877311788E+02  0.50919907527E+02  0.10566000000E+00 0.  1.
         23    2    1    0    0    0  0.26492336782E+02  0.10755787326E+02 -0.10486768439E+02  0.94545063102E+02  0.89505674543E+02 0.  0.
         13    1    3    3    0    0 -0.14630074021E+02  0.77359547854E+01 -0.40364080227E+02  0.43625155574E+02  0.10566000000E+00 0. -1.
         22    1    1    0    0    0 -0.26492336782E+02 -0.10755787326E+02  0.10486768439E+02  0.30454936898E+02  0.00000000000E+00 0.  1.
</event>
<event>
 5    1  0.1680526E-003  0.9118800E+02  0.7818608E-02  0.1130116E+00
         25   -1    0    0    0    0  0.00000000000E+00  0.00000000000E+00  0.99999998245E-14  0.12500000000E+03  0.12500000000E+03 0.  0.
        -13    1    3    3    0    0 -0.91269103037E+01  0.36330450236E+02 -0.14407455664E+02  0.40134624065E+02  0.10566000000E+00 0. -1.
         23    2    1    0    0    0  0.17647476304E+02  0.53941804641E+01  0.22959207062E+02  0.95544002450E+02  0.90890046828E+02 0.  0.
         13    1    3    3    0    0  0.26774386608E+02 -0.30936269772E+02  0.37366662726E+02  0.55409378385E+02  0.10566000000E+00 0.  1.
         22    1    1    0    0    0 -0.17647476304E+02 -0.53941804641E+01 -0.22959207062E+02  0.29455997550E+02  0.00000000000E+00 0.  1.
</event>
<event>
 5    1  0.1680526E-003  0.9118800E+02  0.7818608E-02  0.1130116E+00
         25   -1    0    0    0    0  0.00000000000E+00  0.00000000000E+00  0.99999998245E-14  0.12500000000E+03  0.12500000000E+03 0.  0.
        -13    1    3    3    0    0  0.13551261245E+02  0.18455263202E+02  0.84197259539E+00  0.22911863806E+02  0.10566000000E+00 0. -1.
         23    2    1    0    0    0 -0.26897472883E+02 -0.12148801419E+02  0.31222212861E+02  0.82036131467E+02  0.69885855985E+02 0.  0.
         13    1    3    3    0    0 -0.40448734128E+02 -0.30604064620E+02  0.30380240266E+02  0.59124267661E+02  0.10566000000E+00 0.  1.
         22    1    1    0    0    0  0.26897472883E+02  0.12148801419E+02 -0.31222212861E+02  0.42963868533E+02  0.00000000000E+00 0.  1.
</event>
<event>
 5    1  0.1680526E-003  0.9118800E+02  0.7818608E-02  0.1130116E+00
         25   -1    0    0    0    0  0.00000000000E+00  0.00000000000E+00  0.99999998245E-14  0.12500000000E+03  0.12500000000E+03 0.  0.
        -13    1    3    3    0    0 -0.31512778661E+02 -0.28763959992E+02 -0.43702210441E+02  0.61076304528E+02  0.10566000000E+00 0.  1.
         23    2    1    0    0    0 -0.82054385531E+01 -0.10838378098E+02 -0.26692001979E+02  0.95045657556E+02  0.90202075303E+02 0.  0.
         13    1    3    3    0    0  0.23307340108E+02  0.17925581894E+02  0.17010208462E+02  0.33969353028E+02  0.10566000000E+00 0. -1.
         22    1    1    0    0    0  0.82054385531E+01  0.10838378098E+02  0.26692001979E+02  0.29954342444E+02  0.00000000000E+00 0.  1.
</event>
<event>
 5    1  0.1680526E-003  0.9118800E+02  0.7818608E-02  0.1130116E+00
         25   -1    0    0    0    0  0.00000000000E+00  0.00000000000E+00  0.99999998245E-14  0.12500000000E+03  0.12500000000E+03 0.  0.
        -13    1    3    3    0    0 -0.10082957355E+02  0.16758326731E+02  0.40715221122E+02  0.45169103809E+02  0.10566000000E+00 0. -1.
         23    2    1    0    0    0 -0.27121005997E+02 -0.10666010884E+02  0.17047432323E+01  0.95807211439E+02  0.91251317031E+02 0.  0.
         13    1    3    3    0    0 -0.17038048641E+02 -0.27424337616E+02 -0.39010477890E+02  0.50638107630E+02  0.10566000000E+00 0.  1.
         22    1    1    0    0    0  0.27121005997E+02  0.10666010884E+02 -0.17047432323E+01  0.29192788561E+02  0.00000000000E+00 0.  1.
</event>
<event>
 5    1  0.1680526E-003  0.9118800E+02  0.7818608E-02  0.1130116E+00
         25   -1    0    0    0    0  0.00000000000E+00  0.00000000000E+00  0.99999998245E-14  0.12500000000E+03  0.12500000000E+03 0.  0.
        -13    1    3    3    0    0  0.39367098335E+02  0.30170766151E+02 -0.36105500824E+02  0.61348691227E+02  0.10566000000E+00 0.  1.
         23    2    1    0    0    0  0.13786272007E+02  0.11565685297E+02 -0.23505207285E+02  0.95397278136E+02  0.90688034128E+02 0.  0.
         13    1    3    3    0    0 -0.25580826328E+02 -0.18605080854E+02  0.12600293539E+02  0.34048586909E+02  0.10566000000E+00 0. -1.
         22    1    1    0    0    0 -0.13786272007E+02 -0.11565685297E+02  0.23505207285E+02  0.29602721864E+02  0.00000000000E+00 0.  1.
</event>
<event>
 5    1  0.1680526E-003  0.9118800E+02  0.7818608E-02  0.1130116E+00
         25   -1    0    0    0    0  0.00000000000E+00  0.00000000000E+00  0.99999998245E-14  0.12500000000E+03  0.12500000000E+03 0.  0.
        -13    1    3    3    0    0 -0.15543955690E+02  0.18021588890E+02  0.44219533130E+02  0.50217233087E+02  0.10566000000E+00 0.  1.
         23    2    1    0    0    0 -0.18467934465E+02  0.20569214976E+02 -0.26342638529E+01  0.97231374644E+02  0.93181777515E+02 0.  0.
         13    1    3    3    0    0 -0.29239787755E+01  0.25476260856E+01 -0.46853796983E+02  0.47014141557E+02  0.10566000000E+00 0. -1.
         22    1    1    0    0    0  0.18467934465E+02 -0.20569214976E+02  0.26342638529E+01  0.27768625356E+02  0.00000000000E+00 0.  1.
</event>
<event>
 5    1  0.1680526E-003  0.9118800E+02  0.7818608E-02  0.1130116E+00
         25   -1    0    0    0    0  0.00000000000E+00  0.00000000000E+00  0.99999998245E-14  0.12500000000E+03  0.12500000000E+03 0.  0.
        -13    1    3    3    0    0 -0.93473424919E+01 -0.39049694406E+02 -0.16167883625E+01  0.40185527414E+02  0.10566000000E+00 0.  1.
         23    2    1    0    0    0  0.24813234175E+02  0.33664432821E+01  0.13290925557E+02  0.96650780738E+02  0.92399649266E+02 0.  0.
         13    1    3    3    0    0  0.34160576667E+02  0.42416137689E+02  0.14907713919E+02  0.56465253324E+02  0.10566000000E+00 0. -1.
         22    1    1    0    0    0 -0.24813234175E+02 -0.33664432821E+01 -0.13290925557E+02  0.28349219262E+02  0.00000000000E+00 0. -1.
</event>
<event>
 5    1  0.1680526E-003  0.9118800E+02  0.7818608E-02  0.1130116E+00
         25   -1    0    0    0    0  0.00000000000E+00  0.00000000000E+00  0.99999998245E-14  0.12500000000E+03  0.12500000000E+03 0.  0.
        -13    1    3    3    0    0  0.51949583054E+01  0.58882574116E+00 -0.49275478564E+02  0.49552177139E+02  0.10566000000E+00 0.  1.
         23    2    1    0    0    0 -0.22699519182E+02  0.12768294793E+02 -0.17097728573E+02  0.93845067078E+02  0.88522690705E+02 0.  0.
         13    1    3    3    0    0 -0.27894477487E+02  0.12179469051E+02  0.32177749991E+02  0.44292889939E+02  0.10566000000E+00 0. -1.
         22    1    1    0    0    0  0.22699519182E+02 -0.12768294793E+02  0.17097728573E+02  0.31154932922E+02  0.00000000000E+00 0.  1.
</event>
<event>
 5    1  0.1680526E-003  0.9118800E+02  0.7818608E-02  0.1130116E+00
         25   -1    0    0    0    0  0.00000000000E+00  0.00000000000E+00  0.99999998245E-14  0.12500000000E+03  0.12500000000E+03 0.  0.
        -13    1    3    3    0    0  0.59556979926E+02 -0.63829778986E+01  0.43454914804E+01  0.60055563648E+02  0.10566000000E+00 0. -1.
         23    2    1    0    0    0  0.25803219733E+02  0.87881308427E+01  0.59597788335E+01  0.97097377255E+02  0.93001851131E+02 0.  0.
         13    1    3    3    0    0 -0.33753760193E+02  0.15171108741E+02  0.16142873531E+01  0.37041813607E+02  0.10566000000E+00 0.  1.
         22    1    1    0    0    0 -0.25803219733E+02 -0.87881308427E+01 -0.59597788335E+01  0.27902622745E+02  0.00000000000E+00 0. -1.
</event>
<event>
 5    1  0.1680526E-003  0.9118800E+02  0.7818608E-02  0.1130116E+00
         25   -1    0    0    0    0  0.00000000000E+00  0.00000000000E+00  0.99999998245E-14  0.12500000000E+03  0.12500000000E+03 0.  0.
        -13    1    3    3    0    0  0.40141213921E+02 -0.12938075729E+02 -0.23318249338E+02  0.48191936824E+02  0.10566000000E+00 0.  1.
         23    2    1    0    0    0 -0.10101146934E+02 -0.16147899863E+02 -0.17959388368E+02  0.98821240100E+02  0.95290660743E+02 0.  0.
         13    1    3    3    0    0 -0.50242360855E+02 -0.32098241342E+01  0.53588609701E+01  0.50629303276E+02  0.10566000000E+00 0. -1.
         22    1    1    0    0    0  0.10101146934E+02  0.16147899863E+02  0.17959388368E+02  0.26178759900E+02  0.00000000000E+00 0.  1.
</event>
<event>
 5    1  0.1680526E-003  0.9118800E+02  0.7818608E-02  0.1130116E+00
         25   -1    0    0    0    0  0.00000000000E+00  0.00000000000E+00  0.99999998245E-14  0.12500000000E+03  0.12500000000E+03 0.  0.
        -13    1    3    3    0    0 -0.14317353558E+02 -0.34326364281E+02  0.47460425625E+01  0.37494292655E+02  0.10566000000E+00 0.  1.
         23    2    1    0    0    0 -0.96104538637E+01  0.16497629605E+02 -0.22611997287E+02  0.95405489912E+02  0.90699352136E+02 0.  0.
         13    1    3    3    0    0  0.47068996939E+01  0.50823993886E+02 -0.27358039850E+02  0.57911197257E+02  0.10566000000E+00 0. -1.
         22    1    1    0    0    0  0.96104538637E+01 -0.16497629605E+02  0.22611997287E+02  0.29594510088E+02  0.00000000000E+00 0. -1.
</event>
<event>
 5    1  0.1680526E-003  0.9118800E+02  0.7818608E-02  0.1130116E+00
         25   -1    0    0    0    0  0.00000000000E+00  0.00000000000E+00  0.99999998245E-14  0.12500000000E+03  0.12500000000E+03 0.  0.
        -13    1    3    3    0    0 -0.38477163961E+02 -0.85588974069E+01 -0.14119477276E+02  0.41870248076E+02  0.10566000000E+00 0.  1.
         23    2    1    0    0    0  0.39081700196E+01 -0.25231681705E+02  0.14475737063E+02  0.95649386411E+02  0.91034864764E+02 0.  0.
         13    1    3    3    0    0  0.42385333981E+02 -0.16672784298E+02  0.28595214339E+02  0.53779138335E+02  0.10566000000E+00 0. -1.
         22    1    1    0    0    0 -0.39081700196E+01  0.25231681705E+02 -0.14475737063E+02  0.29350613589E+02  0.00000000000E+00 0.  1.
</event>
<event>
 5    1  0.1680526E-003  0.9118800E+02  0.7818608E-02  0.1130116E+00
         25   -1    0    0    0    0  0.00000000000E+00  0.00000000000E+00  0.99999998245E-14  0.12500000000E+03  0.12500000000E+03 0.  0.
        -13    1    3    3    0    0 -0.18652787473E+02  0.52209691778E+02 -0.14478550636E+02  0.57301116818E+02  0.10566000000E+00 0.  1.
         23    2    1    0    0    0  0.86647699465E+01  0.27734069978E+02 -0.27271504717E+01  0.95816199263E+02  0.91263628109E+02 0.  0.
         13    1    3    3    0    0  0.27317557420E+02 -0.24475621800E+02  0.11751400164E+02  0.38515082445E+02  0.10566000000E+00 0. -1.
         22    1    1    0    0    0 -0.86647699465E+01 -0.27734069978E+02  0.27271504717E+01  0.29183800737E+02  0.00000000000E+00 0.  1.
</event>
<event>
 5    1  0.1680526E-003  0.9118800E+02  0.7818608E-02  0.1130116E+00
         25   -1    0    0    0    0  0.00000000000E+00  0.00000000000E+00  0.99999998245E-14  0.12500000000E+03  0.12500000000E+03 0.  0.
        -13    1    3    3    0    0 -0.11794693770E+02  0.13440122500E+02  0.29741867949E+02  0.34703624696E+02  0.10566000000E+00 0.  1.
         23    2    1    0    0    0  0.21847351585E+01 -0.23130018553E+02 -0.17393117435E+02  0.95977743711E+02  0.91484621264E+02 0.  0.
         13    1    3    3    0    0  0.13979428929E+02 -0.36570141054E+02 -0.47134985384E+02  0.61274119015E+02  0.10566000000E+00 0. -1.
         22    1    1    0    0    0 -0.21847351585E+01  0.23130018553E+02  0.17393117435E+02  0.29022256289E+02  0.00000000000E+00 0. -1.
</event>
<event>
 5    1  0.1680526E-003  0.9118800E+02  0.7818608E-02  0.1130116E+00
         25   -1    0    0    0    0  0.00000000000E+00  0.00000000000E+00  0.99999998245E-14  0.12500000000E+03  0.12500000000E+03 0.  0.
        -13    1    3    3    0    0  0.34738666570E+02  0.50364383046E+01 -0.28068412039E+01  0.35214062353E+02  0.10566000000E+00 0. -1.
         23    2    1    0    0    0 -0.22779421648E+02  0.18528598758E+01 -0.19247276178E+02  0.95120361772E+02  0.90305539382E+02 0.  0.
         13    1    3    3    0    0 -0.57518088218E+02 -0.31835784287E+01 -0.16440434974E+02  0.59906299419E+02  0.10566000000E+00 0.  1.
         22    1    1    0    0    0  0.22779421648E+02 -0.18528598758E+01  0.19247276178E+02  0.29879638228E+02  0.00000000000E+00 0.  1.
</event>
<event>
 5    1  0.1680526E-003  0.9118800E+02  0.7818608E-02  0.1130116E+00
         25   -1    0    0    0    0  0.00000000000E+00  0.00000000000E+00  0.99999998245E-14  0.12500000000E+03  0.12500000000E+03 0.  0.
        -13    1    3    3    0    0 -0.38925296253E+02 -0.17457497920E+02  0.14068720220E+02  0.44920852337E+02  0.10566000000E+00 0. -1.
         23    2    1    0    0    0 -0.24161506386E+01  0.11376117525E+02  0.28979408863E+02  0.93774049704E+02  0.88422352524E+02 0.  0.
         13    1    3    3    0    0  0.36509145614E+02  0.28833615445E+02  0.14910688643E+02  0.48853197367E+02  0.10566000000E+00 0.  1.
         22    1    1    0    0    0  0.24161506386E+01 -0.11376117525E+02 -0.28979408863E+02  0.31225950296E+02  0.00000000000E+00 0. -1.
</event>
<event>
 5    1  0.1680526E-003  0.9118800E+02  0.7818608E-02  0.1130116E+00
         25   -1    0    0    0    0  0.00000000000E+00  0.00000000000E+00  0.99999998245E-14  0.12500000000E+03  0.12500000000E+03 0.  0.
        -13    1    3    3    0    0 -0.51888971726E+02  0.76583740553E+01 -0.10359528374E+02  0.53464446805E+02  0.10566000000E+00 0.  1.
         23    2    1    0    0    0 -0.16396650238E+02  0.23889923918E+02  0.53487505930E+01  0.95534974347E+02  0.90877629738E+02 0.  0.
         13    1    3    3    0    0  0.35492321489E+02  0.16231549862E+02  0.15708278967E+02  0.42070527543E+02  0.10566000000E+00 0. -1.
         22    1    1    0    0    0  0.16396650238E+02 -0.23889923918E+02 -0.53487505930E+01  0.29465025653E+02  0.00000000000E+00 0. -1.
</event>
<event>
 5    1  0.1680526E-003  0.9118800E+02  0.7818608E-02  0.1130116E+00
         25   -1    0    0    0    0  0.00000000000E+00  0.00000000000E+00  0.99999998245E-14  0.12500000000E+03  0.12500000000E+03 0.  0.
        -13    1    3    3    0    0  0.15982091386E+02 -0.38787126182E+02  0.10798180979E+02  0.43318359607E+02  0.10566000000E+00 0. -1.
         23    2    1    0    0    0  0.13470264514E+02  0.13400207378E+02  0.21136042631E+02  0.96579129465E+02  0.92302667168E+02 0.  0.
         13    1    3    3    0    0 -0.25118268727E+01  0.52187333560E+02  0.10337861652E+02  0.53260769859E+02  0.10566000000E+00 0.  1.
         22    1    1    0    0    0 -0.13470264514E+02 -0.13400207378E+02 -0.21136042631E+02  0.28420870535E+02  0.00000000000E+00 0.  1.
</event>
<event>
 5    1  0.1680526E-003  0.9118800E+02  0.7818608E-02  0.1130116E+00
         25   -1    0    0    0    0  0.00000000000E+00  0.00000000000E+00  0.99999998245E-14  0.12500000000E+03  0.12500000000E+03 0.  0.
        -13    1    3    3    0    0  0.48225094325E+00 -0.43797624198E+02 -0.27406006158E+02  0.51667831277E+02  0.10566000000E+00 0.  1.
         23    2    1    0    0    0  0.25533428655E+02 -0.14724907177E+02 -0.93725985284E+01  0.94070653524E+02  0.88840662880E+02 0.  0.
         13    1    3    3    0    0  0.25051177712E+02  0.29072717020E+02  0.18033407630E+02  0.42402822247E+02  0.10566000000E+00 0. -1.
         22    1    1    0    0    0 -0.25533428655E+02  0.14724907177E+02  0.93725985284E+01  0.30929346476E+02  0.00000000000E+00 0.  1.
</event>
<event>
 5    1  0.1680526E-003  0.9118800E+02  0.7818608E-02  0.1130116E+00
         25   -1    0    0    0    0  0.00000000000E+00  0.00000000000E+00  0.99999998245E-14  0.12500000000E+03  0.12500000000E+03 0.  0.
        -13    1    3    3    0    0  0.44515403826E+02  0.12466202802E+02  0.22914399973E+02  0.51595622685E+02  0.10566000000E+00 0.  1.
         23    2    1    0    0    0  0.26905228614E+01 -0.40899769575E+00  0.29082842833E+02  0.95790105450E+02  0.91227881497E+02 0.  0.
         13    1    3    3    0    0 -0.41824880964E+02 -0.12875200498E+02  0.61684428598E+01  0.44194482765E+02  0.10566000000E+00 0. -1.
         22    1    1    0    0    0 -0.26905228614E+01  0.40899769575E+00 -0.29082842833E+02  0.29209894550E+02  0.00000000000E+00 0.  1.
</event>
<event>
 5    1  0.1680526E-003  0.9118800E+02  0.7818608E-02  0.1130116E+00
         25   -1    0    0    0    0  0.00000000000E+00  0.00000000000E+00  0.99999998245E-14  0.12500000000E+03  0.12500000000E+03 0.  0.
        -13    1    3    3    0    0 -0.15956237814E+02 -0.43047676163E+02  0.36312676919E+02  0.58534823971E+02  0.10566000000E+00 0. -1.
         23    2    1    0    0    0 -0.91790893177E+01 -0.68924592496E+01  0.25751584526E+02  0.96805926495E+02  0.92609295557E+02 0.  0.
         13    1    3    3    0    0  0.67771484963E+01  0.36155216914E+02 -0.10561092393E+02  0.38271102524E+02  0.10566000000E+00 0.  1.
         22    1    1    0    0    0  0.91790893177E+01  0.68924592496E+01 -0.25751584526E+02  0.28194073505E+02  0.00000000000E+00 0. -1.
</event>
<event>
 5    1  0.1680526E-003  0.9118800E+02  0.7818608E-02  0.1130116E+00
         25   -1    0    0    0    0  0.00000000000E+00  0.00000000000E+00  0.99999998245E-14  0.12500000000E+03  0.12500000000E+03 0.  0.
        -13    1    3    3    0    0  0.69994126204E+01 -0.76309872197E+01  0.33300955188E+02  0.34873894584E+02  0.10566000000E+00 0.  1.
         23    2    1    0    0    0 -0.20587788561E+02  0.61353109222E+01 -0.19480320060E+02  0.96000311250E+02  0.91515451223E+02 0.  0.
         13    1    3    3    0    0 -0.27587201182E+02  0.13766298142E+02 -0.52781275248E+02  0.61126416666E+02  0.10566000000E+00 0. -1.
         22    1    1    0    0    0  0.20587788561E+02 -0.61353109222E+01  0.19480320060E+02  0.28999688750E+02  0.00000000000E+00 0. -1.
</event>
<event>
 5    1  0.1680526E-003  0.9118800E+02  0.7818608E-02  0.1130116E+00
         25   -1    0    0    0    0  0.00000000000E+00  0.00000000000E+00  0.99999998245E-14  0.12500000000E+03  0.12500000000E+03 0.  0.
        -13    1    3    3    0    0 -0.19407444545E+02  0.30241202651E+02 -0.48856580123E+02  0.60647801501E+02  0.10566000000E+00 0. -1.
         23    2    1    0    0    0 -0.12838478289E+02  0.43598906371E+01 -0.25481431367E+02  0.96135861079E+02  0.91700410412E+02 0.  0.
         13    1    3    3    0    0  0.65689662561E+01 -0.25881312014E+02  0.23375148756E+02  0.35488059578E+02  0.10566000000E+00 0.  1.
         22    1    1    0    0    0  0.12838478289E+02 -0.43598906371E+01  0.25481431367E+02  0.28864138921E+02  0.00000000000E+00 0. -1.
</event>
<event>
 5    1  0.1680526E-003  0.9118800E+02  0.7818608E-02  0.1130116E+00
         25   -1    0    0    0    0  0.00000000000E+00  0.00000000000E+00  0.99999998245E-14  0.12500000000E+03  0.12500000000E+03 0.  0.
        -13    1    3    3    0    0  0.67976353522E+01 -0.47298184477E+02 -0.49715151284E+01  0.48042202571E+02  0.10566000000E+00 0. -1.
         23    2    1    0    0    0 -0.12209785261E+02 -0.13476048324E+02  0.22859741787E+02  0.95789547605E+02  0.91227117137E+02 0.  0.
         13    1    3    3    0    0 -0.19007420613E+02  0.33822136152E+02  0.27831256916E+02  0.47747345034E+02  0.10566000000E+00 0.  1.
         22    1    1    0    0    0  0.12209785261E+02  0.13476048324E+02 -0.22859741787E+02  0.29210452395E+02  0.00000000000E+00 0.  1.
</event>
<event>
 5    1  0.1680526E-003  0.9118800E+02  0.7818608E-02  0.1130116E+00
         25   -1    0    0    0    0  0.00000000000E+00  0.00000000000E+00  0.99999998245E-14  0.12500000000E+03  0.12500000000E+03 0.  0.
        -13    1    3    3    0    0 -0.60882141117E+00  0.76007792559E+01  0.61319235837E+02  0.61791604255E+02  0.10566000000E+00 0.  1.
         23    2    1    0    0    0  0.47628039040E+01  0.81537646633E+01  0.30803592039E+02  0.92781535392E+02  0.87007952786E+02 0.  0.
         13    1    3    3    0    0  0.53716253152E+01  0.55298540744E+00 -0.30515643798E+02  0.30989931136E+02  0.10566000000E+00 0. -1.
         22    1    1    0    0    0 -0.47628039040E+01 -0.81537646633E+01 -0.30803592039E+02  0.32218464608E+02  0.00000000000E+00 0.  1.
</event>
<event>
 5    1  0.1680526E-003  0.9118800E+02  0.7818608E-02  0.1130116E+00
         25   -1    0    0    0    0  0.00000000000E+00  0.00000000000E+00  0.99999998245E-14  0.12500000000E+03  0.12500000000E+03 0.  0.
        -13    1    3    3    0    0  0.17139638193E+01 -0.49816774091E+02  0.57995966579E+00  0.49849735908E+02  0.10566000000E+00 0.  1.
         23    2    1    0    0    0  0.10404295909E+02 -0.16838587208E+02  0.25955271091E+02  0.92358561767E+02  0.86398150685E+02 0.  0.
         13    1    3    3    0    0  0.86903320893E+01  0.32978186883E+02  0.25375311425E+02  0.42508825859E+02  0.10566000000E+00 0. -1.
         22    1    1    0    0    0 -0.10404295909E+02  0.16838587208E+02 -0.25955271091E+02  0.32641438233E+02  0.00000000000E+00 0.  1.
</event>
<event>
 5    1  0.1680526E-003  0.9118800E+02  0.7818608E-02  0.1130116E+00
         25   -1    0    0    0    0  0.00000000000E+00  0.00000000000E+00  0.99999998245E-14  0.12500000000E+03  0.12500000000E+03 0.  0.
        -13    1    3    3    0    0  0.37779734552E+02 -0.29622359672E+02  0.38785760100E+02  0.61718221669E+02  0.10566000000E+00 0. -1.
         23    2    1    0    0    0  0.18599937079E+02 -0.21795948738E+02  0.17475160777E+02  0.91438082819E+02  0.85055985707E+02 0.  0.
         13    1    3    3    0    0 -0.19179797473E+02  0.78264109341E+01 -0.21310599323E+02  0.29719861150E+02  0.10566000000E+00 0.  1.
         22    1    1    0    0    0 -0.18599937079E+02  0.21795948738E+02 -0.17475160777E+02  0.33561917181E+02  0.00000000000E+00 0. -1.
</event>
<event>
 5    1  0.1680526E-003  0.9118800E+02  0.7818608E-02  0.1130116E+00
         25   -1    0    0    0    0  0.00000000000E+00  0.00000000000E+00  0.99999998245E-14  0.12500000000E+03  0.12500000000E+03 0.  0.
        -13    1    3    3    0    0 -0.76041581136E+01  0.41721331397E+02  0.97052836400E+00  0.42419875100E+02  0.10566000000E+00 0.  1.
         23    2    1    0    0    0  0.66289136727E+01 -0.86336187548E-01 -0.28647123085E+02  0.95595789223E+02  0.90961240678E+02 0.  0.
         13    1    3    3    0    0  0.14233071786E+02 -0.41807667585E+02 -0.29617651449E+02  0.53175914122E+02  0.10566000000E+00 0. -1.
         22    1    1    0    0    0 -0.66289136727E+01  0.86336187548E-01  0.28647123085E+02  0.29404210777E+02  0.00000000000E+00 0. -1.
</event>
<event>
 5    1  0.1680526E-003  0.9118800E+02  0.7818608E-02  0.1130116E+00
         25   -1    0    0    0    0  0.00000000000E+00  0.00000000000E+00  0.99999998245E-14  0.12500000000E+03  0.12500000000E+03 0.  0.
        -13    1    3    3    0    0  0.69621276055E+01 -0.55092442605E+02  0.10655064989E+02  0.56543700152E+02  0.10566000000E+00 0.  1.
         23    2    1    0    0    0  0.62346563900E+01 -0.24607826236E+02 -0.14226213529E+02  0.95900151138E+02  0.91378541160E+02 0.  0.
         13    1    3    3    0    0 -0.72747121550E+00  0.30484616368E+02 -0.24881278518E+02  0.39356450986E+02  0.10566000000E+00 0. -1.
         22    1    1    0    0    0 -0.62346563900E+01  0.24607826236E+02  0.14226213529E+02  0.29099848862E+02  0.00000000000E+00 0.  1.
</event>
<event>
 5    1  0.1680526E-003  0.9118800E+02  0.7818608E-02  0.1130116E+00
         25   -1    0    0    0    0  0.00000000000E+00  0.00000000000E+00  0.99999998245E-14  0.12500000000E+03  0.12500000000E+03 0.  0.
        -13    1    3    3    0    0 -0.29027037143E+02  0.18807465898E+02  0.51442314461E+02  0.61988809797E+02  0.10566000000E+00 0.  1.
         23    2    1    0    0    0 -0.18411547969E+02  0.64294424768E+01  0.22365411440E+02  0.95326199130E+02  0.90590009286E+02 0.  0.
         13    1    3    3    0    0  0.10615489174E+02 -0.12378023422E+02 -0.29076903021E+02  0.33337389333E+02  0.10566000000E+00 0. -1.
         22    1    1    0    0    0  0.18411547969E+02 -0.64294424768E+01 -0.22365411440E+02  0.29673800870E+02  0.00000000000E+00 0.  1.
</event>
<event>
 5    1  0.1680526E-003  0.9118800E+02  0.7818608E-02  0.1130116E+00
         25   -1    0    0    0    0  0.00000000000E+00  0.00000000000E+00  0.99999998245E-14  0.12500000000E+03  0.12500000000E+03 0.  0.
        -13    1    3    3    0    0 -0.10677251160E+01  0.38420468232E+02 -0.11506691702E+02  0.40120911431E+02  0.10566000000E+00 0.  1.
         23    2    1    0    0    0 -0.19699171936E+02 -0.14339445972E+02 -0.15344308793E+02  0.96205471039E+02  0.91795249113E+02 0.  0.
         13    1    3    3    0    0 -0.18631446820E+02 -0.52759914204E+02 -0.38376170912E+01  0.56084559608E+02  0.10566000000E+00 0. -1.
         22    1    1    0    0    0  0.19699171936E+02  0.14339445972E+02  0.15344308793E+02  0.28794528961E+02  0.00000000000E+00 0. -1.
</event>
<event>
 5    1  0.1680526E-003  0.9118800E+02  0.7818608E-02  0.1130116E+00
         25   -1    0    0    0    0  0.00000000000E+00  0.00000000000E+00  0.99999998245E-14  0.12500000000E+03  0.12500000000E+03 0.  0.
        -13    1    3    3    0    0 -0.20004704993E+02  0.14168396540E+01  0.32518195778E+02  0.38205233636E+02  0.10566000000E+00 0. -1.
         23    2    1    0    0    0 -0.63876710486E+01 -0.24297649505E+02 -0.16310634185E+02  0.95046454293E+02  0.90203179397E+02 0.  0.
         13    1    3    3    0    0  0.13617033945E+02 -0.25714489159E+02 -0.48828829963E+02  0.56841220657E+02  0.10566000000E+00 0.  1.
         22    1    1    0    0    0  0.63876710486E+01  0.24297649505E+02  0.16310634185E+02  0.29953545707E+02  0.00000000000E+00 0.  1.
</event>
<event>
 5    1  0.1680526E-003  0.9118800E+02  0.7818608E-02  0.1130116E+00
         25   -1    0    0    0    0  0.00000000000E+00  0.00000000000E+00  0.99999998245E-14  0.12500000000E+03  0.12500000000E+03 0.  0.
        -13    1    3    3    0    0 -0.53071490006E+02  0.19960141785E+02  0.66384245345E+01  0.57088266359E+02  0.10566000000E+00 0.  1.
         23    2    1    0    0    0 -0.28952925201E+02 -0.67002365270E+01 -0.49742104761E+01  0.94868491291E+02  0.89956227259E+02 0.  0.
         13    1    3    3    0    0  0.24118564804E+02 -0.26660378312E+02 -0.11612635011E+02  0.37780224932E+02  0.10566000000E+00 0. -1.
         22    1    1    0    0    0  0.28952925201E+02  0.67002365270E+01  0.49742104761E+01  0.30131508709E+02  0.00000000000E+00 0.  1.
</event>
<event>
 5    1  0.1680526E-003  0.9118800E+02  0.7818608E-02  0.1130116E+00
         25   -1    0    0    0    0  0.00000000000E+00  0.00000000000E+00  0.99999998245E-14  0.12500000000E+03  0.12500000000E+03 0.  0.
        -13    1    3    3    0    0  0.32870313448E+02  0.27465832944E+02 -0.24928814209E+02  0.49560936506E+02  0.10566000000E+00 0.  1.
         23    2    1    0    0    0 -0.59722457297E+01  0.28126908217E+02  0.93408439441E+00  0.96230863785E+02  0.91829820572E+02 0.  0.
         13    1    3    3    0    0 -0.38842559178E+02  0.66107527249E+00  0.25862898603E+02  0.46669927279E+02  0.10566000000E+00 0. -1.
         22    1    1    0    0    0  0.59722457297E+01 -0.28126908217E+02 -0.93408439441E+00  0.28769136215E+02  0.00000000000E+00 0.  1.
</event>
<event>
 5    1  0.1680526E-003  0.9118800E+02  0.7818608E-02  0.1130116E+00
         25   -1    0    0    0    0  0.00000000000E+00  0.00000000000E+00  0.99999998245E-14  0.12500000000E+03  0.12500000000E+03 0.  0.
        -13    1    3    3    0    0 -0.16924316846E+01 -0.19467510848E+02 -0.38177083155E+02  0.42887633951E+02  0.10566000000E+00 0.  1.
         23    2    1    0    0    0 -0.25509624725E+02  0.14253723993E+02 -0.61502981975E+01  0.95138054832E+02  0.90330026614E+02 0.  0.
         13    1    3    3    0    0 -0.23817193040E+02  0.33721234841E+02  0.32026784958E+02  0.52250420881E+02  0.10566000000E+00 0. -1.
         22    1    1    0    0    0  0.25509624725E+02 -0.14253723993E+02  0.61502981975E+01  0.29861945168E+02  0.00000000000E+00 0. -1.
</event>
<event>
 4    1  0.1680526E-003  0.9118800E+02  0.7818608E-02  0.1130116E+00
         25   -1    0    0    0    0  0.00000000000E+00  0.00000000000E+00  0.99999998245E-14  0.12500000000E+03  0.12500000000E+03 0.  0.
        -13    1    1    0    0    0  0.28828747388E+01  0.10253153079E+02 -0.43889038015E+01  0.11520058830E+02  0.10566000000E+00 0. -1.
         13    1    1    0    0    0  0.85745189750E+01 -0.65410522669E+01  0.57764356738E+02  0.58762571539E+02  0.10566000000E+00 0.  1.
         22    1    1    0    0    0 -0.11457393714E+02 -0.37121008124E+01 -0.53375452937E+02  0.54717369631E+02  0.00000000000E+00 0.  1.
</event>
<event>
 5    1  0.1680526E-003  0.9118800E+02  0.7818608E-02  0.1130116E+00
         25   -1    0    0    0    0  0.00000000000E+00  0.00000000000E+00  0.99999998245E-14  0.12500000000E+03  0.12500000000E+03 0.  0.
        -13    1    3    3    0    0  0.86856367976E+01 -0.24376778317E+02  0.33955094916E+02  0.42692238668E+02  0.10566000000E+00 0.  1.
         23    2    1    0    0    0 -0.26187441204E+02 -0.10608237419E+02 -0.44879992040E+01  0.96391279043E+02  0.92047921002E+02 0.  0.
         13    1    3    3    0    0 -0.34873078001E+02  0.13768540897E+02 -0.38443094120E+02  0.53699040375E+02  0.10566000000E+00 0. -1.
         22    1    1    0    0    0  0.26187441204E+02  0.10608237419E+02  0.44879992040E+01  0.28608720957E+02  0.00000000000E+00 0. -1.
</event>
<event>
 5    1  0.1680526E-003  0.9118800E+02  0.7818608E-02  0.1130116E+00
         25   -1    0    0    0    0  0.00000000000E+00  0.00000000000E+00  0.99999998245E-14  0.12500000000E+03  0.12500000000E+03 0.  0.
        -13    1    3    3    0    0 -0.28812247414E+02  0.32583455972E+02 -0.30571636129E+02  0.53164492885E+02  0.10566000000E+00 0.  1.
         23    2    1    0    0    0 -0.16181435455E+02  0.17141325320E+02  0.10781837516E+02  0.99078736386E+02  0.95627841639E+02 0.  0.
         13    1    3    3    0    0  0.12630811960E+02 -0.15442130651E+02  0.41353473644E+02  0.45914243501E+02  0.10566000000E+00 0. -1.
         22    1    1    0    0    0  0.16181435455E+02 -0.17141325320E+02 -0.10781837516E+02  0.25921263614E+02  0.00000000000E+00 0. -1.
</event>
<event>
 5    1  0.1680526E-003  0.9118800E+02  0.7818608E-02  0.1130116E+00
         25   -1    0    0    0    0  0.00000000000E+00  0.00000000000E+00  0.99999998245E-14  0.12500000000E+03  0.12500000000E+03 0.  0.
        -13    1    3    3    0    0 -0.19283821854E+02 -0.18408683051E+02  0.21654056611E+02  0.34346102089E+02  0.10566000000E+00 0.  1.
         23    2    1    0    0    0  0.22271498572E+02  0.11670004731E+00 -0.19275932472E+02  0.95545037087E+02  0.90891469742E+02 0.  0.
         13    1    3    3    0    0  0.41555320425E+02  0.18525383098E+02 -0.40929989083E+02  0.61198934998E+02  0.10566000000E+00 0. -1.
         22    1    1    0    0    0 -0.22271498572E+02 -0.11670004731E+00  0.19275932472E+02  0.29454962913E+02  0.00000000000E+00 0. -1.
</event>
<event>
 5    1  0.1680526E-003  0.9118800E+02  0.7818608E-02  0.1130116E+00
         25   -1    0    0    0    0  0.00000000000E+00  0.00000000000E+00  0.99999998245E-14  0.12500000000E+03  0.12500000000E+03 0.  0.
        -13    1    3    3    0    0  0.40310817281E+02  0.15566062124E+02  0.62657371687E+01  0.43663885606E+02  0.10566000000E+00 0.  1.
         23    2    1    0    0    0 -0.37785481595E+01  0.21026199715E+02 -0.20385644921E+02  0.95471149370E+02  0.90789797569E+02 0.  0.
         13    1    3    3    0    0 -0.44089365440E+02  0.54601375907E+01 -0.26651382090E+02  0.51807263765E+02  0.10566000000E+00 0. -1.
         22    1    1    0    0    0  0.37785481595E+01 -0.21026199715E+02  0.20385644921E+02  0.29528850630E+02  0.00000000000E+00 0. -1.
</event>
<event>
 5    1  0.1680526E-003  0.9118800E+02  0.7818608E-02  0.1130116E+00
         25   -1    0    0    0    0  0.00000000000E+00  0.00000000000E+00  0.99999998245E-14  0.12500000000E+03  0.12500000000E+03 0.  0.
        -13    1    3    3    0    0 -0.16972883316E+02 -0.32740465203E+02 -0.45397021187E+02  0.58488610228E+02  0.10566000000E+00 0.  1.
         23    2    1    0    0    0  0.75453095476E+01 -0.15717953897E+02 -0.24518928162E+02  0.94914062934E+02  0.90019529735E+02 0.  0.
         13    1    3    3    0    0  0.24518192864E+02  0.17022511306E+02  0.20878093025E+02  0.36425452706E+02  0.10566000000E+00 0. -1.
         22    1    1    0    0    0 -0.75453095476E+01  0.15717953897E+02  0.24518928162E+02  0.30085937066E+02  0.00000000000E+00 0.  1.
</event>
<event>
 5    1  0.1680526E-003  0.9118800E+02  0.7818608E-02  0.1130116E+00
         25   -1    0    0    0    0  0.00000000000E+00  0.00000000000E+00  0.99999998245E-14  0.12500000000E+03  0.12500000000E+03 0.  0.
        -13    1    3    3    0    0  0.13286566714E+02 -0.43634296162E+02 -0.26939281840E+02  0.52973773952E+02  0.10566000000E+00 0.  1.
         23    2    1    0    0    0 -0.15104524363E+02 -0.24515114813E+02 -0.54014520450E+00  0.96200186331E+02  0.91788052506E+02 0.  0.
         13    1    3    3    0    0 -0.28391091077E+02  0.19119181350E+02  0.26399136635E+02  0.43226412379E+02  0.10566000000E+00 0. -1.
         22    1    1    0    0    0  0.15104524363E+02  0.24515114813E+02  0.54014520450E+00  0.28799813669E+02  0.00000000000E+00 0. -1.
</event>
<event>
 5    1  0.1680526E-003  0.9118800E+02  0.7818608E-02  0.1130116E+00
         25   -1    0    0    0    0  0.00000000000E+00  0.00000000000E+00  0.99999998245E-14  0.12500000000E+03  0.12500000000E+03 0.  0.
        -13    1    3    3    0    0 -0.48573698751E+01 -0.44948382096E+02  0.25257015127E+01  0.45280695968E+02  0.10566000000E+00 0. -1.
         23    2    1    0    0    0  0.25333844563E+02 -0.38454939233E+02  0.11682419841E+02  0.77491422194E+02  0.61219731693E+02 0.  0.
         13    1    3    3    0    0  0.30191214438E+02  0.64934428632E+01  0.91567183284E+01  0.32210726227E+02  0.10566000000E+00 0.  1.
         22    1    1    0    0    0 -0.25333844563E+02  0.38454939233E+02 -0.11682419841E+02  0.47508577806E+02  0.00000000000E+00 0. -1.
</event>
<event>
 5    1  0.1680526E-003  0.9118800E+02  0.7818608E-02  0.1130116E+00
         25   -1    0    0    0    0  0.00000000000E+00  0.00000000000E+00  0.99999998245E-14  0.12500000000E+03  0.12500000000E+03 0.  0.
        -13    1    3    3    0    0  0.21746050550E+02  0.23360226975E+02 -0.27110017318E+02  0.41875471602E+02  0.10566000000E+00 0.  1.
         23    2    1    0    0    0 -0.21303670848E+02  0.15790336184E+02  0.72898161109E+01  0.97498681353E+02  0.93539672537E+02 0.  0.
         13    1    3    3    0    0 -0.43049721398E+02 -0.75698907915E+01  0.34399833429E+02  0.55623209751E+02  0.10566000000E+00 0. -1.
         22    1    1    0    0    0  0.21303670848E+02 -0.15790336184E+02 -0.72898161109E+01  0.27501318647E+02  0.00000000000E+00 0. -1.
</event>
<event>
 5    1  0.1680526E-003  0.9118800E+02  0.7818608E-02  0.1130116E+00
         25   -1    0    0    0    0  0.00000000000E+00  0.00000000000E+00  0.99999998245E-14  0.12500000000E+03  0.12500000000E+03 0.  0.
        -13    1    3    3    0    0  0.28233576649E+02  0.28915987195E+02  0.64180430926E+01  0.40920308002E+02  0.10566000000E+00 0.  1.
         23    2    1    0    0    0 -0.69931520396E+01 -0.74418872940E+00 -0.26536323002E+02  0.97547596995E+02  0.93605017219E+02 0.  0.
         13    1    3    3    0    0 -0.35226728688E+02 -0.29660175924E+02 -0.32954366095E+02  0.56627288992E+02  0.10566000000E+00 0. -1.
         22    1    1    0    0    0  0.69931520396E+01  0.74418872940E+00  0.26536323002E+02  0.27452403005E+02  0.00000000000E+00 0. -1.
</event>
<event>
 5    1  0.1680526E-003  0.9118800E+02  0.7818608E-02  0.1130116E+00
         25   -1    0    0    0    0  0.00000000000E+00  0.00000000000E+00  0.99999998245E-14  0.12500000000E+03  0.12500000000E+03 0.  0.
        -13    1    3    3    0    0  0.31374585900E+01 -0.35255345933E+02 -0.89031013802E+01  0.36497389516E+02  0.10566000000E+00 0.  1.
         23    2    1    0    0    0 -0.23849689178E+02  0.80079589949E+01  0.17919559208E+02  0.94112370059E+02  0.88899339226E+02 0.  0.
         13    1    3    3    0    0 -0.26987147768E+02  0.43263304928E+02  0.26822660588E+02  0.57614980543E+02  0.10566000000E+00 0. -1.
         22    1    1    0    0    0  0.23849689178E+02 -0.80079589949E+01 -0.17919559208E+02  0.30887629941E+02  0.00000000000E+00 0. -1.
</event>
<event>
 5    1  0.1680526E-003  0.9118800E+02  0.7818608E-02  0.1130116E+00
         25   -1    0    0    0    0  0.00000000000E+00  0.00000000000E+00  0.99999998245E-14  0.12500000000E+03  0.12500000000E+03 0.  0.
        -13    1    3    3    0    0  0.10890011974E+02  0.25923725124E+02  0.45592821392E+02  0.53566299215E+02  0.10566000000E+00 0.  1.
         23    2    1    0    0    0 -0.24039698960E+01 -0.86837103769E+01  0.29808042487E+02  0.93859908573E+02  0.88543645414E+02 0.  0.
         13    1    3    3    0    0 -0.13293981870E+02 -0.34607435501E+02 -0.15784778905E+02  0.40293609357E+02  0.10566000000E+00 0. -1.
         22    1    1    0    0    0  0.24039698960E+01  0.86837103769E+01 -0.29808042487E+02  0.31140091427E+02  0.00000000000E+00 0.  1.
</event>
<event>
 5    1  0.1680526E-003  0.9118800E+02  0.7818608E-02  0.1130116E+00
         25   -1    0    0    0    0  0.00000000000E+00  0.00000000000E+00  0.99999998245E-14  0.12500000000E+03  0.12500000000E+03 0.  0.
        -13    1    3    3    0    0  0.18463332930E+02 -0.52448132619E+02  0.21118555599E+02  0.59478616601E+02  0.10566000000E+00 0.  1.
         23    2    1    0    0    0  0.20788841911E+02 -0.22756717722E+02  0.17699694228E+02  0.89456740087E+02  0.82092539380E+02 0.  0.
         13    1    3    3    0    0  0.23255089807E+01  0.29691414898E+02 -0.34188613716E+01  0.29978123486E+02  0.10566000000E+00 0. -1.
         22    1    1    0    0    0 -0.20788841911E+02  0.22756717722E+02 -0.17699694228E+02  0.35543259913E+02  0.00000000000E+00 0.  1.
</event>
<event>
 5    1  0.1680526E-003  0.9118800E+02  0.7818608E-02  0.1130116E+00
         25   -1    0    0    0    0  0.00000000000E+00  0.00000000000E+00  0.99999998245E-14  0.12500000000E+03  0.12500000000E+03 0.  0.
        -13    1    3    3    0    0  0.38161551170E+02 -0.18190782958E+02 -0.45668694659E+02  0.62232221624E+02  0.10566000000E+00 0. -1.
         23    2    1    0    0    0  0.15770620839E+02 -0.89801007752E+01 -0.14090421438E+02  0.10202404152E+03  0.99403271481E+02 0.  0.
         13    1    3    3    0    0 -0.22390930331E+02  0.92106821825E+01  0.31578273221E+02  0.39791819901E+02  0.10566000000E+00 0.  1.
         22    1    1    0    0    0 -0.15770620839E+02  0.89801007752E+01  0.14090421438E+02  0.22975958476E+02  0.00000000000E+00 0. -1.
</event>
<event>
 5    1  0.1680526E-003  0.9118800E+02  0.7818608E-02  0.1130116E+00
         25   -1    0    0    0    0  0.00000000000E+00  0.00000000000E+00  0.99999998245E-14  0.12500000000E+03  0.12500000000E+03 0.  0.
        -13    1    3    3    0    0  0.31876814539E+02 -0.36118757033E+02  0.17253553050E+02  0.51170227395E+02  0.10566000000E+00 0.  1.
         23    2    1    0    0    0  0.27392155554E+02 -0.10102015582E+02 -0.14447799836E+02  0.92425165775E+02  0.86494459034E+02 0.  0.
         13    1    3    3    0    0 -0.44846589852E+01  0.26016741451E+02 -0.31701352885E+02  0.41254938380E+02  0.10566000000E+00 0. -1.
         22    1    1    0    0    0 -0.27392155554E+02  0.10102015582E+02  0.14447799836E+02  0.32574834225E+02  0.00000000000E+00 0.  1.
</event>
<event>
 5    1  0.1680526E-003  0.9118800E+02  0.7818608E-02  0.1130116E+00
         25   -1    0    0    0    0  0.00000000000E+00  0.00000000000E+00  0.99999998245E-14  0.12500000000E+03  0.12500000000E+03 0.  0.
        -13    1    3    3    0    0 -0.34224404939E+02 -0.15549183625E+01  0.28270179702E+01  0.34376312472E+02  0.10566000000E+00 0. -1.
         23    2    1    0    0    0  0.27276738268E+02 -0.82763455911E+01  0.37434580216E+01  0.96250533486E+02  0.91856591334E+02 0.  0.
         13    1    3    3    0    0  0.61501143207E+02 -0.67214272286E+01  0.91644005137E+00  0.61874221014E+02  0.10566000000E+00 0.  1.
         22    1    1    0    0    0 -0.27276738268E+02  0.82763455911E+01 -0.37434580216E+01  0.28749466514E+02  0.00000000000E+00 0.  1.
</event>
<event>
 5    1  0.1680526E-003  0.9118800E+02  0.7818608E-02  0.1130116E+00
         25   -1    0    0    0    0  0.00000000000E+00  0.00000000000E+00  0.99999998245E-14  0.12500000000E+03  0.12500000000E+03 0.  0.
        -13    1    3    3    0    0  0.41476071955E+02 -0.30993166724E+02 -0.68085676848E+01  0.52222683637E+02  0.10566000000E+00 0.  1.
         23    2    1    0    0    0  0.17987073478E+02  0.15002257472E+01 -0.23257653734E+02  0.95560163947E+02  0.90912270826E+02 0.  0.
         13    1    3    3    0    0 -0.23488998476E+02  0.32493392471E+02 -0.16449086049E+02  0.43337480309E+02  0.10566000000E+00 0. -1.
         22    1    1    0    0    0 -0.17987073478E+02 -0.15002257472E+01  0.23257653734E+02  0.29439836053E+02  0.00000000000E+00 0.  1.
</event>
<event>
 5    1  0.1680526E-003  0.9118800E+02  0.7818608E-02  0.1130116E+00
         25   -1    0    0    0    0  0.00000000000E+00  0.00000000000E+00  0.99999998245E-14  0.12500000000E+03  0.12500000000E+03 0.  0.
        -13    1    3    3    0    0  0.16577874142E+01 -0.11134051982E+02 -0.50009930217E+02  0.51261288093E+02  0.10566000000E+00 0.  1.
         23    2    1    0    0    0  0.12329505882E+02  0.18756268739E+02 -0.21178130217E+02  0.94140195532E+02  0.88938455591E+02 0.  0.
         13    1    3    3    0    0  0.10671718468E+02  0.29890320721E+02  0.28831800000E+02  0.42878907439E+02  0.10566000000E+00 0. -1.
         22    1    1    0    0    0 -0.12329505882E+02 -0.18756268739E+02  0.21178130217E+02  0.30859804468E+02  0.00000000000E+00 0. -1.
</event>
<event>
 5    1  0.1680526E-003  0.9118800E+02  0.7818608E-02  0.1130116E+00
         25   -1    0    0    0    0  0.00000000000E+00  0.00000000000E+00  0.99999998245E-14  0.12500000000E+03  0.12500000000E+03 0.  0.
        -13    1    3    3    0    0 -0.41737389373E+02  0.86955564697E+01 -0.23165206224E+02  0.48520720496E+02  0.10566000000E+00 0.  1.
         23    2    1    0    0    0 -0.15247001864E+02 -0.22257086708E+02  0.43362731786E+01  0.97675061946E+02  0.93775079240E+02 0.  0.
         13    1    3    3    0    0  0.26490387509E+02 -0.30952643177E+02  0.27501479402E+02  0.49154341450E+02  0.10566000000E+00 0. -1.
         22    1    1    0    0    0  0.15247001864E+02  0.22257086708E+02 -0.43362731786E+01  0.27324938054E+02  0.00000000000E+00 0. -1.
</event>
<event>
 5    1  0.1680526E-003  0.9118800E+02  0.7818608E-02  0.1130116E+00
         25   -1    0    0    0    0  0.00000000000E+00  0.00000000000E+00  0.99999998245E-14  0.12500000000E+03  0.12500000000E+03 0.  0.
        -13    1    3    3    0    0  0.70493573659E+01 -0.30415332911E+02 -0.21631522262E+02  0.37983151986E+02  0.10566000000E+00 0.  1.
         23    2    1    0    0    0 -0.83595255363E+01  0.24389560954E+02 -0.14667375367E+02  0.95337494191E+02  0.90605593358E+02 0.  0.
         13    1    3    3    0    0 -0.15408882902E+02  0.54804893865E+02  0.69641468952E+01  0.57354342205E+02  0.10566000000E+00 0. -1.
         22    1    1    0    0    0  0.83595255363E+01 -0.24389560954E+02  0.14667375367E+02  0.29662505809E+02  0.00000000000E+00 0. -1.
</event>
<event>
 5    1  0.1680526E-003  0.9118800E+02  0.7818608E-02  0.1130116E+00
         25   -1    0    0    0    0  0.00000000000E+00  0.00000000000E+00  0.99999998245E-14  0.12500000000E+03  0.12500000000E+03 0.  0.
        -13    1    3    3    0    0  0.32800847102E+02  0.74746438877E+01 -0.29059909811E+02  0.44455094130E+02  0.10566000000E+00 0.  1.
         23    2    1    0    0    0 -0.18158291731E+02  0.32100373825E+01 -0.22340939324E+02  0.96031992328E+02  0.91558713851E+02 0.  0.
         13    1    3    3    0    0 -0.50959138833E+02 -0.42646065052E+01  0.67189704875E+01  0.51576898198E+02  0.10566000000E+00 0. -1.
         22    1    1    0    0    0  0.18158291731E+02 -0.32100373825E+01  0.22340939324E+02  0.28968007672E+02  0.00000000000E+00 0.  1.
</event>
<event>
 5    1  0.1680526E-003  0.9118800E+02  0.7818608E-02  0.1130116E+00
         25   -1    0    0    0    0  0.00000000000E+00  0.00000000000E+00  0.99999998245E-14  0.12500000000E+03  0.12500000000E+03 0.  0.
        -13    1    3    3    0    0 -0.19437599836E+02  0.12888476710E+02  0.26583108370E+02  0.35363907221E+02  0.10566000000E+00 0. -1.
         23    2    1    0    0    0  0.25271428656E+02  0.84229981369E+01 -0.13104005872E+02  0.95313185185E+02  0.90572050305E+02 0.  0.
         13    1    3    3    0    0  0.44709028492E+02 -0.44654785734E+01 -0.39687114242E+02  0.59949277965E+02  0.10566000000E+00 0.  1.
         22    1    1    0    0    0 -0.25271428656E+02 -0.84229981369E+01  0.13104005872E+02  0.29686814815E+02  0.00000000000E+00 0.  1.
</event>
<event>
 5    1  0.1680526E-003  0.9118800E+02  0.7818608E-02  0.1130116E+00
         25   -1    0    0    0    0  0.00000000000E+00  0.00000000000E+00  0.99999998245E-14  0.12500000000E+03  0.12500000000E+03 0.  0.
        -13    1    3    3    0    0  0.35067774544E+01 -0.36271707210E+02 -0.34960954631E+01  0.36608306156E+02  0.10566000000E+00 0. -1.
         23    2    1    0    0    0  0.19921742705E+02  0.20604840421E+02  0.30976297912E+01  0.96172398790E+02  0.91750202712E+02 0.  0.
         13    1    3    3    0    0  0.16414965251E+02  0.56876547631E+02  0.65937252543E+01  0.59564092635E+02  0.10566000000E+00 0.  1.
         22    1    1    0    0    0 -0.19921742705E+02 -0.20604840421E+02 -0.30976297912E+01  0.28827601210E+02  0.00000000000E+00 0.  1.
</event>
<event>
 5    1  0.1680526E-003  0.9118800E+02  0.7818608E-02  0.1130116E+00
         25   -1    0    0    0    0  0.00000000000E+00  0.00000000000E+00  0.99999998245E-14  0.12500000000E+03  0.12500000000E+03 0.  0.
        -13    1    3    3    0    0 -0.90025971162E+01  0.30967381725E+02  0.22155871293E+02  0.39126963625E+02  0.10566000000E+00 0. -1.
         23    2    1    0    0    0 -0.61028510216E+01 -0.25228862215E+02  0.12385321651E+02  0.96240019617E+02  0.91842282769E+02 0.  0.
         13    1    3    3    0    0  0.28997460946E+01 -0.56196243940E+02 -0.97705496418E+01  0.57113055991E+02  0.10566000000E+00 0.  1.
         22    1    1    0    0    0  0.61028510216E+01  0.25228862215E+02 -0.12385321651E+02  0.28759980383E+02  0.00000000000E+00 0.  1.
</event>
<event>
 5    1  0.1680526E-003  0.9118800E+02  0.7818608E-02  0.1130116E+00
         25   -1    0    0    0    0  0.00000000000E+00  0.00000000000E+00  0.99999998245E-14  0.12500000000E+03  0.12500000000E+03 0.  0.
        -13    1    3    3    0    0 -0.23565003889E+02  0.25598468533E+02  0.32637801866E+02  0.47705641954E+02  0.10566000000E+00 0.  1.
         23    2    1    0    0    0 -0.22622406966E+02 -0.16407091947E+02  0.10988648456E+02  0.94971407659E+02  0.90099122719E+02 0.  0.
         13    1    3    3    0    0  0.94259692274E+00 -0.42005560481E+02 -0.21649153410E+02  0.47265765705E+02  0.10566000000E+00 0. -1.
         22    1    1    0    0    0  0.22622406966E+02  0.16407091947E+02 -0.10988648456E+02  0.30028592341E+02  0.00000000000E+00 0.  1.
</event>
<event>
 5    1  0.1680526E-003  0.9118800E+02  0.7818608E-02  0.1130116E+00
         25   -1    0    0    0    0  0.00000000000E+00  0.00000000000E+00  0.99999998245E-14  0.12500000000E+03  0.12500000000E+03 0.  0.
        -13    1    3    3    0    0  0.33465622610E+02  0.36546976584E+01  0.22113125084E+02  0.40277862117E+02  0.10566000000E+00 0.  1.
         23    2    1    0    0    0 -0.14781733847E+02  0.24829550596E+02  0.50199432308E+01  0.95670730177E+02  0.91064167180E+02 0.  0.
         13    1    3    3    0    0 -0.48247356457E+02  0.21174852938E+02 -0.17093181853E+02  0.55392868060E+02  0.10566000000E+00 0. -1.
         22    1    1    0    0    0  0.14781733847E+02 -0.24829550596E+02 -0.50199432308E+01  0.29329269823E+02  0.00000000000E+00 0. -1.
</event>
<event>
 5    1  0.1680526E-003  0.9118800E+02  0.7818608E-02  0.1130116E+00
         25   -1    0    0    0    0  0.00000000000E+00  0.00000000000E+00  0.99999998245E-14  0.12500000000E+03  0.12500000000E+03 0.  0.
        -13    1    3    3    0    0  0.11488668083E+02  0.36271051382E+02  0.14150077306E+01  0.38073508816E+02  0.10566000000E+00 0.  1.
         23    2    1    0    0    0  0.92077714345E+01 -0.70920336508E+01  0.31846833035E+02  0.91098661229E+02  0.84555693524E+02 0.  0.
         13    1    3    3    0    0 -0.22808966487E+01 -0.43363085033E+02  0.30431825304E+02  0.53025152413E+02  0.10566000000E+00 0. -1.
         22    1    1    0    0    0 -0.92077714345E+01  0.70920336508E+01 -0.31846833035E+02  0.33901338771E+02  0.00000000000E+00 0. -1.
</event>
<event>
 5    1  0.1680526E-003  0.9118800E+02  0.7818608E-02  0.1130116E+00
         25   -1    0    0    0    0  0.00000000000E+00  0.00000000000E+00  0.99999998245E-14  0.12500000000E+03  0.12500000000E+03 0.  0.
        -13    1    3    3    0    0 -0.24555121730E+01  0.32087316848E+02  0.34259028530E+02  0.47003379053E+02  0.10566000000E+00 0.  1.
         23    2    1    0    0    0 -0.17478523530E+02 -0.12127394386E+02  0.19928338205E+02  0.95850194803E+02  0.91310178517E+02 0.  0.
         13    1    3    3    0    0 -0.15023011357E+02 -0.44214711234E+02 -0.14330690325E+02  0.48846815750E+02  0.10566000000E+00 0. -1.
         22    1    1    0    0    0  0.17478523530E+02  0.12127394386E+02 -0.19928338205E+02  0.29149805197E+02  0.00000000000E+00 0. -1.
</event>
<event>
 5    1  0.1680526E-003  0.9118800E+02  0.7818608E-02  0.1130116E+00
         25   -1    0    0    0    0  0.00000000000E+00  0.00000000000E+00  0.99999998245E-14  0.12500000000E+03  0.12500000000E+03 0.  0.
        -13    1    3    3    0    0  0.14031042035E+02 -0.10726207383E+02  0.30790056571E+02  0.35495921077E+02  0.10566000000E+00 0.  1.
         23    2    1    0    0    0 -0.23066599452E+02 -0.74800994698E+01 -0.16486094954E+02  0.95677462163E+02  0.91073407430E+02 0.  0.
         13    1    3    3    0    0 -0.37097641487E+02  0.32461079136E+01 -0.47276151525E+02  0.60181541086E+02  0.10566000000E+00 0. -1.
         22    1    1    0    0    0  0.23066599452E+02  0.74800994698E+01  0.16486094954E+02  0.29322537837E+02  0.00000000000E+00 0. -1.
</event>
<event>
 5    1  0.1680526E-003  0.9118800E+02  0.7818608E-02  0.1130116E+00
         25   -1    0    0    0    0  0.00000000000E+00  0.00000000000E+00  0.99999998245E-14  0.12500000000E+03  0.12500000000E+03 0.  0.
        -13    1    3    3    0    0  0.95023916350E+01 -0.54829945278E+02  0.61906159506E+01  0.55990653112E+02  0.10566000000E+00 0. -1.
         23    2    1    0    0    0  0.65187470321E+01 -0.23005872708E+02 -0.17154048177E+02  0.95571686919E+02  0.90928112979E+02 0.  0.
         13    1    3    3    0    0 -0.29836446029E+01  0.31824072570E+02 -0.23344664127E+02  0.39581033808E+02  0.10566000000E+00 0.  1.
         22    1    1    0    0    0 -0.65187470321E+01  0.23005872708E+02  0.17154048177E+02  0.29428313081E+02  0.00000000000E+00 0. -1.
</event>
<event>
 5    1  0.1680526E-003  0.9118800E+02  0.7818608E-02  0.1130116E+00
         25   -1    0    0    0    0  0.00000000000E+00  0.00000000000E+00  0.99999998245E-14  0.12500000000E+03  0.12500000000E+03 0.  0.
        -13    1    3    3    0    0  0.26871473300E+02 -0.58354288402E+00 -0.18694843114E+02  0.32740264548E+02  0.10566000000E+00 0.  1.
         23    2    1    0    0    0 -0.25478879102E+02 -0.29839513807E+01  0.15228656554E+02  0.95167312783E+02  0.90370505121E+02 0.  0.
         13    1    3    3    0    0 -0.52350352402E+02 -0.24004084967E+01  0.33923499668E+02  0.62427048235E+02  0.10566000000E+00 0. -1.
         22    1    1    0    0    0  0.25478879102E+02  0.29839513807E+01 -0.15228656554E+02  0.29832687217E+02  0.00000000000E+00 0. -1.
</event>
<event>
 5    1  0.1680526E-003  0.9118800E+02  0.7818608E-02  0.1130116E+00
         25   -1    0    0    0    0  0.00000000000E+00  0.00000000000E+00  0.99999998245E-14  0.12500000000E+03  0.12500000000E+03 0.  0.
        -13    1    3    3    0    0  0.39789016398E+02  0.34810655526E+02 -0.22377037347E+02  0.57408105077E+02  0.10566000000E+00 0.  1.
         23    2    1    0    0    0  0.28189985354E+02  0.17864636632E+01 -0.56829703383E+01  0.96187452759E+02  0.91770709868E+02 0.  0.
         13    1    3    3    0    0 -0.11599031044E+02 -0.33024191862E+02  0.16694067008E+02  0.38779347682E+02  0.10566000000E+00 0. -1.
         22    1    1    0    0    0 -0.28189985354E+02 -0.17864636632E+01  0.56829703383E+01  0.28812547241E+02  0.00000000000E+00 0.  1.
</event>
<event>
 5    1  0.1680526E-003  0.9118800E+02  0.7818608E-02  0.1130116E+00
         25   -1    0    0    0    0  0.00000000000E+00  0.00000000000E+00  0.99999998245E-14  0.12500000000E+03  0.12500000000E+03 0.  0.
        -13    1    3    3    0    0 -0.38209698794E+02  0.37639494599E+01  0.12884085592E+02  0.40498879281E+02  0.10566000000E+00 0. -1.
         23    2    1    0    0    0  0.19223307661E+01 -0.26996445812E+02 -0.10191245835E+02  0.96080025351E+02  0.91624267188E+02 0.  0.
         13    1    3    3    0    0  0.40132029560E+02 -0.30760395272E+02 -0.23075331427E+02  0.55581146069E+02  0.10566000000E+00 0.  1.
         22    1    1    0    0    0 -0.19223307661E+01  0.26996445812E+02  0.10191245835E+02  0.28919974649E+02  0.00000000000E+00 0.  1.
</event>
<event>
 5    1  0.1680526E-003  0.9118800E+02  0.7818608E-02  0.1130116E+00
         25   -1    0    0    0    0  0.00000000000E+00  0.00000000000E+00  0.99999998245E-14  0.12500000000E+03  0.12500000000E+03 0.  0.
        -13    1    3    3    0    0  0.65896041439E+01  0.91300296772E+01  0.36672721081E+02  0.38362481153E+02  0.10566000000E+00 0. -1.
         23    2    1    0    0    0 -0.21138292280E+01 -0.28460041975E+02 -0.59417466467E+01  0.95849586342E+02  0.91309345554E+02 0.  0.
         13    1    3    3    0    0 -0.87034333719E+01 -0.37590071652E+02 -0.42614467728E+02  0.57487105189E+02  0.10566000000E+00 0.  1.
         22    1    1    0    0    0  0.21138292280E+01  0.28460041975E+02  0.59417466467E+01  0.29150413658E+02  0.00000000000E+00 0.  1.
</event>
<event>
 5    1  0.1680526E-003  0.9118800E+02  0.7818608E-02  0.1130116E+00
         25   -1    0    0    0    0  0.00000000000E+00  0.00000000000E+00  0.99999998245E-14  0.12500000000E+03  0.12500000000E+03 0.  0.
        -13    1    3    3    0    0  0.10392145301E+02  0.13038809722E+02 -0.36199508704E+02  0.39855022737E+02  0.10566000000E+00 0.  1.
         23    2    1    0    0    0  0.80650739606E+01  0.18583608323E+02  0.20092548375E+02  0.96467449877E+02  0.92151302049E+02 0.  0.
         13    1    3    3    0    0 -0.23270713400E+01  0.55447986011E+01  0.56292057079E+02  0.56612427141E+02  0.10566000000E+00 0. -1.
         22    1    1    0    0    0 -0.80650739606E+01 -0.18583608323E+02 -0.20092548375E+02  0.28532550123E+02  0.00000000000E+00 0.  1.
</event>
<event>
 5    1  0.1680526E-003  0.9118800E+02  0.7818608E-02  0.1130116E+00
         25   -1    0    0    0    0  0.00000000000E+00  0.00000000000E+00  0.99999998245E-14  0.12500000000E+03  0.12500000000E+03 0.  0.
        -13    1    3    3    0    0 -0.96640032071E+00  0.45346345318E+02  0.29694105089E+02  0.54212323363E+02  0.10566000000E+00 0.  1.
         23    2    1    0    0    0 -0.22130030695E+02  0.13303572088E+02  0.13109316057E+02  0.96041798116E+02  0.91572100167E+02 0.  0.
         13    1    3    3    0    0 -0.21163630374E+02 -0.32042773230E+02 -0.16584789032E+02  0.41829474753E+02  0.10566000000E+00 0. -1.
         22    1    1    0    0    0  0.22130030695E+02 -0.13303572088E+02 -0.13109316057E+02  0.28958201884E+02  0.00000000000E+00 0.  1.
</event>
<event>
 5    1  0.1680526E-003  0.9118800E+02  0.7818608E-02  0.1130116E+00
         25   -1    0    0    0    0  0.00000000000E+00  0.00000000000E+00  0.99999998245E-14  0.12500000000E+03  0.12500000000E+03 0.  0.
        -13    1    3    3    0    0 -0.13445285412E+02  0.36916839558E+02 -0.28778772069E+02  0.48701721003E+02  0.10566000000E+00 0.  1.
         23    2    1    0    0    0 -0.79042739746E+01 -0.13358018521E+02 -0.19419520651E+02  0.10013975084E+03  0.97004833439E+02 0.  0.
         13    1    3    3    0    0  0.55410114374E+01 -0.50274858079E+02  0.93592514178E+01  0.51438029839E+02  0.10566000000E+00 0. -1.
         22    1    1    0    0    0  0.79042739746E+01  0.13358018521E+02  0.19419520651E+02  0.24860249158E+02  0.00000000000E+00 0. -1.
</event>
<event>
 5    1  0.1680526E-003  0.9118800E+02  0.7818608E-02  0.1130116E+00
         25   -1    0    0    0    0  0.00000000000E+00  0.00000000000E+00  0.99999998245E-14  0.12500000000E+03  0.12500000000E+03 0.  0.
        -13    1    3    3    0    0 -0.20644341496E+02  0.16447821127E+02 -0.19601240617E+02  0.32877643671E+02  0.10566000000E+00 0.  1.
         23    2    1    0    0    0 -0.98392489203E+00  0.33911801025E+01  0.33671267185E+02  0.91144092915E+02  0.84622829241E+02 0.  0.
         13    1    3    3    0    0  0.19660416604E+02 -0.13056641024E+02  0.53272507802E+02  0.58266449244E+02  0.10566000000E+00 0. -1.
         22    1    1    0    0    0  0.98392489203E+00 -0.33911801025E+01 -0.33671267185E+02  0.33855907085E+02  0.00000000000E+00 0. -1.
</event>
<event>
 5    1  0.1680526E-003  0.9118800E+02  0.7818608E-02  0.1130116E+00
         25   -1    0    0    0    0  0.00000000000E+00  0.00000000000E+00  0.99999998245E-14  0.12500000000E+03  0.12500000000E+03 0.  0.
        -13    1    3    3    0    0 -0.90028171571E+01 -0.44989343518E+01  0.41429957206E+02  0.42635004928E+02  0.10566000000E+00 0.  1.
         23    2    1    0    0    0 -0.55394799316E+01 -0.64140722477E+01 -0.19523220947E+02  0.10371661876E+03  0.10150938228E+03 0.  0.
         13    1    3    3    0    0  0.34633372255E+01 -0.19151378959E+01 -0.60953178153E+02  0.61081613836E+02  0.10566000000E+00 0. -1.
         22    1    1    0    0    0  0.55394799316E+01  0.64140722477E+01  0.19523220947E+02  0.21283381236E+02  0.00000000000E+00 0. -1.
</event>
<event>
 5    1  0.1680526E-003  0.9118800E+02  0.7818608E-02  0.1130116E+00
         25   -1    0    0    0    0  0.00000000000E+00  0.00000000000E+00  0.99999998245E-14  0.12500000000E+03  0.12500000000E+03 0.  0.
        -13    1    3    3    0    0  0.39646119991E+02 -0.41458729500E+02  0.21475331741E+02  0.61252282566E+02  0.10566000000E+00 0. -1.
         23    2    1    0    0    0  0.30308976021E+02 -0.19395736809E+02  0.11273152208E+02  0.87291743682E+02  0.78726970731E+02 0.  0.
         13    1    3    3    0    0 -0.93371439695E+01  0.22062992691E+02 -0.10202179533E+02  0.26039461117E+02  0.10566000000E+00 0.  1.
         22    1    1    0    0    0 -0.30308976021E+02  0.19395736809E+02 -0.11273152208E+02  0.37708256318E+02  0.00000000000E+00 0. -1.
</event>
<event>
 5    1  0.1680526E-003  0.9118800E+02  0.7818608E-02  0.1130116E+00
         25   -1    0    0    0    0  0.00000000000E+00  0.00000000000E+00  0.99999998245E-14  0.12500000000E+03  0.12500000000E+03 0.  0.
        -13    1    3    3    0    0 -0.33769463205E+02  0.13899616124E+02 -0.95646851761E+00  0.36530835874E+02  0.10566000000E+00 0.  1.
         23    2    1    0    0    0  0.21105632263E+02  0.48046417507E+01  0.19568110950E+02  0.95820499289E+02  0.91269517487E+02 0.  0.
         13    1    3    3    0    0  0.54875095469E+02 -0.90949743730E+01  0.20524579468E+02  0.59289663415E+02  0.10566000000E+00 0. -1.
         22    1    1    0    0    0 -0.21105632263E+02 -0.48046417507E+01 -0.19568110950E+02  0.29179500711E+02  0.00000000000E+00 0. -1.
</event>
<event>
 5    1  0.1680526E-003  0.9118800E+02  0.7818608E-02  0.1130116E+00
         25   -1    0    0    0    0  0.00000000000E+00  0.00000000000E+00  0.99999998245E-14  0.12500000000E+03  0.12500000000E+03 0.  0.
        -13    1    3    3    0    0 -0.20295178280E+02  0.24550318601E+02  0.62092448751E+01  0.32452708528E+02  0.10566000000E+00 0. -1.
         23    2    1    0    0    0  0.25371665191E+02 -0.16234784386E+02 -0.42905669412E+01  0.94574704877E+02  0.89547061478E+02 0.  0.
         13    1    3    3    0    0  0.45666843471E+02 -0.40785102986E+02 -0.10499811816E+02  0.62121996350E+02  0.10566000000E+00 0.  1.
         22    1    1    0    0    0 -0.25371665191E+02  0.16234784386E+02  0.42905669412E+01  0.30425295123E+02  0.00000000000E+00 0.  1.
</event>
<event>
 5    1  0.1680526E-003  0.9118800E+02  0.7818608E-02  0.1130116E+00
         25   -1    0    0    0    0  0.00000000000E+00  0.00000000000E+00  0.99999998245E-14  0.12500000000E+03  0.12500000000E+03 0.  0.
        -13    1    3    3    0    0 -0.84893385113E+01  0.11207457048E+02  0.27533820652E+02  0.30915989481E+02  0.10566000000E+00 0. -1.
         23    2    1    0    0    0 -0.63670188907E+01 -0.97113917746E+01 -0.30352018053E+02  0.92502383785E+02  0.86605981007E+02 0.  0.
         13    1    3    3    0    0  0.21223196206E+01 -0.20918848823E+02 -0.57885838706E+02  0.61586394304E+02  0.10566000000E+00 0.  1.
         22    1    1    0    0    0  0.63670188907E+01  0.97113917746E+01  0.30352018053E+02  0.32497616215E+02  0.00000000000E+00 0.  1.
</event>
<event>
 5    1  0.1680526E-003  0.9118800E+02  0.7818608E-02  0.1130116E+00
         25   -1    0    0    0    0  0.00000000000E+00  0.00000000000E+00  0.99999998245E-14  0.12500000000E+03  0.12500000000E+03 0.  0.
        -13    1    3    3    0    0  0.11516254300E+02 -0.26651285677E+02 -0.11352369071E+01  0.29055379334E+02  0.10566000000E+00 0.  1.
         23    2    1    0    0    0  0.20602839208E+02  0.31019324295E+02  0.33617247690E+01  0.87610473973E+02  0.79231423647E+02 0.  0.
         13    1    3    3    0    0  0.90865849081E+01  0.57670609972E+02  0.44969616761E+01  0.58555094639E+02  0.10566000000E+00 0. -1.
         22    1    1    0    0    0 -0.20602839208E+02 -0.31019324295E+02 -0.33617247690E+01  0.37389526027E+02  0.00000000000E+00 0. -1.
</event>
<event>
 5    1  0.1680526E-003  0.9118800E+02  0.7818608E-02  0.1130116E+00
         25   -1    0    0    0    0  0.00000000000E+00  0.00000000000E+00  0.99999998245E-14  0.12500000000E+03  0.12500000000E+03 0.  0.
        -13    1    3    3    0    0 -0.53647413407E+02  0.69831641567E+01 -0.14260282282E+02  0.55947979067E+02  0.10566000000E+00 0. -1.
         23    2    1    0    0    0 -0.15234949717E+02  0.20936647969E+02 -0.10740791120E+02  0.96967670184E+02  0.92827353436E+02 0.  0.
         13    1    3    3    0    0  0.38412463690E+02  0.13953483812E+02  0.35194911621E+01  0.41019691117E+02  0.10566000000E+00 0.  1.
         22    1    1    0    0    0  0.15234949717E+02 -0.20936647969E+02  0.10740791120E+02  0.28032329816E+02  0.00000000000E+00 0.  1.
</event>
<event>
 5    1  0.1680526E-003  0.9118800E+02  0.7818608E-02  0.1130116E+00
         25   -1    0    0    0    0  0.00000000000E+00  0.00000000000E+00  0.99999998245E-14  0.12500000000E+03  0.12500000000E+03 0.  0.
        -13    1    3    3    0    0  0.45744739929E+01 -0.32354359941E+02  0.25970425358E+02  0.41739724206E+02  0.10566000000E+00 0. -1.
         23    2    1    0    0    0 -0.30782631513E+02  0.46672356942E+00  0.83263606799E+01  0.93107735798E+02  0.87475333377E+02 0.  0.
         13    1    3    3    0    0 -0.35357105506E+02  0.32821083510E+02 -0.17644064678E+02  0.51368011592E+02  0.10566000000E+00 0.  1.
         22    1    1    0    0    0  0.30782631513E+02 -0.46672356942E+00 -0.83263606799E+01  0.31892264202E+02  0.00000000000E+00 0.  1.
</event>
<event>
 5    1  0.1680526E-003  0.9118800E+02  0.7818608E-02  0.1130116E+00
         25   -1    0    0    0    0  0.00000000000E+00  0.00000000000E+00  0.99999998245E-14  0.12500000000E+03  0.12500000000E+03 0.  0.
        -13    1    3    3    0    0 -0.25139073190E+02 -0.32149350695E+02 -0.14020791481E+02  0.43152607207E+02  0.10566000000E+00 0.  1.
         23    2    1    0    0    0 -0.22952299456E+02  0.13627522651E+02  0.11866869282E+02  0.95788015979E+02  0.91225018469E+02 0.  0.
         13    1    3    3    0    0  0.21867737345E+01  0.45776873346E+02  0.25887660764E+02  0.52635408772E+02  0.10566000000E+00 0. -1.
         22    1    1    0    0    0  0.22952299456E+02 -0.13627522651E+02 -0.11866869282E+02  0.29211984021E+02  0.00000000000E+00 0.  1.
</event>
<event>
 5    1  0.1680526E-003  0.9118800E+02  0.7818608E-02  0.1130116E+00
         25   -1    0    0    0    0  0.00000000000E+00  0.00000000000E+00  0.99999998245E-14  0.12500000000E+03  0.12500000000E+03 0.  0.
        -13    1    3    3    0    0  0.38327448007E+02 -0.97614748193E+00  0.37571296496E+02  0.53680160386E+02  0.10566000000E+00 0.  1.
         23    2    1    0    0    0  0.23060518429E+02  0.17450782807E+02  0.27239465393E+01  0.95952844967E+02  0.91450594540E+02 0.  0.
         13    1    3    3    0    0 -0.15266929578E+02  0.18426930289E+02 -0.34847349957E+02  0.42272684581E+02  0.10566000000E+00 0. -1.
         22    1    1    0    0    0 -0.23060518429E+02 -0.17450782807E+02 -0.27239465393E+01  0.29047155033E+02  0.00000000000E+00 0.  1.
</event>
<event>
 5    1  0.1680526E-003  0.9118800E+02  0.7818608E-02  0.1130116E+00
         25   -1    0    0    0    0  0.00000000000E+00  0.00000000000E+00  0.99999998245E-14  0.12500000000E+03  0.12500000000E+03 0.  0.
        -13    1    3    3    0    0 -0.26853097208E+02 -0.20764598904E+02 -0.23257465361E+02  0.41148247305E+02  0.10566000000E+00 0. -1.
         23    2    1    0    0    0 -0.75859448942E+01  0.27416742009E+02 -0.11242851727E+02  0.94411995533E+02  0.89319644442E+02 0.  0.
         13    1    3    3    0    0  0.19267152313E+02  0.48181340913E+02  0.12014613633E+02  0.53263748227E+02  0.10566000000E+00 0.  1.
         22    1    1    0    0    0  0.75859448942E+01 -0.27416742009E+02  0.11242851727E+02  0.30588004467E+02  0.00000000000E+00 0. -1.
</event>
<event>
 5    1  0.1680526E-003  0.9118800E+02  0.7818608E-02  0.1130116E+00
         25   -1    0    0    0    0  0.00000000000E+00  0.00000000000E+00  0.99999998245E-14  0.12500000000E+03  0.12500000000E+03 0.  0.
        -13    1    3    3    0    0  0.27966826488E+02  0.15230206196E+02  0.21618902466E+02  0.38490137340E+02  0.10566000000E+00 0. -1.
         23    2    1    0    0    0 -0.12562493958E+02 -0.24142694846E+02  0.83459419089E+01  0.96533515931E+02  0.92240874794E+02 0.  0.
         13    1    3    3    0    0 -0.40529320446E+02 -0.39372901042E+02 -0.13272960557E+02  0.58043378591E+02  0.10566000000E+00 0.  1.
         22    1    1    0    0    0  0.12562493958E+02  0.24142694846E+02 -0.83459419089E+01  0.28466484069E+02  0.00000000000E+00 0.  1.
</event>
<event>
 5    1  0.1680526E-003  0.9118800E+02  0.7818608E-02  0.1130116E+00
         25   -1    0    0    0    0  0.00000000000E+00  0.00000000000E+00  0.99999998245E-14  0.12500000000E+03  0.12500000000E+03 0.  0.
        -13    1    3    3    0    0  0.17782985817E+02 -0.82987017257E+01  0.27408127193E+02  0.33709340474E+02  0.10566000000E+00 0.  1.
         23    2    1    0    0    0 -0.10499968256E+01  0.30205828893E+02 -0.12516857958E+02  0.92286603271E+02  0.86293979035E+02 0.  0.
         13    1    3    3    0    0 -0.18832982643E+02  0.38504530619E+02 -0.39924985151E+02  0.58577262797E+02  0.10566000000E+00 0. -1.
         22    1    1    0    0    0  0.10499968256E+01 -0.30205828893E+02  0.12516857958E+02  0.32713396729E+02  0.00000000000E+00 0. -1.
</event>
<event>
 5    1  0.1680526E-003  0.9118800E+02  0.7818608E-02  0.1130116E+00
         25   -1    0    0    0    0  0.00000000000E+00  0.00000000000E+00  0.99999998245E-14  0.12500000000E+03  0.12500000000E+03 0.  0.
        -13    1    3    3    0    0  0.42344253416E+02 -0.98731401745E+00 -0.22901484035E+02  0.48150801877E+02  0.10566000000E+00 0.  1.
         23    2    1    0    0    0  0.19394194916E+02  0.11809237297E+02  0.17490680739E+02  0.96337885726E+02  0.91975384921E+02 0.  0.
         13    1    3    3    0    0 -0.22950058500E+02  0.12796551314E+02  0.40392164774E+02  0.48187083849E+02  0.10566000000E+00 0. -1.
         22    1    1    0    0    0 -0.19394194916E+02 -0.11809237297E+02 -0.17490680739E+02  0.28662114274E+02  0.00000000000E+00 0. -1.
</event>
<event>
 5    1  0.1680526E-003  0.9118800E+02  0.7818608E-02  0.1130116E+00
         25   -1    0    0    0    0  0.00000000000E+00  0.00000000000E+00  0.99999998245E-14  0.12500000000E+03  0.12500000000E+03 0.  0.
        -13    1    3    3    0    0  0.20651260799E+02 -0.40035010661E+02  0.15115118834E+01  0.45072968434E+02  0.10566000000E+00 0. -1.
         23    2    1    0    0    0  0.19783051836E+02  0.54796351959E+01  0.21926376582E+02  0.94963996074E+02  0.90088839589E+02 0.  0.
         13    1    3    3    0    0 -0.86820896341E+00  0.45514645857E+02  0.20414864699E+02  0.49891027640E+02  0.10566000000E+00 0.  1.
         22    1    1    0    0    0 -0.19783051836E+02 -0.54796351959E+01 -0.21926376582E+02  0.30036003926E+02  0.00000000000E+00 0.  1.
</event>
<event>
 5    1  0.1680526E-003  0.9118800E+02  0.7818608E-02  0.1130116E+00
         25   -1    0    0    0    0  0.00000000000E+00  0.00000000000E+00  0.99999998245E-14  0.12500000000E+03  0.12500000000E+03 0.  0.
        -13    1    3    3    0    0  0.76716500320E+01  0.42995207826E+02  0.41687926392E+02  0.60376621975E+02  0.10566000000E+00 0.  1.
         23    2    1    0    0    0 -0.38859347524E+01  0.13787937556E+02  0.25591976054E+02  0.95671567561E+02  0.91065316616E+02 0.  0.
         13    1    3    3    0    0 -0.11557584784E+02 -0.29207270269E+02 -0.16095950338E+02  0.35294945586E+02  0.10566000000E+00 0. -1.
         22    1    1    0    0    0  0.38859347524E+01 -0.13787937556E+02 -0.25591976054E+02  0.29328432439E+02  0.00000000000E+00 0.  1.
</event>
<event>
 5    1  0.1680526E-003  0.9118800E+02  0.7818608E-02  0.1130116E+00
         25   -1    0    0    0    0  0.00000000000E+00  0.00000000000E+00  0.99999998245E-14  0.12500000000E+03  0.12500000000E+03 0.  0.
        -13    1    3    3    0    0 -0.96627915251E+01  0.22866219470E+02 -0.56833834703E+02  0.62018783155E+02  0.10566000000E+00 0. -1.
         23    2    1    0    0    0 -0.10366140519E+02  0.11607726983E+02 -0.28272342322E+02  0.92727387224E+02  0.86930125998E+02 0.  0.
         13    1    3    3    0    0 -0.70334899394E+00 -0.11258492487E+02  0.28561492381E+02  0.30708604070E+02  0.10566000000E+00 0.  1.
         22    1    1    0    0    0  0.10366140519E+02 -0.11607726983E+02  0.28272342322E+02  0.32272612776E+02  0.00000000000E+00 0. -1.
</event>
<event>
 5    1  0.1680526E-003  0.9118800E+02  0.7818608E-02  0.1130116E+00
         25   -1    0    0    0    0  0.00000000000E+00  0.00000000000E+00  0.99999998245E-14  0.12500000000E+03  0.12500000000E+03 0.  0.
        -13    1    3    3    0    0  0.11948157801E+02 -0.13570683653E+02 -0.39423968811E+02  0.43372599767E+02  0.10566000000E+00 0.  1.
         23    2    1    0    0    0  0.28522826706E+02 -0.19478744856E+02  0.40031915055E+01  0.90229341584E+02  0.83260647343E+02 0.  0.
         13    1    3    3    0    0  0.16574668905E+02 -0.59080612032E+01  0.43427160317E+02  0.46856741817E+02  0.10566000000E+00 0. -1.
         22    1    1    0    0    0 -0.28522826706E+02  0.19478744856E+02 -0.40031915055E+01  0.34770658416E+02  0.00000000000E+00 0.  1.
</event>
<event>
 5    1  0.1680526E-003  0.9118800E+02  0.7818608E-02  0.1130116E+00
         25   -1    0    0    0    0  0.00000000000E+00  0.00000000000E+00  0.99999998245E-14  0.12500000000E+03  0.12500000000E+03 0.  0.
        -13    1    3    3    0    0 -0.27684583696E+02  0.16964238246E+02  0.48720807932E+01  0.32832451766E+02  0.10566000000E+00 0. -1.
         23    2    1    0    0    0  0.21587452073E+02 -0.75956939058E+01 -0.21251186556E+02  0.93769796943E+02  0.88416340321E+02 0.  0.
         13    1    3    3    0    0  0.49272035769E+02 -0.24559932152E+02 -0.26123267350E+02  0.60937345177E+02  0.10566000000E+00 0.  1.
         22    1    1    0    0    0 -0.21587452073E+02  0.75956939058E+01  0.21251186556E+02  0.31230203057E+02  0.00000000000E+00 0.  1.
</event>
<event>
 5    1  0.1680526E-003  0.9118800E+02  0.7818608E-02  0.1130116E+00
         25   -1    0    0    0    0  0.00000000000E+00  0.00000000000E+00  0.99999998245E-14  0.12500000000E+03  0.12500000000E+03 0.  0.
        -13    1    3    3    0    0  0.49198844296E+02 -0.28503609193E+02 -0.19794872793E+02  0.60206562516E+02  0.10566000000E+00 0.  1.
         23    2    1    0    0    0  0.20663900422E+02 -0.15848759789E+02 -0.21150232181E+02  0.91451344456E+02  0.85075473047E+02 0.  0.
         13    1    3    3    0    0 -0.28534943875E+02  0.12654849403E+02 -0.13553593878E+01  0.31244781940E+02  0.10566000000E+00 0. -1.
         22    1    1    0    0    0 -0.20663900422E+02  0.15848759789E+02  0.21150232181E+02  0.33548655544E+02  0.00000000000E+00 0.  1.
</event>
<event>
 5    1  0.1680526E-003  0.9118800E+02  0.7818608E-02  0.1130116E+00
         25   -1    0    0    0    0  0.00000000000E+00  0.00000000000E+00  0.99999998245E-14  0.12500000000E+03  0.12500000000E+03 0.  0.
        -13    1    3    3    0    0 -0.88980933010E+00 -0.25792897703E+02  0.27016107707E+02  0.37362368397E+02  0.10566000000E+00 0. -1.
         23    2    1    0    0    0 -0.21960292806E+02  0.15425656879E+01 -0.19708863863E+02  0.95452186480E+02  0.90763685580E+02 0.  0.
         13    1    3    3    0    0 -0.21070483476E+02  0.27335463391E+02 -0.46724971570E+02  0.58089818083E+02  0.10566000000E+00 0.  1.
         22    1    1    0    0    0  0.21960292806E+02 -0.15425656879E+01  0.19708863863E+02  0.29547813520E+02  0.00000000000E+00 0.  1.
</event>
<event>
 5    1  0.1680526E-003  0.9118800E+02  0.7818608E-02  0.1130116E+00
         25   -1    0    0    0    0  0.00000000000E+00  0.00000000000E+00  0.99999998245E-14  0.12500000000E+03  0.12500000000E+03 0.  0.
        -13    1    3    3    0    0 -0.27761249528E+02  0.43421579029E+01 -0.17315576084E+02  0.33005782066E+02  0.10566000000E+00 0. -1.
         23    2    1    0    0    0  0.30686739843E+02 -0.41501795388E+01 -0.22876407438E+01  0.93949504150E+02  0.88670040247E+02 0.  0.
         13    1    3    3    0    0  0.58447989371E+02 -0.84923374417E+01  0.15027935341E+02  0.60943722083E+02  0.10566000000E+00 0.  1.
         22    1    1    0    0    0 -0.30686739843E+02  0.41501795388E+01  0.22876407438E+01  0.31050495850E+02  0.00000000000E+00 0.  1.
</event>
<event>
 5    1  0.1680526E-003  0.9118800E+02  0.7818608E-02  0.1130116E+00
         25   -1    0    0    0    0  0.00000000000E+00  0.00000000000E+00  0.99999998245E-14  0.12500000000E+03  0.12500000000E+03 0.  0.
        -13    1    3    3    0    0  0.52434551165E+01  0.39565222121E+02 -0.18069460669E+02  0.43811153785E+02  0.10566000000E+00 0.  1.
         23    2    1    0    0    0 -0.28006760596E+02  0.23769690876E+01  0.70859179956E-01  0.96892462895E+02  0.92726025061E+02 0.  0.
         13    1    3    3    0    0 -0.33250215712E+02 -0.37188253033E+02  0.18140319849E+02  0.53081309110E+02  0.10566000000E+00 0. -1.
         22    1    1    0    0    0  0.28006760596E+02 -0.23769690876E+01 -0.70859179956E-01  0.28107537105E+02  0.00000000000E+00 0. -1.
</event>
<event>
 5    1  0.1680526E-003  0.9118800E+02  0.7818608E-02  0.1130116E+00
         25   -1    0    0    0    0  0.00000000000E+00  0.00000000000E+00  0.99999998245E-14  0.12500000000E+03  0.12500000000E+03 0.  0.
        -13    1    3    3    0    0  0.41940302872E+01 -0.22437608277E+02 -0.32813889727E+02  0.39972474007E+02  0.10566000000E+00 0.  1.
         23    2    1    0    0    0  0.68391967550E+01 -0.17743161945E+02  0.22495737546E+02  0.95544056359E+02  0.90890120969E+02 0.  0.
         13    1    3    3    0    0  0.26451664678E+01  0.46944463322E+01  0.55309627272E+02  0.55571582352E+02  0.10566000000E+00 0. -1.
         22    1    1    0    0    0 -0.68391967550E+01  0.17743161945E+02 -0.22495737546E+02  0.29455943641E+02  0.00000000000E+00 0. -1.
</event>
<event>
 5    1  0.1680526E-003  0.9118800E+02  0.7818608E-02  0.1130116E+00
         25   -1    0    0    0    0  0.00000000000E+00  0.00000000000E+00  0.99999998245E-14  0.12500000000E+03  0.12500000000E+03 0.  0.
        -13    1    3    3    0    0  0.15820811296E+01 -0.87086211110E+01 -0.28999924585E+02  0.30320782515E+02  0.10566000000E+00 0. -1.
         23    2    1    0    0    0  0.84331074648E+01  0.10204914027E+02  0.29759767753E+02  0.92428519399E+02  0.86499305488E+02 0.  0.
         13    1    3    3    0    0  0.68510263351E+01  0.18913535138E+02  0.58759692338E+02  0.62107736885E+02  0.10566000000E+00 0.  1.
         22    1    1    0    0    0 -0.84331074648E+01 -0.10204914027E+02 -0.29759767753E+02  0.32571480601E+02  0.00000000000E+00 0.  1.
</event>
<event>
 5    1  0.1680526E-003  0.9118800E+02  0.7818608E-02  0.1130116E+00
         25   -1    0    0    0    0  0.00000000000E+00  0.00000000000E+00  0.99999998245E-14  0.12500000000E+03  0.12500000000E+03 0.  0.
        -13    1    3    3    0    0  0.14675472362E+02 -0.18823616183E+02 -0.20991449334E+02  0.31786005167E+02  0.10566000000E+00 0.  1.
         23    2    1    0    0    0 -0.31004726701E+02  0.11335522097E+02  0.35961123649E+01  0.91792784472E+02  0.85575674802E+02 0.  0.
         13    1    3    3    0    0 -0.45680199063E+02  0.30159138280E+02  0.24587561699E+02  0.60006779305E+02  0.10566000000E+00 0. -1.
         22    1    1    0    0    0  0.31004726701E+02 -0.11335522097E+02 -0.35961123649E+01  0.33207215528E+02  0.00000000000E+00 0. -1.
</event>
<event>
 5    1  0.1680526E-003  0.9118800E+02  0.7818608E-02  0.1130116E+00
         25   -1    0    0    0    0  0.00000000000E+00  0.00000000000E+00  0.99999998245E-14  0.12500000000E+03  0.12500000000E+03 0.  0.
        -13    1    3    3    0    0 -0.73491506848E+01  0.50247119453E+02 -0.58419338685E+00  0.50785189525E+02  0.10566000000E+00 0.  1.
         23    2    1    0    0    0 -0.27662948558E+02  0.19199949920E+02  0.10870815947E+02  0.89615661103E+02  0.82334168337E+02 0.  0.
         13    1    3    3    0    0 -0.20313797873E+02 -0.31047169533E+02  0.11455009334E+02  0.38830471578E+02  0.10566000000E+00 0. -1.
         22    1    1    0    0    0  0.27662948558E+02 -0.19199949920E+02 -0.10870815947E+02  0.35384338897E+02  0.00000000000E+00 0. -1.
</event>
<event>
 5    1  0.1680526E-003  0.9118800E+02  0.7818608E-02  0.1130116E+00
         25   -1    0    0    0    0  0.00000000000E+00  0.00000000000E+00  0.99999998245E-14  0.12500000000E+03  0.12500000000E+03 0.  0.
        -13    1    3    3    0    0  0.36091950161E+02 -0.38673157394E+02  0.33012915111E+02  0.62354676628E+02  0.10566000000E+00 0. -1.
         23    2    1    0    0    0  0.15329624053E+02 -0.17451992454E+02  0.17937475782E+02  0.95651704451E+02  0.91038047611E+02 0.  0.
         13    1    3    3    0    0 -0.20762326108E+02  0.21221164940E+02 -0.15075439330E+02  0.33297027823E+02  0.10566000000E+00 0.  1.
         22    1    1    0    0    0 -0.15329624053E+02  0.17451992454E+02 -0.17937475782E+02  0.29348295549E+02  0.00000000000E+00 0. -1.
</event>
<event>
 5    1  0.1680526E-003  0.9118800E+02  0.7818608E-02  0.1130116E+00
         25   -1    0    0    0    0  0.00000000000E+00  0.00000000000E+00  0.99999998245E-14  0.12500000000E+03  0.12500000000E+03 0.  0.
        -13    1    3    3    0    0  0.24173501736E+02  0.27008386016E+02  0.50479099244E+01  0.36596497920E+02  0.10566000000E+00 0. -1.
         23    2    1    0    0    0 -0.38483146182E+00 -0.26368497350E+02  0.12488136829E+02  0.95821252439E+02  0.91270548972E+02 0.  0.
         13    1    3    3    0    0 -0.24558333198E+02 -0.53376883367E+02  0.74402269045E+01  0.59224754519E+02  0.10566000000E+00 0.  1.
         22    1    1    0    0    0  0.38483146182E+00  0.26368497350E+02 -0.12488136829E+02  0.29178747561E+02  0.00000000000E+00 0.  1.
</event>
<event>
 5    1  0.1680526E-003  0.9118800E+02  0.7818608E-02  0.1130116E+00
         25   -1    0    0    0    0  0.00000000000E+00  0.00000000000E+00  0.99999998245E-14  0.12500000000E+03  0.12500000000E+03 0.  0.
        -13    1    3    3    0    0  0.33276119539E+02  0.11729405962E+02 -0.34023150711E+02  0.49014947151E+02  0.10566000000E+00 0.  1.
         23    2    1    0    0    0  0.26097275096E+02  0.55804643213E+01  0.11812602173E+02  0.95815296480E+02  0.91262391596E+02 0.  0.
         13    1    3    3    0    0 -0.71788444430E+01 -0.61489416411E+01  0.45835752884E+02  0.46800349329E+02  0.10566000000E+00 0. -1.
         22    1    1    0    0    0 -0.26097275096E+02 -0.55804643213E+01 -0.11812602173E+02  0.29184703520E+02  0.00000000000E+00 0.  1.
</event>
<event>
 5    1  0.1680526E-003  0.9118800E+02  0.7818608E-02  0.1130116E+00
         25   -1    0    0    0    0  0.00000000000E+00  0.00000000000E+00  0.99999998245E-14  0.12500000000E+03  0.12500000000E+03 0.  0.
        -13    1    3    3    0    0  0.30448609242E+02 -0.23163067687E+01 -0.18748848655E+02  0.35833135109E+02  0.10566000000E+00 0. -1.
         23    2    1    0    0    0 -0.17600172935E+02 -0.24080478579E+02  0.67465591163E+01  0.94419751540E+02  0.89330498068E+02 0.  0.
         13    1    3    3    0    0 -0.48048782177E+02 -0.21764171811E+02  0.25495407772E+02  0.58586616431E+02  0.10566000000E+00 0.  1.
         22    1    1    0    0    0  0.17600172935E+02  0.24080478579E+02 -0.67465591163E+01  0.30580248460E+02  0.00000000000E+00 0.  1.
</event>
<event>
 5    1  0.1680526E-003  0.9118800E+02  0.7818608E-02  0.1130116E+00
         25   -1    0    0    0    0  0.00000000000E+00  0.00000000000E+00  0.99999998245E-14  0.12500000000E+03  0.12500000000E+03 0.  0.
        -13    1    3    3    0    0 -0.27216275241E+02  0.37678820370E+02  0.38999945386E+02  0.60674756255E+02  0.10566000000E+00 0. -1.
         23    2    1    0    0    0 -0.68587687078E+01  0.14154621628E+02  0.26462333950E+02  0.94216057112E+02  0.89045012652E+02 0.  0.
         13    1    3    3    0    0  0.20357506533E+02 -0.23524198741E+02 -0.12537611436E+02  0.33541300858E+02  0.10566000000E+00 0.  1.
         22    1    1    0    0    0  0.68587687078E+01 -0.14154621628E+02 -0.26462333950E+02  0.30783942888E+02  0.00000000000E+00 0. -1.
</event>
<event>
 5    1  0.1680526E-003  0.9118800E+02  0.7818608E-02  0.1130116E+00
         25   -1    0    0    0    0  0.00000000000E+00  0.00000000000E+00  0.99999998245E-14  0.12500000000E+03  0.12500000000E+03 0.  0.
        -13    1    3    3    0    0  0.38218701593E+02  0.16354217875E+02  0.14932684628E+02  0.44171549984E+02  0.10566000000E+00 0.  1.
         23    2    1    0    0    0 -0.13262723000E+02  0.21258104259E+02  0.14825821779E+02  0.95886226464E+02  0.91359491111E+02 0.  0.
         13    1    3    3    0    0 -0.51481424593E+02  0.49038863849E+01 -0.10686284974E+00  0.51714676480E+02  0.10566000000E+00 0. -1.
         22    1    1    0    0    0  0.13262723000E+02 -0.21258104259E+02 -0.14825821779E+02  0.29113773536E+02  0.00000000000E+00 0.  1.
</event>
<event>
 5    1  0.1680526E-003  0.9118800E+02  0.7818608E-02  0.1130116E+00
         25   -1    0    0    0    0  0.00000000000E+00  0.00000000000E+00  0.99999998245E-14  0.12500000000E+03  0.12500000000E+03 0.  0.
        -13    1    3    3    0    0  0.36920254934E+02  0.63146587639E+00 -0.18095716325E+02  0.41121406675E+02  0.10566000000E+00 0.  1.
         23    2    1    0    0    0  0.10411765701E+02 -0.18786412369E+02  0.22861827748E+02  0.93631268392E+02  0.88220276003E+02 0.  0.
         13    1    3    3    0    0 -0.26508489233E+02 -0.19417878246E+02  0.40957544073E+02  0.52509861717E+02  0.10566000000E+00 0. -1.
         22    1    1    0    0    0 -0.10411765701E+02  0.18786412369E+02 -0.22861827748E+02  0.31368731608E+02  0.00000000000E+00 0. -1.
</event>
<event>
 5    1  0.1680526E-003  0.9118800E+02  0.7818608E-02  0.1130116E+00
         25   -1    0    0    0    0  0.00000000000E+00  0.00000000000E+00  0.99999998245E-14  0.12500000000E+03  0.12500000000E+03 0.  0.
        -13    1    3    3    0    0  0.34876847601E+02  0.40671030688E+02  0.25862957013E+02  0.59493116789E+02  0.10566000000E+00 0. -1.
         23    2    1    0    0    0  0.19669033467E+02  0.22667127381E+02 -0.66979233717E+00  0.94981369735E+02  0.90112942654E+02 0.  0.
         13    1    3    3    0    0 -0.15207814135E+02 -0.18003903307E+02 -0.26532749350E+02  0.35488252946E+02  0.10566000000E+00 0.  1.
         22    1    1    0    0    0 -0.19669033467E+02 -0.22667127381E+02  0.66979233717E+00  0.30018630265E+02  0.00000000000E+00 0. -1.
</event>
<event>
 5    1  0.1680526E-003  0.9118800E+02  0.7818608E-02  0.1130116E+00
         25   -1    0    0    0    0  0.00000000000E+00  0.00000000000E+00  0.99999998245E-14  0.12500000000E+03  0.12500000000E+03 0.  0.
        -13    1    3    3    0    0 -0.14206724441E+02  0.56197638314E+01 -0.36322492916E+02  0.39404916198E+02  0.10566000000E+00 0. -1.
         23    2    1    0    0    0 -0.17439725162E+02 -0.21112597285E+02  0.12295840489E+02  0.94982114145E+02  0.90113975255E+02 0.  0.
         13    1    3    3    0    0 -0.32330007208E+01 -0.26732361117E+02  0.48618333405E+02  0.55577197947E+02  0.10566000000E+00 0.  1.
         22    1    1    0    0    0  0.17439725162E+02  0.21112597285E+02 -0.12295840489E+02  0.30017885855E+02  0.00000000000E+00 0.  1.
</event>
<event>
 5    1  0.1680526E-003  0.9118800E+02  0.7818608E-02  0.1130116E+00
         25   -1    0    0    0    0  0.00000000000E+00  0.00000000000E+00  0.99999998245E-14  0.12500000000E+03  0.12500000000E+03 0.  0.
        -13    1    3    3    0    0 -0.31300300884E+02  0.24288224133E+02 -0.41511059599E+02  0.57382975699E+02  0.10566000000E+00 0. -1.
         23    2    1    0    0    0 -0.22692810906E+02  0.20438648271E+02 -0.63236202927E+01  0.93812018604E+02  0.88476011727E+02 0.  0.
         13    1    3    3    0    0  0.86074899787E+01 -0.38495758625E+01  0.35187439306E+02  0.36429042905E+02  0.10566000000E+00 0.  1.
         22    1    1    0    0    0  0.22692810906E+02 -0.20438648271E+02  0.63236202927E+01  0.31187981396E+02  0.00000000000E+00 0. -1.
</event>
<event>
 5    1  0.1680526E-003  0.9118800E+02  0.7818608E-02  0.1130116E+00
         25   -1    0    0    0    0  0.00000000000E+00  0.00000000000E+00  0.99999998245E-14  0.12500000000E+03  0.12500000000E+03 0.  0.
        -13    1    3    3    0    0  0.30048144735E+02 -0.44276139982E+02  0.29508942334E+02  0.61106926084E+02  0.10566000000E+00 0.  1.
         23    2    1    0    0    0  0.18017708362E+02 -0.22444715949E+02  0.55370395592E+01  0.95690242312E+02  0.91090946740E+02 0.  0.
         13    1    3    3    0    0 -0.12030436372E+02  0.21831424033E+02 -0.23971902775E+02  0.34583316228E+02  0.10566000000E+00 0. -1.
         22    1    1    0    0    0 -0.18017708362E+02  0.22444715949E+02 -0.55370395592E+01  0.29309757688E+02  0.00000000000E+00 0.  1.
</event>
<event>
 5    1  0.1680526E-003  0.9118800E+02  0.7818608E-02  0.1130116E+00
         25   -1    0    0    0    0  0.00000000000E+00  0.00000000000E+00  0.99999998245E-14  0.12500000000E+03  0.12500000000E+03 0.  0.
        -13    1    3    3    0    0  0.14200162312E+02  0.42529725457E+02 -0.16596908363E+02  0.47810989201E+02  0.10566000000E+00 0. -1.
         23    2    1    0    0    0  0.32181856089E+02  0.46124003747E+01 -0.13461255836E+01  0.92461435916E+02  0.86546860019E+02 0.  0.
         13    1    3    3    0    0  0.17981693777E+02 -0.37917325082E+02  0.15250782779E+02  0.44650446715E+02  0.10566000000E+00 0.  1.
         22    1    1    0    0    0 -0.32181856089E+02 -0.46124003747E+01  0.13461255836E+01  0.32538564084E+02  0.00000000000E+00 0. -1.
</event>
<event>
 5    1  0.1680526E-003  0.9118800E+02  0.7818608E-02  0.1130116E+00
         25   -1    0    0    0    0  0.00000000000E+00  0.00000000000E+00  0.99999998245E-14  0.12500000000E+03  0.12500000000E+03 0.  0.
        -13    1    3    3    0    0  0.50967124859E+01  0.20954837803E+02 -0.28063139294E+02  0.35392550863E+02  0.10566000000E+00 0.  1.
         23    2    1    0    0    0 -0.10493499581E+02 -0.27682789829E+02  0.31144501661E+01  0.95231725176E+02  0.90459556123E+02 0.  0.
         13    1    3    3    0    0 -0.15590212067E+02 -0.48637627632E+02  0.31177589460E+02  0.59839174313E+02  0.10566000000E+00 0. -1.
         22    1    1    0    0    0  0.10493499581E+02  0.27682789829E+02 -0.31144501661E+01  0.29768274824E+02  0.00000000000E+00 0. -1.
</event>
<event>
 5    1  0.1680526E-003  0.9118800E+02  0.7818608E-02  0.1130116E+00
         25   -1    0    0    0    0  0.00000000000E+00  0.00000000000E+00  0.99999998245E-14  0.12500000000E+03  0.12500000000E+03 0.  0.
        -13    1    3    3    0    0  0.57255018979E+02  0.17801390092E+02  0.93406419701E+01  0.60681837842E+02  0.10566000000E+00 0. -1.
         23    2    1    0    0    0  0.23981806131E+02  0.56161754167E+01  0.14389473252E+02  0.96474127672E+02  0.92160359798E+02 0.  0.
         13    1    3    3    0    0 -0.33273212848E+02 -0.12185214675E+02  0.50488312816E+01  0.35792289830E+02  0.10566000000E+00 0.  1.
         22    1    1    0    0    0 -0.23981806131E+02 -0.56161754167E+01 -0.14389473252E+02  0.28525872328E+02  0.00000000000E+00 0. -1.
</event>
<event>
 5    1  0.1680526E-003  0.9118800E+02  0.7818608E-02  0.1130116E+00
         25   -1    0    0    0    0  0.00000000000E+00  0.00000000000E+00  0.99999998245E-14  0.12500000000E+03  0.12500000000E+03 0.  0.
        -13    1    3    3    0    0  0.72696357959E+01  0.11598836827E+01  0.51795219349E+02  0.52315856546E+02  0.10566000000E+00 0.  1.
         23    2    1    0    0    0  0.16107605107E+01 -0.23888706149E+02  0.16677859835E+02  0.95820969181E+02  0.91270161034E+02 0.  0.
         13    1    3    3    0    0 -0.56588752852E+01 -0.25048589832E+02 -0.35117359514E+02  0.43505112634E+02  0.10566000000E+00 0. -1.
         22    1    1    0    0    0 -0.16107605107E+01  0.23888706149E+02 -0.16677859835E+02  0.29179030819E+02  0.00000000000E+00 0.  1.
</event>
<event>
 5    1  0.1680526E-003  0.9118800E+02  0.7818608E-02  0.1130116E+00
         25   -1    0    0    0    0  0.00000000000E+00  0.00000000000E+00  0.99999998245E-14  0.12500000000E+03  0.12500000000E+03 0.  0.
        -13    1    3    3    0    0 -0.44037908722E+02 -0.94525545660E+01  0.36871173753E+02  0.58208099182E+02  0.10566000000E+00 0.  1.
         23    2    1    0    0    0 -0.11043151419E+02 -0.16731772181E+02  0.22325845689E+02  0.94994220901E+02  0.90130767362E+02 0.  0.
         13    1    3    3    0    0  0.32994757303E+02 -0.72792176154E+01 -0.14545328064E+02  0.36786121719E+02  0.10566000000E+00 0. -1.
         22    1    1    0    0    0  0.11043151419E+02  0.16731772181E+02 -0.22325845689E+02  0.30005779099E+02  0.00000000000E+00 0.  1.
</event>
<event>
 5    1  0.1680526E-003  0.9118800E+02  0.7818608E-02  0.1130116E+00
         25   -1    0    0    0    0  0.00000000000E+00  0.00000000000E+00  0.99999998245E-14  0.12500000000E+03  0.12500000000E+03 0.  0.
        -13    1    3    3    0    0 -0.51789129661E+02  0.73926544037E+01  0.27449255018E+02  0.59078236731E+02  0.10566000000E+00 0. -1.
         23    2    1    0    0    0 -0.15915890327E+02  0.33801015910E+00  0.24532586836E+02  0.95754869933E+02  0.91179589181E+02 0.  0.
         13    1    3    3    0    0  0.35873239334E+02 -0.70546442446E+01 -0.29166681814E+01  0.36676633202E+02  0.10566000000E+00 0.  1.
         22    1    1    0    0    0  0.15915890327E+02 -0.33801015910E+00 -0.24532586836E+02  0.29245130067E+02  0.00000000000E+00 0. -1.
</event>
<event>
 5    1  0.1680526E-003  0.9118800E+02  0.7818608E-02  0.1130116E+00
         25   -1    0    0    0    0  0.00000000000E+00  0.00000000000E+00  0.99999998245E-14  0.12500000000E+03  0.12500000000E+03 0.  0.
        -13    1    3    3    0    0  0.19480089246E+02  0.22797400535E+02 -0.10167182566E+02  0.31663513916E+02  0.10566000000E+00 0. -1.
         23    2    1    0    0    0 -0.15920284919E+02 -0.24676807751E+02  0.96137766794E+01  0.94099757044E+02  0.88881602490E+02 0.  0.
         13    1    3    3    0    0 -0.35400374164E+02 -0.47474208285E+02  0.19780959245E+02  0.62436243128E+02  0.10566000000E+00 0.  1.
         22    1    1    0    0    0  0.15920284919E+02  0.24676807751E+02 -0.96137766794E+01  0.30900242956E+02  0.00000000000E+00 0.  1.
</event>
<event>
 5    1  0.1680526E-003  0.9118800E+02  0.7818608E-02  0.1130116E+00
         25   -1    0    0    0    0  0.00000000000E+00  0.00000000000E+00  0.99999998245E-14  0.12500000000E+03  0.12500000000E+03 0.  0.
        -13    1    3    3    0    0 -0.14107911552E+02  0.20939374134E+02  0.56301048201E+02  0.61703401447E+02  0.10566000000E+00 0. -1.
         23    2    1    0    0    0 -0.81930418375E+01  0.27996457364E+01  0.26793600645E+02  0.96842212688E+02  0.92658260138E+02 0.  0.
         13    1    3    3    0    0  0.59148697149E+01 -0.18139728398E+02 -0.29507447556E+02  0.35138811241E+02  0.10566000000E+00 0.  1.
         22    1    1    0    0    0  0.81930418375E+01 -0.27996457364E+01 -0.26793600645E+02  0.28157787312E+02  0.00000000000E+00 0. -1.
</event>
<event>
 5    1  0.1680526E-003  0.9118800E+02  0.7818608E-02  0.1130116E+00
         25   -1    0    0    0    0  0.00000000000E+00  0.00000000000E+00  0.99999998245E-14  0.12500000000E+03  0.12500000000E+03 0.  0.
        -13    1    3    3    0    0  0.26436051054E+02 -0.16680931731E+02 -0.13070888658E+02  0.33881817736E+02  0.10566000000E+00 0.  1.
         23    2    1    0    0    0 -0.13833054338E+02  0.13779268875E+02  0.22171648395E+02  0.95456749746E+02  0.90769969905E+02 0.  0.
         13    1    3    3    0    0 -0.40269105392E+02  0.30460200606E+02  0.35242537053E+02  0.61574932010E+02  0.10566000000E+00 0. -1.
         22    1    1    0    0    0  0.13833054338E+02 -0.13779268875E+02 -0.22171648395E+02  0.29543250254E+02  0.00000000000E+00 0. -1.
</event>
<event>
 5    1  0.1680526E-003  0.9118800E+02  0.7818608E-02  0.1130116E+00
         25   -1    0    0    0    0  0.00000000000E+00  0.00000000000E+00  0.99999998245E-14  0.12500000000E+03  0.12500000000E+03 0.  0.
        -13    1    3    3    0    0 -0.14531344166E+02  0.34012337148E+02 -0.12354625941E+02  0.38995473939E+02  0.10566000000E+00 0. -1.
         23    2    1    0    0    0 -0.66611318997E+01 -0.10303700058E+02  0.24781538353E+02  0.97347485535E+02  0.93337406134E+02 0.  0.
         13    1    3    3    0    0  0.78702122659E+01 -0.44316037207E+02  0.37136164294E+02  0.58352011596E+02  0.10566000000E+00 0.  1.
         22    1    1    0    0    0  0.66611318997E+01  0.10303700058E+02 -0.24781538353E+02  0.27652514465E+02  0.00000000000E+00 0.  1.
</event>
<event>
 5    1  0.1680526E-003  0.9118800E+02  0.7818608E-02  0.1130116E+00
         25   -1    0    0    0    0  0.00000000000E+00  0.00000000000E+00  0.99999998245E-14  0.12500000000E+03  0.12500000000E+03 0.  0.
        -13    1    3    3    0    0  0.16614260209E+01 -0.42367954324E+02  0.90956066053E+01  0.43365252375E+02  0.10566000000E+00 0. -1.
         23    2    1    0    0    0  0.97258261572E+01  0.10965046160E+02  0.21753113151E+02  0.98769829137E+02  0.95223197197E+02 0.  0.
         13    1    3    3    0    0  0.80644001363E+01  0.53333000484E+02  0.12657506545E+02  0.55404576762E+02  0.10566000000E+00 0.  1.
         22    1    1    0    0    0 -0.97258261572E+01 -0.10965046160E+02 -0.21753113151E+02  0.26230170863E+02  0.00000000000E+00 0.  1.
</event>
<event>
 5    1  0.1680526E-003  0.9118800E+02  0.7818608E-02  0.1130116E+00
         25   -1    0    0    0    0  0.00000000000E+00  0.00000000000E+00  0.99999998245E-14  0.12500000000E+03  0.12500000000E+03 0.  0.
        -13    1    3    3    0    0  0.25115607712E+02 -0.18595400419E+02 -0.49874013658E+02  0.58855849920E+02  0.10566000000E+00 0.  1.
         23    2    1    0    0    0  0.22479242318E+02  0.12958626482E+01 -0.19760463192E+02  0.95042171295E+02  0.90197243992E+02 0.  0.
         13    1    3    3    0    0 -0.26363653944E+01  0.19891263067E+02  0.30113550466E+02  0.36186321374E+02  0.10566000000E+00 0. -1.
         22    1    1    0    0    0 -0.22479242318E+02 -0.12958626482E+01  0.19760463192E+02  0.29957828705E+02  0.00000000000E+00 0.  1.
</event>
<event>
 5    1  0.1680526E-003  0.9118800E+02  0.7818608E-02  0.1130116E+00
         25   -1    0    0    0    0  0.00000000000E+00  0.00000000000E+00  0.99999998245E-14  0.12500000000E+03  0.12500000000E+03 0.  0.
        -13    1    3    3    0    0  0.17428477868E+02 -0.36827305109E+02 -0.24057270963E+02  0.47315596716E+02  0.10566000000E+00 0.  1.
         23    2    1    0    0    0  0.23685664510E+02 -0.68472691786E+01  0.14376254335E+02  0.96459283695E+02  0.92140224244E+02 0.  0.
         13    1    3    3    0    0  0.62571866424E+01  0.29980035931E+02  0.38433525297E+02  0.49143686979E+02  0.10566000000E+00 0. -1.
         22    1    1    0    0    0 -0.23685664510E+02  0.68472691786E+01 -0.14376254335E+02  0.28540716305E+02  0.00000000000E+00 0.  1.
</event>
<event>
 5    1  0.1680526E-003  0.9118800E+02  0.7818608E-02  0.1130116E+00
         25   -1    0    0    0    0  0.00000000000E+00  0.00000000000E+00  0.99999998245E-14  0.12500000000E+03  0.12500000000E+03 0.  0.
        -13    1    3    3    0    0  0.30011201542E+02 -0.33919297420E+02  0.72492005613E+00  0.45296000139E+02  0.10566000000E+00 0. -1.
         23    2    1    0    0    0  0.20083251230E+02  0.13950176503E+02  0.15108300739E+02  0.96256215357E+02  0.91864322994E+02 0.  0.
         13    1    3    3    0    0 -0.99279503127E+01  0.47869473923E+02  0.14383380683E+02  0.50960215217E+02  0.10566000000E+00 0.  1.
         22    1    1    0    0    0 -0.20083251230E+02 -0.13950176503E+02 -0.15108300739E+02  0.28743784643E+02  0.00000000000E+00 0.  1.
</event>
<event>
 5    1  0.1680526E-003  0.9118800E+02  0.7818608E-02  0.1130116E+00
         25   -1    0    0    0    0  0.00000000000E+00  0.00000000000E+00  0.99999998245E-14  0.12500000000E+03  0.12500000000E+03 0.  0.
        -13    1    3    3    0    0 -0.76100004390E+01 -0.35538384985E+02  0.32876194099E+01  0.36492581704E+02  0.10566000000E+00 0. -1.
         23    2    1    0    0    0 -0.16394479469E+02  0.21918267609E+02  0.11719244079E+02  0.95225344774E+02  0.90450739043E+02 0.  0.
         13    1    3    3    0    0 -0.87844790304E+01  0.57456652594E+02  0.84316246686E+01  0.58732763069E+02  0.10566000000E+00 0.  1.
         22    1    1    0    0    0  0.16394479469E+02 -0.21918267609E+02 -0.11719244079E+02  0.29774655226E+02  0.00000000000E+00 0.  1.
</event>
<event>
 5    1  0.1680526E-003  0.9118800E+02  0.7818608E-02  0.1130116E+00
         25   -1    0    0    0    0  0.00000000000E+00  0.00000000000E+00  0.99999998245E-14  0.12500000000E+03  0.12500000000E+03 0.  0.
        -13    1    3    3    0    0  0.41362183105E+02 -0.36456341487E+02  0.18868142720E+02  0.58274462670E+02  0.10566000000E+00 0. -1.
         23    2    1    0    0    0  0.95828753412E+01 -0.17681652403E+02  0.21846985231E+02  0.95305503958E+02  0.90561448694E+02 0.  0.
         13    1    3    3    0    0 -0.31779307764E+02  0.18774689084E+02  0.29788425107E+01  0.37031041288E+02  0.10566000000E+00 0.  1.
         22    1    1    0    0    0 -0.95828753412E+01  0.17681652403E+02 -0.21846985231E+02  0.29694496042E+02  0.00000000000E+00 0. -1.
</event>
<event>
 5    1  0.1680526E-003  0.9118800E+02  0.7818608E-02  0.1130116E+00
         25   -1    0    0    0    0  0.00000000000E+00  0.00000000000E+00  0.99999998245E-14  0.12500000000E+03  0.12500000000E+03 0.  0.
        -13    1    3    3    0    0  0.17398285461E+02 -0.12471763081E+01  0.33795978526E+02  0.38032027481E+02  0.10566000000E+00 0.  1.
         23    2    1    0    0    0  0.13121046438E+02 -0.16509990110E+02 -0.21098347152E+02  0.95169111887E+02  0.90372993598E+02 0.  0.
         13    1    3    3    0    0 -0.42772390236E+01 -0.15262813802E+02 -0.54894325678E+02  0.57137084407E+02  0.10566000000E+00 0. -1.
         22    1    1    0    0    0 -0.13121046438E+02  0.16509990110E+02  0.21098347152E+02  0.29830888113E+02  0.00000000000E+00 0. -1.
</event>
<event>
 5    1  0.1680526E-003  0.9118800E+02  0.7818608E-02  0.1130116E+00
         25   -1    0    0    0    0  0.00000000000E+00  0.00000000000E+00  0.99999998245E-14  0.12500000000E+03  0.12500000000E+03 0.  0.
        -13    1    3    3    0    0  0.27292863686E+02 -0.34601445182E+02 -0.21050203732E+02  0.48839355627E+02  0.10566000000E+00 0.  1.
         23    2    1    0    0    0  0.21283606795E+02  0.12886359944E+02 -0.11227049661E+02  0.97703538051E+02  0.93813029547E+02 0.  0.
         13    1    3    3    0    0 -0.60092568911E+01  0.47487805126E+02  0.98231540708E+01  0.48864182425E+02  0.10566000000E+00 0. -1.
         22    1    1    0    0    0 -0.21283606795E+02 -0.12886359944E+02  0.11227049661E+02  0.27296461949E+02  0.00000000000E+00 0.  1.
</event>
<event>
 5    1  0.1680526E-003  0.9118800E+02  0.7818608E-02  0.1130116E+00
         25   -1    0    0    0    0  0.00000000000E+00  0.00000000000E+00  0.99999998245E-14  0.12500000000E+03  0.12500000000E+03 0.  0.
        -13    1    3    3    0    0  0.38451521345E+02 -0.40767089504E+02  0.10357532895E+02  0.56989163286E+02  0.10566000000E+00 0.  1.
         23    2    1    0    0    0  0.27518124565E+02 -0.41184892893E+01  0.10572025392E+02  0.95234636664E+02  0.90463579225E+02 0.  0.
         13    1    3    3    0    0 -0.10933396780E+02  0.36648600215E+02  0.21449249732E+00  0.38245473378E+02  0.10566000000E+00 0. -1.
         22    1    1    0    0    0 -0.27518124565E+02  0.41184892893E+01 -0.10572025392E+02  0.29765363336E+02  0.00000000000E+00 0. -1.
</event>
<event>
 5    1  0.1680526E-003  0.9118800E+02  0.7818608E-02  0.1130116E+00
         25   -1    0    0    0    0  0.00000000000E+00  0.00000000000E+00  0.99999998245E-14  0.12500000000E+03  0.12500000000E+03 0.  0.
        -13    1    3    3    0    0 -0.51140209185E+01 -0.24292662366E+02 -0.49710390338E+02  0.55564563585E+02  0.10566000000E+00 0.  1.
         23    2    1    0    0    0 -0.34233397228E+01 -0.27653280154E+02 -0.10087339468E+02  0.95365938927E+02  0.90644827386E+02 0.  0.
         13    1    3    3    0    0  0.16906811957E+01 -0.33606177872E+01  0.39623050870E+02  0.39801375342E+02  0.10566000000E+00 0. -1.
         22    1    1    0    0    0  0.34233397228E+01  0.27653280154E+02  0.10087339468E+02  0.29634061073E+02  0.00000000000E+00 0.  1.
</event>
<event>
 5    1  0.1680526E-003  0.9118800E+02  0.7818608E-02  0.1130116E+00
         25   -1    0    0    0    0  0.00000000000E+00  0.00000000000E+00  0.99999998245E-14  0.12500000000E+03  0.12500000000E+03 0.  0.
        -13    1    3    3    0    0 -0.67973349685E+01 -0.17324070161E+02  0.35499425628E+02  0.40081760859E+02  0.10566000000E+00 0. -1.
         23    2    1    0    0    0  0.12809899668E+02  0.14733341566E+02 -0.13080626412E+02  0.10149962403E+03  0.98741612345E+02 0.  0.
         13    1    3    3    0    0  0.19607234637E+02  0.32057411726E+02 -0.48580052040E+02  0.61417863175E+02  0.10566000000E+00 0.  1.
         22    1    1    0    0    0 -0.12809899668E+02 -0.14733341566E+02  0.13080626412E+02  0.23500375966E+02  0.00000000000E+00 0.  1.
</event>
<event>
 5    1  0.1680526E-003  0.9118800E+02  0.7818608E-02  0.1130116E+00
         25   -1    0    0    0    0  0.00000000000E+00  0.00000000000E+00  0.99999998245E-14  0.12500000000E+03  0.12500000000E+03 0.  0.
        -13    1    3    3    0    0 -0.38587860946E+02 -0.85583259339E+01  0.25527560149E+02  0.47052475454E+02  0.10566000000E+00 0.  1.
         23    2    1    0    0    0 -0.84664511907E+01  0.26145734384E+02  0.67013765736E+01  0.96712393700E+02  0.92482962890E+02 0.  0.
         13    1    3    3    0    0  0.30121409755E+02  0.34704060317E+02 -0.18826183575E+02  0.49659918246E+02  0.10566000000E+00 0. -1.
         22    1    1    0    0    0  0.84664511907E+01 -0.26145734384E+02 -0.67013765736E+01  0.28287606300E+02  0.00000000000E+00 0. -1.
</event>
<event>
 5    1  0.1680526E-003  0.9118800E+02  0.7818608E-02  0.1130116E+00
         25   -1    0    0    0    0  0.00000000000E+00  0.00000000000E+00  0.99999998245E-14  0.12500000000E+03  0.12500000000E+03 0.  0.
        -13    1    3    3    0    0 -0.19329199526E+02 -0.16619028687E+02 -0.54909195759E+02  0.60537930355E+02  0.10566000000E+00 0. -1.
         23    2    1    0    0    0 -0.16015966268E+02 -0.15434737095E+02 -0.21726336293E+02  0.93906978702E+02  0.88610070960E+02 0.  0.
         13    1    3    3    0    0  0.33132332574E+01  0.11842915916E+01  0.33182859466E+02  0.33369048347E+02  0.10566000000E+00 0.  1.
         22    1    1    0    0    0  0.16015966268E+02  0.15434737095E+02  0.21726336293E+02  0.31093021298E+02  0.00000000000E+00 0. -1.
</event>
<event>
 5    1  0.1680526E-003  0.9118800E+02  0.7818608E-02  0.1130116E+00
         25   -1    0    0    0    0  0.00000000000E+00  0.00000000000E+00  0.99999998245E-14  0.12500000000E+03  0.12500000000E+03 0.  0.
        -13    1    3    3    0    0 -0.62760049880E+00 -0.46901387644E+02  0.98781089976E-01  0.46905809523E+02  0.10566000000E+00 0. -1.
         23    2    1    0    0    0 -0.12466502458E+02 -0.72190355619E+01 -0.25587355177E+02  0.95636061181E+02  0.91016566049E+02 0.  0.
         13    1    3    3    0    0 -0.11838901959E+02  0.39682352082E+02 -0.25686136267E+02  0.48730251658E+02  0.10566000000E+00 0.  1.
         22    1    1    0    0    0  0.12466502458E+02  0.72190355619E+01  0.25587355177E+02  0.29363938819E+02  0.00000000000E+00 0.  1.
</event>
<event>
 5    1  0.1680526E-003  0.9118800E+02  0.7818608E-02  0.1130116E+00
         25   -1    0    0    0    0  0.00000000000E+00  0.00000000000E+00  0.99999998245E-14  0.12500000000E+03  0.12500000000E+03 0.  0.
        -13    1    3    3    0    0 -0.11976632257E+02 -0.38610512216E+02  0.35132735254E+02  0.53558674594E+02  0.10566000000E+00 0. -1.
         23    2    1    0    0    0 -0.37064082396E+00 -0.10565444216E+02  0.39397509933E+02  0.84208704666E+02  0.73669370612E+02 0.  0.
         13    1    3    3    0    0  0.11605991433E+02  0.28045068000E+02  0.42647746795E+01  0.30650030072E+02  0.10566000000E+00 0.  1.
         22    1    1    0    0    0  0.37064082396E+00  0.10565444216E+02 -0.39397509933E+02  0.40791295334E+02  0.00000000000E+00 0. -1.
</event>
<event>
 5    1  0.1680526E-003  0.9118800E+02  0.7818608E-02  0.1130116E+00
         25   -1    0    0    0    0  0.00000000000E+00  0.00000000000E+00  0.99999998245E-14  0.12500000000E+03  0.12500000000E+03 0.  0.
        -13    1    3    3    0    0  0.25976062148E+02 -0.39954621188E+02 -0.17617700204E+02  0.50808681182E+02  0.10566000000E+00 0.  1.
         23    2    1    0    0    0  0.26413298288E+02  0.36021143755E+01 -0.14919441493E+02  0.94451230976E+02  0.89374536329E+02 0.  0.
         13    1    3    3    0    0  0.43723613970E+00  0.43556735563E+02  0.26982587104E+01  0.43642549794E+02  0.10566000000E+00 0. -1.
         22    1    1    0    0    0 -0.26413298288E+02 -0.36021143755E+01  0.14919441493E+02  0.30548769024E+02  0.00000000000E+00 0.  1.
</event>
<event>
 5    1  0.1680526E-003  0.9118800E+02  0.7818608E-02  0.1130116E+00
         25   -1    0    0    0    0  0.00000000000E+00  0.00000000000E+00  0.99999998245E-14  0.12500000000E+03  0.12500000000E+03 0.  0.
        -13    1    3    3    0    0 -0.13992210211E+02 -0.28408258445E+02  0.19835624525E+02  0.37366753388E+02  0.10566000000E+00 0.  1.
         23    2    1    0    0    0  0.25801428860E+02  0.10703868299E+02 -0.13087727043E+01  0.97035747574E+02  0.92918980265E+02 0.  0.
         13    1    3    3    0    0  0.39793639071E+02  0.39112126744E+02 -0.21144397229E+02  0.59668994186E+02  0.10566000000E+00 0. -1.
         22    1    1    0    0    0 -0.25801428860E+02 -0.10703868299E+02  0.13087727043E+01  0.27964252426E+02  0.00000000000E+00 0. -1.
</event>
<event>
 5    1  0.1680526E-003  0.9118800E+02  0.7818608E-02  0.1130116E+00
         25   -1    0    0    0    0  0.00000000000E+00  0.00000000000E+00  0.99999998245E-14  0.12500000000E+03  0.12500000000E+03 0.  0.
        -13    1    3    3    0    0  0.36333592803E+02  0.19631256525E+02 -0.70265292234E+01  0.41891520332E+02  0.10566000000E+00 0.  1.
         23    2    1    0    0    0  0.18057738129E+02 -0.27031586665E+02 -0.55051869985E+01  0.92028866142E+02  0.85919826207E+02 0.  0.
         13    1    3    3    0    0 -0.18275854674E+02 -0.46662843191E+02  0.15213422249E+01  0.50137345810E+02  0.10566000000E+00 0. -1.
         22    1    1    0    0    0 -0.18057738129E+02  0.27031586665E+02  0.55051869985E+01  0.32971133858E+02  0.00000000000E+00 0. -1.
</event>
<event>
 5    1  0.1680526E-003  0.9118800E+02  0.7818608E-02  0.1130116E+00
         25   -1    0    0    0    0  0.00000000000E+00  0.00000000000E+00  0.99999998245E-14  0.12500000000E+03  0.12500000000E+03 0.  0.
        -13    1    3    3    0    0  0.34803350427E+01 -0.19910296638E+01 -0.49866579797E+02  0.50027631123E+02  0.10566000000E+00 0. -1.
         23    2    1    0    0    0 -0.44444935602E+01  0.26245944347E+02 -0.22385344046E+02  0.90219161227E+02  0.83245362074E+02 0.  0.
         13    1    3    3    0    0 -0.79248286029E+01  0.28236974011E+02  0.27481235751E+02  0.40191530104E+02  0.10566000000E+00 0.  1.
         22    1    1    0    0    0  0.44444935602E+01 -0.26245944347E+02  0.22385344046E+02  0.34780838773E+02  0.00000000000E+00 0.  1.
</event>
<event>
 5    1  0.1680526E-003  0.9118800E+02  0.7818608E-02  0.1130116E+00
         25   -1    0    0    0    0  0.00000000000E+00  0.00000000000E+00  0.99999998245E-14  0.12500000000E+03  0.12500000000E+03 0.  0.
        -13    1    3    3    0    0  0.12020420378E+02 -0.18387951793E+02  0.39841828868E+02  0.45497140226E+02  0.10566000000E+00 0.  1.
         23    2    1    0    0    0 -0.26634795114E+02 -0.26652049090E+01  0.11982926637E+02  0.95672433467E+02  0.91066505186E+02 0.  0.
         13    1    3    3    0    0 -0.38655215491E+02  0.15722746884E+02 -0.27858902231E+02  0.50175293241E+02  0.10566000000E+00 0. -1.
         22    1    1    0    0    0  0.26634795114E+02  0.26652049090E+01 -0.11982926637E+02  0.29327566533E+02  0.00000000000E+00 0. -1.
</event>
<event>
 5    1  0.1680526E-003  0.9118800E+02  0.7818608E-02  0.1130116E+00
         25   -1    0    0    0    0  0.00000000000E+00  0.00000000000E+00  0.99999998245E-14  0.12500000000E+03  0.12500000000E+03 0.  0.
        -13    1    3    3    0    0  0.74702405638E+00  0.37016963384E+02  0.43015502076E+01  0.37273692081E+02  0.10566000000E+00 0. -1.
         23    2    1    0    0    0 -0.21175925417E+02 -0.17292715026E+02  0.94644895837E+01  0.96068453665E+02  0.91608478954E+02 0.  0.
         13    1    3    3    0    0 -0.21922949473E+02 -0.54309678411E+02  0.51629393760E+01  0.58794761584E+02  0.10566000000E+00 0.  1.
         22    1    1    0    0    0  0.21175925417E+02  0.17292715026E+02 -0.94644895837E+01  0.28931546335E+02  0.00000000000E+00 0.  1.
</event>
<event>
 5    1  0.1680526E-003  0.9118800E+02  0.7818608E-02  0.1130116E+00
         25   -1    0    0    0    0  0.00000000000E+00  0.00000000000E+00  0.99999998245E-14  0.12500000000E+03  0.12500000000E+03 0.  0.
        -13    1    3    3    0    0 -0.18813933420E+02  0.11915544676E+02  0.48783610036E+02  0.53626449331E+02  0.10566000000E+00 0.  1.
         23    2    1    0    0    0  0.95126311600E+00 -0.16786722784E+02  0.20341320987E+02  0.98609314089E+02  0.95012254590E+02 0.  0.
         13    1    3    3    0    0  0.19765196536E+02 -0.28702267460E+02 -0.28442289050E+02  0.44982864758E+02  0.10566000000E+00 0. -1.
         22    1    1    0    0    0 -0.95126311600E+00  0.16786722784E+02 -0.20341320987E+02  0.26390685911E+02  0.00000000000E+00 0.  1.
</event>
<event>
 5    1  0.1680526E-003  0.9118800E+02  0.7818608E-02  0.1130116E+00
         25   -1    0    0    0    0  0.00000000000E+00  0.00000000000E+00  0.99999998245E-14  0.12500000000E+03  0.12500000000E+03 0.  0.
        -13    1    3    3    0    0  0.64258185291E+00 -0.35191509242E+02 -0.18150743314E+02  0.39601968147E+02  0.10566000000E+00 0.  1.
         23    2    1    0    0    0 -0.22212893773E+02  0.98415863263E+01  0.11452973995E+02  0.98140363283E+02  0.94393277413E+02 0.  0.
         13    1    3    3    0    0 -0.22855475626E+02  0.45033095569E+02  0.29603717309E+02  0.58538395137E+02  0.10566000000E+00 0. -1.
         22    1    1    0    0    0  0.22212893773E+02 -0.98415863263E+01 -0.11452973995E+02  0.26859636717E+02  0.00000000000E+00 0. -1.
</event>
<event>
 5    1  0.1680526E-003  0.9118800E+02  0.7818608E-02  0.1130116E+00
         25   -1    0    0    0    0  0.00000000000E+00  0.00000000000E+00  0.99999998245E-14  0.12500000000E+03  0.12500000000E+03 0.  0.
        -13    1    3    3    0    0  0.18658967143E+02 -0.14648056579E+02  0.50721336767E+02  0.55994533517E+02  0.10566000000E+00 0. -1.
         23    2    1    0    0    0  0.12715722365E+02 -0.18787557871E+02  0.56813662679E+01  0.10161325485E+03  0.98885356411E+02 0.  0.
         13    1    3    3    0    0 -0.59432447780E+01 -0.41395012923E+01 -0.45039970499E+02  0.45618721333E+02  0.10566000000E+00 0.  1.
         22    1    1    0    0    0 -0.12715722365E+02  0.18787557871E+02 -0.56813662679E+01  0.23386745150E+02  0.00000000000E+00 0. -1.
</event>
<event>
 5    1  0.1680526E-003  0.9118800E+02  0.7818608E-02  0.1130116E+00
         25   -1    0    0    0    0  0.00000000000E+00  0.00000000000E+00  0.99999998245E-14  0.12500000000E+03  0.12500000000E+03 0.  0.
        -13    1    3    3    0    0 -0.11755756433E+02 -0.45308027200E+02 -0.39407839726E+02  0.61188267944E+02  0.10566000000E+00 0.  1.
         23    2    1    0    0    0 -0.12693772581E+02 -0.15044101287E+02 -0.18523938918E+02  0.97970513158E+02  0.94168085302E+02 0.  0.
         13    1    3    3    0    0 -0.93801614860E+00  0.30263925913E+02  0.20883900808E+02  0.36782245214E+02  0.10566000000E+00 0. -1.
         22    1    1    0    0    0  0.12693772581E+02  0.15044101287E+02  0.18523938918E+02  0.27029486842E+02  0.00000000000E+00 0.  1.
</event>
<event>
 5    1  0.1680526E-003  0.9118800E+02  0.7818608E-02  0.1130116E+00
         25   -1    0    0    0    0  0.00000000000E+00  0.00000000000E+00  0.99999998245E-14  0.12500000000E+03  0.12500000000E+03 0.  0.
        -13    1    3    3    0    0  0.15931718223E+02  0.75613510152E+01  0.28934578020E+02  0.33885316052E+02  0.10566000000E+00 0. -1.
         23    2    1    0    0    0  0.91052359747E+01 -0.34004099260E+02 -0.68282787214E+01  0.89141814338E+02  0.81611602022E+02 0.  0.
         13    1    3    3    0    0 -0.68264822485E+01 -0.41565450275E+02 -0.35762856742E+02  0.55256498286E+02  0.10566000000E+00 0.  1.
         22    1    1    0    0    0 -0.91052359747E+01  0.34004099260E+02  0.68282787214E+01  0.35858185662E+02  0.00000000000E+00 0.  1.
</event>
<event>
 5    1  0.1680526E-003  0.9118800E+02  0.7818608E-02  0.1130116E+00
         25   -1    0    0    0    0  0.00000000000E+00  0.00000000000E+00  0.99999998245E-14  0.12500000000E+03  0.12500000000E+03 0.  0.
        -13    1    3    3    0    0  0.26729612453E+02 -0.25887789093E+02 -0.14185022641E+01  0.37238060083E+02  0.10566000000E+00 0.  1.
         23    2    1    0    0    0 -0.42848903262E+01  0.11416759899E+02  0.28337623123E+02  0.94149982562E+02  0.88952209869E+02 0.  0.
         13    1    3    3    0    0 -0.31014502780E+02  0.37304548992E+02  0.29756125387E+02  0.56911922479E+02  0.10566000000E+00 0. -1.
         22    1    1    0    0    0  0.42848903262E+01 -0.11416759899E+02 -0.28337623123E+02  0.30850017438E+02  0.00000000000E+00 0. -1.
</event>
<event>
 5    1  0.1680526E-003  0.9118800E+02  0.7818608E-02  0.1130116E+00
         25   -1    0    0    0    0  0.00000000000E+00  0.00000000000E+00  0.99999998245E-14  0.12500000000E+03  0.12500000000E+03 0.  0.
        -13    1    3    3    0    0 -0.14608751116E+02  0.40755640202E+02  0.81384815464E+00  0.43302555702E+02  0.10566000000E+00 0.  1.
         23    2    1    0    0    0 -0.22722716358E+02 -0.12281453795E+02 -0.86002845338E+01  0.97776465327E+02  0.93910150313E+02 0.  0.
         13    1    3    3    0    0 -0.81139652421E+01 -0.53037093997E+02 -0.94141326884E+01  0.54473909625E+02  0.10566000000E+00 0. -1.
         22    1    1    0    0    0  0.22722716358E+02  0.12281453795E+02  0.86002845338E+01  0.27223534673E+02  0.00000000000E+00 0. -1.
</event>
<event>
 5    1  0.1680526E-003  0.9118800E+02  0.7818608E-02  0.1130116E+00
         25   -1    0    0    0    0  0.00000000000E+00  0.00000000000E+00  0.99999998245E-14  0.12500000000E+03  0.12500000000E+03 0.  0.
        -13    1    3    3    0    0 -0.13947126348E+02 -0.12109655105E+02  0.39414185546E+02  0.43527637960E+02  0.10566000000E+00 0.  1.
         23    2    1    0    0    0 -0.26175532482E+02  0.14757808805E+02 -0.25591981703E+01  0.94842067102E+02  0.89919501642E+02 0.  0.
         13    1    3    3    0    0 -0.12228406133E+02  0.26867463910E+02 -0.41973383716E+02  0.51314429142E+02  0.10566000000E+00 0. -1.
         22    1    1    0    0    0  0.26175532482E+02 -0.14757808805E+02  0.25591981703E+01  0.30157932898E+02  0.00000000000E+00 0.  1.
</event>
<event>
 5    1  0.1680526E-003  0.9118800E+02  0.7818608E-02  0.1130116E+00
         25   -1    0    0    0    0  0.00000000000E+00  0.00000000000E+00  0.99999998245E-14  0.12500000000E+03  0.12500000000E+03 0.  0.
        -13    1    3    3    0    0  0.13318937926E+02  0.36391078887E+02 -0.24361988114E+02  0.45773598929E+02  0.10566000000E+00 0.  1.
         23    2    1    0    0    0  0.96005196844E+01 -0.12109044641E+02 -0.26345776957E+02  0.94456606217E+02  0.89382053871E+02 0.  0.
         13    1    3    3    0    0 -0.37184182417E+01 -0.48500123527E+02 -0.19837888426E+01  0.48683007288E+02  0.10566000000E+00 0. -1.
         22    1    1    0    0    0 -0.96005196844E+01  0.12109044641E+02  0.26345776957E+02  0.30543393783E+02  0.00000000000E+00 0. -1.
</event>
<event>
 5    1  0.1680526E-003  0.9118800E+02  0.7818608E-02  0.1130116E+00
         25   -1    0    0    0    0  0.00000000000E+00  0.00000000000E+00  0.99999998245E-14  0.12500000000E+03  0.12500000000E+03 0.  0.
        -13    1    3    3    0    0 -0.44673504934E+01 -0.53511369389E+02 -0.17162112005E+02  0.56373514409E+02  0.10566000000E+00 0.  1.
         23    2    1    0    0    0  0.16904115433E+02 -0.21253707163E+02 -0.11614252874E+02  0.95464257982E+02  0.90780308963E+02 0.  0.
         13    1    3    3    0    0  0.21371465927E+02  0.32257662226E+02  0.55478591308E+01  0.39090743573E+02  0.10566000000E+00 0. -1.
         22    1    1    0    0    0 -0.16904115433E+02  0.21253707163E+02  0.11614252874E+02  0.29535742018E+02  0.00000000000E+00 0.  1.
</event>
<event>
 5    1  0.1680526E-003  0.9118800E+02  0.7818608E-02  0.1130116E+00
         25   -1    0    0    0    0  0.00000000000E+00  0.00000000000E+00  0.99999998245E-14  0.12500000000E+03  0.12500000000E+03 0.  0.
        -13    1    3    3    0    0 -0.22159081978E+02 -0.27103474393E+02  0.45824482476E+02  0.57667300930E+02  0.10566000000E+00 0.  1.
         23    2    1    0    0    0 -0.23995405579E+02 -0.12561550472E+02  0.10430386720E+02  0.95976474951E+02  0.91482887677E+02 0.  0.
         13    1    3    3    0    0 -0.18363236003E+01  0.14541923921E+02 -0.35394095757E+02  0.38309174021E+02  0.10566000000E+00 0. -1.
         22    1    1    0    0    0  0.23995405579E+02  0.12561550472E+02 -0.10430386720E+02  0.29023525049E+02  0.00000000000E+00 0.  1.
</event>
<event>
 5    1  0.1680526E-003  0.9118800E+02  0.7818608E-02  0.1130116E+00
         25   -1    0    0    0    0  0.00000000000E+00  0.00000000000E+00  0.99999998245E-14  0.12500000000E+03  0.12500000000E+03 0.  0.
        -13    1    3    3    0    0  0.15034701528E+02  0.20361299874E+02  0.30858284705E+02  0.39910771498E+02  0.10566000000E+00 0. -1.
         23    2    1    0    0    0 -0.26451028636E+02  0.16201265520E+02 -0.32948504363E+01  0.93807148900E+02  0.88469131480E+02 0.  0.
         13    1    3    3    0    0 -0.41485730164E+02 -0.41600343533E+01 -0.34153135141E+02  0.53896377402E+02  0.10566000000E+00 0.  1.
         22    1    1    0    0    0  0.26451028636E+02 -0.16201265520E+02  0.32948504363E+01  0.31192851100E+02  0.00000000000E+00 0.  1.
</event>
<event>
 5    1  0.1680526E-003  0.9118800E+02  0.7818608E-02  0.1130116E+00
         25   -1    0    0    0    0  0.00000000000E+00  0.00000000000E+00  0.99999998245E-14  0.12500000000E+03  0.12500000000E+03 0.  0.
        -13    1    3    3    0    0  0.33388347950E+02  0.11057982163E+02  0.11242633056E+02  0.36925177189E+02  0.10566000000E+00 0.  1.
         23    2    1    0    0    0 -0.25227990098E+02  0.13454702751E+02  0.56390467446E+01  0.95857602043E+02  0.91320318171E+02 0.  0.
         13    1    3    3    0    0 -0.58616338048E+02  0.23967205878E+01 -0.56035863117E+01  0.58932424855E+02  0.10566000000E+00 0. -1.
         22    1    1    0    0    0  0.25227990098E+02 -0.13454702751E+02 -0.56390467446E+01  0.29142397957E+02  0.00000000000E+00 0. -1.
</event>
<event>
 5    1  0.1680526E-003  0.9118800E+02  0.7818608E-02  0.1130116E+00
         25   -1    0    0    0    0  0.00000000000E+00  0.00000000000E+00  0.99999998245E-14  0.12500000000E+03  0.12500000000E+03 0.  0.
        -13    1    3    3    0    0 -0.21073004713E+01 -0.45042154831E+02 -0.74438818036E+01  0.45701848622E+02  0.10566000000E+00 0.  1.
         23    2    1    0    0    0 -0.17021606889E+02 -0.69158136275E+01  0.22152919111E+02  0.96219530852E+02  0.91814392734E+02 0.  0.
         13    1    3    3    0    0 -0.14914306418E+02  0.38126341204E+02  0.29596800915E+02  0.50517682230E+02  0.10566000000E+00 0. -1.
         22    1    1    0    0    0  0.17021606889E+02  0.69158136275E+01 -0.22152919111E+02  0.28780469148E+02  0.00000000000E+00 0. -1.
</event>
<event>
 5    1  0.1680526E-003  0.9118800E+02  0.7818608E-02  0.1130116E+00
         25   -1    0    0    0    0  0.00000000000E+00  0.00000000000E+00  0.99999998245E-14  0.12500000000E+03  0.12500000000E+03 0.  0.
        -13    1    3    3    0    0  0.38789767678E+02 -0.23107020037E+02 -0.58635937456E+01  0.45529917056E+02  0.10566000000E+00 0.  1.
         23    2    1    0    0    0  0.11700446751E+02  0.28645231350E+01  0.27013447993E+02  0.95422435539E+02  0.90722703249E+02 0.  0.
         13    1    3    3    0    0 -0.27089320927E+02  0.25971543172E+02  0.32877041739E+02  0.49892518483E+02  0.10566000000E+00 0. -1.
         22    1    1    0    0    0 -0.11700446751E+02 -0.28645231350E+01 -0.27013447993E+02  0.29577564461E+02  0.00000000000E+00 0. -1.
</event>
<event>
 5    1  0.1680526E-003  0.9118800E+02  0.7818608E-02  0.1130116E+00
         25   -1    0    0    0    0  0.00000000000E+00  0.00000000000E+00  0.99999998245E-14  0.12500000000E+03  0.12500000000E+03 0.  0.
        -13    1    3    3    0    0  0.23063156445E+02 -0.32546367927E+02  0.64401954372E+01  0.40406218974E+02  0.10566000000E+00 0. -1.
         23    2    1    0    0    0 -0.23506235139E+02 -0.10066308374E+02 -0.13806302020E+02  0.95939930658E+02  0.91432940806E+02 0.  0.
         13    1    3    3    0    0 -0.46569391585E+02  0.22480059553E+02 -0.20246497457E+02  0.55533711684E+02  0.10566000000E+00 0.  1.
         22    1    1    0    0    0  0.23506235139E+02  0.10066308374E+02  0.13806302020E+02  0.29060069342E+02  0.00000000000E+00 0.  1.
</event>
<event>
 5    1  0.1680526E-003  0.9118800E+02  0.7818608E-02  0.1130116E+00
         25   -1    0    0    0    0  0.00000000000E+00  0.00000000000E+00  0.99999998245E-14  0.12500000000E+03  0.12500000000E+03 0.  0.
        -13    1    3    3    0    0  0.14307290667E+02 -0.16182799767E+02 -0.55023019698E+02  0.59111127846E+02  0.10566000000E+00 0. -1.
         23    2    1    0    0    0  0.12295428428E+02 -0.19067763211E+02 -0.18715790863E+02  0.95588471958E+02  0.90951184651E+02 0.  0.
         13    1    3    3    0    0 -0.20118622383E+01 -0.28849634440E+01  0.36307228835E+02  0.36477344112E+02  0.10566000000E+00 0.  1.
         22    1    1    0    0    0 -0.12295428428E+02  0.19067763211E+02  0.18715790863E+02  0.29411528042E+02  0.00000000000E+00 0. -1.
</event>
<event>
 5    1  0.1680526E-003  0.9118800E+02  0.7818608E-02  0.1130116E+00
         25   -1    0    0    0    0  0.00000000000E+00  0.00000000000E+00  0.99999998245E-14  0.12500000000E+03  0.12500000000E+03 0.  0.
        -13    1    3    3    0    0 -0.11704952983E+02 -0.11156931031E+02 -0.47704143786E+02  0.50370423194E+02  0.10566000000E+00 0.  1.
         23    2    1    0    0    0  0.95752065885E+01 -0.27890393861E+02 -0.18514407622E+02  0.90181298983E+02  0.83188489262E+02 0.  0.
         13    1    3    3    0    0  0.21280159571E+02 -0.16733462830E+02  0.29189736164E+02  0.39810875789E+02  0.10566000000E+00 0. -1.
         22    1    1    0    0    0 -0.95752065885E+01  0.27890393861E+02  0.18514407622E+02  0.34818701017E+02  0.00000000000E+00 0.  1.
</event>
<event>
 5    1  0.1680526E-003  0.9118800E+02  0.7818608E-02  0.1130116E+00
         25   -1    0    0    0    0  0.00000000000E+00  0.00000000000E+00  0.99999998245E-14  0.12500000000E+03  0.12500000000E+03 0.  0.
        -13    1    3    3    0    0  0.15575287848E+02 -0.33566361747E+02 -0.14234736385E+02  0.39647561292E+02  0.10566000000E+00 0.  1.
         23    2    1    0    0    0 -0.24683939813E+02 -0.89548263583E+01  0.14609242367E+02  0.94951443257E+02  0.90071420629E+02 0.  0.
         13    1    3    3    0    0 -0.40259227661E+02  0.24611535388E+02  0.28843978752E+02  0.55303881964E+02  0.10566000000E+00 0. -1.
         22    1    1    0    0    0  0.24683939813E+02  0.89548263583E+01 -0.14609242367E+02  0.30048556743E+02  0.00000000000E+00 0. -1.
</event>
<event>
 5    1  0.1680526E-003  0.9118800E+02  0.7818608E-02  0.1130116E+00
         25   -1    0    0    0    0  0.00000000000E+00  0.00000000000E+00  0.99999998245E-14  0.12500000000E+03  0.12500000000E+03 0.  0.
        -13    1    3    3    0    0  0.15473999177E+02  0.45272359012E+02 -0.12329242479E+02  0.49407008868E+02  0.10566000000E+00 0. -1.
         23    2    1    0    0    0  0.26201975947E+02  0.11061733357E+02  0.13422846434E+02  0.93550384823E+02  0.88105596903E+02 0.  0.
         13    1    3    3    0    0  0.10727976770E+02 -0.34210625655E+02  0.25752088914E+02  0.44143375955E+02  0.10566000000E+00 0.  1.
         22    1    1    0    0    0 -0.26201975947E+02 -0.11061733357E+02 -0.13422846434E+02  0.31449615177E+02  0.00000000000E+00 0. -1.
</event>
<event>
 5    1  0.1680526E-003  0.9118800E+02  0.7818608E-02  0.1130116E+00
         25   -1    0    0    0    0  0.00000000000E+00  0.00000000000E+00  0.99999998245E-14  0.12500000000E+03  0.12500000000E+03 0.  0.
        -13    1    3    3    0    0 -0.99484498814E+01  0.37320451485E+02 -0.28184887648E+02  0.47814085894E+02  0.10566000000E+00 0.  1.
         23    2    1    0    0    0 -0.87936367098E+01  0.87358699385E+01  0.18597457377E+02  0.10265030445E+03  0.10018770440E+03 0.  0.
         13    1    3    3    0    0  0.11548131716E+01 -0.28584581546E+02  0.46782345026E+02  0.54836218558E+02  0.10566000000E+00 0. -1.
         22    1    1    0    0    0  0.87936367098E+01 -0.87358699385E+01 -0.18597457377E+02  0.22349695548E+02  0.00000000000E+00 0. -1.
</event>
<event>
 5    1  0.1680526E-003  0.9118800E+02  0.7818608E-02  0.1130116E+00
         25   -1    0    0    0    0  0.00000000000E+00  0.00000000000E+00  0.99999998245E-14  0.12500000000E+03  0.12500000000E+03 0.  0.
        -13    1    3    3    0    0  0.21232384712E+02 -0.42713112288E+02  0.31466406997E+02  0.57143416551E+02  0.10566000000E+00 0.  1.
         23    2    1    0    0    0  0.76956167176E+01 -0.27515524656E+02 -0.20498111041E+01  0.96355134154E+02  0.91998823572E+02 0.  0.
         13    1    3    3    0    0 -0.13536767994E+02  0.15197587632E+02 -0.33516218101E+02  0.39211717603E+02  0.10566000000E+00 0. -1.
         22    1    1    0    0    0 -0.76956167176E+01  0.27515524656E+02  0.20498111041E+01  0.28644865846E+02  0.00000000000E+00 0.  1.
</event>
<event>
 5    1  0.1680526E-003  0.9118800E+02  0.7818608E-02  0.1130116E+00
         25   -1    0    0    0    0  0.00000000000E+00  0.00000000000E+00  0.99999998245E-14  0.12500000000E+03  0.12500000000E+03 0.  0.
        -13    1    3    3    0    0  0.46765662904E+02  0.13180433528E+02  0.20342765791E+02  0.52674380290E+02  0.10566000000E+00 0. -1.
         23    2    1    0    0    0  0.15589859100E+02 -0.16897353166E+02  0.17535815684E+02  0.96085140802E+02  0.91631245765E+02 0.  0.
         13    1    3    3    0    0 -0.31175803805E+02 -0.30077786694E+02 -0.28069501077E+01  0.43410760512E+02  0.10566000000E+00 0.  1.
         22    1    1    0    0    0 -0.15589859100E+02  0.16897353166E+02 -0.17535815684E+02  0.28914859198E+02  0.00000000000E+00 0. -1.
</event>
<event>
 5    1  0.1680526E-003  0.9118800E+02  0.7818608E-02  0.1130116E+00
         25   -1    0    0    0    0  0.00000000000E+00  0.00000000000E+00  0.99999998245E-14  0.12500000000E+03  0.12500000000E+03 0.  0.
        -13    1    3    3    0    0  0.13162954656E+02 -0.26145573339E+02  0.19665969194E+02  0.35264938521E+02  0.10566000000E+00 0.  1.
         23    2    1    0    0    0 -0.25127174448E+02  0.13518164990E+02 -0.56225261425E+01  0.95918588744E+02  0.91403759146E+02 0.  0.
         13    1    3    3    0    0 -0.38290129104E+02  0.39663738329E+02 -0.25288495336E+02  0.60653650223E+02  0.10566000000E+00 0. -1.
         22    1    1    0    0    0  0.25127174448E+02 -0.13518164990E+02  0.56225261425E+01  0.29081411256E+02  0.00000000000E+00 0. -1.
</event>
<event>
 5    1  0.1680526E-003  0.9118800E+02  0.7818608E-02  0.1130116E+00
         25   -1    0    0    0    0  0.00000000000E+00  0.00000000000E+00  0.99999998245E-14  0.12500000000E+03  0.12500000000E+03 0.  0.
        -13    1    3    3    0    0 -0.33806765625E+02 -0.28192708988E+02  0.99612055764E+01  0.45132726737E+02  0.10566000000E+00 0. -1.
         23    2    1    0    0    0 -0.94871518185E+01  0.14387353499E+02  0.23364331671E+02  0.95967363455E+02  0.91470437103E+02 0.  0.
         13    1    3    3    0    0  0.24319613807E+02  0.42580062487E+02  0.13403126094E+02  0.50834636718E+02  0.10566000000E+00 0.  1.
         22    1    1    0    0    0  0.94871518185E+01 -0.14387353499E+02 -0.23364331671E+02  0.29032636545E+02  0.00000000000E+00 0.  1.
</event>
<event>
 5    1  0.1680526E-003  0.9118800E+02  0.7818608E-02  0.1130116E+00
         25   -1    0    0    0    0  0.00000000000E+00  0.00000000000E+00  0.99999998245E-14  0.12500000000E+03  0.12500000000E+03 0.  0.
        -13    1    3    3    0    0 -0.39573916088E+02 -0.31980634232E+02 -0.19645304785E+02  0.54541772657E+02  0.10566000000E+00 0. -1.
         23    2    1    0    0    0  0.54434965742E-01 -0.27708883860E+02 -0.99170328618E+01  0.95569866655E+02  0.90925610605E+02 0.  0.
         13    1    3    3    0    0  0.39628351054E+02  0.42717503727E+01  0.97282719228E+01  0.41028093998E+02  0.10566000000E+00 0.  1.
         22    1    1    0    0    0 -0.54434965742E-01  0.27708883860E+02  0.99170328618E+01  0.29430133345E+02  0.00000000000E+00 0. -1.
</event>
<event>
 5    1  0.1680526E-003  0.9118800E+02  0.7818608E-02  0.1130116E+00
         25   -1    0    0    0    0  0.00000000000E+00  0.00000000000E+00  0.99999998245E-14  0.12500000000E+03  0.12500000000E+03 0.  0.
        -13    1    3    3    0    0 -0.12518293341E+02  0.26536160947E+02 -0.49179857161E+02  0.57267311970E+02  0.10566000000E+00 0.  1.
         23    2    1    0    0    0 -0.45856300655E+01  0.26659424728E+02 -0.11787139340E+02  0.95492550369E+02  0.90819257827E+02 0.  0.
         13    1    3    3    0    0  0.79326632752E+01  0.12326378079E+00  0.37392717820E+02  0.38225238399E+02  0.10566000000E+00 0. -1.
         22    1    1    0    0    0  0.45856300655E+01 -0.26659424728E+02  0.11787139340E+02  0.29507449631E+02  0.00000000000E+00 0.  1.
</event>
<event>
 5    1  0.1680526E-003  0.9118800E+02  0.7818608E-02  0.1130116E+00
         25   -1    0    0    0    0  0.00000000000E+00  0.00000000000E+00  0.99999998245E-14  0.12500000000E+03  0.12500000000E+03 0.  0.
        -13    1    3    3    0    0  0.21045985375E+02  0.22208638822E+02 -0.11081905188E+02  0.32541925655E+02  0.10566000000E+00 0.  1.
         23    2    1    0    0    0 -0.22509605298E+02 -0.19595160283E+02  0.43161905844E+01  0.94845694530E+02  0.89924544105E+02 0.  0.
         13    1    3    3    0    0 -0.43555590673E+02 -0.41803799105E+02  0.15398095772E+02  0.62303768875E+02  0.10566000000E+00 0. -1.
         22    1    1    0    0    0  0.22509605298E+02  0.19595160283E+02 -0.43161905844E+01  0.30154305470E+02  0.00000000000E+00 0. -1.
</event>
<event>
 5    1  0.1680526E-003  0.9118800E+02  0.7818608E-02  0.1130116E+00
         25   -1    0    0    0    0  0.00000000000E+00  0.00000000000E+00  0.99999998245E-14  0.12500000000E+03  0.12500000000E+03 0.  0.
        -13    1    3    3    0    0  0.67441454719E+01  0.25705430425E+02 -0.20362152848E+02  0.33479562185E+02  0.10566000000E+00 0. -1.
         23    2    1    0    0    0 -0.54211471911E+01 -0.25264418683E+02  0.13476494719E+02  0.95857323421E+02  0.91319936790E+02 0.  0.
         13    1    3    3    0    0 -0.12165292663E+02 -0.50969849108E+02  0.33838647567E+02  0.62377761236E+02  0.10566000000E+00 0.  1.
         22    1    1    0    0    0  0.54211471911E+01  0.25264418683E+02 -0.13476494719E+02  0.29142676579E+02  0.00000000000E+00 0.  1.
</event>
<event>
 5    1  0.1680526E-003  0.9118800E+02  0.7818608E-02  0.1130116E+00
         25   -1    0    0    0    0  0.00000000000E+00  0.00000000000E+00  0.99999998245E-14  0.12500000000E+03  0.12500000000E+03 0.  0.
        -13    1    3    3    0    0  0.80637267673E+01  0.28907878151E+02  0.44742890650E+02  0.53876029329E+02  0.10566000000E+00 0. -1.
         23    2    1    0    0    0  0.19916998746E+02  0.15610032341E+02  0.26831096020E+01  0.99552818901E+02  0.96245543924E+02 0.  0.
         13    1    3    3    0    0  0.11853271979E+02 -0.13297845809E+02 -0.42059781048E+02  0.45676789572E+02  0.10566000000E+00 0.  1.
         22    1    1    0    0    0 -0.19916998746E+02 -0.15610032341E+02 -0.26831096020E+01  0.25447181099E+02  0.00000000000E+00 0. -1.
</event>
<event>
 5    1  0.1680526E-003  0.9118800E+02  0.7818608E-02  0.1130116E+00
         25   -1    0    0    0    0  0.00000000000E+00  0.00000000000E+00  0.99999998245E-14  0.12500000000E+03  0.12500000000E+03 0.  0.
        -13    1    3    3    0    0 -0.41566456704E+02  0.25620654780E+02  0.36277528134E+02  0.60829750006E+02  0.10566000000E+00 0. -1.
         23    2    1    0    0    0 -0.24085046248E+02  0.14577560693E+02  0.82430108736E+01  0.95665004572E+02  0.91056307540E+02 0.  0.
         13    1    3    3    0    0  0.17481410457E+02 -0.11043094086E+02 -0.28034517261E+02  0.34835254565E+02  0.10566000000E+00 0.  1.
         22    1    1    0    0    0  0.24085046248E+02 -0.14577560693E+02 -0.82430108736E+01  0.29334995428E+02  0.00000000000E+00 0. -1.
</event>
<event>
 5    1  0.1680526E-003  0.9118800E+02  0.7818608E-02  0.1130116E+00
         25   -1    0    0    0    0  0.00000000000E+00  0.00000000000E+00  0.99999998245E-14  0.12500000000E+03  0.12500000000E+03 0.  0.
        -13    1    3    3    0    0 -0.29030252776E+02 -0.51192016111E+01  0.19489704851E+02  0.35338669480E+02  0.10566000000E+00 0. -1.
         23    2    1    0    0    0  0.88253272081E+00 -0.32033496213E+02 -0.16171052423E+02  0.89105339114E+02  0.81555715793E+02 0.  0.
         13    1    3    3    0    0  0.29912785497E+02 -0.26914294602E+02 -0.35660757274E+02  0.53766669634E+02  0.10566000000E+00 0.  1.
         22    1    1    0    0    0 -0.88253272081E+00  0.32033496213E+02  0.16171052423E+02  0.35894660886E+02  0.00000000000E+00 0.  1.
</event>
<event>
 5    1  0.1680526E-003  0.9118800E+02  0.7818608E-02  0.1130116E+00
         25   -1    0    0    0    0  0.00000000000E+00  0.00000000000E+00  0.99999998245E-14  0.12500000000E+03  0.12500000000E+03 0.  0.
        -13    1    3    3    0    0  0.17729431566E+02  0.31931377250E+02  0.43734554780E+01  0.36784288406E+02  0.10566000000E+00 0. -1.
         23    2    1    0    0    0  0.26242087800E+01 -0.26676061476E+02  0.67662066270E+01  0.97354380461E+02  0.93346639550E+02 0.  0.
         13    1    3    3    0    0 -0.15105222786E+02 -0.58607438726E+02  0.23927511490E+01  0.60570092054E+02  0.10566000000E+00 0.  1.
         22    1    1    0    0    0 -0.26242087800E+01  0.26676061476E+02 -0.67662066270E+01  0.27645619539E+02  0.00000000000E+00 0.  1.
</event>
<event>
 5    1  0.1680526E-003  0.9118800E+02  0.7818608E-02  0.1130116E+00
         25   -1    0    0    0    0  0.00000000000E+00  0.00000000000E+00  0.99999998245E-14  0.12500000000E+03  0.12500000000E+03 0.  0.
        -13    1    3    3    0    0  0.23120799580E+02  0.32702878701E+02  0.17581528711E+02  0.43739809835E+02  0.10566000000E+00 0.  1.
         23    2    1    0    0    0  0.36300512953E-02  0.15087727726E+02 -0.25300062572E+02  0.95542696878E+02  0.90888251273E+02 0.  0.
         13    1    3    3    0    0 -0.23117169529E+02 -0.17615150975E+02 -0.42881591283E+02  0.51802887042E+02  0.10566000000E+00 0. -1.
         22    1    1    0    0    0 -0.36300512953E-02 -0.15087727726E+02  0.25300062572E+02  0.29457303122E+02  0.00000000000E+00 0. -1.
</event>
<event>
 5    1  0.1680526E-003  0.9118800E+02  0.7818608E-02  0.1130116E+00
         25   -1    0    0    0    0  0.00000000000E+00  0.00000000000E+00  0.99999998245E-14  0.12500000000E+03  0.12500000000E+03 0.  0.
        -13    1    3    3    0    0  0.42986871060E+02 -0.18729806062E+02 -0.20011449924E+02  0.50981820395E+02  0.10566000000E+00 0.  1.
         23    2    1    0    0    0  0.14163430379E+02  0.16174432237E+02 -0.19074966295E+02  0.96258577672E+02  0.91867537346E+02 0.  0.
         13    1    3    3    0    0 -0.28823440681E+02  0.34904238299E+02  0.93648362841E+00  0.45276757277E+02  0.10566000000E+00 0. -1.
         22    1    1    0    0    0 -0.14163430379E+02 -0.16174432237E+02  0.19074966295E+02  0.28741422328E+02  0.00000000000E+00 0.  1.
</event>
<event>
 5    1  0.1680526E-003  0.9118800E+02  0.7818608E-02  0.1130116E+00
         25   -1    0    0    0    0  0.00000000000E+00  0.00000000000E+00  0.99999998245E-14  0.12500000000E+03  0.12500000000E+03 0.  0.
        -13    1    3    3    0    0 -0.27360300672E+02  0.29958490680E+02 -0.11600470012E+02  0.42198095754E+02  0.10566000000E+00 0. -1.
         23    2    1    0    0    0 -0.94121363993E+01 -0.19908366386E+02 -0.19256592063E+02  0.95746834332E+02  0.91168572342E+02 0.  0.
         13    1    3    3    0    0  0.17948164273E+02 -0.49866857066E+02 -0.76561220503E+01  0.53548738578E+02  0.10566000000E+00 0.  1.
         22    1    1    0    0    0  0.94121363993E+01  0.19908366386E+02  0.19256592063E+02  0.29253165668E+02  0.00000000000E+00 0.  1.
</event>
<event>
 5    1  0.1680526E-003  0.9118800E+02  0.7818608E-02  0.1130116E+00
         25   -1    0    0    0    0  0.00000000000E+00  0.00000000000E+00  0.99999998245E-14  0.12500000000E+03  0.12500000000E+03 0.  0.
        -13    1    3    3    0    0  0.29879804584E+02 -0.72452745388E+01 -0.11158568651E+02  0.32708126567E+02  0.10566000000E+00 0. -1.
         23    2    1    0    0    0 -0.30227067073E+02  0.36425746777E+01 -0.18537940454E+01  0.94497860952E+02  0.89439729640E+02 0.  0.
         13    1    3    3    0    0 -0.60106871657E+02  0.10887849217E+02  0.93047746051E+01  0.61789734386E+02  0.10566000000E+00 0.  1.
         22    1    1    0    0    0  0.30227067073E+02 -0.36425746777E+01  0.18537940454E+01  0.30502139048E+02  0.00000000000E+00 0.  1.
</event>
<event>
 5    1  0.1680526E-003  0.9118800E+02  0.7818608E-02  0.1130116E+00
         25   -1    0    0    0    0  0.00000000000E+00  0.00000000000E+00  0.99999998245E-14  0.12500000000E+03  0.12500000000E+03 0.  0.
        -13    1    3    3    0    0 -0.24847862807E+01 -0.29909185816E+02  0.11321885307E+02  0.32076935794E+02  0.10566000000E+00 0. -1.
         23    2    1    0    0    0  0.62161219772E+01  0.27429432058E+02 -0.11784924536E+02  0.94505765106E+02  0.89450775718E+02 0.  0.
         13    1    3    3    0    0  0.87009082579E+01  0.57338617873E+02 -0.23106809843E+02  0.62428829312E+02  0.10566000000E+00 0.  1.
         22    1    1    0    0    0 -0.62161219772E+01 -0.27429432058E+02  0.11784924536E+02  0.30494234894E+02  0.00000000000E+00 0.  1.
</event>
<event>
 5    1  0.1680526E-003  0.9118800E+02  0.7818608E-02  0.1130116E+00
         25   -1    0    0    0    0  0.00000000000E+00  0.00000000000E+00  0.99999998245E-14  0.12500000000E+03  0.12500000000E+03 0.  0.
        -13    1    3    3    0    0  0.58929039593E+01  0.96211998367E+01  0.51706478224E+02  0.52923197728E+02  0.10566000000E+00 0.  1.
         23    2    1    0    0    0  0.23540060696E+02  0.11806069526E+02  0.12760770853E+02  0.95736455990E+02  0.91154341628E+02 0.  0.
         13    1    3    3    0    0  0.17647156737E+02  0.21848696891E+01 -0.38945707370E+02  0.42813258263E+02  0.10566000000E+00 0. -1.
         22    1    1    0    0    0 -0.23540060696E+02 -0.11806069526E+02 -0.12760770853E+02  0.29263544010E+02  0.00000000000E+00 0.  1.
</event>
<event>
 5    1  0.1680526E-003  0.9118800E+02  0.7818608E-02  0.1130116E+00
         25   -1    0    0    0    0  0.00000000000E+00  0.00000000000E+00  0.99999998245E-14  0.12500000000E+03  0.12500000000E+03 0.  0.
        -13    1    3    3    0    0  0.38244186546E+02  0.13859747930E+02 -0.46136372976E+02  0.61508426192E+02  0.10566000000E+00 0.  1.
         23    2    1    0    0    0  0.24138171523E+02  0.62008544761E+01 -0.16814622338E+02  0.94936177138E+02  0.90050232007E+02 0.  0.
         13    1    3    3    0    0 -0.14106015022E+02 -0.76588934544E+01  0.29321750638E+02  0.33427750946E+02  0.10566000000E+00 0. -1.
         22    1    1    0    0    0 -0.24138171523E+02 -0.62008544761E+01  0.16814622338E+02  0.30063822862E+02  0.00000000000E+00 0.  1.
</event>
<event>
 5    1  0.1680526E-003  0.9118800E+02  0.7818608E-02  0.1130116E+00
         25   -1    0    0    0    0  0.00000000000E+00  0.00000000000E+00  0.99999998245E-14  0.12500000000E+03  0.12500000000E+03 0.  0.
        -13    1    3    3    0    0 -0.50451134434E+02 -0.11857668896E+02  0.11018106034E+02  0.52984253340E+02  0.10566000000E+00 0.  1.
         23    2    1    0    0    0 -0.12421672282E+02 -0.26429836398E+02 -0.19679430069E+01  0.95730442539E+02  0.91146095005E+02 0.  0.
         13    1    3    3    0    0  0.38029462152E+02 -0.14572167501E+02 -0.12986049041E+02  0.42746189199E+02  0.10566000000E+00 0. -1.
         22    1    1    0    0    0  0.12421672282E+02  0.26429836398E+02  0.19679430069E+01  0.29269557461E+02  0.00000000000E+00 0.  1.
</event>
<event>
 5    1  0.1680526E-003  0.9118800E+02  0.7818608E-02  0.1130116E+00
         25   -1    0    0    0    0  0.00000000000E+00  0.00000000000E+00  0.99999998245E-14  0.12500000000E+03  0.12500000000E+03 0.  0.
        -13    1    3    3    0    0 -0.27820290261E+02  0.15566713947E+02 -0.11483696223E+02  0.33884769090E+02  0.10566000000E+00 0. -1.
         23    2    1    0    0    0  0.17097470990E+02 -0.29072607615E+01  0.24960327782E+02  0.94606026216E+02  0.89590772706E+02 0.  0.
         13    1    3    3    0    0  0.44917761251E+02 -0.18473974708E+02  0.36444024005E+02  0.60721257127E+02  0.10566000000E+00 0.  1.
         22    1    1    0    0    0 -0.17097470990E+02  0.29072607615E+01 -0.24960327782E+02  0.30393973784E+02  0.00000000000E+00 0.  1.
</event>
<event>
 5    1  0.1680526E-003  0.9118800E+02  0.7818608E-02  0.1130116E+00
         25   -1    0    0    0    0  0.00000000000E+00  0.00000000000E+00  0.99999998245E-14  0.12500000000E+03  0.12500000000E+03 0.  0.
        -13    1    3    3    0    0  0.19157392019E+02  0.22334308015E+02 -0.23770493372E+02  0.37826901838E+02  0.10566000000E+00 0. -1.
         23    2    1    0    0    0  0.60311903423E+01 -0.43467187670E-01  0.28333019874E+02  0.96032135710E+02  0.91558909602E+02 0.  0.
         13    1    3    3    0    0 -0.13126201677E+02 -0.22377775202E+02  0.52103513246E+02  0.58205233872E+02  0.10566000000E+00 0.  1.
         22    1    1    0    0    0 -0.60311903423E+01  0.43467187670E-01 -0.28333019874E+02  0.28967864290E+02  0.00000000000E+00 0.  1.
</event>
<event>
 5    1  0.1680526E-003  0.9118800E+02  0.7818608E-02  0.1130116E+00
         25   -1    0    0    0    0  0.00000000000E+00  0.00000000000E+00  0.99999998245E-14  0.12500000000E+03  0.12500000000E+03 0.  0.
        -13    1    3    3    0    0  0.21289720421E+02 -0.21930554806E+01 -0.23256190960E+02  0.31605747419E+02  0.10566000000E+00 0. -1.
         23    2    1    0    0    0 -0.25261398735E+02  0.46311718687E+01  0.17557126938E+02  0.93889893519E+02  0.88585966043E+02 0.  0.
         13    1    3    3    0    0 -0.46551119156E+02  0.68242273493E+01  0.40813317898E+02  0.62284146100E+02  0.10566000000E+00 0.  1.
         22    1    1    0    0    0  0.25261398735E+02 -0.46311718687E+01 -0.17557126938E+02  0.31110106481E+02  0.00000000000E+00 0.  1.
</event>
<event>
 5    1  0.1680526E-003  0.9118800E+02  0.7818608E-02  0.1130116E+00
         25   -1    0    0    0    0  0.00000000000E+00  0.00000000000E+00  0.99999998245E-14  0.12500000000E+03  0.12500000000E+03 0.  0.
        -13    1    3    3    0    0  0.15387860420E+02 -0.48492215527E+02  0.32039282315E+02  0.60123273283E+02  0.10566000000E+00 0.  1.
         23    2    1    0    0    0  0.99902808467E+01 -0.28807457627E+02  0.48431298544E+01  0.94127176464E+02  0.88920155847E+02 0.  0.
         13    1    3    3    0    0 -0.53975795732E+01  0.19684757900E+02 -0.27196152461E+02  0.34003903181E+02  0.10566000000E+00 0. -1.
         22    1    1    0    0    0 -0.99902808467E+01  0.28807457627E+02 -0.48431298544E+01  0.30872823536E+02  0.00000000000E+00 0.  1.
</event>
<event>
 5    1  0.1680526E-003  0.9118800E+02  0.7818608E-02  0.1130116E+00
         25   -1    0    0    0    0  0.00000000000E+00  0.00000000000E+00  0.99999998245E-14  0.12500000000E+03  0.12500000000E+03 0.  0.
        -13    1    3    3    0    0  0.27886459535E+02 -0.22401978930E+02 -0.20004009170E+02  0.40983836231E+02  0.10566000000E+00 0.  1.
         23    2    1    0    0    0 -0.22578627330E+02  0.30639140225E+00 -0.17592050469E+02  0.96375385985E+02  0.92026335885E+02 0.  0.
         13    1    3    3    0    0 -0.50465086864E+02  0.22708370332E+02  0.24119587008E+01  0.55391549754E+02  0.10566000000E+00 0. -1.
         22    1    1    0    0    0  0.22578627330E+02 -0.30639140225E+00  0.17592050469E+02  0.28624614015E+02  0.00000000000E+00 0. -1.
</event>
<event>
 5    1  0.1680526E-003  0.9118800E+02  0.7818608E-02  0.1130116E+00
         25   -1    0    0    0    0  0.00000000000E+00  0.00000000000E+00  0.99999998245E-14  0.12500000000E+03  0.12500000000E+03 0.  0.
        -13    1    3    3    0    0 -0.13294602188E+01  0.17900939013E+02 -0.36733822732E+02  0.40885155968E+02  0.10566000000E+00 0.  1.
         23    2    1    0    0    0 -0.10013664510E+02  0.23279186279E+02  0.16283609540E+02  0.94877750243E+02  0.89969092253E+02 0.  0.
         13    1    3    3    0    0 -0.86842042916E+01  0.53782472663E+01  0.53017432272E+02  0.53992594275E+02  0.10566000000E+00 0. -1.
         22    1    1    0    0    0  0.10013664510E+02 -0.23279186279E+02 -0.16283609540E+02  0.30122249757E+02  0.00000000000E+00 0. -1.
</event>
<event>
 5    1  0.1680526E-003  0.9118800E+02  0.7818608E-02  0.1130116E+00
         25   -1    0    0    0    0  0.00000000000E+00  0.00000000000E+00  0.99999998245E-14  0.12500000000E+03  0.12500000000E+03 0.  0.
        -13    1    3    3    0    0  0.29943275242E+02 -0.17165389185E+02  0.10240360671E+02  0.36001756468E+02  0.10566000000E+00 0.  1.
         23    2    1    0    0    0 -0.28309960178E+02 -0.79893010367E+01  0.25204232248E+01  0.95476529513E+02  0.90797204683E+02 0.  0.
         13    1    3    3    0    0 -0.58253235420E+02  0.91760881479E+01 -0.77199374460E+01  0.59474773045E+02  0.10566000000E+00 0. -1.
         22    1    1    0    0    0  0.28309960178E+02  0.79893010367E+01 -0.25204232248E+01  0.29523470487E+02  0.00000000000E+00 0. -1.
</event>
<event>
 5    1  0.1680526E-003  0.9118800E+02  0.7818608E-02  0.1130116E+00
         25   -1    0    0    0    0  0.00000000000E+00  0.00000000000E+00  0.99999998245E-14  0.12500000000E+03  0.12500000000E+03 0.  0.
        -13    1    3    3    0    0 -0.19325959552E+01  0.36775541941E+02  0.45296054524E+01  0.37103960729E+02  0.10566000000E+00 0. -1.
         23    2    1    0    0    0 -0.74827612514E+00 -0.22494818555E+02 -0.13107459589E+02  0.98954227294E+02  0.95464950760E+02 0.  0.
         13    1    3    3    0    0  0.11843198301E+01 -0.59270360496E+02 -0.17637065041E+02  0.61850266565E+02  0.10566000000E+00 0.  1.
         22    1    1    0    0    0  0.74827612514E+00  0.22494818555E+02  0.13107459589E+02  0.26045772706E+02  0.00000000000E+00 0.  1.
</event>
<event>
 5    1  0.1680526E-003  0.9118800E+02  0.7818608E-02  0.1130116E+00
         25   -1    0    0    0    0  0.00000000000E+00  0.00000000000E+00  0.99999998245E-14  0.12500000000E+03  0.12500000000E+03 0.  0.
        -13    1    3    3    0    0  0.17283294169E+02 -0.54028447108E+02 -0.95708944023E+01  0.57527372076E+02  0.10566000000E+00 0.  1.
         23    2    1    0    0    0 -0.56380370273E+01 -0.22463165607E+02 -0.15706167785E+02  0.97016701819E+02  0.92893355277E+02 0.  0.
         13    1    3    3    0    0 -0.22921331197E+02  0.31565281501E+02 -0.61352733824E+01  0.39489329743E+02  0.10566000000E+00 0. -1.
         22    1    1    0    0    0  0.56380370273E+01  0.22463165607E+02  0.15706167785E+02  0.27983298181E+02  0.00000000000E+00 0.  1.
</event>
<event>
 5    1  0.1680526E-003  0.9118800E+02  0.7818608E-02  0.1130116E+00
         25   -1    0    0    0    0  0.00000000000E+00  0.00000000000E+00  0.99999998245E-14  0.12500000000E+03  0.12500000000E+03 0.  0.
        -13    1    3    3    0    0  0.54322557335E+02 -0.29146772766E+02  0.58372850408E+01  0.61923821416E+02  0.10566000000E+00 0. -1.
         23    2    1    0    0    0  0.23712882442E+02 -0.14184870142E+02  0.84782232201E+01  0.96096858239E+02  0.91647228872E+02 0.  0.
         13    1    3    3    0    0 -0.30609674893E+02  0.14961902624E+02  0.26409381793E+01  0.34173036823E+02  0.10566000000E+00 0.  1.
         22    1    1    0    0    0 -0.23712882442E+02  0.14184870142E+02 -0.84782232201E+01  0.28903141761E+02  0.00000000000E+00 0. -1.
</event>
<event>
 5    1  0.1680526E-003  0.9118800E+02  0.7818608E-02  0.1130116E+00
         25   -1    0    0    0    0  0.00000000000E+00  0.00000000000E+00  0.99999998245E-14  0.12500000000E+03  0.12500000000E+03 0.  0.
        -13    1    3    3    0    0 -0.16644830737E+01  0.25626907842E+02  0.27635752392E+02  0.37726050466E+02  0.10566000000E+00 0. -1.
         23    2    1    0    0    0 -0.12597354017E+02 -0.19724329432E+02 -0.11779902469E+02  0.98798690835E+02  0.95261076567E+02 0.  0.
         13    1    3    3    0    0 -0.10932870944E+02 -0.45351237275E+02 -0.39415654861E+02  0.61072640369E+02  0.10566000000E+00 0.  1.
         22    1    1    0    0    0  0.12597354017E+02  0.19724329432E+02  0.11779902469E+02  0.26201309165E+02  0.00000000000E+00 0.  1.
</event>
<event>
 5    1  0.1680526E-003  0.9118800E+02  0.7818608E-02  0.1130116E+00
         25   -1    0    0    0    0  0.00000000000E+00  0.00000000000E+00  0.99999998245E-14  0.12500000000E+03  0.12500000000E+03 0.  0.
        -13    1    3    3    0    0  0.12575238244E+02 -0.38969433089E+02 -0.43883958174E+02  0.60021381867E+02  0.10566000000E+00 0.  1.
         23    2    1    0    0    0  0.53366502767E+01 -0.78678327663E+01 -0.27481228066E+02  0.95920788790E+02  0.91406767788E+02 0.  0.
         13    1    3    3    0    0 -0.72385879669E+01  0.31101600323E+02  0.16402730108E+02  0.35899406923E+02  0.10566000000E+00 0. -1.
         22    1    1    0    0    0 -0.53366502767E+01  0.78678327663E+01  0.27481228066E+02  0.29079211210E+02  0.00000000000E+00 0.  1.
</event>
<event>
 4    1  0.1680526E-003  0.9118800E+02  0.7818608E-02  0.1130116E+00
         25   -1    0    0    0    0  0.00000000000E+00  0.00000000000E+00  0.99999998245E-14  0.12500000000E+03  0.12500000000E+03 0.  0.
        -13    1    1    0    0    0 -0.81189032948E+01 -0.19423589126E+01 -0.49847076955E+02  0.50541384962E+02  0.10566000000E+00 0. -1.
         13    1    1    0    0    0 -0.12953893248E+02 -0.15454167205E+02  0.32293764262E+01  0.20422406088E+02  0.10566000000E+00 0.  1.
         22    1    1    0    0    0  0.21072796543E+02  0.17396526118E+02  0.46617700529E+02  0.54036208950E+02  0.00000000000E+00 0. -1.
</event>
<event>
 5    1  0.1680526E-003  0.9118800E+02  0.7818608E-02  0.1130116E+00
         25   -1    0    0    0    0  0.00000000000E+00  0.00000000000E+00  0.99999998245E-14  0.12500000000E+03  0.12500000000E+03 0.  0.
        -13    1    3    3    0    0 -0.19031749154E+01 -0.42005187816E+02 -0.10402182049E+02  0.43315983582E+02  0.10566000000E+00 0.  1.
         23    2    1    0    0    0 -0.18702741550E+02  0.76954756165E+01 -0.19894362210E+02  0.96631028672E+02  0.92372924432E+02 0.  0.
         13    1    3    3    0    0 -0.16799566634E+02  0.49700663433E+02 -0.94921801614E+01  0.53315045091E+02  0.10566000000E+00 0. -1.
         22    1    1    0    0    0  0.18702741550E+02 -0.76954756165E+01  0.19894362210E+02  0.28368971328E+02  0.00000000000E+00 0. -1.
</event>
<event>
 5    1  0.1680526E-003  0.9118800E+02  0.7818608E-02  0.1130116E+00
         25   -1    0    0    0    0  0.00000000000E+00  0.00000000000E+00  0.99999998245E-14  0.12500000000E+03  0.12500000000E+03 0.  0.
        -13    1    3    3    0    0  0.16715122862E+02  0.82017738082E+00 -0.30119451017E+02  0.34456646918E+02  0.10566000000E+00 0. -1.
         23    2    1    0    0    0 -0.14303971160E+02  0.20384892275E+02  0.17501307423E+02  0.94562470772E+02  0.89529982090E+02 0.  0.
         13    1    3    3    0    0 -0.31019094022E+02  0.19564714894E+02  0.47620758439E+02  0.60105823854E+02  0.10566000000E+00 0.  1.
         22    1    1    0    0    0  0.14303971160E+02 -0.20384892275E+02 -0.17501307423E+02  0.30437529228E+02  0.00000000000E+00 0.  1.
</event>
<event>
 5    1  0.1680526E-003  0.9118800E+02  0.7818608E-02  0.1130116E+00
         25   -1    0    0    0    0  0.00000000000E+00  0.00000000000E+00  0.99999998245E-14  0.12500000000E+03  0.12500000000E+03 0.  0.
        -13    1    3    3    0    0  0.36155561012E+02  0.75650427288E+01  0.22176575862E+00  0.36939339568E+02  0.10566000000E+00 0. -1.
         23    2    1    0    0    0 -0.19686582719E+02  0.16786278816E+02  0.14542301470E+02  0.95321401184E+02  0.90583388632E+02 0.  0.
         13    1    3    3    0    0 -0.55842143731E+02  0.92212360869E+01  0.14320535712E+02  0.58382061616E+02  0.10566000000E+00 0.  1.
         22    1    1    0    0    0  0.19686582719E+02 -0.16786278816E+02 -0.14542301470E+02  0.29678598816E+02  0.00000000000E+00 0.  1.
</event>
<event>
 5    1  0.1680526E-003  0.9118800E+02  0.7818608E-02  0.1130116E+00
         25   -1    0    0    0    0  0.00000000000E+00  0.00000000000E+00  0.99999998245E-14  0.12500000000E+03  0.12500000000E+03 0.  0.
        -13    1    3    3    0    0  0.32698153013E+02 -0.28383492830E+00  0.63330753989E+01  0.33307188124E+02  0.10566000000E+00 0. -1.
         23    2    1    0    0    0 -0.27105126454E+02 -0.10464096604E+02 -0.62943612289E+01  0.95271155739E+02  0.90514026177E+02 0.  0.
         13    1    3    3    0    0 -0.59803279466E+02 -0.10180261676E+02 -0.12627436628E+02  0.61963967615E+02  0.10566000000E+00 0.  1.
         22    1    1    0    0    0  0.27105126454E+02  0.10464096604E+02  0.62943612289E+01  0.29728844261E+02  0.00000000000E+00 0.  1.
</event>
<event>
 5    1  0.1680526E-003  0.9118800E+02  0.7818608E-02  0.1130116E+00
         25   -1    0    0    0    0  0.00000000000E+00  0.00000000000E+00  0.99999998245E-14  0.12500000000E+03  0.12500000000E+03 0.  0.
        -13    1    3    3    0    0 -0.96669645632E+01  0.32027589521E+02  0.28468514091E+02  0.43928170381E+02  0.10566000000E+00 0. -1.
         23    2    1    0    0    0  0.65949210925E+01 -0.14863019583E+02  0.26880409434E+02  0.93584100416E+02  0.88153417994E+02 0.  0.
         13    1    3    3    0    0  0.16261885656E+02 -0.46890609104E+02 -0.15881046572E+01  0.49655930035E+02  0.10566000000E+00 0.  1.
         22    1    1    0    0    0 -0.65949210925E+01  0.14863019583E+02 -0.26880409434E+02  0.31415899584E+02  0.00000000000E+00 0.  1.
</event>
<event>
 5    1  0.1680526E-003  0.9118800E+02  0.7818608E-02  0.1130116E+00
         25   -1    0    0    0    0  0.00000000000E+00  0.00000000000E+00  0.99999998245E-14  0.12500000000E+03  0.12500000000E+03 0.  0.
        -13    1    3    3    0    0 -0.31733240283E+01  0.28349210830E+02  0.17717644062E+02  0.33580854891E+02  0.10566000000E+00 0. -1.
         23    2    1    0    0    0  0.16568238440E+02 -0.18158328090E+02 -0.17201651971E+02  0.94997862833E+02  0.90135818121E+02 0.  0.
         13    1    3    3    0    0  0.19741562468E+02 -0.46507538920E+02 -0.34919296034E+02  0.61417007942E+02  0.10566000000E+00 0.  1.
         22    1    1    0    0    0 -0.16568238440E+02  0.18158328090E+02  0.17201651971E+02  0.30002137167E+02  0.00000000000E+00 0.  1.
</event>
<event>
 5    1  0.1680526E-003  0.9118800E+02  0.7818608E-02  0.1130116E+00
         25   -1    0    0    0    0  0.00000000000E+00  0.00000000000E+00  0.99999998245E-14  0.12500000000E+03  0.12500000000E+03 0.  0.
        -13    1    3    3    0    0  0.27974690235E+02  0.20303645069E+02  0.48616119868E+01  0.34906557149E+02  0.10566000000E+00 0.  1.
         23    2    1    0    0    0 -0.23371421521E+02 -0.95040575848E+01  0.15735438363E+02  0.95265264841E+02  0.90505890472E+02 0.  0.
         13    1    3    3    0    0 -0.51346111757E+02 -0.29807702654E+02  0.10873826377E+02  0.60358707691E+02  0.10566000000E+00 0. -1.
         22    1    1    0    0    0  0.23371421521E+02  0.95040575848E+01 -0.15735438363E+02  0.29734735159E+02  0.00000000000E+00 0. -1.
</event>
<event>
 5    1  0.1680526E-003  0.9118800E+02  0.7818608E-02  0.1130116E+00
         25   -1    0    0    0    0  0.00000000000E+00  0.00000000000E+00  0.99999998245E-14  0.12500000000E+03  0.12500000000E+03 0.  0.
        -13    1    3    3    0    0  0.22993988665E+02  0.53258436507E+01  0.12472508113E+01  0.23635882128E+02  0.10566000000E+00 0. -1.
         23    2    1    0    0    0 -0.36098989303E+02  0.15587476644E+02  0.10448248509E+02  0.84314961550E+02  0.73849444056E+02 0.  0.
         13    1    3    3    0    0 -0.59092977968E+02  0.10261632993E+02  0.92009976979E+01  0.60679079422E+02  0.10566000000E+00 0.  1.
         22    1    1    0    0    0  0.36098989303E+02 -0.15587476644E+02 -0.10448248509E+02  0.40685038450E+02  0.00000000000E+00 0.  1.
</event>
<event>
 5    1  0.1680526E-003  0.9118800E+02  0.7818608E-02  0.1130116E+00
         25   -1    0    0    0    0  0.00000000000E+00  0.00000000000E+00  0.99999998245E-14  0.12500000000E+03  0.12500000000E+03 0.  0.
        -13    1    3    3    0    0  0.38808338550E+02  0.27287022051E+02 -0.34552972799E+02  0.58690610890E+02  0.10566000000E+00 0. -1.
         23    2    1    0    0    0  0.11647766519E+02  0.26851797155E+02 -0.15413956690E+02  0.91920103746E+02  0.85761447846E+02 0.  0.
         13    1    3    3    0    0 -0.27160572032E+02 -0.43522489569E+00  0.19139016109E+02  0.33229492856E+02  0.10566000000E+00 0.  1.
         22    1    1    0    0    0 -0.11647766519E+02 -0.26851797155E+02  0.15413956690E+02  0.33079896254E+02  0.00000000000E+00 0. -1.
</event>
<event>
 5    1  0.1680526E-003  0.9118800E+02  0.7818608E-02  0.1130116E+00
         25   -1    0    0    0    0  0.00000000000E+00  0.00000000000E+00  0.99999998245E-14  0.12500000000E+03  0.12500000000E+03 0.  0.
        -13    1    3    3    0    0 -0.68360868757E+01 -0.42392987863E+02 -0.45107979920E+02  0.62278716431E+02  0.10566000000E+00 0. -1.
         23    2    1    0    0    0 -0.18238654373E+00 -0.22727132169E+02 -0.21545529639E+02  0.93682821824E+02  0.88293292248E+02 0.  0.
         13    1    3    3    0    0  0.66537003320E+01  0.19665855694E+02  0.23562450280E+02  0.31404105393E+02  0.10566000000E+00 0.  1.
         22    1    1    0    0    0  0.18238654373E+00  0.22727132169E+02  0.21545529639E+02  0.31317178176E+02  0.00000000000E+00 0. -1.
</event>
<event>
 5    1  0.1680526E-003  0.9118800E+02  0.7818608E-02  0.1130116E+00
         25   -1    0    0    0    0  0.00000000000E+00  0.00000000000E+00  0.99999998245E-14  0.12500000000E+03  0.12500000000E+03 0.  0.
        -13    1    3    3    0    0  0.29118529742E+02  0.68045656942E+01  0.28692397349E+02  0.41442197315E+02  0.10566000000E+00 0. -1.
         23    2    1    0    0    0 -0.15074635713E+02 -0.21304056470E+02  0.99421900313E+01  0.97072332597E+02  0.92968183531E+02 0.  0.
         13    1    3    3    0    0 -0.44193165455E+02 -0.28108622165E+02 -0.18750207318E+02  0.55630135282E+02  0.10566000000E+00 0.  1.
         22    1    1    0    0    0  0.15074635713E+02  0.21304056470E+02 -0.99421900313E+01  0.27927667403E+02  0.00000000000E+00 0.  1.
</event>
<event>
 5    1  0.1680526E-003  0.9118800E+02  0.7818608E-02  0.1130116E+00
         25   -1    0    0    0    0  0.00000000000E+00  0.00000000000E+00  0.99999998245E-14  0.12500000000E+03  0.12500000000E+03 0.  0.
        -13    1    3    3    0    0  0.72173115924E+01 -0.51565990241E+02 -0.41189432720E+00  0.52070353918E+02  0.10566000000E+00 0.  1.
         23    2    1    0    0    0  0.68648547979E+01 -0.15612446994E+02 -0.24354161943E+02  0.95267863573E+02  0.90509479577E+02 0.  0.
         13    1    3    3    0    0 -0.35245679448E+00  0.35953543247E+02 -0.23942267616E+02  0.43197509656E+02  0.10566000000E+00 0. -1.
         22    1    1    0    0    0 -0.68648547979E+01  0.15612446994E+02  0.24354161943E+02  0.29732136427E+02  0.00000000000E+00 0.  1.
</event>
<event>
 5    1  0.1680526E-003  0.9118800E+02  0.7818608E-02  0.1130116E+00
         25   -1    0    0    0    0  0.00000000000E+00  0.00000000000E+00  0.99999998245E-14  0.12500000000E+03  0.12500000000E+03 0.  0.
        -13    1    3    3    0    0  0.14276400484E+02 -0.13265623592E+02  0.30575797575E+02  0.36258556803E+02  0.10566000000E+00 0. -1.
         23    2    1    0    0    0 -0.11892447303E+02 -0.14091929826E+02 -0.22780132283E+02  0.95692198719E+02  0.91093631390E+02 0.  0.
         13    1    3    3    0    0 -0.26168847787E+02 -0.82630623458E+00 -0.53355929857E+02  0.59433641917E+02  0.10566000000E+00 0.  1.
         22    1    1    0    0    0  0.11892447303E+02  0.14091929826E+02  0.22780132283E+02  0.29307801281E+02  0.00000000000E+00 0.  1.
</event>
<event>
 5    1  0.1680526E-003  0.9118800E+02  0.7818608E-02  0.1130116E+00
         25   -1    0    0    0    0  0.00000000000E+00  0.00000000000E+00  0.99999998245E-14  0.12500000000E+03  0.12500000000E+03 0.  0.
        -13    1    3    3    0    0  0.97122583669E+00 -0.32211752967E+02 -0.35388573979E+02  0.47863374736E+02  0.10566000000E+00 0. -1.
         23    2    1    0    0    0  0.27750377809E+02 -0.15267582347E+01 -0.13434194673E+02  0.94131050459E+02  0.88925601571E+02 0.  0.
         13    1    3    3    0    0  0.26779151972E+02  0.30684994732E+02  0.21954379306E+02  0.46267675723E+02  0.10566000000E+00 0.  1.
         22    1    1    0    0    0 -0.27750377809E+02  0.15267582347E+01  0.13434194673E+02  0.30868949541E+02  0.00000000000E+00 0. -1.
</event>
<event>
 5    1  0.1680526E-003  0.9118800E+02  0.7818608E-02  0.1130116E+00
         25   -1    0    0    0    0  0.00000000000E+00  0.00000000000E+00  0.99999998245E-14  0.12500000000E+03  0.12500000000E+03 0.  0.
        -13    1    3    3    0    0 -0.44463955047E+02  0.30757298956E+02  0.20760283465E+01  0.54105228908E+02  0.10566000000E+00 0.  1.
         23    2    1    0    0    0 -0.14573890643E+02  0.12732144029E+02 -0.21382586702E+02  0.96160430064E+02  0.91733895131E+02 0.  0.
         13    1    3    3    0    0  0.29890064404E+02 -0.18025154927E+02 -0.23458615048E+02  0.42055201156E+02  0.10566000000E+00 0. -1.
         22    1    1    0    0    0  0.14573890643E+02 -0.12732144029E+02  0.21382586702E+02  0.28839569936E+02  0.00000000000E+00 0.  1.
</event>
<event>
 5    1  0.1680526E-003  0.9118800E+02  0.7818608E-02  0.1130116E+00
         25   -1    0    0    0    0  0.00000000000E+00  0.00000000000E+00  0.99999998245E-14  0.12500000000E+03  0.12500000000E+03 0.  0.
        -13    1    3    3    0    0  0.44991382778E+02 -0.24996189412E+02 -0.71476826732E+01  0.51962818832E+02  0.10566000000E+00 0. -1.
         23    2    1    0    0    0  0.16827735053E+02 -0.15919486407E+01 -0.26642593940E+02  0.93447903725E+02  0.87960081465E+02 0.  0.
         13    1    3    3    0    0 -0.28163647725E+02  0.23404240772E+02 -0.19494911267E+02  0.41485084893E+02  0.10566000000E+00 0.  1.
         22    1    1    0    0    0 -0.16827735053E+02  0.15919486407E+01  0.26642593940E+02  0.31552096275E+02  0.00000000000E+00 0. -1.
</event>
<event>
 5    1  0.1680526E-003  0.9118800E+02  0.7818608E-02  0.1130116E+00
         25   -1    0    0    0    0  0.00000000000E+00  0.00000000000E+00  0.99999998245E-14  0.12500000000E+03  0.12500000000E+03 0.  0.
        -13    1    3    3    0    0 -0.46227843793E+02 -0.32376361875E+00  0.23133166025E+02  0.51694031561E+02  0.10566000000E+00 0.  1.
         23    2    1    0    0    0 -0.24836336713E+02  0.60363038257E+01 -0.14623355633E+02  0.95553045740E+02  0.90902483107E+02 0.  0.
         13    1    3    3    0    0  0.21391507079E+02  0.63600674444E+01 -0.37756521658E+02  0.43859014179E+02  0.10566000000E+00 0. -1.
         22    1    1    0    0    0  0.24836336713E+02 -0.60363038257E+01  0.14623355633E+02  0.29446954260E+02  0.00000000000E+00 0.  1.
</event>
<event>
 5    1  0.1680526E-003  0.9118800E+02  0.7818608E-02  0.1130116E+00
         25   -1    0    0    0    0  0.00000000000E+00  0.00000000000E+00  0.99999998245E-14  0.12500000000E+03  0.12500000000E+03 0.  0.
        -13    1    3    3    0    0 -0.16592359331E+02  0.32078913259E+01 -0.53592870733E+02  0.56194340572E+02  0.10566000000E+00 0.  1.
         23    2    1    0    0    0 -0.16684095212E+02  0.17729705516E+02 -0.17740030416E+02  0.94876750343E+02  0.89967703015E+02 0.  0.
         13    1    3    3    0    0 -0.91735881495E-01  0.14521814190E+02  0.35852840317E+02  0.38682409771E+02  0.10566000000E+00 0. -1.
         22    1    1    0    0    0  0.16684095212E+02 -0.17729705516E+02  0.17740030416E+02  0.30123249657E+02  0.00000000000E+00 0.  1.
</event>
<event>
 5    1  0.1680526E-003  0.9118800E+02  0.7818608E-02  0.1130116E+00
         25   -1    0    0    0    0  0.00000000000E+00  0.00000000000E+00  0.99999998245E-14  0.12500000000E+03  0.12500000000E+03 0.  0.
        -13    1    3    3    0    0  0.46642100991E+02 -0.15340376231E+02 -0.27753581565E+02  0.56401109754E+02  0.10566000000E+00 0. -1.
         23    2    1    0    0    0  0.10160143811E+02 -0.18802041879E+02 -0.23407154539E+02  0.93303940549E+02  0.87755257035E+02 0.  0.
         13    1    3    3    0    0 -0.36481957180E+02 -0.34616656482E+01  0.43464270258E+01  0.36902830795E+02  0.10566000000E+00 0.  1.
         22    1    1    0    0    0 -0.10160143811E+02  0.18802041879E+02  0.23407154539E+02  0.31696059451E+02  0.00000000000E+00 0. -1.
</event>
<event>
 5    1  0.1680526E-003  0.9118800E+02  0.7818608E-02  0.1130116E+00
         25   -1    0    0    0    0  0.00000000000E+00  0.00000000000E+00  0.99999998245E-14  0.12500000000E+03  0.12500000000E+03 0.  0.
        -13    1    3    3    0    0  0.36154479390E+02  0.35283560348E+02  0.23929177587E+02  0.55898950927E+02  0.10566000000E+00 0.  1.
         23    2    1    0    0    0  0.24818685109E+02  0.15776260983E+02 -0.75587265490E+01  0.94635680673E+02  0.89632138032E+02 0.  0.
         13    1    3    3    0    0 -0.11335794281E+02 -0.19507299364E+02 -0.31487904136E+02  0.38736729745E+02  0.10566000000E+00 0. -1.
         22    1    1    0    0    0 -0.24818685109E+02 -0.15776260983E+02  0.75587265490E+01  0.30364319327E+02  0.00000000000E+00 0.  1.
</event>
<event>
 5    1  0.1680526E-003  0.9118800E+02  0.7818608E-02  0.1130116E+00
         25   -1    0    0    0    0  0.00000000000E+00  0.00000000000E+00  0.99999998245E-14  0.12500000000E+03  0.12500000000E+03 0.  0.
        -13    1    3    3    0    0 -0.27831912035E+02 -0.53576375837E+02  0.37497346393E+01  0.60490619514E+02  0.10566000000E+00 0.  1.
         23    2    1    0    0    0 -0.54399434909E+01 -0.27774788891E+02 -0.61042594767E+01  0.96046695061E+02  0.91578784471E+02 0.  0.
         13    1    3    3    0    0  0.22391968544E+02  0.25801586945E+02 -0.98539941160E+01  0.35556075546E+02  0.10566000000E+00 0. -1.
         22    1    1    0    0    0  0.54399434909E+01  0.27774788891E+02  0.61042594767E+01  0.28953304939E+02  0.00000000000E+00 0.  1.
</event>
<event>
 5    1  0.1680526E-003  0.9118800E+02  0.7818608E-02  0.1130116E+00
         25   -1    0    0    0    0  0.00000000000E+00  0.00000000000E+00  0.99999998245E-14  0.12500000000E+03  0.12500000000E+03 0.  0.
        -13    1    3    3    0    0  0.98296431873E+01  0.42879355084E+02 -0.63849516639E+01  0.44452668642E+02  0.10566000000E+00 0. -1.
         23    2    1    0    0    0  0.27145552900E+02 -0.41797402809E+01 -0.12227295918E+02  0.94935768153E+02  0.90049664288E+02 0.  0.
         13    1    3    3    0    0  0.17315909713E+02 -0.47059095365E+02 -0.58423442544E+01  0.50483099511E+02  0.10566000000E+00 0.  1.
         22    1    1    0    0    0 -0.27145552900E+02  0.41797402809E+01  0.12227295918E+02  0.30064231847E+02  0.00000000000E+00 0. -1.
</event>
<event>
 5    1  0.1680526E-003  0.9118800E+02  0.7818608E-02  0.1130116E+00
         25   -1    0    0    0    0  0.00000000000E+00  0.00000000000E+00  0.99999998245E-14  0.12500000000E+03  0.12500000000E+03 0.  0.
        -13    1    3    3    0    0 -0.40602188935E+02  0.16603721645E+02 -0.28677040225E+02  0.52408063492E+02  0.10566000000E+00 0. -1.
         23    2    1    0    0    0  0.13024153746E+01  0.22137438675E+02 -0.19064622698E+02  0.95755815697E+02  0.91180885740E+02 0.  0.
         13    1    3    3    0    0  0.41904604310E+02  0.55337170301E+01  0.96124175269E+01  0.43347752206E+02  0.10566000000E+00 0.  1.
         22    1    1    0    0    0 -0.13024153746E+01 -0.22137438675E+02  0.19064622698E+02  0.29244184303E+02  0.00000000000E+00 0. -1.
</event>
<event>
 5    1  0.1680526E-003  0.9118800E+02  0.7818608E-02  0.1130116E+00
         25   -1    0    0    0    0  0.00000000000E+00  0.00000000000E+00  0.99999998245E-14  0.12500000000E+03  0.12500000000E+03 0.  0.
        -13    1    3    3    0    0  0.39333230155E+02  0.24647827225E+02 -0.37218160909E+02  0.59496395243E+02  0.10566000000E+00 0.  1.
         23    2    1    0    0    0  0.23993311654E+02  0.14317016626E+02 -0.50429287907E+01  0.96608326925E+02  0.92342199082E+02 0.  0.
         13    1    3    3    0    0 -0.15339918501E+02 -0.10330810599E+02  0.32175232119E+02  0.37111931682E+02  0.10566000000E+00 0. -1.
         22    1    1    0    0    0 -0.23993311654E+02 -0.14317016626E+02  0.50429287907E+01  0.28391673075E+02  0.00000000000E+00 0.  1.
</event>
<event>
 5    1  0.1680526E-003  0.9118800E+02  0.7818608E-02  0.1130116E+00
         25   -1    0    0    0    0  0.00000000000E+00  0.00000000000E+00  0.99999998245E-14  0.12500000000E+03  0.12500000000E+03 0.  0.
        -13    1    3    3    0    0 -0.45253140171E+02 -0.21191638406E+02 -0.69389957784E+01  0.50448915352E+02  0.10566000000E+00 0.  1.
         23    2    1    0    0    0 -0.12935247396E+01 -0.26097123999E+02 -0.14181334313E+02  0.95270497311E+02  0.90513116882E+02 0.  0.
         13    1    3    3    0    0  0.43959615432E+02 -0.49054855923E+01 -0.72423385350E+01  0.44821581959E+02  0.10566000000E+00 0. -1.
         22    1    1    0    0    0  0.12935247396E+01  0.26097123999E+02  0.14181334313E+02  0.29729502689E+02  0.00000000000E+00 0.  1.
</event>
<event>
 5    1  0.1680526E-003  0.9118800E+02  0.7818608E-02  0.1130116E+00
         25   -1    0    0    0    0  0.00000000000E+00  0.00000000000E+00  0.99999998245E-14  0.12500000000E+03  0.12500000000E+03 0.  0.
        -13    1    3    3    0    0  0.93478944740E+00  0.15283722335E+02 -0.34877717949E+02  0.38091106221E+02  0.10566000000E+00 0. -1.
         23    2    1    0    0    0  0.98886925303E+01 -0.24647942977E+02  0.79010498971E+01  0.97291988119E+02  0.93263052865E+02 0.  0.
         13    1    3    3    0    0  0.89539030829E+01 -0.39931665312E+02  0.42778767847E+02  0.59200881898E+02  0.10566000000E+00 0.  1.
         22    1    1    0    0    0 -0.98886925303E+01  0.24647942977E+02 -0.79010498971E+01  0.27708011881E+02  0.00000000000E+00 0.  1.
</event>
<event>
 5    1  0.1680526E-003  0.9118800E+02  0.7818608E-02  0.1130116E+00
         25   -1    0    0    0    0  0.00000000000E+00  0.00000000000E+00  0.99999998245E-14  0.12500000000E+03  0.12500000000E+03 0.  0.
        -13    1    3    3    0    0 -0.27600265575E+01  0.49281885166E+02  0.23371821401E+02  0.54612957728E+02  0.10566000000E+00 0. -1.
         23    2    1    0    0    0  0.16303645664E+02  0.24465867454E+02 -0.28792721188E+01  0.95458880520E+02  0.90772904161E+02 0.  0.
         13    1    3    3    0    0  0.19063672222E+02 -0.24816017713E+02 -0.26251093520E+02  0.40845922792E+02  0.10566000000E+00 0.  1.
         22    1    1    0    0    0 -0.16303645664E+02 -0.24465867454E+02  0.28792721188E+01  0.29541119480E+02  0.00000000000E+00 0. -1.
</event>
<event>
 5    1  0.1680526E-003  0.9118800E+02  0.7818608E-02  0.1130116E+00
         25   -1    0    0    0    0  0.00000000000E+00  0.00000000000E+00  0.99999998245E-14  0.12500000000E+03  0.12500000000E+03 0.  0.
        -13    1    3    3    0    0  0.32942282400E+02 -0.28519599592E+02 -0.18984056514E+02  0.47528592409E+02  0.10566000000E+00 0.  1.
         23    2    1    0    0    0  0.24593749222E+02  0.16067414947E+02 -0.37281570431E+01  0.95387275053E+02  0.90674245314E+02 0.  0.
         13    1    3    3    0    0 -0.83485331778E+01  0.44587014539E+02  0.15255899471E+02  0.47858682644E+02  0.10566000000E+00 0. -1.
         22    1    1    0    0    0 -0.24593749222E+02 -0.16067414947E+02  0.37281570431E+01  0.29612724947E+02  0.00000000000E+00 0. -1.
</event>
<event>
 5    1  0.1680526E-003  0.9118800E+02  0.7818608E-02  0.1130116E+00
         25   -1    0    0    0    0  0.00000000000E+00  0.00000000000E+00  0.99999998245E-14  0.12500000000E+03  0.12500000000E+03 0.  0.
        -13    1    3    3    0    0  0.21307375798E+02  0.50177958468E+02 -0.24567145137E+02  0.59794544597E+02  0.10566000000E+00 0. -1.
         23    2    1    0    0    0 -0.20163104544E+01  0.28155551981E+02 -0.13324250330E+02  0.93785640130E+02  0.88438736041E+02 0.  0.
         13    1    3    3    0    0 -0.23323686252E+02 -0.22022406487E+02  0.11242894807E+02  0.33991095533E+02  0.10566000000E+00 0.  1.
         22    1    1    0    0    0  0.20163104544E+01 -0.28155551981E+02  0.13324250330E+02  0.31214359870E+02  0.00000000000E+00 0. -1.
</event>
<event>
 5    1  0.1680526E-003  0.9118800E+02  0.7818608E-02  0.1130116E+00
         25   -1    0    0    0    0  0.00000000000E+00  0.00000000000E+00  0.99999998245E-14  0.12500000000E+03  0.12500000000E+03 0.  0.
        -13    1    3    3    0    0  0.29594836723E+02  0.25826600867E+02 -0.34364281574E+02  0.52189871480E+02  0.10566000000E+00 0. -1.
         23    2    1    0    0    0  0.13712279895E+00 -0.58611834926E+01 -0.28562017402E+02  0.95842477597E+02  0.91299613358E+02 0.  0.
         13    1    3    3    0    0 -0.29457713924E+02 -0.31687784360E+02  0.58022641721E+01  0.43652606117E+02  0.10566000000E+00 0.  1.
         22    1    1    0    0    0 -0.13712279895E+00  0.58611834926E+01  0.28562017402E+02  0.29157522403E+02  0.00000000000E+00 0. -1.
</event>
<event>
 5    1  0.1680526E-003  0.9118800E+02  0.7818608E-02  0.1130116E+00
         25   -1    0    0    0    0  0.00000000000E+00  0.00000000000E+00  0.99999998245E-14  0.12500000000E+03  0.12500000000E+03 0.  0.
        -13    1    3    3    0    0 -0.39256692225E+02  0.37329822579E+02  0.14491808037E+02  0.56076975689E+02  0.10566000000E+00 0.  1.
         23    2    1    0    0    0 -0.28963338410E+02  0.26891140046E+01 -0.20891917428E+01  0.95837163579E+02  0.91292337547E+02 0.  0.
         13    1    3    3    0    0  0.10293353816E+02 -0.34640708574E+02 -0.16580999780E+02  0.39760187890E+02  0.10566000000E+00 0. -1.
         22    1    1    0    0    0  0.28963338410E+02 -0.26891140046E+01  0.20891917428E+01  0.29162836421E+02  0.00000000000E+00 0.  1.
</event>
<event>
 5    1  0.1680526E-003  0.9118800E+02  0.7818608E-02  0.1130116E+00
         25   -1    0    0    0    0  0.00000000000E+00  0.00000000000E+00  0.99999998245E-14  0.12500000000E+03  0.12500000000E+03 0.  0.
        -13    1    3    3    0    0 -0.33807673918E+02  0.36529728453E+02 -0.27910592556E+01  0.49851590270E+02  0.10566000000E+00 0.  1.
         23    2    1    0    0    0  0.12352582441E+02  0.13578573835E+02 -0.13131980699E+02  0.10242982327E+03  0.99912240584E+02 0.  0.
         13    1    3    3    0    0  0.46160256360E+02 -0.22951154618E+02 -0.10340921443E+02  0.52578233004E+02  0.10566000000E+00 0. -1.
         22    1    1    0    0    0 -0.12352582441E+02 -0.13578573835E+02  0.13131980699E+02  0.22570176726E+02  0.00000000000E+00 0. -1.
</event>
<event>
 5    1  0.1680526E-003  0.9118800E+02  0.7818608E-02  0.1130116E+00
         25   -1    0    0    0    0  0.00000000000E+00  0.00000000000E+00  0.99999998245E-14  0.12500000000E+03  0.12500000000E+03 0.  0.
        -13    1    3    3    0    0 -0.38445503583E+02  0.40999231957E+01  0.12044861186E+02  0.40496369726E+02  0.10566000000E+00 0.  1.
         23    2    1    0    0    0  0.11454098479E+02  0.25434928170E+02  0.11657412877E+02  0.94767116943E+02  0.89815250574E+02 0.  0.
         13    1    3    3    0    0  0.49899602062E+02  0.21335004974E+02 -0.38744830839E+00  0.54270747217E+02  0.10566000000E+00 0. -1.
         22    1    1    0    0    0 -0.11454098479E+02 -0.25434928170E+02 -0.11657412877E+02  0.30232883057E+02  0.00000000000E+00 0. -1.
</event>
<event>
 5    1  0.1680526E-003  0.9118800E+02  0.7818608E-02  0.1130116E+00
         25   -1    0    0    0    0  0.00000000000E+00  0.00000000000E+00  0.99999998245E-14  0.12500000000E+03  0.12500000000E+03 0.  0.
        -13    1    3    3    0    0 -0.24050861048E+02  0.32971902471E+02  0.53809912890E+01  0.41164991206E+02  0.10566000000E+00 0. -1.
         23    2    1    0    0    0 -0.17350884659E+02 -0.15444542224E+02 -0.18253510640E+02  0.95457188122E+02  0.90770573593E+02 0.  0.
         13    1    3    3    0    0  0.66999763885E+01 -0.48416444695E+02 -0.23634501929E+02  0.54292196916E+02  0.10566000000E+00 0.  1.
         22    1    1    0    0    0  0.17350884659E+02  0.15444542224E+02  0.18253510640E+02  0.29542811878E+02  0.00000000000E+00 0.  1.
</event>
<event>
 5    1  0.1680526E-003  0.9118800E+02  0.7818608E-02  0.1130116E+00
         25   -1    0    0    0    0  0.00000000000E+00  0.00000000000E+00  0.99999998245E-14  0.12500000000E+03  0.12500000000E+03 0.  0.
        -13    1    3    3    0    0 -0.26529354397E+02 -0.30514795464E+02 -0.40554512473E+02  0.57268132787E+02  0.10566000000E+00 0. -1.
         23    2    1    0    0    0 -0.23722843218E+02 -0.16017424518E+02 -0.47679996839E+01  0.95981643749E+02  0.91489949925E+02 0.  0.
         13    1    3    3    0    0  0.28065111797E+01  0.14497370946E+02  0.35786512789E+02  0.38713510962E+02  0.10566000000E+00 0.  1.
         22    1    1    0    0    0  0.23722843218E+02  0.16017424518E+02  0.47679996839E+01  0.29018356251E+02  0.00000000000E+00 0. -1.
</event>
<event>
 5    1  0.1680526E-003  0.9118800E+02  0.7818608E-02  0.1130116E+00
         25   -1    0    0    0    0  0.00000000000E+00  0.00000000000E+00  0.99999998245E-14  0.12500000000E+03  0.12500000000E+03 0.  0.
        -13    1    3    3    0    0 -0.27600107846E+00 -0.97297190155E+01  0.39304434316E+02  0.40491892147E+02  0.10566000000E+00 0. -1.
         23    2    1    0    0    0  0.25852879046E+02  0.12123893342E+02 -0.46173676336E+01  0.96074574704E+02  0.91616830746E+02 0.  0.
         13    1    3    3    0    0  0.26128880124E+02  0.21853612358E+02 -0.43921801950E+02  0.55582682556E+02  0.10566000000E+00 0.  1.
         22    1    1    0    0    0 -0.25852879046E+02 -0.12123893342E+02  0.46173676336E+01  0.28925425296E+02  0.00000000000E+00 0.  1.
</event>
<event>
 5    1  0.1680526E-003  0.9118800E+02  0.7818608E-02  0.1130116E+00
         25   -1    0    0    0    0  0.00000000000E+00  0.00000000000E+00  0.99999998245E-14  0.12500000000E+03  0.12500000000E+03 0.  0.
        -13    1    3    3    0    0 -0.42837274064E+02 -0.19768674214E+02 -0.12357718478E+02  0.48770451090E+02  0.10566000000E+00 0. -1.
         23    2    1    0    0    0 -0.11070838711E+02  0.11281534934E+02 -0.25414942643E+02  0.95070820096E+02  0.90236938245E+02 0.  0.
         13    1    3    3    0    0  0.31766435353E+02  0.31050209148E+02 -0.13057224164E+02  0.46300369006E+02  0.10566000000E+00 0.  1.
         22    1    1    0    0    0  0.11070838711E+02 -0.11281534934E+02  0.25414942643E+02  0.29929179904E+02  0.00000000000E+00 0. -1.
</event>
<event>
 5    1  0.1680526E-003  0.9118800E+02  0.7818608E-02  0.1130116E+00
         25   -1    0    0    0    0  0.00000000000E+00  0.00000000000E+00  0.99999998245E-14  0.12500000000E+03  0.12500000000E+03 0.  0.
        -13    1    3    3    0    0  0.22673986101E+02 -0.30303634275E+02 -0.49254032479E+02  0.62115946226E+02  0.10566000000E+00 0.  1.
         23    2    1    0    0    0  0.10502575071E+02 -0.18895391878E+02 -0.21415292635E+02  0.94570496619E+02  0.89541186919E+02 0.  0.
         13    1    3    3    0    0 -0.12171411030E+02  0.11408242397E+02  0.27838739845E+02  0.32454550394E+02  0.10566000000E+00 0. -1.
         22    1    1    0    0    0 -0.10502575071E+02  0.18895391878E+02  0.21415292635E+02  0.30429503381E+02  0.00000000000E+00 0.  1.
</event>
<event>
 5    1  0.1680526E-003  0.9118800E+02  0.7818608E-02  0.1130116E+00
         25   -1    0    0    0    0  0.00000000000E+00  0.00000000000E+00  0.99999998245E-14  0.12500000000E+03  0.12500000000E+03 0.  0.
        -13    1    3    3    0    0  0.45065482154E+01 -0.32445254286E+02 -0.59235773785E+01  0.33288187627E+02  0.10566000000E+00 0. -1.
         23    2    1    0    0    0 -0.65599866978E-01  0.28836689446E+02  0.50836633926E+01  0.95718562278E+02  0.91129800666E+02 0.  0.
         13    1    3    3    0    0 -0.45721480824E+01  0.61281943732E+02  0.11007240771E+02  0.62430374651E+02  0.10566000000E+00 0.  1.
         22    1    1    0    0    0  0.65599866978E-01 -0.28836689446E+02 -0.50836633926E+01  0.29281437722E+02  0.00000000000E+00 0.  1.
</event>
<event>
 5    1  0.1680526E-003  0.9118800E+02  0.7818608E-02  0.1130116E+00
         25   -1    0    0    0    0  0.00000000000E+00  0.00000000000E+00  0.99999998245E-14  0.12500000000E+03  0.12500000000E+03 0.  0.
        -13    1    3    3    0    0  0.17158747786E+02  0.20263825152E+02  0.24786291957E+02  0.36323775525E+02  0.10566000000E+00 0. -1.
         23    2    1    0    0    0 -0.11492083774E+02 -0.25697691436E+02 -0.20634485853E+01  0.96774175749E+02  0.92566429861E+02 0.  0.
         13    1    3    3    0    0 -0.28650831560E+02 -0.45961516587E+02 -0.26849740542E+02  0.60450400224E+02  0.10566000000E+00 0.  1.
         22    1    1    0    0    0  0.11492083774E+02  0.25697691436E+02  0.20634485853E+01  0.28225824251E+02  0.00000000000E+00 0.  1.
</event>
<event>
 5    1  0.1680526E-003  0.9118800E+02  0.7818608E-02  0.1130116E+00
         25   -1    0    0    0    0  0.00000000000E+00  0.00000000000E+00  0.99999998245E-14  0.12500000000E+03  0.12500000000E+03 0.  0.
        -13    1    3    3    0    0 -0.28922856802E+02 -0.16183548282E+02  0.71433706025E+01  0.33903949448E+02  0.10566000000E+00 0.  1.
         23    2    1    0    0    0  0.23626335654E+02  0.14104833032E+02 -0.78556841766E+01  0.96384238169E+02  0.92038359081E+02 0.  0.
         13    1    3    3    0    0  0.52549192456E+02  0.30288381314E+02 -0.14999054779E+02  0.62480288721E+02  0.10566000000E+00 0. -1.
         22    1    1    0    0    0 -0.23626335654E+02 -0.14104833032E+02  0.78556841766E+01  0.28615761831E+02  0.00000000000E+00 0. -1.
</event>
<event>
 5    1  0.1680526E-003  0.9118800E+02  0.7818608E-02  0.1130116E+00
         25   -1    0    0    0    0  0.00000000000E+00  0.00000000000E+00  0.99999998245E-14  0.12500000000E+03  0.12500000000E+03 0.  0.
        -13    1    3    3    0    0 -0.30039335403E+02 -0.22857556732E+02  0.47222204826E+02  0.60454754684E+02  0.10566000000E+00 0.  1.
         23    2    1    0    0    0 -0.13176270533E+02 -0.62281212813E+00  0.27103165660E+02  0.94857279670E+02  0.89940646637E+02 0.  0.
         13    1    3    3    0    0  0.16863064870E+02  0.22234744604E+02 -0.20119039166E+02  0.34402524986E+02  0.10566000000E+00 0. -1.
         22    1    1    0    0    0  0.13176270533E+02  0.62281212813E+00 -0.27103165660E+02  0.30142720330E+02  0.00000000000E+00 0.  1.
</event>
<event>
 5    1  0.1680526E-003  0.9118800E+02  0.7818608E-02  0.1130116E+00
         25   -1    0    0    0    0  0.00000000000E+00  0.00000000000E+00  0.99999998245E-14  0.12500000000E+03  0.12500000000E+03 0.  0.
        -13    1    3    3    0    0 -0.45568965156E+02 -0.27057188219E+01 -0.12593345288E+02  0.47354566932E+02  0.10566000000E+00 0. -1.
         23    2    1    0    0    0 -0.19808926234E+01 -0.24574485509E+02 -0.14930879583E+02  0.96177084832E+02  0.91756586729E+02 0.  0.
         13    1    3    3    0    0  0.43588072533E+02 -0.21868766687E+02 -0.23375342957E+01  0.48822517901E+02  0.10566000000E+00 0.  1.
         22    1    1    0    0    0  0.19808926234E+01  0.24574485509E+02  0.14930879583E+02  0.28822915168E+02  0.00000000000E+00 0.  1.
</event>
<event>
 5    1  0.1680526E-003  0.9118800E+02  0.7818608E-02  0.1130116E+00
         25   -1    0    0    0    0  0.00000000000E+00  0.00000000000E+00  0.99999998245E-14  0.12500000000E+03  0.12500000000E+03 0.  0.
        -13    1    3    3    0    0  0.77859603174E+01  0.30094286199E+01 -0.55755171882E+02  0.56376663561E+02  0.10566000000E+00 0.  1.
         23    2    1    0    0    0  0.93454390818E+01  0.19874875050E+02 -0.23332033350E+02  0.92957346081E+02  0.87260165714E+02 0.  0.
         13    1    3    3    0    0  0.15594787644E+01  0.16865446430E+02  0.32423138532E+02  0.36580682520E+02  0.10566000000E+00 0. -1.
         22    1    1    0    0    0 -0.93454390818E+01 -0.19874875050E+02  0.23332033350E+02  0.32042653919E+02  0.00000000000E+00 0.  1.
</event>
<event>
 5    1  0.1680526E-003  0.9118800E+02  0.7818608E-02  0.1130116E+00
         25   -1    0    0    0    0  0.00000000000E+00  0.00000000000E+00  0.99999998245E-14  0.12500000000E+03  0.12500000000E+03 0.  0.
        -13    1    3    3    0    0 -0.45964291523E+01 -0.33195762677E+02 -0.48678140648E+02  0.59098717089E+02  0.10566000000E+00 0.  1.
         23    2    1    0    0    0 -0.14219409391E+02 -0.26236580064E+02 -0.23227956379E+02  0.87183499707E+02  0.78554916630E+02 0.  0.
         13    1    3    3    0    0 -0.96229802388E+01  0.69591826130E+01  0.25450184269E+02  0.28084782618E+02  0.10566000000E+00 0. -1.
         22    1    1    0    0    0  0.14219409391E+02  0.26236580064E+02  0.23227956379E+02  0.37816500293E+02  0.00000000000E+00 0.  1.
</event>
<event>
 5    1  0.1680526E-003  0.9118800E+02  0.7818608E-02  0.1130116E+00
         25   -1    0    0    0    0  0.00000000000E+00  0.00000000000E+00  0.99999998245E-14  0.12500000000E+03  0.12500000000E+03 0.  0.
        -13    1    3    3    0    0  0.24703694352E+02 -0.10625554496E+02  0.25275714573E+02  0.36905932236E+02  0.10566000000E+00 0.  1.
         23    2    1    0    0    0 -0.25077157257E+02  0.60846360522E+01 -0.66395100163E+01  0.98354743288E+02  0.94676743829E+02 0.  0.
         13    1    3    3    0    0 -0.49780851609E+02  0.16710190548E+02 -0.31915224590E+02  0.61448811052E+02  0.10566000000E+00 0. -1.
         22    1    1    0    0    0  0.25077157257E+02 -0.60846360522E+01  0.66395100163E+01  0.26645256712E+02  0.00000000000E+00 0. -1.
</event>
<event>
 5    1  0.1680526E-003  0.9118800E+02  0.7818608E-02  0.1130116E+00
         25   -1    0    0    0    0  0.00000000000E+00  0.00000000000E+00  0.99999998245E-14  0.12500000000E+03  0.12500000000E+03 0.  0.
        -13    1    3    3    0    0  0.14856602727E+02 -0.11485212995E+02  0.11419334063E+02  0.21978196391E+02  0.10566000000E+00 0.  1.
         23    2    1    0    0    0 -0.29390144208E+02 -0.29331316921E+02 -0.19803480523E+02  0.78996906955E+02  0.64220142781E+02 0.  0.
         13    1    3    3    0    0 -0.44246746935E+02 -0.17846103926E+02 -0.31222814586E+02  0.57018710564E+02  0.10566000000E+00 0. -1.
         22    1    1    0    0    0  0.29390144208E+02  0.29331316921E+02  0.19803480523E+02  0.46003093045E+02  0.00000000000E+00 0. -1.
</event>
<event>
 5    1  0.1680526E-003  0.9118800E+02  0.7818608E-02  0.1130116E+00
         25   -1    0    0    0    0  0.00000000000E+00  0.00000000000E+00  0.99999998245E-14  0.12500000000E+03  0.12500000000E+03 0.  0.
        -13    1    3    3    0    0  0.33955146438E+02  0.59251166703E+01  0.11357831592E+02  0.36291465659E+02  0.10566000000E+00 0. -1.
         23    2    1    0    0    0 -0.24990462775E+02  0.74759138004E+01  0.14151656649E+02  0.95323714808E+02  0.90586581248E+02 0.  0.
         13    1    3    3    0    0 -0.58945609213E+02  0.15507971301E+01  0.27938250569E+01  0.59032249150E+02  0.10566000000E+00 0.  1.
         22    1    1    0    0    0  0.24990462775E+02 -0.74759138004E+01 -0.14151656649E+02  0.29676285192E+02  0.00000000000E+00 0.  1.
</event>
<event>
 5    1  0.1680526E-003  0.9118800E+02  0.7818608E-02  0.1130116E+00
         25   -1    0    0    0    0  0.00000000000E+00  0.00000000000E+00  0.99999998245E-14  0.12500000000E+03  0.12500000000E+03 0.  0.
        -13    1    3    3    0    0  0.23813153707E+02 -0.27890799398E+02  0.77876198912E+01  0.37491614637E+02  0.10566000000E+00 0.  1.
         23    2    1    0    0    0 -0.29183064149E+02 -0.65730888025E+01  0.46475312503E+00  0.95082233957E+02  0.90252747822E+02 0.  0.
         13    1    3    3    0    0 -0.52996217855E+02  0.21317710595E+02 -0.73228667661E+01  0.57590619320E+02  0.10566000000E+00 0. -1.
         22    1    1    0    0    0  0.29183064149E+02  0.65730888025E+01 -0.46475312503E+00  0.29917766043E+02  0.00000000000E+00 0. -1.
</event>
<event>
 5    1  0.1680526E-003  0.9118800E+02  0.7818608E-02  0.1130116E+00
         25   -1    0    0    0    0  0.00000000000E+00  0.00000000000E+00  0.99999998245E-14  0.12500000000E+03  0.12500000000E+03 0.  0.
        -13    1    3    3    0    0  0.22275952722E+02 -0.16758023660E+02  0.42525001756E+02  0.50847186403E+02  0.10566000000E+00 0.  1.
         23    2    1    0    0    0 -0.14014176364E+02 -0.18542098915E+02  0.96937571214E+01  0.99817158650E+02  0.96588248055E+02 0.  0.
         13    1    3    3    0    0 -0.36290129086E+02 -0.17840752550E+01 -0.32831244635E+02  0.48969972247E+02  0.10566000000E+00 0. -1.
         22    1    1    0    0    0  0.14014176364E+02  0.18542098915E+02 -0.96937571214E+01  0.25182841350E+02  0.00000000000E+00 0. -1.
</event>
<event>
 5    1  0.1680526E-003  0.9118800E+02  0.7818608E-02  0.1130116E+00
         25   -1    0    0    0    0  0.00000000000E+00  0.00000000000E+00  0.99999998245E-14  0.12500000000E+03  0.12500000000E+03 0.  0.
        -13    1    3    3    0    0  0.30044591863E+01  0.40925388842E+02 -0.46369336750E+02  0.61919631633E+02  0.10566000000E+00 0.  1.
         23    2    1    0    0    0  0.20821133904E+01  0.14801866981E+02 -0.25802121429E+02  0.95180879749E+02  0.90389268928E+02 0.  0.
         13    1    3    3    0    0 -0.92234579593E+00 -0.26123521860E+02  0.20567215322E+02  0.33261248117E+02  0.10566000000E+00 0. -1.
         22    1    1    0    0    0 -0.20821133904E+01 -0.14801866981E+02  0.25802121429E+02  0.29819120251E+02  0.00000000000E+00 0.  1.
</event>
<event>
 5    1  0.1680526E-003  0.9118800E+02  0.7818608E-02  0.1130116E+00
         25   -1    0    0    0    0  0.00000000000E+00  0.00000000000E+00  0.99999998245E-14  0.12500000000E+03  0.12500000000E+03 0.  0.
        -13    1    3    3    0    0  0.67289049430E+01 -0.20973782209E+02 -0.16607696113E+02  0.27586308852E+02  0.10566000000E+00 0.  1.
         23    2    1    0    0    0 -0.56155690899E+01  0.31291002206E+02  0.14943813813E+02  0.89871962672E+02  0.82722371025E+02 0.  0.
         13    1    3    3    0    0 -0.12344474033E+02  0.52264784415E+02  0.31551509926E+02  0.62285653820E+02  0.10566000000E+00 0. -1.
         22    1    1    0    0    0  0.56155690899E+01 -0.31291002206E+02 -0.14943813813E+02  0.35128037328E+02  0.00000000000E+00 0. -1.
</event>
<event>
 5    1  0.1680526E-003  0.9118800E+02  0.7818608E-02  0.1130116E+00
         25   -1    0    0    0    0  0.00000000000E+00  0.00000000000E+00  0.99999998245E-14  0.12500000000E+03  0.12500000000E+03 0.  0.
        -13    1    3    3    0    0  0.26191904983E+02 -0.30815629019E+02 -0.44381878693E+01  0.40685716831E+02  0.10566000000E+00 0. -1.
         23    2    1    0    0    0  0.17230758215E+02  0.23396307372E+02 -0.42535909588E+01  0.95633705318E+02  0.91013330504E+02 0.  0.
         13    1    3    3    0    0 -0.89611467684E+01  0.54211936391E+02  0.18459691041E+00  0.54947988487E+02  0.10566000000E+00 0.  1.
         22    1    1    0    0    0 -0.17230758215E+02 -0.23396307372E+02  0.42535909588E+01  0.29366294682E+02  0.00000000000E+00 0.  1.
</event>
<event>
 5    1  0.1680526E-003  0.9118800E+02  0.7818608E-02  0.1130116E+00
         25   -1    0    0    0    0  0.00000000000E+00  0.00000000000E+00  0.99999998245E-14  0.12500000000E+03  0.12500000000E+03 0.  0.
        -13    1    3    3    0    0  0.17189819530E+01  0.26843757027E+02 -0.38888479852E+02  0.47284957645E+02  0.10566000000E+00 0.  1.
         23    2    1    0    0    0  0.93561562452E+01 -0.17316888978E+02 -0.22746977396E+02  0.94919486636E+02  0.90027060705E+02 0.  0.
         13    1    3    3    0    0  0.76371742923E+01 -0.44160646004E+02  0.16141502456E+02  0.47634528991E+02  0.10566000000E+00 0. -1.
         22    1    1    0    0    0 -0.93561562452E+01  0.17316888978E+02  0.22746977396E+02  0.30080513364E+02  0.00000000000E+00 0. -1.
</event>
<event>
 5    1  0.1680526E-003  0.9118800E+02  0.7818608E-02  0.1130116E+00
         25   -1    0    0    0    0  0.00000000000E+00  0.00000000000E+00  0.99999998245E-14  0.12500000000E+03  0.12500000000E+03 0.  0.
        -13    1    3    3    0    0 -0.51802477350E+01  0.52034302500E+02 -0.33659812927E+02  0.62188405460E+02  0.10566000000E+00 0.  1.
         23    2    1    0    0    0 -0.49359213262E+01  0.19507007483E+02 -0.16574766987E+02  0.98930677781E+02  0.95434110491E+02 0.  0.
         13    1    3    3    0    0  0.24432640882E+00 -0.32527295017E+02  0.17085045940E+02  0.36742272321E+02  0.10566000000E+00 0. -1.
         22    1    1    0    0    0  0.49359213262E+01 -0.19507007483E+02  0.16574766987E+02  0.26069322219E+02  0.00000000000E+00 0.  1.
</event>
<event>
 5    1  0.1680526E-003  0.9118800E+02  0.7818608E-02  0.1130116E+00
         25   -1    0    0    0    0  0.00000000000E+00  0.00000000000E+00  0.99999998245E-14  0.12500000000E+03  0.12500000000E+03 0.  0.
        -13    1    3    3    0    0  0.28217687032E+01  0.58573858879E+02  0.17686113119E+01  0.58668547559E+02  0.10566000000E+00 0. -1.
         23    2    1    0    0    0  0.11240041761E+02  0.26331954106E+02  0.12616635978E+02  0.93712784573E+02  0.88335701408E+02 0.  0.
         13    1    3    3    0    0  0.84182730574E+01 -0.32241904774E+02  0.10848024666E+02  0.35044237014E+02  0.10566000000E+00 0.  1.
         22    1    1    0    0    0 -0.11240041761E+02 -0.26331954106E+02 -0.12616635978E+02  0.31287215427E+02  0.00000000000E+00 0. -1.
</event>
<event>
 5    1  0.1680526E-003  0.9118800E+02  0.7818608E-02  0.1130116E+00
         25   -1    0    0    0    0  0.00000000000E+00  0.00000000000E+00  0.99999998245E-14  0.12500000000E+03  0.12500000000E+03 0.  0.
        -13    1    3    3    0    0  0.20093553756E+02 -0.18112949802E+02 -0.30945149355E+02  0.41102837928E+02  0.10566000000E+00 0.  1.
         23    2    1    0    0    0 -0.18409922617E+02 -0.18784908611E+02  0.95806230245E+01  0.97007387049E+02  0.92880820207E+02 0.  0.
         13    1    3    3    0    0 -0.38503476373E+02 -0.67195880848E+00  0.40525772380E+02  0.55904549121E+02  0.10566000000E+00 0. -1.
         22    1    1    0    0    0  0.18409922617E+02  0.18784908611E+02 -0.95806230245E+01  0.27992612951E+02  0.00000000000E+00 0. -1.
</event>
<event>
 5    1  0.1680526E-003  0.9118800E+02  0.7818608E-02  0.1130116E+00
         25   -1    0    0    0    0  0.00000000000E+00  0.00000000000E+00  0.99999998245E-14  0.12500000000E+03  0.12500000000E+03 0.  0.
        -13    1    3    3    0    0 -0.37443018901E+02 -0.30366134029E+01  0.11833717231E+02  0.39385894848E+02  0.10566000000E+00 0. -1.
         23    2    1    0    0    0  0.10078230773E+02 -0.26519725176E+02 -0.72408138373E+01  0.95720383473E+02  0.91132298711E+02 0.  0.
         13    1    3    3    0    0  0.47521249675E+02 -0.23483111773E+02 -0.19074531069E+02  0.56334488626E+02  0.10566000000E+00 0.  1.
         22    1    1    0    0    0 -0.10078230773E+02  0.26519725176E+02  0.72408138373E+01  0.29279616527E+02  0.00000000000E+00 0.  1.
</event>
<event>
 5    1  0.1680526E-003  0.9118800E+02  0.7818608E-02  0.1130116E+00
         25   -1    0    0    0    0  0.00000000000E+00  0.00000000000E+00  0.99999998245E-14  0.12500000000E+03  0.12500000000E+03 0.  0.
        -13    1    3    3    0    0 -0.18253488191E+02  0.26737939620E+02  0.35115356685E+02  0.47761979496E+02  0.10566000000E+00 0.  1.
         23    2    1    0    0    0  0.68683768608E+01 -0.53967196692E+01  0.35385800443E+02  0.88552036314E+02  0.80703216036E+02 0.  0.
         13    1    3    3    0    0  0.25121865052E+02 -0.32134659289E+02  0.27044375787E+00  0.40790056818E+02  0.10566000000E+00 0. -1.
         22    1    1    0    0    0 -0.68683768608E+01  0.53967196692E+01 -0.35385800443E+02  0.36447963686E+02  0.00000000000E+00 0. -1.
</event>
<event>
 5    1  0.1680526E-003  0.9118800E+02  0.7818608E-02  0.1130116E+00
         25   -1    0    0    0    0  0.00000000000E+00  0.00000000000E+00  0.99999998245E-14  0.12500000000E+03  0.12500000000E+03 0.  0.
        -13    1    3    3    0    0 -0.29653245173E+02 -0.60212504630E+01 -0.13620981541E+02  0.33183018377E+02  0.10566000000E+00 0. -1.
         23    2    1    0    0    0  0.29214982048E+02 -0.25817055320E+01  0.54707315807E+01  0.95165300680E+02  0.90367721947E+02 0.  0.
         13    1    3    3    0    0  0.58868227221E+02  0.34395449310E+01  0.19091713122E+02  0.61982282303E+02  0.10566000000E+00 0.  1.
         22    1    1    0    0    0 -0.29214982048E+02  0.25817055320E+01 -0.54707315807E+01  0.29834699320E+02  0.00000000000E+00 0.  1.
</event>
<event>
 5    1  0.1680526E-003  0.9118800E+02  0.7818608E-02  0.1130116E+00
         25   -1    0    0    0    0  0.00000000000E+00  0.00000000000E+00  0.99999998245E-14  0.12500000000E+03  0.12500000000E+03 0.  0.
        -13    1    3    3    0    0  0.41707661974E+02  0.31388069544E+02  0.13135067829E+01  0.52215672371E+02  0.10566000000E+00 0.  1.
         23    2    1    0    0    0  0.24611367372E+02 -0.36067973239E+01 -0.16610035374E+02  0.95089773220E+02  0.90263189092E+02 0.  0.
         13    1    3    3    0    0 -0.17096294602E+02 -0.34994866868E+02 -0.17923542157E+02  0.42874100850E+02  0.10566000000E+00 0. -1.
         22    1    1    0    0    0 -0.24611367372E+02  0.36067973239E+01  0.16610035374E+02  0.29910226780E+02  0.00000000000E+00 0. -1.
</event>
<event>
 5    1  0.1680526E-003  0.9118800E+02  0.7818608E-02  0.1130116E+00
         25   -1    0    0    0    0  0.00000000000E+00  0.00000000000E+00  0.99999998245E-14  0.12500000000E+03  0.12500000000E+03 0.  0.
        -13    1    3    3    0    0  0.17148957030E+02  0.10629620231E+02  0.25668978724E+02  0.32649397946E+02  0.10566000000E+00 0. -1.
         23    2    1    0    0    0 -0.18978412666E+02 -0.92968495599E+01 -0.21182724779E+02  0.95078111889E+02  0.90247038579E+02 0.  0.
         13    1    3    3    0    0 -0.36127369696E+02 -0.19926469791E+02 -0.46851703503E+02  0.62428713943E+02  0.10566000000E+00 0.  1.
         22    1    1    0    0    0  0.18978412666E+02  0.92968495599E+01  0.21182724779E+02  0.29921888111E+02  0.00000000000E+00 0.  1.
</event>
<event>
 5    1  0.1680526E-003  0.9118800E+02  0.7818608E-02  0.1130116E+00
         25   -1    0    0    0    0  0.00000000000E+00  0.00000000000E+00  0.99999998245E-14  0.12500000000E+03  0.12500000000E+03 0.  0.
        -13    1    3    3    0    0 -0.24732642588E+02 -0.55101863800E+00 -0.42847742558E+01  0.25107323342E+02  0.10566000000E+00 0.  1.
         23    2    1    0    0    0  0.24098054128E+02  0.10749952343E+02  0.29399101054E+02  0.85495761861E+02  0.75821767753E+02 0.  0.
         13    1    3    3    0    0  0.48830696716E+02  0.11300970981E+02  0.33683875310E+02  0.60388438519E+02  0.10566000000E+00 0. -1.
         22    1    1    0    0    0 -0.24098054128E+02 -0.10749952343E+02 -0.29399101054E+02  0.39504238139E+02  0.00000000000E+00 0. -1.
</event>
<event>
 5    1  0.1680526E-003  0.9118800E+02  0.7818608E-02  0.1130116E+00
         25   -1    0    0    0    0  0.00000000000E+00  0.00000000000E+00  0.99999998245E-14  0.12500000000E+03  0.12500000000E+03 0.  0.
        -13    1    3    3    0    0 -0.43175593467E+02 -0.35440180954E+02  0.27940012650E+02  0.62456334893E+02  0.10566000000E+00 0. -1.
         23    2    1    0    0    0 -0.19879904781E+02 -0.17777078646E+02  0.11984419767E+02  0.95761986107E+02  0.91189344370E+02 0.  0.
         13    1    3    3    0    0  0.23295688685E+02  0.17663102309E+02 -0.15955592884E+02  0.33305651214E+02  0.10566000000E+00 0.  1.
         22    1    1    0    0    0  0.19879904781E+02  0.17777078646E+02 -0.11984419767E+02  0.29238013893E+02  0.00000000000E+00 0. -1.
</event>
<event>
 5    1  0.1680526E-003  0.9118800E+02  0.7818608E-02  0.1130116E+00
         25   -1    0    0    0    0  0.00000000000E+00  0.00000000000E+00  0.99999998245E-14  0.12500000000E+03  0.12500000000E+03 0.  0.
        -13    1    3    3    0    0 -0.46092760177E+01 -0.27882532105E+02  0.36635552159E+02  0.46269383700E+02  0.10566000000E+00 0. -1.
         23    2    1    0    0    0  0.27789961347E+02 -0.32909565803E+01  0.84065058234E+01  0.95780457104E+02  0.91214660423E+02 0.  0.
         13    1    3    3    0    0  0.32399237365E+02  0.24591575525E+02 -0.28229046335E+02  0.49511073404E+02  0.10566000000E+00 0.  1.
         22    1    1    0    0    0 -0.27789961347E+02  0.32909565803E+01 -0.84065058234E+01  0.29219542896E+02  0.00000000000E+00 0. -1.
</event>
<event>
 5    1  0.1680526E-003  0.9118800E+02  0.7818608E-02  0.1130116E+00
         25   -1    0    0    0    0  0.00000000000E+00  0.00000000000E+00  0.99999998245E-14  0.12500000000E+03  0.12500000000E+03 0.  0.
        -13    1    3    3    0    0  0.11300740320E+02 -0.14181015446E+02 -0.31837542639E+02  0.36639435261E+02  0.10566000000E+00 0.  1.
         23    2    1    0    0    0 -0.23507227199E+02 -0.59441723085E+01  0.15687037960E+02  0.96120836664E+02  0.91679927825E+02 0.  0.
         13    1    3    3    0    0 -0.34807967519E+02  0.82368431375E+01  0.47524580600E+02  0.59481401403E+02  0.10566000000E+00 0. -1.
         22    1    1    0    0    0  0.23507227199E+02  0.59441723085E+01 -0.15687037960E+02  0.28879163336E+02  0.00000000000E+00 0. -1.
</event>
<event>
 5    1  0.1680526E-003  0.9118800E+02  0.7818608E-02  0.1130116E+00
         25   -1    0    0    0    0  0.00000000000E+00  0.00000000000E+00  0.99999998245E-14  0.12500000000E+03  0.12500000000E+03 0.  0.
        -13    1    3    3    0    0 -0.46657308206E+01  0.46155117967E+02  0.33152468833E+02  0.57018955728E+02  0.10566000000E+00 0. -1.
         23    2    1    0    0    0  0.17535312183E+01  0.28286102952E+02 -0.15939235965E+01  0.96614808713E+02  0.92350972807E+02 0.  0.
         13    1    3    3    0    0  0.64192620388E+01 -0.17869015015E+02 -0.34746392429E+02  0.39595852985E+02  0.10566000000E+00 0.  1.
         22    1    1    0    0    0 -0.17535312183E+01 -0.28286102952E+02  0.15939235965E+01  0.28385191287E+02  0.00000000000E+00 0. -1.
</event>
<event>
 5    1  0.1680526E-003  0.9118800E+02  0.7818608E-02  0.1130116E+00
         25   -1    0    0    0    0  0.00000000000E+00  0.00000000000E+00  0.99999998245E-14  0.12500000000E+03  0.12500000000E+03 0.  0.
        -13    1    3    3    0    0  0.12295116465E+01  0.46639739521E+02  0.65396595750E+01  0.47112156742E+02  0.10566000000E+00 0.  1.
         23    2    1    0    0    0 -0.65873135878E+01  0.13587337177E+02 -0.26502696701E+02  0.94497518720E+02  0.89439251338E+02 0.  0.
         13    1    3    3    0    0 -0.78168252343E+01 -0.33052402344E+02 -0.33042356276E+02  0.47385361978E+02  0.10566000000E+00 0. -1.
         22    1    1    0    0    0  0.65873135878E+01 -0.13587337177E+02  0.26502696701E+02  0.30502481280E+02  0.00000000000E+00 0.  1.
</event>
<event>
 5    1  0.1680526E-003  0.9118800E+02  0.7818608E-02  0.1130116E+00
         25   -1    0    0    0    0  0.00000000000E+00  0.00000000000E+00  0.99999998245E-14  0.12500000000E+03  0.12500000000E+03 0.  0.
        -13    1    3    3    0    0 -0.33824306544E+02 -0.23918986552E+02  0.31425101514E+02  0.51997594176E+02  0.10566000000E+00 0. -1.
         23    2    1    0    0    0  0.64844287729E+01 -0.24630956058E+02  0.14204926050E+02  0.95836465631E+02  0.91291381891E+02 0.  0.
         13    1    3    3    0    0  0.40308735317E+02 -0.71196950524E+00 -0.17220175464E+02  0.43838871455E+02  0.10566000000E+00 0.  1.
         22    1    1    0    0    0 -0.64844287729E+01  0.24630956058E+02 -0.14204926050E+02  0.29163534369E+02  0.00000000000E+00 0. -1.
</event>
<event>
 5    1  0.1680526E-003  0.9118800E+02  0.7818608E-02  0.1130116E+00
         25   -1    0    0    0    0  0.00000000000E+00  0.00000000000E+00  0.99999998245E-14  0.12500000000E+03  0.12500000000E+03 0.  0.
        -13    1    3    3    0    0  0.41216061909E+01  0.48300640630E+02 -0.22442206786E+02  0.53419128899E+02  0.10566000000E+00 0. -1.
         23    2    1    0    0    0 -0.11556059032E+02  0.28279590097E+02 -0.32161034057E+02  0.80642251770E+02  0.67346588203E+02 0.  0.
         13    1    3    3    0    0 -0.15677665223E+02 -0.20021050533E+02 -0.97188272713E+01  0.27223122871E+02  0.10566000000E+00 0.  1.
         22    1    1    0    0    0  0.11556059032E+02 -0.28279590097E+02  0.32161034057E+02  0.44357748230E+02  0.00000000000E+00 0. -1.
</event>
<event>
 5    1  0.1680526E-003  0.9118800E+02  0.7818608E-02  0.1130116E+00
         25   -1    0    0    0    0  0.00000000000E+00  0.00000000000E+00  0.99999998245E-14  0.12500000000E+03  0.12500000000E+03 0.  0.
        -13    1    3    3    0    0  0.73239266858E+00  0.44045646900E+02  0.94253248087E+01  0.45048899228E+02  0.10566000000E+00 0. -1.
         23    2    1    0    0    0 -0.89776738957E+01  0.99633723934E+01 -0.26367449121E+02  0.95417745333E+02  0.90716240736E+02 0.  0.
         13    1    3    3    0    0 -0.97100665642E+01 -0.34082274507E+02 -0.35792773930E+02  0.50368846104E+02  0.10566000000E+00 0.  1.
         22    1    1    0    0    0  0.89776738957E+01 -0.99633723934E+01  0.26367449121E+02  0.29582254667E+02  0.00000000000E+00 0.  1.
</event>
<event>
 5    1  0.1680526E-003  0.9118800E+02  0.7818608E-02  0.1130116E+00
         25   -1    0    0    0    0  0.00000000000E+00  0.00000000000E+00  0.99999998245E-14  0.12500000000E+03  0.12500000000E+03 0.  0.
        -13    1    3    3    0    0  0.11314092631E+02  0.30447287062E+02 -0.43324963578E+02  0.54148957650E+02  0.10566000000E+00 0.  1.
         23    2    1    0    0    0  0.16106975322E+02  0.25092270965E+02 -0.30872604626E+01  0.95023544350E+02  0.90171426114E+02 0.  0.
         13    1    3    3    0    0  0.47928826905E+01 -0.53550160971E+01  0.40237703115E+02  0.40874586700E+02  0.10566000000E+00 0. -1.
         22    1    1    0    0    0 -0.16106975322E+02 -0.25092270965E+02  0.30872604626E+01  0.29976455650E+02  0.00000000000E+00 0.  1.
</event>
<event>
 5    1  0.1680526E-003  0.9118800E+02  0.7818608E-02  0.1130116E+00
         25   -1    0    0    0    0  0.00000000000E+00  0.00000000000E+00  0.99999998245E-14  0.12500000000E+03  0.12500000000E+03 0.  0.
        -13    1    3    3    0    0 -0.49575853041E+02 -0.34278451432E+02 -0.13727917419E+02  0.61816214038E+02  0.10566000000E+00 0. -1.
         23    2    1    0    0    0 -0.26969847984E+02 -0.10826477340E+02 -0.53503726916E+01  0.95449842644E+02  0.90760457584E+02 0.  0.
         13    1    3    3    0    0  0.22606005057E+02  0.23451974092E+02  0.83775447279E+01  0.33633628606E+02  0.10566000000E+00 0.  1.
         22    1    1    0    0    0  0.26969847984E+02  0.10826477340E+02  0.53503726916E+01  0.29550157356E+02  0.00000000000E+00 0. -1.
</event>
<event>
 5    1  0.1680526E-003  0.9118800E+02  0.7818608E-02  0.1130116E+00
         25   -1    0    0    0    0  0.00000000000E+00  0.00000000000E+00  0.99999998245E-14  0.12500000000E+03  0.12500000000E+03 0.  0.
        -13    1    3    3    0    0  0.54818940773E+02  0.99287553339E+01 -0.96014435868E+01  0.56532250379E+02  0.10566000000E+00 0.  1.
         23    2    1    0    0    0  0.22373817484E+02  0.15585645580E+02  0.11239536866E+02  0.95507166194E+02  0.90839372237E+02 0.  0.
         13    1    3    3    0    0 -0.32445123289E+02  0.56568902464E+01  0.20840980452E+02  0.38974915814E+02  0.10566000000E+00 0. -1.
         22    1    1    0    0    0 -0.22373817484E+02 -0.15585645580E+02 -0.11239536866E+02  0.29492833806E+02  0.00000000000E+00 0.  1.
</event>
<event>
 5    1  0.1680526E-003  0.9118800E+02  0.7818608E-02  0.1130116E+00
         25   -1    0    0    0    0  0.00000000000E+00  0.00000000000E+00  0.99999998245E-14  0.12500000000E+03  0.12500000000E+03 0.  0.
        -13    1    3    3    0    0 -0.65505453809E+00  0.21707706735E+02 -0.28850691085E+02  0.36111316346E+02  0.10566000000E+00 0. -1.
         23    2    1    0    0    0 -0.22573983490E+01 -0.19573741745E+02  0.17815268968E+02  0.98436660195E+02  0.94784835542E+02 0.  0.
         13    1    3    3    0    0 -0.16023438109E+01 -0.41281448479E+02  0.46665960053E+02  0.62325343849E+02  0.10566000000E+00 0.  1.
         22    1    1    0    0    0  0.22573983490E+01  0.19573741745E+02 -0.17815268968E+02  0.26563339805E+02  0.00000000000E+00 0.  1.
</event>
<event>
 5    1  0.1680526E-003  0.9118800E+02  0.7818608E-02  0.1130116E+00
         25   -1    0    0    0    0  0.00000000000E+00  0.00000000000E+00  0.99999998245E-14  0.12500000000E+03  0.12500000000E+03 0.  0.
        -13    1    3    3    0    0  0.29861190763E+02  0.41036741911E+02  0.14661292030E+02  0.52826788171E+02  0.10566000000E+00 0. -1.
         23    2    1    0    0    0  0.65271040839E+01  0.22741489719E+02 -0.16741406674E+02  0.96016329774E+02  0.91537328142E+02 0.  0.
         13    1    3    3    0    0 -0.23334086679E+02 -0.18295252193E+02 -0.31402698704E+02  0.43189541603E+02  0.10566000000E+00 0.  1.
         22    1    1    0    0    0 -0.65271040839E+01 -0.22741489719E+02  0.16741406674E+02  0.28983670226E+02  0.00000000000E+00 0. -1.
</event>
<event>
 5    1  0.1680526E-003  0.9118800E+02  0.7818608E-02  0.1130116E+00
         25   -1    0    0    0    0  0.00000000000E+00  0.00000000000E+00  0.99999998245E-14  0.12500000000E+03  0.12500000000E+03 0.  0.
        -13    1    3    3    0    0 -0.10637123686E+02  0.34681890776E+02  0.37567502080E+02  0.52223656753E+02  0.10566000000E+00 0. -1.
         23    2    1    0    0    0  0.19536226130E+02  0.71252937121E+01  0.17846620131E+02  0.97596792305E+02  0.93670689525E+02 0.  0.
         13    1    3    3    0    0  0.30173349817E+02 -0.27556597064E+02 -0.19720881949E+02  0.45373135552E+02  0.10566000000E+00 0.  1.
         22    1    1    0    0    0 -0.19536226130E+02 -0.71252937121E+01 -0.17846620131E+02  0.27403207695E+02  0.00000000000E+00 0. -1.
</event>
<event>
 5    1  0.1680526E-003  0.9118800E+02  0.7818608E-02  0.1130116E+00
         25   -1    0    0    0    0  0.00000000000E+00  0.00000000000E+00  0.99999998245E-14  0.12500000000E+03  0.12500000000E+03 0.  0.
        -13    1    3    3    0    0 -0.44482193902E+02 -0.26996352006E+02 -0.56701109869E+01  0.52341474173E+02  0.10566000000E+00 0.  1.
         23    2    1    0    0    0 -0.25803352695E+02  0.12554200115E+02 -0.19828300227E+01  0.96236263008E+02  0.91837169774E+02 0.  0.
         13    1    3    3    0    0  0.18678841207E+02  0.39550552121E+02  0.36872809642E+01  0.43894788835E+02  0.10566000000E+00 0. -1.
         22    1    1    0    0    0  0.25803352695E+02 -0.12554200115E+02  0.19828300227E+01  0.28763736992E+02  0.00000000000E+00 0. -1.
</event>
<event>
 5    1  0.1680526E-003  0.9118800E+02  0.7818608E-02  0.1130116E+00
         25   -1    0    0    0    0  0.00000000000E+00  0.00000000000E+00  0.99999998245E-14  0.12500000000E+03  0.12500000000E+03 0.  0.
        -13    1    3    3    0    0  0.16643780622E+02  0.33288795994E+02  0.28397247356E+02  0.46814252035E+02  0.10566000000E+00 0. -1.
         23    2    1    0    0    0 -0.40938620912E+01 -0.14525662577E+02  0.20525784898E+02  0.99523296411E+02  0.96207193612E+02 0.  0.
         13    1    3    3    0    0 -0.20737642714E+02 -0.47814458571E+02 -0.78714624583E+01  0.52709044376E+02  0.10566000000E+00 0.  1.
         22    1    1    0    0    0  0.40938620912E+01  0.14525662577E+02 -0.20525784898E+02  0.25476703589E+02  0.00000000000E+00 0.  1.
</event>
<event>
 5    1  0.1680526E-003  0.9118800E+02  0.7818608E-02  0.1130116E+00
         25   -1    0    0    0    0  0.00000000000E+00  0.00000000000E+00  0.99999998245E-14  0.12500000000E+03  0.12500000000E+03 0.  0.
        -13    1    3    3    0    0 -0.16245162929E+02 -0.30893227872E+02  0.13825073108E+00  0.34904543031E+02  0.10566000000E+00 0.  1.
         23    2    1    0    0    0  0.25975361186E+02  0.11568893620E+02 -0.83048901713E+01  0.95376869020E+02  0.90659898825E+02 0.  0.
         13    1    3    3    0    0  0.42220524114E+02  0.42462121492E+02 -0.84431409024E+01  0.60472325988E+02  0.10566000000E+00 0. -1.
         22    1    1    0    0    0 -0.25975361186E+02 -0.11568893620E+02  0.83048901713E+01  0.29623130980E+02  0.00000000000E+00 0. -1.
</event>
<event>
 5    1  0.1680526E-003  0.9118800E+02  0.7818608E-02  0.1130116E+00
         25   -1    0    0    0    0  0.00000000000E+00  0.00000000000E+00  0.99999998245E-14  0.12500000000E+03  0.12500000000E+03 0.  0.
        -13    1    3    3    0    0  0.26085090574E+02 -0.41276675485E+02  0.92761844896E+01  0.49701656432E+02  0.10566000000E+00 0.  1.
         23    2    1    0    0    0 -0.35443530453E+01 -0.21377639830E+02 -0.19730455469E+02  0.95693741347E+02  0.91095748182E+02 0.  0.
         13    1    3    3    0    0 -0.29629443620E+02  0.19899035655E+02 -0.29006639958E+02  0.45992084916E+02  0.10566000000E+00 0. -1.
         22    1    1    0    0    0  0.35443530453E+01  0.21377639830E+02  0.19730455469E+02  0.29306258653E+02  0.00000000000E+00 0. -1.
</event>
<event>
 5    1  0.1680526E-003  0.9118800E+02  0.7818608E-02  0.1130116E+00
         25   -1    0    0    0    0  0.00000000000E+00  0.00000000000E+00  0.99999998245E-14  0.12500000000E+03  0.12500000000E+03 0.  0.
        -13    1    3    3    0    0  0.47135120969E+02 -0.30443602759E+02 -0.18506487472E+02  0.59084971188E+02  0.10566000000E+00 0.  1.
         23    2    1    0    0    0  0.20757170503E+02 -0.26398958100E+01 -0.17976195311E+02  0.97414265008E+02  0.93426796221E+02 0.  0.
         13    1    3    3    0    0 -0.26377950467E+02  0.27803706949E+02  0.53029216107E+00  0.38329293820E+02  0.10566000000E+00 0. -1.
         22    1    1    0    0    0 -0.20757170503E+02  0.26398958100E+01  0.17976195311E+02  0.27585734992E+02  0.00000000000E+00 0.  1.
</event>
<event>
 5    1  0.1680526E-003  0.9118800E+02  0.7818608E-02  0.1130116E+00
         25   -1    0    0    0    0  0.00000000000E+00  0.00000000000E+00  0.99999998245E-14  0.12500000000E+03  0.12500000000E+03 0.  0.
        -13    1    3    3    0    0 -0.33659215489E+01 -0.54572587559E+02  0.28535300535E+02  0.61674721575E+02  0.10566000000E+00 0.  1.
         23    2    1    0    0    0 -0.37487994608E+01 -0.28558659981E+02  0.72280983101E+01  0.95303266805E+02  0.90558360747E+02 0.  0.
         13    1    3    3    0    0 -0.38287791193E+00  0.26013927578E+02 -0.21307202225E+02  0.33628545229E+02  0.10566000000E+00 0. -1.
         22    1    1    0    0    0  0.37487994608E+01  0.28558659981E+02 -0.72280983101E+01  0.29696733195E+02  0.00000000000E+00 0.  1.
</event>
<event>
 5    1  0.1680526E-003  0.9118800E+02  0.7818608E-02  0.1130116E+00
         25   -1    0    0    0    0  0.00000000000E+00  0.00000000000E+00  0.99999998245E-14  0.12500000000E+03  0.12500000000E+03 0.  0.
        -13    1    3    3    0    0  0.59360255953E+01 -0.16162841118E+02 -0.49989156520E+02  0.52871549689E+02  0.10566000000E+00 0. -1.
         23    2    1    0    0    0  0.25151832088E+02 -0.12839319781E+02 -0.14765404360E+02  0.93133403763E+02  0.87512004552E+02 0.  0.
         13    1    3    3    0    0  0.19215806493E+02  0.33235213375E+01  0.35223752159E+02  0.40261854074E+02  0.10566000000E+00 0.  1.
         22    1    1    0    0    0 -0.25151832088E+02  0.12839319781E+02  0.14765404360E+02  0.31866596237E+02  0.00000000000E+00 0. -1.
</event>
<event>
 5    1  0.1680526E-003  0.9118800E+02  0.7818608E-02  0.1130116E+00
         25   -1    0    0    0    0  0.00000000000E+00  0.00000000000E+00  0.99999998245E-14  0.12500000000E+03  0.12500000000E+03 0.  0.
        -13    1    3    3    0    0 -0.50109792481E+02  0.35408471552E+02 -0.64942663104E+01  0.61700387512E+02  0.10566000000E+00 0.  1.
         23    2    1    0    0    0 -0.26440476499E+02  0.11661753775E+02 -0.71321757380E+01  0.95234865541E+02  0.90463895479E+02 0.  0.
         13    1    3    3    0    0  0.23669315981E+02 -0.23746717777E+02 -0.63790942762E+00  0.33534478029E+02  0.10566000000E+00 0. -1.
         22    1    1    0    0    0  0.26440476499E+02 -0.11661753775E+02  0.71321757380E+01  0.29765134459E+02  0.00000000000E+00 0.  1.
</event>
<event>
 5    1  0.1680526E-003  0.9118800E+02  0.7818608E-02  0.1130116E+00
         25   -1    0    0    0    0  0.00000000000E+00  0.00000000000E+00  0.99999998245E-14  0.12500000000E+03  0.12500000000E+03 0.  0.
        -13    1    3    3    0    0  0.54239828535E+01 -0.49324273748E+02 -0.19293668140E+02  0.53240589451E+02  0.10566000000E+00 0. -1.
         23    2    1    0    0    0 -0.14438228732E+02 -0.23184978579E+02  0.86473480925E+01  0.96350701410E+02  0.91992800547E+02 0.  0.
         13    1    3    3    0    0 -0.19862211586E+02  0.26139295169E+02  0.27941016232E+02  0.43110111959E+02  0.10566000000E+00 0.  1.
         22    1    1    0    0    0  0.14438228732E+02  0.23184978579E+02 -0.86473480925E+01  0.28649298590E+02  0.00000000000E+00 0.  1.
</event>
<event>
 5    1  0.1680526E-003  0.9118800E+02  0.7818608E-02  0.1130116E+00
         25   -1    0    0    0    0  0.00000000000E+00  0.00000000000E+00  0.99999998245E-14  0.12500000000E+03  0.12500000000E+03 0.  0.
        -13    1    3    3    0    0  0.10112619553E+02  0.43353121448E+02  0.29781521283E+02  0.53560324751E+02  0.10566000000E+00 0.  1.
         23    2    1    0    0    0  0.46560975581E+01  0.27330060040E+02 -0.89811661160E+01  0.95857715068E+02  0.91320472880E+02 0.  0.
         13    1    3    3    0    0 -0.54565219953E+01 -0.16023061408E+02 -0.38762687399E+02  0.42297390317E+02  0.10566000000E+00 0. -1.
         22    1    1    0    0    0 -0.46560975581E+01 -0.27330060040E+02  0.89811661160E+01  0.29142284932E+02  0.00000000000E+00 0.  1.
</event>
<event>
 5    1  0.1680526E-003  0.9118800E+02  0.7818608E-02  0.1130116E+00
         25   -1    0    0    0    0  0.00000000000E+00  0.00000000000E+00  0.99999998245E-14  0.12500000000E+03  0.12500000000E+03 0.  0.
        -13    1    3    3    0    0  0.94508396120E+01  0.30874746684E+02 -0.20309789792E+02  0.38145341493E+02  0.10566000000E+00 0. -1.
         23    2    1    0    0    0  0.21504407660E+01  0.31598433348E+01  0.29306907972E+02  0.95444901282E+02  0.90753651830E+02 0.  0.
         13    1    3    3    0    0 -0.73003988459E+01 -0.27714903349E+02  0.49616697764E+02  0.57299559789E+02  0.10566000000E+00 0.  1.
         22    1    1    0    0    0 -0.21504407660E+01 -0.31598433348E+01 -0.29306907972E+02  0.29555098718E+02  0.00000000000E+00 0.  1.
</event>
<event>
 5    1  0.1680526E-003  0.9118800E+02  0.7818608E-02  0.1130116E+00
         25   -1    0    0    0    0  0.00000000000E+00  0.00000000000E+00  0.99999998245E-14  0.12500000000E+03  0.12500000000E+03 0.  0.
        -13    1    3    3    0    0  0.18813004308E+02  0.11830887290E+02 -0.17978946104E+02  0.28585882743E+02  0.10566000000E+00 0. -1.
         23    2    1    0    0    0 -0.32069498991E+02 -0.14204133711E+02  0.37335800828E+01  0.89727492289E+02  0.82503776109E+02 0.  0.
         13    1    3    3    0    0 -0.50882503298E+02 -0.26035021001E+02  0.21712526186E+02  0.61141609546E+02  0.10566000000E+00 0.  1.
         22    1    1    0    0    0  0.32069498991E+02  0.14204133711E+02 -0.37335800828E+01  0.35272507711E+02  0.00000000000E+00 0.  1.
</event>
<event>
 5    1  0.1680526E-003  0.9118800E+02  0.7818608E-02  0.1130116E+00
         25   -1    0    0    0    0  0.00000000000E+00  0.00000000000E+00  0.99999998245E-14  0.12500000000E+03  0.12500000000E+03 0.  0.
        -13    1    3    3    0    0  0.11330210785E+02 -0.31508902151E+02  0.20990909991E+02  0.39519793237E+02  0.10566000000E+00 0.  1.
         23    2    1    0    0    0 -0.35230685580E+01 -0.10863483134E+02 -0.28022777812E+02  0.94739409223E+02  0.89776680189E+02 0.  0.
         13    1    3    3    0    0 -0.14853279343E+02  0.20645419017E+02 -0.49013687803E+02  0.55219615986E+02  0.10566000000E+00 0. -1.
         22    1    1    0    0    0  0.35230685580E+01  0.10863483134E+02  0.28022777812E+02  0.30260590777E+02  0.00000000000E+00 0. -1.
</event>
<event>
 5    1  0.1680526E-003  0.9118800E+02  0.7818608E-02  0.1130116E+00
         25   -1    0    0    0    0  0.00000000000E+00  0.00000000000E+00  0.99999998245E-14  0.12500000000E+03  0.12500000000E+03 0.  0.
        -13    1    3    3    0    0  0.42478830390E+02 -0.37789234136E+02  0.18887046188E+01  0.56886339459E+02  0.10566000000E+00 0.  1.
         23    2    1    0    0    0  0.25966465587E+02 -0.38764217594E+01  0.12287218231E+02  0.96012766386E+02  0.91532461982E+02 0.  0.
         13    1    3    3    0    0 -0.16512364803E+02  0.33912812377E+02  0.10398513612E+02  0.39126426927E+02  0.10566000000E+00 0. -1.
         22    1    1    0    0    0 -0.25966465587E+02  0.38764217594E+01 -0.12287218231E+02  0.28987233614E+02  0.00000000000E+00 0.  1.
</event>
<event>
 5    1  0.1680526E-003  0.9118800E+02  0.7818608E-02  0.1130116E+00
         25   -1    0    0    0    0  0.00000000000E+00  0.00000000000E+00  0.99999998245E-14  0.12500000000E+03  0.12500000000E+03 0.  0.
        -13    1    3    3    0    0  0.29271455678E+02  0.69835898087E+01  0.17578301265E+02  0.34851061441E+02  0.10566000000E+00 0. -1.
         23    2    1    0    0    0 -0.79381527582E+01 -0.12280153664E+00 -0.29024990599E+02  0.94908814767E+02  0.90012241900E+02 0.  0.
         13    1    3    3    0    0 -0.37209608437E+02 -0.71063913454E+01 -0.46603291865E+02  0.60057753326E+02  0.10566000000E+00 0.  1.
         22    1    1    0    0    0  0.79381527582E+01  0.12280153664E+00  0.29024990599E+02  0.30091185233E+02  0.00000000000E+00 0.  1.
</event>
<event>
 5    1  0.1680526E-003  0.9118800E+02  0.7818608E-02  0.1130116E+00
         25   -1    0    0    0    0  0.00000000000E+00  0.00000000000E+00  0.99999998245E-14  0.12500000000E+03  0.12500000000E+03 0.  0.
        -13    1    3    3    0    0 -0.58399820415E+02 -0.41960087696E+01  0.73688215772E+01  0.59012339469E+02  0.10566000000E+00 0.  1.
         23    2    1    0    0    0 -0.26019690620E+02  0.12803278231E+02  0.36441543127E+01  0.95772819258E+02  0.91204192966E+02 0.  0.
         13    1    3    3    0    0  0.32380129795E+02  0.16999287001E+02 -0.37246672646E+01  0.36760479789E+02  0.10566000000E+00 0. -1.
         22    1    1    0    0    0  0.26019690620E+02 -0.12803278231E+02 -0.36441543127E+01  0.29227180742E+02  0.00000000000E+00 0.  1.
</event>
<event>
 5    1  0.1680526E-003  0.9118800E+02  0.7818608E-02  0.1130116E+00
         25   -1    0    0    0    0  0.00000000000E+00  0.00000000000E+00  0.99999998245E-14  0.12500000000E+03  0.12500000000E+03 0.  0.
        -13    1    3    3    0    0 -0.42155585021E+02  0.32719588004E+02 -0.15145234122E+02  0.55471200350E+02  0.10566000000E+00 0. -1.
         23    2    1    0    0    0 -0.19433228083E+02  0.21884408183E+01 -0.23490970340E+02  0.94434246052E+02  0.89350777909E+02 0.  0.
         13    1    3    3    0    0  0.22722356938E+02 -0.30531147186E+02 -0.83457362178E+01  0.38963045702E+02  0.10566000000E+00 0.  1.
         22    1    1    0    0    0  0.19433228083E+02 -0.21884408183E+01  0.23490970340E+02  0.30565753948E+02  0.00000000000E+00 0. -1.
</event>
<event>
 5    1  0.1680526E-003  0.9118800E+02  0.7818608E-02  0.1130116E+00
         25   -1    0    0    0    0  0.00000000000E+00  0.00000000000E+00  0.99999998245E-14  0.12500000000E+03  0.12500000000E+03 0.  0.
        -13    1    3    3    0    0  0.56537068206E+02  0.13841523826E+02  0.51128921723E+01  0.58430990866E+02  0.10566000000E+00 0.  1.
         23    2    1    0    0    0  0.22593596134E+02  0.16592941554E+02 -0.93780604009E+01  0.95440833696E+02  0.90748049147E+02 0.  0.
         13    1    3    3    0    0 -0.33943472072E+02  0.27514177281E+01 -0.14490952573E+02  0.37009842830E+02  0.10566000000E+00 0. -1.
         22    1    1    0    0    0 -0.22593596134E+02 -0.16592941554E+02  0.93780604009E+01  0.29559166304E+02  0.00000000000E+00 0.  1.
</event>
<event>
 5    1  0.1680526E-003  0.9118800E+02  0.7818608E-02  0.1130116E+00
         25   -1    0    0    0    0  0.00000000000E+00  0.00000000000E+00  0.99999998245E-14  0.12500000000E+03  0.12500000000E+03 0.  0.
        -13    1    3    3    0    0  0.53900220336E+02 -0.25729850398E+02  0.10846716046E+01  0.59736476547E+02  0.10566000000E+00 0.  1.
         23    2    1    0    0    0  0.26545771282E+02 -0.21275493440E+01  0.93066139133E+01  0.96789762466E+02  0.92587475484E+02 0.  0.
         13    1    3    3    0    0 -0.27354449054E+02  0.23602301054E+02  0.82219423088E+01  0.37053285919E+02  0.10566000000E+00 0. -1.
         22    1    1    0    0    0 -0.26545771282E+02  0.21275493440E+01 -0.93066139133E+01  0.28210237534E+02  0.00000000000E+00 0.  1.
</event>
<event>
 5    1  0.1680526E-003  0.9118800E+02  0.7818608E-02  0.1130116E+00
         25   -1    0    0    0    0  0.00000000000E+00  0.00000000000E+00  0.99999998245E-14  0.12500000000E+03  0.12500000000E+03 0.  0.
        -13    1    3    3    0    0 -0.58892830655E+01 -0.47631837492E+02 -0.39346576841E+02  0.62061581281E+02  0.10566000000E+00 0. -1.
         23    2    1    0    0    0 -0.33685633021E+01 -0.28281364303E+02 -0.16590458514E+02  0.92039021567E+02  0.85934599503E+02 0.  0.
         13    1    3    3    0    0  0.25207197634E+01  0.19350473189E+02  0.22756118327E+02  0.29977440286E+02  0.10566000000E+00 0.  1.
         22    1    1    0    0    0  0.33685633021E+01  0.28281364303E+02  0.16590458514E+02  0.32960978433E+02  0.00000000000E+00 0. -1.
</event>
<event>
 5    1  0.1680526E-003  0.9118800E+02  0.7818608E-02  0.1130116E+00
         25   -1    0    0    0    0  0.00000000000E+00  0.00000000000E+00  0.99999998245E-14  0.12500000000E+03  0.12500000000E+03 0.  0.
        -13    1    3    3    0    0 -0.14684563534E+02 -0.52681687768E+01  0.38592097265E+02  0.41626327532E+02  0.10566000000E+00 0. -1.
         23    2    1    0    0    0 -0.45004234350E+01  0.24688097097E+02 -0.86249105467E+01  0.98464268781E+02  0.94821238103E+02 0.  0.
         13    1    3    3    0    0  0.10184140099E+02  0.29956265874E+02 -0.47217007812E+02  0.56837941249E+02  0.10566000000E+00 0.  1.
         22    1    1    0    0    0  0.45004234350E+01 -0.24688097097E+02  0.86249105467E+01  0.26535731219E+02  0.00000000000E+00 0.  1.
</event>
<event>
 5    1  0.1680526E-003  0.9118800E+02  0.7818608E-02  0.1130116E+00
         25   -1    0    0    0    0  0.00000000000E+00  0.00000000000E+00  0.99999998245E-14  0.12500000000E+03  0.12500000000E+03 0.  0.
        -13    1    3    3    0    0  0.20080094518E+02 -0.19496907199E+02 -0.34597736850E+02  0.44501170157E+02  0.10566000000E+00 0.  1.
         23    2    1    0    0    0 -0.11322312804E+02 -0.24534971256E+02  0.72119828686E+01  0.97032656925E+02  0.92914822452E+02 0.  0.
         13    1    3    3    0    0 -0.31402407322E+02 -0.50380640565E+01  0.41809719719E+02  0.52531486768E+02  0.10566000000E+00 0. -1.
         22    1    1    0    0    0  0.11322312804E+02  0.24534971256E+02 -0.72119828686E+01  0.27967343075E+02  0.00000000000E+00 0. -1.
</event>
<event>
 5    1  0.1680526E-003  0.9118800E+02  0.7818608E-02  0.1130116E+00
         25   -1    0    0    0    0  0.00000000000E+00  0.00000000000E+00  0.99999998245E-14  0.12500000000E+03  0.12500000000E+03 0.  0.
        -13    1    3    3    0    0  0.21631423909E+02  0.31763913479E+02 -0.44065304586E+01  0.38681951535E+02  0.10566000000E+00 0.  1.
         23    2    1    0    0    0 -0.17946987039E+02 -0.64782765223E+01 -0.21445669119E+02  0.96294963257E+02  0.91917032231E+02 0.  0.
         13    1    3    3    0    0 -0.39578410949E+02 -0.38242190002E+02 -0.17039138660E+02  0.57613011722E+02  0.10566000000E+00 0. -1.
         22    1    1    0    0    0  0.17946987039E+02  0.64782765223E+01  0.21445669119E+02  0.28705036743E+02  0.00000000000E+00 0. -1.
</event>
<event>
 5    1  0.1680526E-003  0.9118800E+02  0.7818608E-02  0.1130116E+00
         25   -1    0    0    0    0  0.00000000000E+00  0.00000000000E+00  0.99999998245E-14  0.12500000000E+03  0.12500000000E+03 0.  0.
        -13    1    3    3    0    0 -0.50252251560E+02  0.20472424709E+02  0.24813164587E+01  0.54319214424E+02  0.10566000000E+00 0. -1.
         23    2    1    0    0    0 -0.10398733021E+02  0.26789527294E+02 -0.62192183210E+01  0.95597770534E+02  0.90963963378E+02 0.  0.
         13    1    3    3    0    0  0.39853518539E+02  0.63171025847E+01 -0.87005347796E+01  0.41278556109E+02  0.10566000000E+00 0.  1.
         22    1    1    0    0    0  0.10398733021E+02 -0.26789527294E+02  0.62192183210E+01  0.29402229466E+02  0.00000000000E+00 0.  1.
</event>
<event>
 5    1  0.1680526E-003  0.9118800E+02  0.7818608E-02  0.1130116E+00
         25   -1    0    0    0    0  0.00000000000E+00  0.00000000000E+00  0.99999998245E-14  0.12500000000E+03  0.12500000000E+03 0.  0.
        -13    1    3    3    0    0 -0.49749416070E+01  0.33625103451E+02 -0.27478795115E+02  0.43709186346E+02  0.10566000000E+00 0.  1.
         23    2    1    0    0    0 -0.20418210248E+02  0.12193156274E+02  0.17225486533E+02  0.95635161231E+02  0.91015330070E+02 0.  0.
         13    1    3    3    0    0 -0.15443268641E+02 -0.21431947177E+02  0.44704281647E+02  0.51925974885E+02  0.10566000000E+00 0. -1.
         22    1    1    0    0    0  0.20418210248E+02 -0.12193156274E+02 -0.17225486533E+02  0.29364838769E+02  0.00000000000E+00 0. -1.
</event>
<event>
 5    1  0.1680526E-003  0.9118800E+02  0.7818608E-02  0.1130116E+00
         25   -1    0    0    0    0  0.00000000000E+00  0.00000000000E+00  0.99999998245E-14  0.12500000000E+03  0.12500000000E+03 0.  0.
        -13    1    3    3    0    0 -0.21768317718E+02  0.22768288175E+02 -0.70976624844E+01  0.32289976455E+02  0.10566000000E+00 0.  1.
         23    2    1    0    0    0  0.28815787622E+02 -0.93150440946E+01  0.71965831041E+01  0.93872673242E+02  0.88561663887E+02 0.  0.
         13    1    3    3    0    0  0.50584105340E+02 -0.32083332270E+02  0.14294245588E+02  0.61582696787E+02  0.10566000000E+00 0. -1.
         22    1    1    0    0    0 -0.28815787622E+02  0.93150440946E+01 -0.71965831041E+01  0.31127326758E+02  0.00000000000E+00 0. -1.
</event>
<event>
 5    1  0.1680526E-003  0.9118800E+02  0.7818608E-02  0.1130116E+00
         25   -1    0    0    0    0  0.00000000000E+00  0.00000000000E+00  0.99999998245E-14  0.12500000000E+03  0.12500000000E+03 0.  0.
        -13    1    3    3    0    0  0.16557202125E+02  0.53706777653E+02  0.15897395421E+02  0.58406311759E+02  0.10566000000E+00 0.  1.
         23    2    1    0    0    0 -0.44569218152E+00  0.20031294170E+02  0.20408892541E+02  0.96399750309E+02  0.92059424163E+02 0.  0.
         13    1    3    3    0    0 -0.17002894306E+02 -0.33675483483E+02  0.45114971192E+01  0.37993438550E+02  0.10566000000E+00 0. -1.
         22    1    1    0    0    0  0.44569218152E+00 -0.20031294170E+02 -0.20408892541E+02  0.28600249691E+02  0.00000000000E+00 0.  1.
</event>
<event>
 5    1  0.1680526E-003  0.9118800E+02  0.7818608E-02  0.1130116E+00
         25   -1    0    0    0    0  0.00000000000E+00  0.00000000000E+00  0.99999998245E-14  0.12500000000E+03  0.12500000000E+03 0.  0.
        -13    1    3    3    0    0  0.28103276707E+02 -0.22976871441E+01  0.28004583433E+02  0.39740928338E+02  0.10566000000E+00 0.  1.
         23    2    1    0    0    0 -0.23704888426E+02  0.14251248892E+01  0.23028055715E+02  0.91920639875E+02  0.85762229266E+02 0.  0.
         13    1    3    3    0    0 -0.51808165133E+02  0.37228120333E+01 -0.49765277181E+01  0.52179711537E+02  0.10566000000E+00 0. -1.
         22    1    1    0    0    0  0.23704888426E+02 -0.14251248892E+01 -0.23028055715E+02  0.33079360125E+02  0.00000000000E+00 0. -1.
</event>
<event>
 5    1  0.1680526E-003  0.9118800E+02  0.7818608E-02  0.1130116E+00
         25   -1    0    0    0    0  0.00000000000E+00  0.00000000000E+00  0.99999998245E-14  0.12500000000E+03  0.12500000000E+03 0.  0.
        -13    1    3    3    0    0  0.20830330343E+02 -0.44346302629E+02 -0.34995929993E+02  0.60209828925E+02  0.10566000000E+00 0. -1.
         23    2    1    0    0    0  0.99008478574E+01 -0.13586428714E+02 -0.25943642502E+02  0.94085757008E+02  0.88861911143E+02 0.  0.
         13    1    3    3    0    0 -0.10929482486E+02  0.30759873915E+02  0.90522874904E+01  0.33875928083E+02  0.10566000000E+00 0.  1.
         22    1    1    0    0    0 -0.99008478574E+01  0.13586428714E+02  0.25943642502E+02  0.30914242992E+02  0.00000000000E+00 0. -1.
</event>
<event>
 5    1  0.1680526E-003  0.9118800E+02  0.7818608E-02  0.1130116E+00
         25   -1    0    0    0    0  0.00000000000E+00  0.00000000000E+00  0.99999998245E-14  0.12500000000E+03  0.12500000000E+03 0.  0.
        -13    1    3    3    0    0 -0.35526366196E+01 -0.31642152155E+01  0.47332922698E+02  0.47571527410E+02  0.10566000000E+00 0. -1.
         23    2    1    0    0    0 -0.27090080396E+02 -0.15711619659E+02  0.12891447840E+02  0.91133838783E+02  0.84607681068E+02 0.  0.
         13    1    3    3    0    0 -0.23537443776E+02 -0.12547404443E+02 -0.34441474858E+02  0.43562311373E+02  0.10566000000E+00 0.  1.
         22    1    1    0    0    0  0.27090080396E+02  0.15711619659E+02 -0.12891447840E+02  0.33866161217E+02  0.00000000000E+00 0. -1.
</event>
<event>
 5    1  0.1680526E-003  0.9118800E+02  0.7818608E-02  0.1130116E+00
         25   -1    0    0    0    0  0.00000000000E+00  0.00000000000E+00  0.99999998245E-14  0.12500000000E+03  0.12500000000E+03 0.  0.
        -13    1    3    3    0    0  0.83791048749E+00  0.19169178022E+02 -0.57157246861E+02  0.60291968891E+02  0.10566000000E+00 0. -1.
         23    2    1    0    0    0  0.10180599499E+02  0.24033509249E+01 -0.27061811330E+02  0.95986859283E+02  0.91497075476E+02 0.  0.
         13    1    3    3    0    0  0.93426890111E+01 -0.16765827097E+02  0.30095435531E+02  0.35694890391E+02  0.10566000000E+00 0.  1.
         22    1    1    0    0    0 -0.10180599499E+02 -0.24033509249E+01  0.27061811330E+02  0.29013140717E+02  0.00000000000E+00 0. -1.
</event>
<event>
 5    1  0.1680526E-003  0.9118800E+02  0.7818608E-02  0.1130116E+00
         25   -1    0    0    0    0  0.00000000000E+00  0.00000000000E+00  0.99999998245E-14  0.12500000000E+03  0.12500000000E+03 0.  0.
        -13    1    3    3    0    0  0.36596819031E+02 -0.20494455037E+02 -0.39775538277E+02  0.57805315151E+02  0.10566000000E+00 0. -1.
         23    2    1    0    0    0  0.34536179047E+01 -0.11159368640E+02 -0.28761299948E+02  0.93956943453E+02  0.88680526968E+02 0.  0.
         13    1    3    3    0    0 -0.33143201126E+02  0.93350863978E+01  0.11014238329E+02  0.36151628302E+02  0.10566000000E+00 0.  1.
         22    1    1    0    0    0 -0.34536179047E+01  0.11159368640E+02  0.28761299948E+02  0.31043056547E+02  0.00000000000E+00 0. -1.
</event>
<event>
 5    1  0.1680526E-003  0.9118800E+02  0.7818608E-02  0.1130116E+00
         25   -1    0    0    0    0  0.00000000000E+00  0.00000000000E+00  0.99999998245E-14  0.12500000000E+03  0.12500000000E+03 0.  0.
        -13    1    3    3    0    0 -0.40901277722E+02  0.20137218219E+02  0.71519135348E+01  0.46147406299E+02  0.10566000000E+00 0. -1.
         23    2    1    0    0    0  0.77728595520E+01  0.19667127656E+02  0.19357365088E+02  0.96330838188E+02  0.91965806401E+02 0.  0.
         13    1    3    3    0    0  0.48674137274E+02 -0.47009056289E+00  0.12205451554E+02  0.50183431889E+02  0.10566000000E+00 0.  1.
         22    1    1    0    0    0 -0.77728595520E+01 -0.19667127656E+02 -0.19357365088E+02  0.28669161812E+02  0.00000000000E+00 0.  1.
</event>
<event>
 5    1  0.1680526E-003  0.9118800E+02  0.7818608E-02  0.1130116E+00
         25   -1    0    0    0    0  0.00000000000E+00  0.00000000000E+00  0.99999998245E-14  0.12500000000E+03  0.12500000000E+03 0.  0.
        -13    1    3    3    0    0  0.31320167911E+01 -0.32621971201E+02 -0.21408825607E+02  0.39145261682E+02  0.10566000000E+00 0.  1.
         23    2    1    0    0    0 -0.68600370821E+01 -0.12242243927E+02  0.28089812772E+02  0.93599837155E+02  0.88175729590E+02 0.  0.
         13    1    3    3    0    0 -0.99920538732E+01  0.20379727274E+02  0.49498638380E+02  0.54454575472E+02  0.10566000000E+00 0. -1.
         22    1    1    0    0    0  0.68600370821E+01  0.12242243927E+02 -0.28089812772E+02  0.31400162845E+02  0.00000000000E+00 0. -1.
</event>
<event>
 5    1  0.1680526E-003  0.9118800E+02  0.7818608E-02  0.1130116E+00
         25   -1    0    0    0    0  0.00000000000E+00  0.00000000000E+00  0.99999998245E-14  0.12500000000E+03  0.12500000000E+03 0.  0.
        -13    1    3    3    0    0 -0.23681982083E+02  0.14354726334E+02  0.21993638139E+02  0.35364187055E+02  0.10566000000E+00 0.  1.
         23    2    1    0    0    0  0.11068736487E+02 -0.28847232398E+02  0.30640444124E+01  0.93950553747E+02  0.88671519874E+02 0.  0.
         13    1    3    3    0    0  0.34750718570E+02 -0.43201958732E+02 -0.18929593726E+02  0.58586366691E+02  0.10566000000E+00 0. -1.
         22    1    1    0    0    0 -0.11068736487E+02  0.28847232398E+02 -0.30640444124E+01  0.31049446253E+02  0.00000000000E+00 0. -1.
</event>
<event>
 5    1  0.1680526E-003  0.9118800E+02  0.7818608E-02  0.1130116E+00
         25   -1    0    0    0    0  0.00000000000E+00  0.00000000000E+00  0.99999998245E-14  0.12500000000E+03  0.12500000000E+03 0.  0.
        -13    1    3    3    0    0 -0.35045653777E+02  0.33168252190E+02  0.11279755637E+02  0.49553757207E+02  0.10566000000E+00 0.  1.
         23    2    1    0    0    0 -0.39040990727E+01  0.37583309438E+01  0.28698716360E+02  0.95794121109E+02  0.91233383568E+02 0.  0.
         13    1    3    3    0    0  0.31141554704E+02 -0.29409921247E+02  0.17418960724E+02  0.46240363903E+02  0.10566000000E+00 0. -1.
         22    1    1    0    0    0  0.39040990727E+01 -0.37583309438E+01 -0.28698716360E+02  0.29205878891E+02  0.00000000000E+00 0.  1.
</event>
<event>
 5    1  0.1680526E-003  0.9118800E+02  0.7818608E-02  0.1130116E+00
         25   -1    0    0    0    0  0.00000000000E+00  0.00000000000E+00  0.99999998245E-14  0.12500000000E+03  0.12500000000E+03 0.  0.
        -13    1    3    3    0    0 -0.19254652638E+02  0.54423709596E+02  0.15259914309E+02  0.59712293233E+02  0.10566000000E+00 0. -1.
         23    2    1    0    0    0  0.17247155523E+01  0.29710941989E+02  0.74724882180E+00  0.95229660760E+02  0.90456703401E+02 0.  0.
         13    1    3    3    0    0  0.20979368191E+02 -0.24712767607E+02 -0.14512665487E+02  0.35517367527E+02  0.10566000000E+00 0.  1.
         22    1    1    0    0    0 -0.17247155523E+01 -0.29710941989E+02 -0.74724882180E+00  0.29770339240E+02  0.00000000000E+00 0. -1.
</event>
<event>
 5    1  0.1680526E-003  0.9118800E+02  0.7818608E-02  0.1130116E+00
         25   -1    0    0    0    0  0.00000000000E+00  0.00000000000E+00  0.99999998245E-14  0.12500000000E+03  0.12500000000E+03 0.  0.
        -13    1    3    3    0    0 -0.33514504241E+01  0.24927682347E+01  0.35283122454E+02  0.35529649697E+02  0.10566000000E+00 0. -1.
         23    2    1    0    0    0  0.40168267716E+01  0.29531798421E+02 -0.13882393060E+02  0.92121696328E+02  0.86054773732E+02 0.  0.
         13    1    3    3    0    0  0.73682771956E+01  0.27039030186E+02 -0.49165515514E+02  0.56592046632E+02  0.10566000000E+00 0.  1.
         22    1    1    0    0    0 -0.40168267716E+01 -0.29531798421E+02  0.13882393060E+02  0.32878303672E+02  0.00000000000E+00 0.  1.
</event>
<event>
 5    1  0.1680526E-003  0.9118800E+02  0.7818608E-02  0.1130116E+00
         25   -1    0    0    0    0  0.00000000000E+00  0.00000000000E+00  0.99999998245E-14  0.12500000000E+03  0.12500000000E+03 0.  0.
        -13    1    3    3    0    0 -0.47783575413E+02 -0.15463757917E+02  0.28037563494E+02  0.57519683752E+02  0.10566000000E+00 0.  1.
         23    2    1    0    0    0 -0.83228936938E+01 -0.15067689825E+02  0.21398835437E+02  0.97537006825E+02  0.93590874054E+02 0.  0.
         13    1    3    3    0    0  0.39460681719E+02  0.39606809252E+00 -0.66387280579E+01  0.40017323073E+02  0.10566000000E+00 0. -1.
         22    1    1    0    0    0  0.83228936938E+01  0.15067689825E+02 -0.21398835437E+02  0.27462993175E+02  0.00000000000E+00 0.  1.
</event>
<event>
 5    1  0.1680526E-003  0.9118800E+02  0.7818608E-02  0.1130116E+00
         25   -1    0    0    0    0  0.00000000000E+00  0.00000000000E+00  0.99999998245E-14  0.12500000000E+03  0.12500000000E+03 0.  0.
        -13    1    3    3    0    0  0.18378166473E+02 -0.34972720978E+02 -0.43146903845E+02  0.58502262272E+02  0.10566000000E+00 0.  1.
         23    2    1    0    0    0  0.27245142477E+01 -0.27478887703E+02 -0.10534395442E+02  0.95445207924E+02  0.90754074185E+02 0.  0.
         13    1    3    3    0    0 -0.15653652225E+02  0.74938332745E+01  0.32612508403E+02  0.36942945652E+02  0.10566000000E+00 0. -1.
         22    1    1    0    0    0 -0.27245142477E+01  0.27478887703E+02  0.10534395442E+02  0.29554792076E+02  0.00000000000E+00 0.  1.
</event>
<event>
 5    1  0.1680526E-003  0.9118800E+02  0.7818608E-02  0.1130116E+00
         25   -1    0    0    0    0  0.00000000000E+00  0.00000000000E+00  0.99999998245E-14  0.12500000000E+03  0.12500000000E+03 0.  0.
        -13    1    3    3    0    0  0.17063594716E+01  0.36081119832E+02 -0.38419343955E+01  0.36325342323E+02  0.10566000000E+00 0. -1.
         23    2    1    0    0    0  0.12358395061E+02 -0.19669089225E+02 -0.18906223525E+02  0.95049235613E+02  0.90207033557E+02 0.  0.
         13    1    3    3    0    0  0.10652035589E+02 -0.55750209057E+02 -0.15064289129E+02  0.58723893290E+02  0.10566000000E+00 0.  1.
         22    1    1    0    0    0 -0.12358395061E+02  0.19669089225E+02  0.18906223525E+02  0.29950764387E+02  0.00000000000E+00 0.  1.
</event>
<event>
 5    1  0.1680526E-003  0.9118800E+02  0.7818608E-02  0.1130116E+00
         25   -1    0    0    0    0  0.00000000000E+00  0.00000000000E+00  0.99999998245E-14  0.12500000000E+03  0.12500000000E+03 0.  0.
        -13    1    3    3    0    0  0.43637497713E+01  0.16993943213E+02 -0.41056019477E+01  0.18019532440E+02  0.10566000000E+00 0.  1.
         23    2    1    0    0    0  0.26812454339E+01 -0.44611328197E+02  0.37718727514E+01  0.80149284235E+02  0.66425304355E+02 0.  0.
         13    1    3    3    0    0 -0.16825043375E+01 -0.61605271410E+02  0.78774746991E+01  0.62129751794E+02  0.10566000000E+00 0. -1.
         22    1    1    0    0    0 -0.26812454339E+01  0.44611328197E+02 -0.37718727514E+01  0.44850715765E+02  0.00000000000E+00 0. -1.
</event>
<event>
 5    1  0.1680526E-003  0.9118800E+02  0.7818608E-02  0.1130116E+00
         25   -1    0    0    0    0  0.00000000000E+00  0.00000000000E+00  0.99999998245E-14  0.12500000000E+03  0.12500000000E+03 0.  0.
        -13    1    3    3    0    0 -0.24939630911E+02 -0.20125326008E+02  0.23191125191E+02  0.39558227824E+02  0.10566000000E+00 0.  1.
         23    2    1    0    0    0  0.91966492603E+01 -0.12103237121E+02 -0.22925619230E+02  0.97492715083E+02  0.93531699283E+02 0.  0.
         13    1    3    3    0    0  0.34136280171E+02  0.80220888871E+01 -0.46116744421E+02  0.57934487260E+02  0.10566000000E+00 0. -1.
         22    1    1    0    0    0 -0.91966492603E+01  0.12103237121E+02  0.22925619230E+02  0.27507284917E+02  0.00000000000E+00 0. -1.
</event>
<event>
 5    1  0.1680526E-003  0.9118800E+02  0.7818608E-02  0.1130116E+00
         25   -1    0    0    0    0  0.00000000000E+00  0.00000000000E+00  0.99999998245E-14  0.12500000000E+03  0.12500000000E+03 0.  0.
        -13    1    3    3    0    0  0.12230349309E+02  0.48319034178E+01  0.38965479658E+02  0.41124791840E+02  0.10566000000E+00 0.  1.
         23    2    1    0    0    0  0.13202378440E+02 -0.24683278968E+02 -0.73543655345E+01  0.96057751478E+02  0.91593874629E+02 0.  0.
         13    1    3    3    0    0  0.97202913020E+00 -0.29515182386E+02 -0.46319845192E+02  0.54932959638E+02  0.10566000000E+00 0. -1.
         22    1    1    0    0    0 -0.13202378440E+02  0.24683278968E+02  0.73543655345E+01  0.28942248522E+02  0.00000000000E+00 0. -1.
</event>
<event>
 5    1  0.1680526E-003  0.9118800E+02  0.7818608E-02  0.1130116E+00
         25   -1    0    0    0    0  0.00000000000E+00  0.00000000000E+00  0.99999998245E-14  0.12500000000E+03  0.12500000000E+03 0.  0.
        -13    1    3    3    0    0 -0.82885732307E+01 -0.12279387735E+02 -0.29687134979E+02  0.33178621982E+02  0.10566000000E+00 0. -1.
         23    2    1    0    0    0  0.17471514469E+02  0.28656091491E+02  0.26088626736E+01  0.91336495105E+02  0.84906559088E+02 0.  0.
         13    1    3    3    0    0  0.25760087699E+02  0.40935479226E+02  0.32295997652E+02  0.58157873123E+02  0.10566000000E+00 0.  1.
         22    1    1    0    0    0 -0.17471514469E+02 -0.28656091491E+02 -0.26088626736E+01  0.33663504895E+02  0.00000000000E+00 0.  1.
</event>
<event>
 5    1  0.1680526E-003  0.9118800E+02  0.7818608E-02  0.1130116E+00
         25   -1    0    0    0    0  0.00000000000E+00  0.00000000000E+00  0.99999998245E-14  0.12500000000E+03  0.12500000000E+03 0.  0.
        -13    1    3    3    0    0  0.31459098907E+02  0.16454298162E+01 -0.15541754646E+02  0.35127477064E+02  0.10566000000E+00 0. -1.
         23    2    1    0    0    0 -0.10212795513E+02  0.21232386597E+00  0.27867903641E+02  0.95318923083E+02  0.90579968927E+02 0.  0.
         13    1    3    3    0    0 -0.41671894421E+02 -0.14331059503E+01  0.43409658287E+02  0.60191446019E+02  0.10566000000E+00 0.  1.
         22    1    1    0    0    0  0.10212795513E+02 -0.21232386597E+00 -0.27867903641E+02  0.29681076917E+02  0.00000000000E+00 0.  1.
</event>
<event>
 5    1  0.1680526E-003  0.9118800E+02  0.7818608E-02  0.1130116E+00
         25   -1    0    0    0    0  0.00000000000E+00  0.00000000000E+00  0.99999998245E-14  0.12500000000E+03  0.12500000000E+03 0.  0.
        -13    1    3    3    0    0 -0.85151619452E+00  0.31594939609E+02 -0.52278108625E+01  0.32036018154E+02  0.10566000000E+00 0.  1.
         23    2    1    0    0    0  0.15909595046E+02 -0.23299692410E+02  0.15191657945E+02  0.92956633260E+02  0.87259144592E+02 0.  0.
         13    1    3    3    0    0  0.16761111240E+02 -0.54894632019E+02  0.20419468808E+02  0.60920615106E+02  0.10566000000E+00 0. -1.
         22    1    1    0    0    0 -0.15909595046E+02  0.23299692410E+02 -0.15191657945E+02  0.32043366740E+02  0.00000000000E+00 0. -1.
</event>
<event>
 5    1  0.1680526E-003  0.9118800E+02  0.7818608E-02  0.1130116E+00
         25   -1    0    0    0    0  0.00000000000E+00  0.00000000000E+00  0.99999998245E-14  0.12500000000E+03  0.12500000000E+03 0.  0.
        -13    1    3    3    0    0  0.49660232969E+02  0.13603748038E+02  0.19108631255E+02  0.54921322378E+02  0.10566000000E+00 0.  1.
         23    2    1    0    0    0  0.17738981904E+02  0.21059642445E+02 -0.67222671583E+01  0.96656237112E+02  0.92407030458E+02 0.  0.
         13    1    3    3    0    0 -0.31921251065E+02  0.74558944071E+01 -0.25830898414E+02  0.41734914734E+02  0.10566000000E+00 0. -1.
         22    1    1    0    0    0 -0.17738981904E+02 -0.21059642445E+02  0.67222671583E+01  0.28343762888E+02  0.00000000000E+00 0.  1.
</event>
<event>
 5    1  0.1680526E-003  0.9118800E+02  0.7818608E-02  0.1130116E+00
         25   -1    0    0    0    0  0.00000000000E+00  0.00000000000E+00  0.99999998245E-14  0.12500000000E+03  0.12500000000E+03 0.  0.
        -13    1    3    3    0    0 -0.64117690129E+01 -0.35743803150E+02  0.21255850372E+02  0.42077934652E+02  0.10566000000E+00 0. -1.
         23    2    1    0    0    0  0.26868131210E+02 -0.28744182465E+02 -0.53962332743E+01  0.85285470746E+02  0.75474284936E+02 0.  0.
         13    1    3    3    0    0  0.33279900223E+02  0.69996206854E+01 -0.26652083646E+02  0.43207536094E+02  0.10566000000E+00 0.  1.
         22    1    1    0    0    0 -0.26868131210E+02  0.28744182465E+02  0.53962332743E+01  0.39714529254E+02  0.00000000000E+00 0.  1.
</event>
<event>
 5    1  0.1680526E-003  0.9118800E+02  0.7818608E-02  0.1130116E+00
         25   -1    0    0    0    0  0.00000000000E+00  0.00000000000E+00  0.99999998245E-14  0.12500000000E+03  0.12500000000E+03 0.  0.
        -13    1    3    3    0    0 -0.16689261059E+02 -0.11736106247E+02 -0.31063200568E+02  0.37164515577E+02  0.10566000000E+00 0. -1.
         23    2    1    0    0    0  0.98820119586E+01 -0.14373120550E+02  0.22212660130E+02  0.96757425317E+02  0.92543807623E+02 0.  0.
         13    1    3    3    0    0  0.26571273018E+02 -0.26370143023E+01  0.53275860697E+02  0.59592909740E+02  0.10566000000E+00 0.  1.
         22    1    1    0    0    0 -0.98820119586E+01  0.14373120550E+02 -0.22212660130E+02  0.28242574683E+02  0.00000000000E+00 0.  1.
</event>
<event>
 5    1  0.1680526E-003  0.9118800E+02  0.7818608E-02  0.1130116E+00
         25   -1    0    0    0    0  0.00000000000E+00  0.00000000000E+00  0.99999998245E-14  0.12500000000E+03  0.12500000000E+03 0.  0.
        -13    1    3    3    0    0 -0.83004772655E+01 -0.54991680489E+01 -0.48004437151E+02  0.49026277875E+02  0.10566000000E+00 0.  1.
         23    2    1    0    0    0  0.30422766688E+01 -0.27146121884E+02 -0.69345167304E+01  0.96817471672E+02  0.92624877425E+02 0.  0.
         13    1    3    3    0    0  0.11342753934E+02 -0.21646953835E+02  0.41069920421E+02  0.47791193797E+02  0.10566000000E+00 0. -1.
         22    1    1    0    0    0 -0.30422766688E+01  0.27146121884E+02  0.69345167304E+01  0.28182528328E+02  0.00000000000E+00 0.  1.
</event>
<event>
 5    1  0.1680526E-003  0.9118800E+02  0.7818608E-02  0.1130116E+00
         25   -1    0    0    0    0  0.00000000000E+00  0.00000000000E+00  0.99999998245E-14  0.12500000000E+03  0.12500000000E+03 0.  0.
        -13    1    3    3    0    0 -0.38781292718E+02 -0.31361522811E+02  0.31553419366E+02  0.59018329488E+02  0.10566000000E+00 0.  1.
         23    2    1    0    0    0 -0.24545114754E+02 -0.79713063039E+01  0.22952100359E+01  0.99091075445E+02  0.95643969288E+02 0.  0.
         13    1    3    3    0    0  0.14236177963E+02  0.23390216507E+02 -0.29258209330E+02  0.40072745956E+02  0.10566000000E+00 0. -1.
         22    1    1    0    0    0  0.24545114754E+02  0.79713063039E+01 -0.22952100359E+01  0.25908924555E+02  0.00000000000E+00 0.  1.
</event>
<event>
 5    1  0.1680526E-003  0.9118800E+02  0.7818608E-02  0.1130116E+00
         25   -1    0    0    0    0  0.00000000000E+00  0.00000000000E+00  0.99999998245E-14  0.12500000000E+03  0.12500000000E+03 0.  0.
        -13    1    3    3    0    0  0.67506709392E+01  0.40217204447E+02 -0.30414448996E+02  0.50872831290E+02  0.10566000000E+00 0.  1.
         23    2    1    0    0    0 -0.72750524085E+01 -0.28990610123E+01 -0.27611132333E+02  0.96299728729E+02  0.91923512674E+02 0.  0.
         13    1    3    3    0    0 -0.14025723348E+02 -0.43116265460E+02  0.28033166626E+01  0.45426897439E+02  0.10566000000E+00 0. -1.
         22    1    1    0    0    0  0.72750524085E+01  0.28990610123E+01  0.27611132333E+02  0.28700271271E+02  0.00000000000E+00 0.  1.
</event>
<event>
 4    1  0.1680526E-003  0.9118800E+02  0.7818608E-02  0.1130116E+00
         25   -1    0    0    0    0  0.00000000000E+00  0.00000000000E+00  0.99999998245E-14  0.12500000000E+03  0.12500000000E+03 0.  0.
        -13    1    1    0    0    0  0.23079520120E+02 -0.10842033852E+02 -0.48193771233E+02  0.54523982767E+02  0.10566000000E+00 0. -1.
         13    1    1    0    0    0 -0.22197938693E+01 -0.36622685947E+00 -0.86281288232E+01  0.89172517044E+01  0.10566000000E+00 0.  1.
         22    1    1    0    0    0 -0.20859726250E+02  0.11208260712E+02  0.56821900057E+02  0.61558765529E+02  0.00000000000E+00 0. -1.
</event>
<event>
 5    1  0.1680526E-003  0.9118800E+02  0.7818608E-02  0.1130116E+00
         25   -1    0    0    0    0  0.00000000000E+00  0.00000000000E+00  0.99999998245E-14  0.12500000000E+03  0.12500000000E+03 0.  0.
        -13    1    3    3    0    0  0.40045198871E+02 -0.16390180079E+02  0.34841652388E+02  0.55553648492E+02  0.10566000000E+00 0.  1.
         23    2    1    0    0    0  0.26038833789E+01 -0.19330632379E+02  0.22803284596E+02  0.94992611823E+02  0.90128535746E+02 0.  0.
         13    1    3    3    0    0 -0.37441315492E+02 -0.29404523004E+01 -0.12038367791E+02  0.39438963331E+02  0.10566000000E+00 0. -1.
         22    1    1    0    0    0 -0.26038833789E+01  0.19330632379E+02 -0.22803284596E+02  0.30007388177E+02  0.00000000000E+00 0.  1.
</event>
<event>
 5    1  0.1680526E-003  0.9118800E+02  0.7818608E-02  0.1130116E+00
         25   -1    0    0    0    0  0.00000000000E+00  0.00000000000E+00  0.99999998245E-14  0.12500000000E+03  0.12500000000E+03 0.  0.
        -13    1    3    3    0    0  0.84403053938E+01  0.43914441201E+02  0.36982256621E+02  0.58029435375E+02  0.10566000000E+00 0.  1.
         23    2    1    0    0    0 -0.17826849315E+01  0.86005653507E+01  0.27691062960E+02  0.95949308825E+02  0.91445761007E+02 0.  0.
         13    1    3    3    0    0 -0.10222990325E+02 -0.35313875850E+02 -0.92911936612E+01  0.37919873450E+02  0.10566000000E+00 0. -1.
         22    1    1    0    0    0  0.17826849315E+01 -0.86005653507E+01 -0.27691062960E+02  0.29050691175E+02  0.00000000000E+00 0.  1.
</event>
<event>
 5    1  0.1680526E-003  0.9118800E+02  0.7818608E-02  0.1130116E+00
         25   -1    0    0    0    0  0.00000000000E+00  0.00000000000E+00  0.99999998245E-14  0.12500000000E+03  0.12500000000E+03 0.  0.
        -13    1    3    3    0    0 -0.28959725489E+02  0.18846788066E+02  0.30139827575E+02  0.45850708731E+02  0.10566000000E+00 0. -1.
         23    2    1    0    0    0 -0.23117001569E+02  0.55770765926E+01 -0.17387876096E+02  0.95540913457E+02  0.90885798474E+02 0.  0.
         13    1    3    3    0    0  0.58427239206E+01 -0.13269711474E+02 -0.47527703671E+02  0.49690204726E+02  0.10566000000E+00 0.  1.
         22    1    1    0    0    0  0.23117001569E+02 -0.55770765926E+01  0.17387876096E+02  0.29459086543E+02  0.00000000000E+00 0. -1.
</event>
<event>
 5    1  0.1680526E-003  0.9118800E+02  0.7818608E-02  0.1130116E+00
         25   -1    0    0    0    0  0.00000000000E+00  0.00000000000E+00  0.99999998245E-14  0.12500000000E+03  0.12500000000E+03 0.  0.
        -13    1    3    3    0    0  0.28623681409E+02  0.35164609167E+02 -0.21847035009E+02  0.50330596838E+02  0.10566000000E+00 0.  1.
         23    2    1    0    0    0 -0.12703047760E+02  0.14877405593E+02 -0.20892505414E+02  0.96378305395E+02  0.92030301254E+02 0.  0.
         13    1    3    3    0    0 -0.41326729168E+02 -0.20287203575E+02  0.95452959519E+00  0.46047708558E+02  0.10566000000E+00 0. -1.
         22    1    1    0    0    0  0.12703047760E+02 -0.14877405593E+02  0.20892505414E+02  0.28621694605E+02  0.00000000000E+00 0.  1.
</event>
<event>
 5    1  0.1680526E-003  0.9118800E+02  0.7818608E-02  0.1130116E+00
         25   -1    0    0    0    0  0.00000000000E+00  0.00000000000E+00  0.99999998245E-14  0.12500000000E+03  0.12500000000E+03 0.  0.
        -13    1    3    3    0    0 -0.53330763910E+02  0.20146665337E+02  0.25252266903E+02  0.62351797498E+02  0.10566000000E+00 0.  1.
         23    2    1    0    0    0 -0.21696110159E+02  0.78858569075E+01  0.13501436570E+02  0.98256837796E+02  0.94547392608E+02 0.  0.
         13    1    3    3    0    0  0.31634653751E+02 -0.12260808429E+02 -0.11750830333E+02  0.35905040298E+02  0.10566000000E+00 0. -1.
         22    1    1    0    0    0  0.21696110159E+02 -0.78858569075E+01 -0.13501436570E+02  0.26743162204E+02  0.00000000000E+00 0.  1.
</event>
<event>
 5    1  0.1680526E-003  0.9118800E+02  0.7818608E-02  0.1130116E+00
         25   -1    0    0    0    0  0.00000000000E+00  0.00000000000E+00  0.99999998245E-14  0.12500000000E+03  0.12500000000E+03 0.  0.
        -13    1    3    3    0    0  0.31796442239E+02  0.44671698484E+02  0.10187485822E+02  0.55770694957E+02  0.10566000000E+00 0. -1.
         23    2    1    0    0    0  0.10960950273E+02  0.28718281458E+02 -0.13782863051E+02  0.91312473604E+02  0.84871187108E+02 0.  0.
         13    1    3    3    0    0 -0.20835491966E+02 -0.15953417026E+02 -0.23970348874E+02  0.35541778648E+02  0.10566000000E+00 0.  1.
         22    1    1    0    0    0 -0.10960950273E+02 -0.28718281458E+02  0.13782863051E+02  0.33687526396E+02  0.00000000000E+00 0. -1.
</event>
<event>
 5    1  0.1680526E-003  0.9118800E+02  0.7818608E-02  0.1130116E+00
         25   -1    0    0    0    0  0.00000000000E+00  0.00000000000E+00  0.99999998245E-14  0.12500000000E+03  0.12500000000E+03 0.  0.
        -13    1    3    3    0    0 -0.35916184513E+02 -0.30857881331E+01  0.40004866798E+02  0.53850672511E+02  0.10566000000E+00 0.  1.
         23    2    1    0    0    0 -0.14390299549E+02  0.21643341864E+02  0.16086492324E+02  0.94433838915E+02  0.89350208331E+02 0.  0.
         13    1    3    3    0    0  0.21525884963E+02  0.24729129997E+02 -0.23918374474E+02  0.40583166404E+02  0.10566000000E+00 0. -1.
         22    1    1    0    0    0  0.14390299549E+02 -0.21643341864E+02 -0.16086492324E+02  0.30566161085E+02  0.00000000000E+00 0.  1.
</event>
<event>
 5    1  0.1680526E-003  0.9118800E+02  0.7818608E-02  0.1130116E+00
         25   -1    0    0    0    0  0.00000000000E+00  0.00000000000E+00  0.99999998245E-14  0.12500000000E+03  0.12500000000E+03 0.  0.
        -13    1    3    3    0    0 -0.42326751213E+02  0.19375469981E+02  0.18332389400E+02  0.50030494404E+02  0.10566000000E+00 0.  1.
         23    2    1    0    0    0 -0.23448675094E+02 -0.16727565432E+02 -0.30387980096E+01  0.96036469444E+02  0.91564826003E+02 0.  0.
         13    1    3    3    0    0  0.18878076119E+02 -0.36103035413E+02 -0.21371187410E+02  0.46005975039E+02  0.10566000000E+00 0. -1.
         22    1    1    0    0    0  0.23448675094E+02  0.16727565432E+02  0.30387980096E+01  0.28963530556E+02  0.00000000000E+00 0. -1.
</event>
<event>
 5    1  0.1680526E-003  0.9118800E+02  0.7818608E-02  0.1130116E+00
         25   -1    0    0    0    0  0.00000000000E+00  0.00000000000E+00  0.99999998245E-14  0.12500000000E+03  0.12500000000E+03 0.  0.
        -13    1    3    3    0    0 -0.30016978600E+02  0.21201591119E+02 -0.16199395304E+02  0.40161648902E+02  0.10566000000E+00 0. -1.
         23    2    1    0    0    0 -0.12894896272E+02 -0.19373692362E+02  0.17719303853E+02  0.95749495139E+02  0.91172220467E+02 0.  0.
         13    1    3    3    0    0  0.17122082328E+02 -0.40575283480E+02  0.33918699157E+02  0.55587846238E+02  0.10566000000E+00 0.  1.
         22    1    1    0    0    0  0.12894896272E+02  0.19373692362E+02 -0.17719303853E+02  0.29250504861E+02  0.00000000000E+00 0.  1.
</event>
<event>
 5    1  0.1680526E-003  0.9118800E+02  0.7818608E-02  0.1130116E+00
         25   -1    0    0    0    0  0.00000000000E+00  0.00000000000E+00  0.99999998245E-14  0.12500000000E+03  0.12500000000E+03 0.  0.
        -13    1    3    3    0    0 -0.57067949726E+02  0.67847305837E+01 -0.83229735224E+01  0.58069497219E+02  0.10566000000E+00 0. -1.
         23    2    1    0    0    0 -0.17062800099E+02  0.16112596480E+02 -0.10681098758E+02  0.99215493349E+02  0.95806436826E+02 0.  0.
         13    1    3    3    0    0  0.40005149627E+02  0.93278658968E+01 -0.23581252357E+01  0.41145996130E+02  0.10566000000E+00 0.  1.
         22    1    1    0    0    0  0.17062800099E+02 -0.16112596480E+02  0.10681098758E+02  0.25784506651E+02  0.00000000000E+00 0. -1.
</event>
<event>
 5    1  0.1680526E-003  0.9118800E+02  0.7818608E-02  0.1130116E+00
         25   -1    0    0    0    0  0.00000000000E+00  0.00000000000E+00  0.99999998245E-14  0.12500000000E+03  0.12500000000E+03 0.  0.
        -13    1    3    3    0    0 -0.35849490038E+02 -0.20519660216E+02  0.22799962290E+02  0.47181477677E+02  0.10566000000E+00 0. -1.
         23    2    1    0    0    0 -0.23510611258E+02  0.12894790559E+02 -0.10747025864E+02  0.96111887735E+02  0.91667725693E+02 0.  0.
         13    1    3    3    0    0  0.12338878780E+02  0.33414450775E+02 -0.33546988155E+02  0.48930410058E+02  0.10566000000E+00 0.  1.
         22    1    1    0    0    0  0.23510611258E+02 -0.12894790559E+02  0.10747025864E+02  0.28888112265E+02  0.00000000000E+00 0. -1.
</event>
<event>
 5    1  0.1680526E-003  0.9118800E+02  0.7818608E-02  0.1130116E+00
         25   -1    0    0    0    0  0.00000000000E+00  0.00000000000E+00  0.99999998245E-14  0.12500000000E+03  0.12500000000E+03 0.  0.
        -13    1    3    3    0    0 -0.48076698748E+02  0.10676874420E+02 -0.14126704457E+02  0.51234163922E+02  0.10566000000E+00 0. -1.
         23    2    1    0    0    0 -0.65156702985E+01 -0.27660293836E+00 -0.27884751993E+02  0.96362788852E+02  0.92009223521E+02 0.  0.
         13    1    3    3    0    0  0.41561028449E+02 -0.10953477359E+02 -0.13758047536E+02  0.45128624930E+02  0.10566000000E+00 0.  1.
         22    1    1    0    0    0  0.65156702985E+01  0.27660293836E+00  0.27884751993E+02  0.28637211148E+02  0.00000000000E+00 0. -1.
</event>
<event>
 5    1  0.1680526E-003  0.9118800E+02  0.7818608E-02  0.1130116E+00
         25   -1    0    0    0    0  0.00000000000E+00  0.00000000000E+00  0.99999998245E-14  0.12500000000E+03  0.12500000000E+03 0.  0.
        -13    1    3    3    0    0  0.25745298130E+02 -0.28261505475E+02  0.42275964577E+02  0.56998257977E+02  0.10566000000E+00 0.  1.
         23    2    1    0    0    0  0.79527322298E+00 -0.27569016818E+02  0.16587607005E+02  0.92815658249E+02  0.87056961595E+02 0.  0.
         13    1    3    3    0    0 -0.24950024907E+02  0.69248865709E+00 -0.25688357572E+02  0.35817400271E+02  0.10566000000E+00 0. -1.
         22    1    1    0    0    0 -0.79527322298E+00  0.27569016818E+02 -0.16587607005E+02  0.32184341751E+02  0.00000000000E+00 0.  1.
</event>
<event>
 5    1  0.1680526E-003  0.9118800E+02  0.7818608E-02  0.1130116E+00
         25   -1    0    0    0    0  0.00000000000E+00  0.00000000000E+00  0.99999998245E-14  0.12500000000E+03  0.12500000000E+03 0.  0.
        -13    1    3    3    0    0 -0.65497136250E+01 -0.32242318198E+02 -0.12390109194E+02  0.35156675059E+02  0.10566000000E+00 0. -1.
         23    2    1    0    0    0 -0.86431013004E+01  0.27630715972E+02 -0.62668969744E+01  0.95378493237E+02  0.90662138235E+02 0.  0.
         13    1    3    3    0    0 -0.20933876754E+01  0.59873034170E+02  0.61232122197E+01  0.60221818178E+02  0.10566000000E+00 0.  1.
         22    1    1    0    0    0  0.86431013004E+01 -0.27630715972E+02  0.62668969744E+01  0.29621506763E+02  0.00000000000E+00 0.  1.
</event>
<event>
 5    1  0.1680526E-003  0.9118800E+02  0.7818608E-02  0.1130116E+00
         25   -1    0    0    0    0  0.00000000000E+00  0.00000000000E+00  0.99999998245E-14  0.12500000000E+03  0.12500000000E+03 0.  0.
        -13    1    3    3    0    0  0.40613291933E+02 -0.11778872332E+02 -0.19593718807E+02  0.46605861174E+02  0.10566000000E+00 0.  1.
         23    2    1    0    0    0 -0.65907377818E+01  0.12370258499E+02 -0.21121781180E+02  0.99650626042E+02  0.96372488348E+02 0.  0.
         13    1    3    3    0    0 -0.47204029715E+02  0.24149130832E+02 -0.15280623733E+01  0.53044764868E+02  0.10566000000E+00 0. -1.
         22    1    1    0    0    0  0.65907377818E+01 -0.12370258499E+02  0.21121781180E+02  0.25349373958E+02  0.00000000000E+00 0. -1.
</event>
<event>
 5    1  0.1680526E-003  0.9118800E+02  0.7818608E-02  0.1130116E+00
         25   -1    0    0    0    0  0.00000000000E+00  0.00000000000E+00  0.99999998245E-14  0.12500000000E+03  0.12500000000E+03 0.  0.
        -13    1    3    3    0    0 -0.11625225914E+02  0.41669433779E+02 -0.24203918372E+02  0.49571447604E+02  0.10566000000E+00 0. -1.
         23    2    1    0    0    0  0.67656869931E+01  0.81820565988E+00 -0.29536097864E+02  0.94687872757E+02  0.89704895013E+02 0.  0.
         13    1    3    3    0    0  0.18390912907E+02 -0.40851228119E+02 -0.53321794914E+01  0.45116425153E+02  0.10566000000E+00 0.  1.
         22    1    1    0    0    0 -0.67656869931E+01 -0.81820565988E+00  0.29536097864E+02  0.30312127243E+02  0.00000000000E+00 0.  1.
</event>
<event>
 5    1  0.1680526E-003  0.9118800E+02  0.7818608E-02  0.1130116E+00
         25   -1    0    0    0    0  0.00000000000E+00  0.00000000000E+00  0.99999998245E-14  0.12500000000E+03  0.12500000000E+03 0.  0.
        -13    1    3    3    0    0 -0.19037115404E+02 -0.40250172375E+02 -0.17934350841E+02  0.48001460845E+02  0.10566000000E+00 0.  1.
         23    2    1    0    0    0  0.20572344115E+02 -0.13576538509E+02 -0.15636352725E+02  0.95810288340E+02  0.91255531804E+02 0.  0.
         13    1    3    3    0    0  0.39609459519E+02  0.26673633866E+02  0.22979981164E+01  0.47808827495E+02  0.10566000000E+00 0. -1.
         22    1    1    0    0    0 -0.20572344115E+02  0.13576538509E+02  0.15636352725E+02  0.29189711660E+02  0.00000000000E+00 0.  1.
</event>
<event>
 5    1  0.1680526E-003  0.9118800E+02  0.7818608E-02  0.1130116E+00
         25   -1    0    0    0    0  0.00000000000E+00  0.00000000000E+00  0.99999998245E-14  0.12500000000E+03  0.12500000000E+03 0.  0.
        -13    1    3    3    0    0 -0.34637420471E+01  0.48036538139E+02 -0.39348399464E+02  0.62191753551E+02  0.10566000000E+00 0.  1.
         23    2    1    0    0    0  0.20230448622E+01  0.24241571362E+02 -0.16734892071E+02  0.95473687917E+02  0.90793292590E+02 0.  0.
         13    1    3    3    0    0  0.54867869093E+01 -0.23794966777E+02  0.22613507393E+02  0.33281934366E+02  0.10566000000E+00 0. -1.
         22    1    1    0    0    0 -0.20230448622E+01 -0.24241571362E+02  0.16734892071E+02  0.29526312083E+02  0.00000000000E+00 0.  1.
</event>
<event>
 5    1  0.1680526E-003  0.9118800E+02  0.7818608E-02  0.1130116E+00
         25   -1    0    0    0    0  0.00000000000E+00  0.00000000000E+00  0.99999998245E-14  0.12500000000E+03  0.12500000000E+03 0.  0.
        -13    1    3    3    0    0 -0.47165527917E+02  0.61943900920E+01  0.21902462160E+02  0.52370664546E+02  0.10566000000E+00 0.  1.
         23    2    1    0    0    0 -0.23021771273E+02  0.97331554227E+01 -0.14431361630E+02  0.96138252556E+02  0.91703670260E+02 0.  0.
         13    1    3    3    0    0  0.24143756644E+02  0.35387653307E+01 -0.36333823790E+02  0.43767588010E+02  0.10566000000E+00 0. -1.
         22    1    1    0    0    0  0.23021771273E+02 -0.97331554227E+01  0.14431361630E+02  0.28861747444E+02  0.00000000000E+00 0.  1.
</event>
<event>
 5    1  0.1680526E-003  0.9118800E+02  0.7818608E-02  0.1130116E+00
         25   -1    0    0    0    0  0.00000000000E+00  0.00000000000E+00  0.99999998245E-14  0.12500000000E+03  0.12500000000E+03 0.  0.
        -13    1    3    3    0    0  0.30546535768E+02  0.18964101102E+02  0.21455012774E+02  0.41869520121E+02  0.10566000000E+00 0.  1.
         23    2    1    0    0    0  0.18053719367E+02 -0.73492636734E+01 -0.22895880090E+02  0.94930583900E+02  0.90042467619E+02 0.  0.
         13    1    3    3    0    0 -0.12492816401E+02 -0.26313364776E+02 -0.44350892864E+02  0.53061063778E+02  0.10566000000E+00 0. -1.
         22    1    1    0    0    0 -0.18053719367E+02  0.73492636734E+01  0.22895880090E+02  0.30069416100E+02  0.00000000000E+00 0. -1.
</event>
<event>
 5    1  0.1680526E-003  0.9118800E+02  0.7818608E-02  0.1130116E+00
         25   -1    0    0    0    0  0.00000000000E+00  0.00000000000E+00  0.99999998245E-14  0.12500000000E+03  0.12500000000E+03 0.  0.
        -13    1    3    3    0    0  0.14561504032E+01 -0.45277163516E+02  0.69979765620E+01  0.45838027335E+02  0.10566000000E+00 0.  1.
         23    2    1    0    0    0  0.19162416603E+02  0.15580638975E+00  0.21000721642E+02  0.96570212888E+02  0.92290591189E+02 0.  0.
         13    1    3    3    0    0  0.17706266200E+02  0.45432969905E+02  0.14002745080E+02  0.50732185553E+02  0.10566000000E+00 0. -1.
         22    1    1    0    0    0 -0.19162416603E+02 -0.15580638975E+00 -0.21000721642E+02  0.28429787112E+02  0.00000000000E+00 0.  1.
</event>
<event>
 5    1  0.1680526E-003  0.9118800E+02  0.7818608E-02  0.1130116E+00
         25   -1    0    0    0    0  0.00000000000E+00  0.00000000000E+00  0.99999998245E-14  0.12500000000E+03  0.12500000000E+03 0.  0.
        -13    1    3    3    0    0  0.42229812693E+02 -0.18317368071E+02 -0.29816885292E+02  0.54844697699E+02  0.10566000000E+00 0.  1.
         23    2    1    0    0    0  0.32193563597E+01 -0.78484464817E+01 -0.28507804925E+02  0.95256810710E+02  0.90494213502E+02 0.  0.
         13    1    3    3    0    0 -0.39010456333E+02  0.10468921590E+02  0.13090803678E+01  0.40412113011E+02  0.10566000000E+00 0. -1.
         22    1    1    0    0    0 -0.32193563597E+01  0.78484464817E+01  0.28507804925E+02  0.29743189290E+02  0.00000000000E+00 0.  1.
</event>
<event>
 5    1  0.1680526E-003  0.9118800E+02  0.7818608E-02  0.1130116E+00
         25   -1    0    0    0    0  0.00000000000E+00  0.00000000000E+00  0.99999998245E-14  0.12500000000E+03  0.12500000000E+03 0.  0.
        -13    1    3    3    0    0  0.16166429819E+02 -0.67546481583E+01 -0.30213638851E+02  0.34926406363E+02  0.10566000000E+00 0.  1.
         23    2    1    0    0    0 -0.11653166984E+02 -0.10213878790E+02  0.24273253781E+02  0.96202248875E+02  0.91790861303E+02 0.  0.
         13    1    3    3    0    0 -0.27819596803E+02 -0.34592306321E+01  0.54486892632E+02  0.61275842512E+02  0.10566000000E+00 0. -1.
         22    1    1    0    0    0  0.11653166984E+02  0.10213878790E+02 -0.24273253781E+02  0.28797751125E+02  0.00000000000E+00 0. -1.
</event>
<event>
 5    1  0.1680526E-003  0.9118800E+02  0.7818608E-02  0.1130116E+00
         25   -1    0    0    0    0  0.00000000000E+00  0.00000000000E+00  0.99999998245E-14  0.12500000000E+03  0.12500000000E+03 0.  0.
        -13    1    3    3    0    0 -0.12901370075E+02 -0.33798180093E+02 -0.12248989157E+02  0.38194387373E+02  0.10566000000E+00 0. -1.
         23    2    1    0    0    0  0.29598557818E+02  0.26733368611E+01 -0.13401406797E+01  0.95250759137E+02  0.90485854056E+02 0.  0.
         13    1    3    3    0    0  0.42499927893E+02  0.36471516954E+02  0.10908848477E+02  0.57056371764E+02  0.10566000000E+00 0.  1.
         22    1    1    0    0    0 -0.29598557818E+02 -0.26733368611E+01  0.13401406797E+01  0.29749240863E+02  0.00000000000E+00 0.  1.
</event>
<event>
 5    1  0.1680526E-003  0.9118800E+02  0.7818608E-02  0.1130116E+00
         25   -1    0    0    0    0  0.00000000000E+00  0.00000000000E+00  0.99999998245E-14  0.12500000000E+03  0.12500000000E+03 0.  0.
        -13    1    3    3    0    0  0.36261201656E+02  0.48543257602E+01 -0.58365586925E+01  0.37047480421E+02  0.10566000000E+00 0.  1.
         23    2    1    0    0    0 -0.20149388527E+02  0.42213915738E+01 -0.21131331940E+02  0.95498284891E+02  0.90827150252E+02 0.  0.
         13    1    3    3    0    0 -0.56410590183E+02 -0.63293418637E+00 -0.15294773247E+02  0.58450804470E+02  0.10566000000E+00 0. -1.
         22    1    1    0    0    0  0.20149388527E+02 -0.42213915738E+01  0.21131331940E+02  0.29501715109E+02  0.00000000000E+00 0. -1.
</event>
<event>
 5    1  0.1680526E-003  0.9118800E+02  0.7818608E-02  0.1130116E+00
         25   -1    0    0    0    0  0.00000000000E+00  0.00000000000E+00  0.99999998245E-14  0.12500000000E+03  0.12500000000E+03 0.  0.
        -13    1    3    3    0    0  0.45697381301E+02 -0.41563369581E+02 -0.86901773107E+01  0.62380242821E+02  0.10566000000E+00 0.  1.
         23    2    1    0    0    0  0.22627745587E+02 -0.17035807851E+02 -0.32221365535E+01  0.96493583469E+02  0.92186744530E+02 0.  0.
         13    1    3    3    0    0 -0.23069635714E+02  0.24527561729E+02  0.54680407572E+01  0.34113340647E+02  0.10566000000E+00 0. -1.
         22    1    1    0    0    0 -0.22627745587E+02  0.17035807851E+02  0.32221365535E+01  0.28506416531E+02  0.00000000000E+00 0.  1.
</event>
<event>
 5    1  0.1680526E-003  0.9118800E+02  0.7818608E-02  0.1130116E+00
         25   -1    0    0    0    0  0.00000000000E+00  0.00000000000E+00  0.99999998245E-14  0.12500000000E+03  0.12500000000E+03 0.  0.
        -13    1    3    3    0    0  0.94746643324E+00  0.31530731632E+02  0.31457430664E+02  0.44549588526E+02  0.10566000000E+00 0.  1.
         23    2    1    0    0    0  0.27971290181E+02  0.73050820350E+01 -0.46203221257E+01  0.95723649912E+02  0.91136778953E+02 0.  0.
         13    1    3    3    0    0  0.27023823748E+02 -0.24225649597E+02 -0.36077752789E+02  0.51174061386E+02  0.10566000000E+00 0. -1.
         22    1    1    0    0    0 -0.27971290181E+02 -0.73050820350E+01  0.46203221257E+01  0.29276350088E+02  0.00000000000E+00 0. -1.
</event>
<event>
 5    1  0.1680526E-003  0.9118800E+02  0.7818608E-02  0.1130116E+00
         25   -1    0    0    0    0  0.00000000000E+00  0.00000000000E+00  0.99999998245E-14  0.12500000000E+03  0.12500000000E+03 0.  0.
        -13    1    3    3    0    0  0.26799184023E+02 -0.20390170352E+02 -0.36350301574E+02  0.49551093831E+02  0.10566000000E+00 0.  1.
         23    2    1    0    0    0  0.91112585119E+01 -0.26758510244E+02  0.61924011448E+01  0.96062502975E+02  0.91600358862E+02 0.  0.
         13    1    3    3    0    0 -0.17687925511E+02 -0.63683398916E+01  0.42542702719E+02  0.46511409144E+02  0.10566000000E+00 0. -1.
         22    1    1    0    0    0 -0.91112585119E+01  0.26758510244E+02 -0.61924011448E+01  0.28937497025E+02  0.00000000000E+00 0.  1.
</event>
<event>
 5    1  0.1680526E-003  0.9118800E+02  0.7818608E-02  0.1130116E+00
         25   -1    0    0    0    0  0.00000000000E+00  0.00000000000E+00  0.99999998245E-14  0.12500000000E+03  0.12500000000E+03 0.  0.
        -13    1    3    3    0    0 -0.23754187835E+02 -0.20584834679E+02  0.16860215790E+02  0.35668962685E+02  0.10566000000E+00 0. -1.
         23    2    1    0    0    0  0.34711894333E+01  0.86195730827E+01 -0.27867104607E+02  0.95624470806E+02  0.91000646710E+02 0.  0.
         13    1    3    3    0    0  0.27225377269E+02  0.29204407762E+02 -0.44727320397E+02  0.59955508122E+02  0.10566000000E+00 0.  1.
         22    1    1    0    0    0 -0.34711894333E+01 -0.86195730827E+01  0.27867104607E+02  0.29375529194E+02  0.00000000000E+00 0.  1.
</event>
<event>
 5    1  0.1680526E-003  0.9118800E+02  0.7818608E-02  0.1130116E+00
         25   -1    0    0    0    0  0.00000000000E+00  0.00000000000E+00  0.99999998245E-14  0.12500000000E+03  0.12500000000E+03 0.  0.
        -13    1    3    3    0    0 -0.27104224463E+02 -0.38309928049E+02 -0.24688993562E+02  0.53026852990E+02  0.10566000000E+00 0. -1.
         23    2    1    0    0    0 -0.20318360788E+02 -0.13421531460E+02  0.11980411853E+02  0.97861400920E+02  0.94023136674E+02 0.  0.
         13    1    3    3    0    0  0.67858636751E+01  0.24888396589E+02  0.36669405415E+02  0.44834547930E+02  0.10566000000E+00 0.  1.
         22    1    1    0    0    0  0.20318360788E+02  0.13421531460E+02 -0.11980411853E+02  0.27138599080E+02  0.00000000000E+00 0. -1.
</event>
<event>
 5    1  0.1680526E-003  0.9118800E+02  0.7818608E-02  0.1130116E+00
         25   -1    0    0    0    0  0.00000000000E+00  0.00000000000E+00  0.99999998245E-14  0.12500000000E+03  0.12500000000E+03 0.  0.
        -13    1    3    3    0    0  0.46754953685E+02 -0.35713273370E+02  0.18968447185E+02  0.61816476295E+02  0.10566000000E+00 0.  1.
         23    2    1    0    0    0  0.25457625376E+02 -0.11262261544E+02  0.83339346529E+01  0.95941719051E+02  0.91435385726E+02 0.  0.
         13    1    3    3    0    0 -0.21297328308E+02  0.24451011826E+02 -0.10634512532E+02  0.34125242757E+02  0.10566000000E+00 0. -1.
         22    1    1    0    0    0 -0.25457625376E+02  0.11262261544E+02 -0.83339346529E+01  0.29058280949E+02  0.00000000000E+00 0.  1.
</event>
<event>
 5    1  0.1680526E-003  0.9118800E+02  0.7818608E-02  0.1130116E+00
         25   -1    0    0    0    0  0.00000000000E+00  0.00000000000E+00  0.99999998245E-14  0.12500000000E+03  0.12500000000E+03 0.  0.
        -13    1    3    3    0    0  0.44799208229E+02 -0.74497095444E-01  0.23861112190E+02  0.50757644220E+02  0.10566000000E+00 0. -1.
         23    2    1    0    0    0  0.25870006986E+01  0.16489866864E+02  0.23586927493E+02  0.96104473869E+02  0.91657615436E+02 0.  0.
         13    1    3    3    0    0 -0.42212207530E+02  0.16564363960E+02 -0.27418469710E+00  0.45346829650E+02  0.10566000000E+00 0.  1.
         22    1    1    0    0    0 -0.25870006986E+01 -0.16489866864E+02 -0.23586927493E+02  0.28895526131E+02  0.00000000000E+00 0. -1.
</event>
<event>
 5    1  0.1680526E-003  0.9118800E+02  0.7818608E-02  0.1130116E+00
         25   -1    0    0    0    0  0.00000000000E+00  0.00000000000E+00  0.99999998245E-14  0.12500000000E+03  0.12500000000E+03 0.  0.
        -13    1    3    3    0    0  0.13749211107E+01 -0.16958583759E+01 -0.56802631242E+02  0.56844669264E+02  0.10566000000E+00 0. -1.
         23    2    1    0    0    0 -0.62307446024E+01  0.16423268973E+02 -0.21615043006E+02  0.97147602864E+02  0.93069332844E+02 0.  0.
         13    1    3    3    0    0 -0.76056657130E+01  0.18119127349E+02  0.35187588236E+02  0.40302933600E+02  0.10566000000E+00 0.  1.
         22    1    1    0    0    0  0.62307446024E+01 -0.16423268973E+02  0.21615043006E+02  0.27852397136E+02  0.00000000000E+00 0. -1.
</event>
<event>
 5    1  0.1680526E-003  0.9118800E+02  0.7818608E-02  0.1130116E+00
         25   -1    0    0    0    0  0.00000000000E+00  0.00000000000E+00  0.99999998245E-14  0.12500000000E+03  0.12500000000E+03 0.  0.
        -13    1    3    3    0    0 -0.28417068935E+02 -0.22850795467E+02  0.40702215836E+02  0.54647691610E+02  0.10566000000E+00 0.  1.
         23    2    1    0    0    0 -0.27271594114E+02 -0.14726503696E+02  0.22951995391E+01  0.93921427035E+02  0.88630450517E+02 0.  0.
         13    1    3    3    0    0  0.11454748210E+01  0.81242917708E+01 -0.38407016297E+02  0.39273735425E+02  0.10566000000E+00 0. -1.
         22    1    1    0    0    0  0.27271594114E+02  0.14726503696E+02 -0.22951995391E+01  0.31078572965E+02  0.00000000000E+00 0.  1.
</event>
<event>
 5    1  0.1680526E-003  0.9118800E+02  0.7818608E-02  0.1130116E+00
         25   -1    0    0    0    0  0.00000000000E+00  0.00000000000E+00  0.99999998245E-14  0.12500000000E+03  0.12500000000E+03 0.  0.
        -13    1    3    3    0    0  0.38557001795E+02 -0.11346711226E+02  0.25835253734E+02  0.47779302450E+02  0.10566000000E+00 0. -1.
         23    2    1    0    0    0 -0.90069622100E+01 -0.53352259317E+01  0.27318178598E+02  0.95744694739E+02  0.91165638728E+02 0.  0.
         13    1    3    3    0    0 -0.47563964005E+02  0.60114852948E+01  0.14829248638E+01  0.47965392289E+02  0.10566000000E+00 0.  1.
         22    1    1    0    0    0  0.90069622100E+01  0.53352259317E+01 -0.27318178598E+02  0.29255305261E+02  0.00000000000E+00 0. -1.
</event>
<event>
 5    1  0.1680526E-003  0.9118800E+02  0.7818608E-02  0.1130116E+00
         25   -1    0    0    0    0  0.00000000000E+00  0.00000000000E+00  0.99999998245E-14  0.12500000000E+03  0.12500000000E+03 0.  0.
        -13    1    3    3    0    0 -0.33311582334E+02 -0.11090159016E+02 -0.17178253768E+02  0.39086528512E+02  0.10566000000E+00 0.  1.
         23    2    1    0    0    0  0.18690655469E+02 -0.21659824910E+02  0.37823002954E+01  0.96141822433E+02  0.91708536179E+02 0.  0.
         13    1    3    3    0    0  0.52002237803E+02 -0.10569665894E+02  0.20960554064E+02  0.57055293920E+02  0.10566000000E+00 0. -1.
         22    1    1    0    0    0 -0.18690655469E+02  0.21659824910E+02 -0.37823002954E+01  0.28858177567E+02  0.00000000000E+00 0. -1.
</event>
<event>
 5    1  0.1680526E-003  0.9118800E+02  0.7818608E-02  0.1130116E+00
         25   -1    0    0    0    0  0.00000000000E+00  0.00000000000E+00  0.99999998245E-14  0.12500000000E+03  0.12500000000E+03 0.  0.
        -13    1    3    3    0    0  0.31021622492E+02  0.15955997386E+02 -0.98260098999E+01  0.36242192941E+02  0.10566000000E+00 0. -1.
         23    2    1    0    0    0 -0.12915524738E+02 -0.13419686718E+02  0.20601103982E+02  0.97227635028E+02  0.93176760820E+02 0.  0.
         13    1    3    3    0    0 -0.43937147230E+02 -0.29375684105E+02  0.30427113882E+02  0.60985442087E+02  0.10566000000E+00 0.  1.
         22    1    1    0    0    0  0.12915524738E+02  0.13419686718E+02 -0.20601103982E+02  0.27772364972E+02  0.00000000000E+00 0.  1.
</event>
<event>
 5    1  0.1680526E-003  0.9118800E+02  0.7818608E-02  0.1130116E+00
         25   -1    0    0    0    0  0.00000000000E+00  0.00000000000E+00  0.99999998245E-14  0.12500000000E+03  0.12500000000E+03 0.  0.
        -13    1    3    3    0    0 -0.40260360700E+02  0.49025899835E+01  0.94359215648E+01  0.41641083224E+02  0.10566000000E+00 0. -1.
         23    2    1    0    0    0 -0.53177868697E+00 -0.98253620861E+01 -0.26204969072E+02  0.97008556079E+02  0.92882393487E+02 0.  0.
         13    1    3    3    0    0  0.39728582013E+02 -0.14727952070E+02 -0.35640890637E+02  0.55367472855E+02  0.10566000000E+00 0.  1.
         22    1    1    0    0    0  0.53177868697E+00  0.98253620861E+01  0.26204969072E+02  0.27991443921E+02  0.00000000000E+00 0.  1.
</event>
<event>
 5    1  0.1680526E-003  0.9118800E+02  0.7818608E-02  0.1130116E+00
         25   -1    0    0    0    0  0.00000000000E+00  0.00000000000E+00  0.99999998245E-14  0.12500000000E+03  0.12500000000E+03 0.  0.
        -13    1    3    3    0    0 -0.18691740985E+02 -0.71143257082E+01 -0.54461731798E+02  0.58017981745E+02  0.10566000000E+00 0. -1.
         23    2    1    0    0    0  0.41224864337E+01 -0.13892121620E+02 -0.26994269912E+02  0.94362171331E+02  0.89249889819E+02 0.  0.
         13    1    3    3    0    0  0.22814227418E+02 -0.67777959122E+01  0.27467461886E+02  0.36344189585E+02  0.10566000000E+00 0.  1.
         22    1    1    0    0    0 -0.41224864337E+01  0.13892121620E+02  0.26994269912E+02  0.30637828669E+02  0.00000000000E+00 0.  1.
</event>
<event>
 5    1  0.1680526E-003  0.9118800E+02  0.7818608E-02  0.1130116E+00
         25   -1    0    0    0    0  0.00000000000E+00  0.00000000000E+00  0.99999998245E-14  0.12500000000E+03  0.12500000000E+03 0.  0.
        -13    1    3    3    0    0  0.91947172694E+01  0.17623979731E+02  0.43264942724E+02  0.47613169609E+02  0.10566000000E+00 0.  1.
         23    2    1    0    0    0 -0.71484475447E+01  0.28367086088E+02 -0.70587535599E+00  0.95737564431E+02  0.91155861620E+02 0.  0.
         13    1    3    3    0    0 -0.16343164814E+02  0.10743106357E+02 -0.43970818080E+02  0.48124394822E+02  0.10566000000E+00 0. -1.
         22    1    1    0    0    0  0.71484475447E+01 -0.28367086088E+02  0.70587535599E+00  0.29262435569E+02  0.00000000000E+00 0.  1.
</event>
<event>
 5    1  0.1680526E-003  0.9118800E+02  0.7818608E-02  0.1130116E+00
         25   -1    0    0    0    0  0.00000000000E+00  0.00000000000E+00  0.99999998245E-14  0.12500000000E+03  0.12500000000E+03 0.  0.
        -13    1    3    3    0    0  0.60474292254E+02  0.31341946666E+01  0.80327324355E+00  0.60560875256E+02  0.10566000000E+00 0. -1.
         23    2    1    0    0    0  0.29458501161E+02  0.66027890084E+01  0.10166914088E+02  0.93144603983E+02  0.87528001209E+02 0.  0.
         13    1    3    3    0    0 -0.31015791093E+02  0.34685943418E+01  0.93636408447E+01  0.32583728727E+02  0.10566000000E+00 0.  1.
         22    1    1    0    0    0 -0.29458501161E+02 -0.66027890084E+01 -0.10166914088E+02  0.31855396017E+02  0.00000000000E+00 0. -1.
</event>
<event>
 5    1  0.1680526E-003  0.9118800E+02  0.7818608E-02  0.1130116E+00
         25   -1    0    0    0    0  0.00000000000E+00  0.00000000000E+00  0.99999998245E-14  0.12500000000E+03  0.12500000000E+03 0.  0.
        -13    1    3    3    0    0 -0.43836071006E+00 -0.35554722612E+01 -0.48067268440E+02  0.48200695041E+02  0.10566000000E+00 0.  1.
         23    2    1    0    0    0 -0.27219918088E+02 -0.46868719813E+01 -0.82988858099E+01  0.96159711940E+02  0.91732916584E+02 0.  0.
         13    1    3    3    0    0 -0.26781557378E+02 -0.11313997201E+01  0.39768382630E+02  0.47959016899E+02  0.10566000000E+00 0. -1.
         22    1    1    0    0    0  0.27219918088E+02  0.46868719813E+01  0.82988858099E+01  0.28840288060E+02  0.00000000000E+00 0.  1.
</event>
<event>
 5    1  0.1680526E-003  0.9118800E+02  0.7818608E-02  0.1130116E+00
         25   -1    0    0    0    0  0.00000000000E+00  0.00000000000E+00  0.99999998245E-14  0.12500000000E+03  0.12500000000E+03 0.  0.
        -13    1    3    3    0    0 -0.25397357653E+02  0.63695517645E+01 -0.24888883917E+02  0.36125678846E+02  0.10566000000E+00 0. -1.
         23    2    1    0    0    0  0.10061861156E+01  0.96870276126E+01  0.28012242596E+02  0.95343016847E+02  0.90613212126E+02 0.  0.
         13    1    3    3    0    0  0.26403543769E+02  0.33174758481E+01  0.52901126513E+02  0.59217338001E+02  0.10566000000E+00 0.  1.
         22    1    1    0    0    0 -0.10061861156E+01 -0.96870276126E+01 -0.28012242596E+02  0.29656983153E+02  0.00000000000E+00 0.  1.
</event>
<event>
 5    1  0.1680526E-003  0.9118800E+02  0.7818608E-02  0.1130116E+00
         25   -1    0    0    0    0  0.00000000000E+00  0.00000000000E+00  0.99999998245E-14  0.12500000000E+03  0.12500000000E+03 0.  0.
        -13    1    3    3    0    0  0.53679504460E+02  0.92777528572E+00  0.16829689739E+02  0.56263661335E+02  0.10566000000E+00 0. -1.
         23    2    1    0    0    0  0.18557967404E+02 -0.12482054716E+02  0.21289776797E+02  0.94121942416E+02  0.88912797752E+02 0.  0.
         13    1    3    3    0    0 -0.35121537056E+02 -0.13409830001E+02  0.44600870583E+01  0.37858281081E+02  0.10566000000E+00 0.  1.
         22    1    1    0    0    0 -0.18557967404E+02  0.12482054716E+02 -0.21289776797E+02  0.30878057584E+02  0.00000000000E+00 0. -1.
</event>
<event>
 5    1  0.1680526E-003  0.9118800E+02  0.7818608E-02  0.1130116E+00
         25   -1    0    0    0    0  0.00000000000E+00  0.00000000000E+00  0.99999998245E-14  0.12500000000E+03  0.12500000000E+03 0.  0.
        -13    1    3    3    0    0  0.10731451460E+02 -0.29478686581E+02 -0.23050029107E+01  0.31456020337E+02  0.10566000000E+00 0. -1.
         23    2    1    0    0    0 -0.23650367805E+02  0.21366702551E+02 -0.41214107017E+01  0.92861831082E+02  0.87123233242E+02 0.  0.
         13    1    3    3    0    0 -0.34381819265E+02  0.50845389132E+02 -0.18164077910E+01  0.61405810745E+02  0.10566000000E+00 0.  1.
         22    1    1    0    0    0  0.23650367805E+02 -0.21366702551E+02  0.41214107017E+01  0.32138168918E+02  0.00000000000E+00 0.  1.
</event>
<event>
 5    1  0.1680526E-003  0.9118800E+02  0.7818608E-02  0.1130116E+00
         25   -1    0    0    0    0  0.00000000000E+00  0.00000000000E+00  0.99999998245E-14  0.12500000000E+03  0.12500000000E+03 0.  0.
        -13    1    3    3    0    0 -0.29057468688E+02 -0.34674057360E+02  0.67081089387E+01  0.45734414065E+02  0.10566000000E+00 0. -1.
         23    2    1    0    0    0  0.86290027362E+01 -0.77938332923E+01  0.26486639519E+02  0.96073444750E+02  0.91615289049E+02 0.  0.
         13    1    3    3    0    0  0.37686471424E+02  0.26880224068E+02  0.19778530580E+02  0.50339030685E+02  0.10566000000E+00 0.  1.
         22    1    1    0    0    0 -0.86290027362E+01  0.77938332923E+01 -0.26486639519E+02  0.28926555250E+02  0.00000000000E+00 0.  1.
</event>
<event>
 5    1  0.1680526E-003  0.9118800E+02  0.7818608E-02  0.1130116E+00
         25   -1    0    0    0    0  0.00000000000E+00  0.00000000000E+00  0.99999998245E-14  0.12500000000E+03  0.12500000000E+03 0.  0.
        -13    1    3    3    0    0  0.10984173701E+02  0.35721025616E+02  0.49718111794E+02  0.62197632972E+02  0.10566000000E+00 0. -1.
         23    2    1    0    0    0  0.43216218974E+01  0.10824303021E+02  0.22366149273E+02  0.99779242973E+02  0.96539166887E+02 0.  0.
         13    1    3    3    0    0 -0.66625518038E+01 -0.24896722594E+02 -0.27351962521E+02  0.37581610001E+02  0.10566000000E+00 0.  1.
         22    1    1    0    0    0 -0.43216218974E+01 -0.10824303021E+02 -0.22366149273E+02  0.25220757027E+02  0.00000000000E+00 0. -1.
</event>
<event>
 5    1  0.1680526E-003  0.9118800E+02  0.7818608E-02  0.1130116E+00
         25   -1    0    0    0    0  0.00000000000E+00  0.00000000000E+00  0.99999998245E-14  0.12500000000E+03  0.12500000000E+03 0.  0.
        -13    1    3    3    0    0 -0.23824617374E+02  0.22113341476E+02  0.28903980901E+02  0.43497856731E+02  0.10566000000E+00 0.  1.
         23    2    1    0    0    0  0.21387719053E+02  0.16614817400E+02 -0.85471417325E+00  0.97903557063E+02  0.94079164887E+02 0.  0.
         13    1    3    3    0    0  0.45212336426E+02 -0.54985240753E+01 -0.29758695074E+02  0.54405700332E+02  0.10566000000E+00 0. -1.
         22    1    1    0    0    0 -0.21387719053E+02 -0.16614817400E+02  0.85471417325E+00  0.27096442937E+02  0.00000000000E+00 0. -1.
</event>
<event>
 5    1  0.1680526E-003  0.9118800E+02  0.7818608E-02  0.1130116E+00
         25   -1    0    0    0    0  0.00000000000E+00  0.00000000000E+00  0.99999998245E-14  0.12500000000E+03  0.12500000000E+03 0.  0.
        -13    1    3    3    0    0  0.29677799453E+02 -0.18988710771E+02 -0.51720534050E+01  0.35610450960E+02  0.10566000000E+00 0. -1.
         23    2    1    0    0    0 -0.28166149715E+02  0.56930726709E+00 -0.11177975832E+01  0.96805930199E+02  0.92609300557E+02 0.  0.
         13    1    3    3    0    0 -0.57843949168E+02  0.19558018039E+02  0.40542558218E+01  0.61195479238E+02  0.10566000000E+00 0.  1.
         22    1    1    0    0    0  0.28166149715E+02 -0.56930726709E+00  0.11177975832E+01  0.28194069801E+02  0.00000000000E+00 0.  1.
</event>
<event>
 5    1  0.1680526E-003  0.9118800E+02  0.7818608E-02  0.1130116E+00
         25   -1    0    0    0    0  0.00000000000E+00  0.00000000000E+00  0.99999998245E-14  0.12500000000E+03  0.12500000000E+03 0.  0.
        -13    1    3    3    0    0  0.28928383835E+01  0.29333939742E+02 -0.25891360329E+02  0.39232922889E+02  0.10566000000E+00 0. -1.
         23    2    1    0    0    0  0.26001996553E+02 -0.35409450133E+01  0.13486775614E+02  0.95495165942E+02  0.90822857726E+02 0.  0.
         13    1    3    3    0    0  0.23109158170E+02 -0.32874884755E+02  0.39378135943E+02  0.56262243053E+02  0.10566000000E+00 0.  1.
         22    1    1    0    0    0 -0.26001996553E+02  0.35409450133E+01 -0.13486775614E+02  0.29504834058E+02  0.00000000000E+00 0.  1.
</event>
<event>
 5    1  0.1680526E-003  0.9118800E+02  0.7818608E-02  0.1130116E+00
         25   -1    0    0    0    0  0.00000000000E+00  0.00000000000E+00  0.99999998245E-14  0.12500000000E+03  0.12500000000E+03 0.  0.
        -13    1    3    3    0    0 -0.30427938205E+02  0.22573193665E+02  0.15556756648E+02  0.40956468807E+02  0.10566000000E+00 0. -1.
         23    2    1    0    0    0 -0.69392380328E+01 -0.26107182124E+02  0.12877864771E+02  0.95073801044E+02  0.90241067485E+02 0.  0.
         13    1    3    3    0    0  0.23488700172E+02 -0.48680375789E+02 -0.26788918771E+01  0.54117332237E+02  0.10566000000E+00 0.  1.
         22    1    1    0    0    0  0.69392380328E+01  0.26107182124E+02 -0.12877864771E+02  0.29926198956E+02  0.00000000000E+00 0.  1.
</event>
<event>
 5    1  0.1680526E-003  0.9118800E+02  0.7818608E-02  0.1130116E+00
         25   -1    0    0    0    0  0.00000000000E+00  0.00000000000E+00  0.99999998245E-14  0.12500000000E+03  0.12500000000E+03 0.  0.
        -13    1    3    3    0    0 -0.39410817391E+02  0.32329667303E+01 -0.26340660572E+02  0.47513220946E+02  0.10566000000E+00 0. -1.
         23    2    1    0    0    0  0.19045870329E+01  0.18595303089E+02 -0.27664534670E+02  0.91612289278E+02  0.85311618902E+02 0.  0.
         13    1    3    3    0    0  0.41315404424E+02  0.15362336359E+02 -0.13238740975E+01  0.44099068332E+02  0.10566000000E+00 0.  1.
         22    1    1    0    0    0 -0.19045870329E+01 -0.18595303089E+02  0.27664534670E+02  0.33387710722E+02  0.00000000000E+00 0.  1.
</event>
<event>
 5    1  0.1680526E-003  0.9118800E+02  0.7818608E-02  0.1130116E+00
         25   -1    0    0    0    0  0.00000000000E+00  0.00000000000E+00  0.99999998245E-14  0.12500000000E+03  0.12500000000E+03 0.  0.
        -13    1    3    3    0    0  0.22081064624E+02  0.13989669076E+02 -0.42069932412E+02  0.49529532938E+02  0.10566000000E+00 0.  1.
         23    2    1    0    0    0  0.78232313255E+01 -0.22318288284E+02 -0.15958492107E+02  0.96469623020E+02  0.92154249793E+02 0.  0.
         13    1    3    3    0    0 -0.14257833299E+02 -0.36307957360E+02  0.26111440305E+02  0.46940090082E+02  0.10566000000E+00 0. -1.
         22    1    1    0    0    0 -0.78232313255E+01  0.22318288284E+02  0.15958492107E+02  0.28530376980E+02  0.00000000000E+00 0. -1.
</event>
<event>
 5    1  0.1680526E-003  0.9118800E+02  0.7818608E-02  0.1130116E+00
         25   -1    0    0    0    0  0.00000000000E+00  0.00000000000E+00  0.99999998245E-14  0.12500000000E+03  0.12500000000E+03 0.  0.
        -13    1    3    3    0    0  0.50960594579E+02 -0.26397168261E+01  0.50360374620E+01  0.51276926021E+02  0.10566000000E+00 0. -1.
         23    2    1    0    0    0  0.17716518310E+02 -0.18962537745E+01 -0.23785049182E+02  0.95281329707E+02  0.90528075350E+02 0.  0.
         13    1    3    3    0    0 -0.33244076270E+02  0.74346305166E+00 -0.28821086644E+02  0.44004403686E+02  0.10566000000E+00 0.  1.
         22    1    1    0    0    0 -0.17716518310E+02  0.18962537745E+01  0.23785049182E+02  0.29718670293E+02  0.00000000000E+00 0. -1.
</event>
<event>
 4    1  0.1680526E-003  0.9118800E+02  0.7818608E-02  0.1130116E+00
         25   -1    0    0    0    0  0.00000000000E+00  0.00000000000E+00  0.99999998245E-14  0.12500000000E+03  0.12500000000E+03 0.  0.
        -13    1    1    0    0    0 -0.38149554371E+02 -0.79083366771E+01 -0.43805019886E+02  0.58624408047E+02  0.10566000000E+00 0. -1.
         13    1    1    0    0    0  0.78003424575E+00  0.73483120101E+01 -0.16058657148E+01  0.75628110880E+01  0.10566000000E+00 0.  1.
         22    1    1    0    0    0  0.37369520125E+02  0.56002466696E+00  0.45410885601E+02  0.58812780865E+02  0.00000000000E+00 0. -1.
</event>
<event>
 5    1  0.1680526E-003  0.9118800E+02  0.7818608E-02  0.1130116E+00
         25   -1    0    0    0    0  0.00000000000E+00  0.00000000000E+00  0.99999998245E-14  0.12500000000E+03  0.12500000000E+03 0.  0.
        -13    1    3    3    0    0  0.30809607198E+02 -0.18162063332E+02  0.39288076587E+02  0.53128679318E+02  0.10566000000E+00 0. -1.
         23    2    1    0    0    0 -0.60172962888E+01 -0.20379166052E+02  0.23668223800E+02  0.93192719678E+02  0.87596688976E+02 0.  0.
         13    1    3    3    0    0 -0.36826903486E+02 -0.22171027196E+01 -0.15619852787E+02  0.40064040360E+02  0.10566000000E+00 0.  1.
         22    1    1    0    0    0  0.60172962888E+01  0.20379166052E+02 -0.23668223800E+02  0.31807280322E+02  0.00000000000E+00 0. -1.
</event>
<event>
 5    1  0.1680526E-003  0.9118800E+02  0.7818608E-02  0.1130116E+00
         25   -1    0    0    0    0  0.00000000000E+00  0.00000000000E+00  0.99999998245E-14  0.12500000000E+03  0.12500000000E+03 0.  0.
        -13    1    3    3    0    0  0.36646512059E+02 -0.27447937429E+02 -0.23578849043E+02  0.51500770882E+02  0.10566000000E+00 0. -1.
         23    2    1    0    0    0  0.27751220739E+02 -0.36822251982E+00  0.99579036682E+01  0.95513974738E+02  0.90848740687E+02 0.  0.
         13    1    3    3    0    0 -0.88952913202E+01  0.27079714909E+02  0.33536752711E+02  0.44013203856E+02  0.10566000000E+00 0.  1.
         22    1    1    0    0    0 -0.27751220739E+02  0.36822251982E+00 -0.99579036682E+01  0.29486025262E+02  0.00000000000E+00 0.  1.
</event>
<event>
 5    1  0.1680526E-003  0.9118800E+02  0.7818608E-02  0.1130116E+00
         25   -1    0    0    0    0  0.00000000000E+00  0.00000000000E+00  0.99999998245E-14  0.12500000000E+03  0.12500000000E+03 0.  0.
        -13    1    3    3    0    0  0.36672197531E+02 -0.44368497024E+02  0.15401484304E+02  0.59587167098E+02  0.10566000000E+00 0.  1.
         23    2    1    0    0    0  0.26534463234E+02 -0.11322523625E+02  0.47116857865E+01  0.95768556941E+02  0.91198351055E+02 0.  0.
         13    1    3    3    0    0 -0.10137734297E+02  0.33045973399E+02 -0.10689798517E+02  0.36181389843E+02  0.10566000000E+00 0. -1.
         22    1    1    0    0    0 -0.26534463234E+02  0.11322523625E+02 -0.47116857865E+01  0.29231443059E+02  0.00000000000E+00 0.  1.
</event>
<event>
 5    1  0.1680526E-003  0.9118800E+02  0.7818608E-02  0.1130116E+00
         25   -1    0    0    0    0  0.00000000000E+00  0.00000000000E+00  0.99999998245E-14  0.12500000000E+03  0.12500000000E+03 0.  0.
        -13    1    3    3    0    0 -0.45212844346E+02  0.94146178113E-02 -0.32791164207E+02  0.55852242539E+02  0.10566000000E+00 0. -1.
         23    2    1    0    0    0 -0.16642000493E+02 -0.19984228919E+02 -0.14018283060E+02  0.95456170765E+02  0.90769172582E+02 0.  0.
         13    1    3    3    0    0  0.28570843853E+02 -0.19993643537E+02  0.18772881148E+02  0.39603928226E+02  0.10566000000E+00 0.  1.
         22    1    1    0    0    0  0.16642000493E+02  0.19984228919E+02  0.14018283060E+02  0.29543829235E+02  0.00000000000E+00 0. -1.
</event>
<event>
 5    1  0.1680526E-003  0.9118800E+02  0.7818608E-02  0.1130116E+00
         25   -1    0    0    0    0  0.00000000000E+00  0.00000000000E+00  0.99999998245E-14  0.12500000000E+03  0.12500000000E+03 0.  0.
        -13    1    3    3    0    0  0.32179497453E+02  0.49881517988E+02  0.14182886201E+02  0.61031560017E+02  0.10566000000E+00 0.  1.
         23    2    1    0    0    0  0.21866248913E+02  0.18666847647E+02  0.11567275648E+02  0.94009906285E+02  0.88755149547E+02 0.  0.
         13    1    3    3    0    0 -0.10313248541E+02 -0.31214670341E+02 -0.26156105535E+01  0.32978346267E+02  0.10566000000E+00 0. -1.
         22    1    1    0    0    0 -0.21866248913E+02 -0.18666847647E+02 -0.11567275648E+02  0.30990093715E+02  0.00000000000E+00 0.  1.
</event>
<event>
 5    1  0.1680526E-003  0.9118800E+02  0.7818608E-02  0.1130116E+00
         25   -1    0    0    0    0  0.00000000000E+00  0.00000000000E+00  0.99999998245E-14  0.12500000000E+03  0.12500000000E+03 0.  0.
        -13    1    3    3    0    0 -0.21862031280E+02 -0.34790554593E+02  0.20087744389E+02  0.45736853185E+02  0.10566000000E+00 0.  1.
         23    2    1    0    0    0  0.19539103318E+02 -0.20589786889E+02 -0.49877758218E+01  0.96179975880E+02  0.91760525119E+02 0.  0.
         13    1    3    3    0    0  0.41401134598E+02  0.14200767704E+02 -0.25075520211E+02  0.50443122695E+02  0.10566000000E+00 0. -1.
         22    1    1    0    0    0 -0.19539103318E+02  0.20589786889E+02  0.49877758218E+01  0.28820024120E+02  0.00000000000E+00 0. -1.
</event>
<event>
 5    1  0.1680526E-003  0.9118800E+02  0.7818608E-02  0.1130116E+00
         25   -1    0    0    0    0  0.00000000000E+00  0.00000000000E+00  0.99999998245E-14  0.12500000000E+03  0.12500000000E+03 0.  0.
        -13    1    3    3    0    0 -0.27222973836E+02  0.52900806419E+02 -0.14482638708E+02  0.61231883951E+02  0.10566000000E+00 0. -1.
         23    2    1    0    0    0 -0.19973353749E+02  0.19800050985E+02 -0.82970953857E+01  0.95677335202E+02  0.91073233173E+02 0.  0.
         13    1    3    3    0    0  0.72496200867E+01 -0.33100755433E+02  0.61855433220E+01  0.34445451251E+02  0.10566000000E+00 0.  1.
         22    1    1    0    0    0  0.19973353749E+02 -0.19800050985E+02  0.82970953857E+01  0.29322664798E+02  0.00000000000E+00 0. -1.
</event>
<event>
 5    1  0.1680526E-003  0.9118800E+02  0.7818608E-02  0.1130116E+00
         25   -1    0    0    0    0  0.00000000000E+00  0.00000000000E+00  0.99999998245E-14  0.12500000000E+03  0.12500000000E+03 0.  0.
        -13    1    3    3    0    0 -0.38248979122E+02  0.36430928321E+02 -0.21092285758E+02  0.56877874650E+02  0.10566000000E+00 0.  1.
         23    2    1    0    0    0 -0.28873144620E+02  0.78994359790E+01  0.23459001556E+01  0.94973964354E+02  0.90102669708E+02 0.  0.
         13    1    3    3    0    0  0.93758345014E+01 -0.28531492342E+02  0.23438185913E+02  0.38096089705E+02  0.10566000000E+00 0. -1.
         22    1    1    0    0    0  0.28873144620E+02 -0.78994359790E+01 -0.23459001556E+01  0.30026035646E+02  0.00000000000E+00 0.  1.
</event>
<event>
 5    1  0.1680526E-003  0.9118800E+02  0.7818608E-02  0.1130116E+00
         25   -1    0    0    0    0  0.00000000000E+00  0.00000000000E+00  0.99999998245E-14  0.12500000000E+03  0.12500000000E+03 0.  0.
        -13    1    3    3    0    0 -0.48446371615E+02 -0.29944480826E+02 -0.14708882313E+01  0.56972778858E+02  0.10566000000E+00 0.  1.
         23    2    1    0    0    0 -0.77893481822E+01 -0.26021578663E+02 -0.27820301551E+00  0.97836165621E+02  0.93989581366E+02 0.  0.
         13    1    3    3    0    0  0.40657023432E+02  0.39229021623E+01  0.11926852158E+01  0.40863386764E+02  0.10566000000E+00 0. -1.
         22    1    1    0    0    0  0.77893481822E+01  0.26021578663E+02  0.27820301551E+00  0.27163834379E+02  0.00000000000E+00 0.  1.
</event>
<event>
 5    1  0.1680526E-003  0.9118800E+02  0.7818608E-02  0.1130116E+00
         25   -1    0    0    0    0  0.00000000000E+00  0.00000000000E+00  0.99999998245E-14  0.12500000000E+03  0.12500000000E+03 0.  0.
        -13    1    3    3    0    0 -0.37467917440E+02  0.16412469618E+02 -0.86340995573E+01  0.41806373144E+02  0.10566000000E+00 0.  1.
         23    2    1    0    0    0  0.10052138215E+02  0.24178011985E+02  0.14328093784E+02  0.95151783676E+02  0.90349022789E+02 0.  0.
         13    1    3    3    0    0  0.47520055655E+02  0.77655423676E+01  0.22962193341E+02  0.53345410532E+02  0.10566000000E+00 0. -1.
         22    1    1    0    0    0 -0.10052138215E+02 -0.24178011985E+02 -0.14328093784E+02  0.29848216324E+02  0.00000000000E+00 0. -1.
</event>
<event>
 5    1  0.1680526E-003  0.9118800E+02  0.7818608E-02  0.1130116E+00
         25   -1    0    0    0    0  0.00000000000E+00  0.00000000000E+00  0.99999998245E-14  0.12500000000E+03  0.12500000000E+03 0.  0.
        -13    1    3    3    0    0 -0.13573289438E+02 -0.12819521567E+02 -0.21645338685E+02  0.28585069008E+02  0.10566000000E+00 0. -1.
         23    2    1    0    0    0  0.24102776480E+02  0.13668264830E+02  0.20119435708E+02  0.90757380493E+02  0.84049658675E+02 0.  0.
         13    1    3    3    0    0  0.37676065917E+02  0.26487786398E+02  0.41764774393E+02  0.62172311485E+02  0.10566000000E+00 0.  1.
         22    1    1    0    0    0 -0.24102776480E+02 -0.13668264830E+02 -0.20119435708E+02  0.34242619507E+02  0.00000000000E+00 0.  1.
</event>
<event>
 5    1  0.1680526E-003  0.9118800E+02  0.7818608E-02  0.1130116E+00
         25   -1    0    0    0    0  0.00000000000E+00  0.00000000000E+00  0.99999998245E-14  0.12500000000E+03  0.12500000000E+03 0.  0.
        -13    1    3    3    0    0  0.19286764132E+01 -0.14396584847E+02 -0.39490546659E+02  0.42077260931E+02  0.10566000000E+00 0. -1.
         23    2    1    0    0    0  0.18449561591E+02  0.21841670393E+02 -0.27248586260E+01  0.96279454341E+02  0.91895938894E+02 0.  0.
         13    1    3    3    0    0  0.16520885177E+02  0.36238255240E+02  0.36765688033E+02  0.54202193410E+02  0.10566000000E+00 0.  1.
         22    1    1    0    0    0 -0.18449561591E+02 -0.21841670393E+02  0.27248586260E+01  0.28720545659E+02  0.00000000000E+00 0. -1.
</event>
<event>
 5    1  0.1680526E-003  0.9118800E+02  0.7818608E-02  0.1130116E+00
         25   -1    0    0    0    0  0.00000000000E+00  0.00000000000E+00  0.99999998245E-14  0.12500000000E+03  0.12500000000E+03 0.  0.
        -13    1    3    3    0    0 -0.31504067032E+02  0.10096942535E+02 -0.11955612766E+02  0.35176729932E+02  0.10566000000E+00 0.  1.
         23    2    1    0    0    0  0.22785788128E+02 -0.16811566780E+02 -0.59399524482E+01  0.96067251197E+02  0.91606838169E+02 0.  0.
         13    1    3    3    0    0  0.54289855159E+02 -0.26908509315E+02  0.60156603181E+01  0.60890521265E+02  0.10566000000E+00 0. -1.
         22    1    1    0    0    0 -0.22785788128E+02  0.16811566780E+02  0.59399524482E+01  0.28932748803E+02  0.00000000000E+00 0. -1.
</event>
<event>
 5    1  0.1680526E-003  0.9118800E+02  0.7818608E-02  0.1130116E+00
         25   -1    0    0    0    0  0.00000000000E+00  0.00000000000E+00  0.99999998245E-14  0.12500000000E+03  0.12500000000E+03 0.  0.
        -13    1    3    3    0    0 -0.14257486687E+01  0.39456870714E+02 -0.40285900902E+02  0.56407821987E+02  0.10566000000E+00 0.  1.
         23    2    1    0    0    0  0.69547474852E+01  0.28335097659E+02 -0.36559565255E+01  0.95595709666E+02  0.90961131350E+02 0.  0.
         13    1    3    3    0    0  0.83804961539E+01 -0.11121773055E+02  0.36629944377E+02  0.39187887679E+02  0.10566000000E+00 0. -1.
         22    1    1    0    0    0 -0.69547474852E+01 -0.28335097659E+02  0.36559565255E+01  0.29404290334E+02  0.00000000000E+00 0.  1.
</event>
<event>
 5    1  0.1680526E-003  0.9118800E+02  0.7818608E-02  0.1130116E+00
         25   -1    0    0    0    0  0.00000000000E+00  0.00000000000E+00  0.99999998245E-14  0.12500000000E+03  0.12500000000E+03 0.  0.
        -13    1    3    3    0    0 -0.47233564612E+02 -0.68584168325E+01 -0.38261568089E+02  0.61171940169E+02  0.10566000000E+00 0.  1.
         23    2    1    0    0    0 -0.15782652777E+02 -0.76966395293E+01 -0.22782785216E+02  0.96235687199E+02  0.91836386034E+02 0.  0.
         13    1    3    3    0    0  0.31450911835E+02 -0.83822269681E+00  0.15478782873E+02  0.35063747030E+02  0.10566000000E+00 0. -1.
         22    1    1    0    0    0  0.15782652777E+02  0.76966395293E+01  0.22782785216E+02  0.28764312801E+02  0.00000000000E+00 0.  1.
</event>
<event>
 5    1  0.1680526E-003  0.9118800E+02  0.7818608E-02  0.1130116E+00
         25   -1    0    0    0    0  0.00000000000E+00  0.00000000000E+00  0.99999998245E-14  0.12500000000E+03  0.12500000000E+03 0.  0.
        -13    1    3    3    0    0 -0.15952073899E+02  0.32225466847E+02 -0.70871188541E+01  0.36649526503E+02  0.10566000000E+00 0. -1.
         23    2    1    0    0    0 -0.49912482916E+01 -0.20408141679E+02  0.19239376571E+02  0.96512135616E+02  0.92211896760E+02 0.  0.
         13    1    3    3    0    0  0.10960825608E+02 -0.52633608526E+02  0.26326495425E+02  0.59862609113E+02  0.10566000000E+00 0.  1.
         22    1    1    0    0    0  0.49912482916E+01  0.20408141679E+02 -0.19239376571E+02  0.28487864384E+02  0.00000000000E+00 0.  1.
</event>
<event>
 5    1  0.1680526E-003  0.9118800E+02  0.7818608E-02  0.1130116E+00
         25   -1    0    0    0    0  0.00000000000E+00  0.00000000000E+00  0.99999998245E-14  0.12500000000E+03  0.12500000000E+03 0.  0.
        -13    1    3    3    0    0 -0.31578720883E+01  0.28728756614E+02 -0.17482356265E+02  0.33778063256E+02  0.10566000000E+00 0. -1.
         23    2    1    0    0    0  0.67939732202E+00 -0.12434929606E+02  0.27462694310E+02  0.94845586827E+02  0.89924394392E+02 0.  0.
         13    1    3    3    0    0  0.38372694103E+01 -0.41163686221E+02  0.44945050575E+02  0.61067523571E+02  0.10566000000E+00 0.  1.
         22    1    1    0    0    0 -0.67939732202E+00  0.12434929606E+02 -0.27462694310E+02  0.30154413173E+02  0.00000000000E+00 0.  1.
</event>
<event>
 5    1  0.1680526E-003  0.9118800E+02  0.7818608E-02  0.1130116E+00
         25   -1    0    0    0    0  0.00000000000E+00  0.00000000000E+00  0.99999998245E-14  0.12500000000E+03  0.12500000000E+03 0.  0.
        -13    1    3    3    0    0 -0.15904610682E+02 -0.42464244340E+02  0.10781165268E+02  0.46609155505E+02  0.10566000000E+00 0. -1.
         23    2    1    0    0    0  0.97897492635E+01 -0.47995808103E+01  0.27692315688E+02  0.95238623776E+02  0.90469088334E+02 0.  0.
         13    1    3    3    0    0  0.25694359945E+02  0.37664663530E+02  0.16911150420E+02  0.48629468271E+02  0.10566000000E+00 0.  1.
         22    1    1    0    0    0 -0.97897492635E+01  0.47995808103E+01 -0.27692315688E+02  0.29761376224E+02  0.00000000000E+00 0. -1.
</event>
<event>
 5    1  0.1680526E-003  0.9118800E+02  0.7818608E-02  0.1130116E+00
         25   -1    0    0    0    0  0.00000000000E+00  0.00000000000E+00  0.99999998245E-14  0.12500000000E+03  0.12500000000E+03 0.  0.
        -13    1    3    3    0    0 -0.53334037723E+02  0.42031060431E+01  0.18653639083E+02  0.56658230605E+02  0.10566000000E+00 0. -1.
         23    2    1    0    0    0 -0.30257492143E+02  0.56603841968E+01 -0.92126099720E+01  0.92868582936E+02  0.87132919921E+02 0.  0.
         13    1    3    3    0    0  0.23076545579E+02  0.14572781538E+01 -0.27866249055E+02  0.36210352331E+02  0.10566000000E+00 0.  1.
         22    1    1    0    0    0  0.30257492143E+02 -0.56603841968E+01  0.92126099720E+01  0.32131417064E+02  0.00000000000E+00 0. -1.
</event>
<event>
 5    1  0.1680526E-003  0.9118800E+02  0.7818608E-02  0.1130116E+00
         25   -1    0    0    0    0  0.00000000000E+00  0.00000000000E+00  0.99999998245E-14  0.12500000000E+03  0.12500000000E+03 0.  0.
        -13    1    3    3    0    0  0.43087107083E+01 -0.56539677624E+02 -0.21996193696E+02  0.60820587262E+02  0.10566000000E+00 0.  1.
         23    2    1    0    0    0  0.86655149426E+01 -0.22420204569E+02 -0.16956178109E+02  0.95584550009E+02  0.90945794307E+02 0.  0.
         13    1    3    3    0    0  0.43568042343E+01  0.34119473055E+02  0.50400155867E+01  0.34763962746E+02  0.10566000000E+00 0. -1.
         22    1    1    0    0    0 -0.86655149426E+01  0.22420204569E+02  0.16956178109E+02  0.29415449991E+02  0.00000000000E+00 0.  1.
</event>
<event>
 5    1  0.1680526E-003  0.9118800E+02  0.7818608E-02  0.1130116E+00
         25   -1    0    0    0    0  0.00000000000E+00  0.00000000000E+00  0.99999998245E-14  0.12500000000E+03  0.12500000000E+03 0.  0.
        -13    1    3    3    0    0 -0.94006912705E+01 -0.55520470288E+02 -0.16234100648E+02  0.58604204672E+02  0.10566000000E+00 0. -1.
         23    2    1    0    0    0 -0.19201783262E+02 -0.21777069653E+02 -0.10009475858E+02  0.94289434227E+02  0.89147958792E+02 0.  0.
         13    1    3    3    0    0 -0.98010919917E+01  0.33743400635E+02  0.62246247895E+01  0.35685229555E+02  0.10566000000E+00 0.  1.
         22    1    1    0    0    0  0.19201783262E+02  0.21777069653E+02  0.10009475858E+02  0.30710565773E+02  0.00000000000E+00 0. -1.
</event>
<event>
 5    1  0.1680526E-003  0.9118800E+02  0.7818608E-02  0.1130116E+00
         25   -1    0    0    0    0  0.00000000000E+00  0.00000000000E+00  0.99999998245E-14  0.12500000000E+03  0.12500000000E+03 0.  0.
        -13    1    3    3    0    0  0.13572302981E+02  0.15160228722E+01 -0.53488504947E+02  0.55204502163E+02  0.10566000000E+00 0. -1.
         23    2    1    0    0    0 -0.14968846493E+02  0.44742149229E+01 -0.24107098982E+02  0.96273058189E+02  0.91887238217E+02 0.  0.
         13    1    3    3    0    0 -0.28541149474E+02  0.29581920507E+01  0.29381405965E+02  0.41068556026E+02  0.10566000000E+00 0.  1.
         22    1    1    0    0    0  0.14968846493E+02 -0.44742149229E+01  0.24107098982E+02  0.28726941811E+02  0.00000000000E+00 0. -1.
</event>
<event>
 5    1  0.1680526E-003  0.9118800E+02  0.7818608E-02  0.1130116E+00
         25   -1    0    0    0    0  0.00000000000E+00  0.00000000000E+00  0.99999998245E-14  0.12500000000E+03  0.12500000000E+03 0.  0.
        -13    1    3    3    0    0 -0.42502154780E+02 -0.28278790765E+02  0.17777904102E+02  0.54057267840E+02  0.10566000000E+00 0. -1.
         23    2    1    0    0    0 -0.56792453241E+01 -0.27210181869E+02 -0.41001651959E+01  0.96902683768E+02  0.92739802362E+02 0.  0.
         13    1    3    3    0    0  0.36822909456E+02  0.10686088959E+01 -0.21878069298E+02  0.42845415928E+02  0.10566000000E+00 0.  1.
         22    1    1    0    0    0  0.56792453241E+01  0.27210181869E+02  0.41001651959E+01  0.28097316232E+02  0.00000000000E+00 0. -1.
</event>
<event>
 5    1  0.1680526E-003  0.9118800E+02  0.7818608E-02  0.1130116E+00
         25   -1    0    0    0    0  0.00000000000E+00  0.00000000000E+00  0.99999998245E-14  0.12500000000E+03  0.12500000000E+03 0.  0.
        -13    1    3    3    0    0 -0.33750460939E+02  0.10997375606E+02  0.43572222430E+02  0.56201295495E+02  0.10566000000E+00 0.  1.
         23    2    1    0    0    0 -0.19657858524E+02 -0.13300455209E+02  0.12191031474E+02  0.98317519626E+02  0.94627585335E+02 0.  0.
         13    1    3    3    0    0  0.14092602415E+02 -0.24297830816E+02 -0.31381190956E+02  0.42116224130E+02  0.10566000000E+00 0. -1.
         22    1    1    0    0    0  0.19657858524E+02  0.13300455209E+02 -0.12191031474E+02  0.26682480374E+02  0.00000000000E+00 0. -1.
</event>
<event>
 5    1  0.1680526E-003  0.9118800E+02  0.7818608E-02  0.1130116E+00
         25   -1    0    0    0    0  0.00000000000E+00  0.00000000000E+00  0.99999998245E-14  0.12500000000E+03  0.12500000000E+03 0.  0.
        -13    1    3    3    0    0 -0.87489651092E+01 -0.94366119699E+01  0.35595636520E+02  0.37850423238E+02  0.10566000000E+00 0.  1.
         23    2    1    0    0    0 -0.20228662754E+01 -0.23114958515E+02 -0.19297574364E+02  0.94820707904E+02  0.89889804627E+02 0.  0.
         13    1    3    3    0    0  0.67260988338E+01 -0.13678346545E+02 -0.54893210884E+02  0.56970284666E+02  0.10566000000E+00 0. -1.
         22    1    1    0    0    0  0.20228662754E+01  0.23114958515E+02  0.19297574364E+02  0.30179292096E+02  0.00000000000E+00 0. -1.
</event>
<event>
 5    1  0.1680526E-003  0.9118800E+02  0.7818608E-02  0.1130116E+00
         25   -1    0    0    0    0  0.00000000000E+00  0.00000000000E+00  0.99999998245E-14  0.12500000000E+03  0.12500000000E+03 0.  0.
        -13    1    3    3    0    0 -0.30874536058E+02 -0.40609512170E+02  0.76266712795E+01  0.51580487923E+02  0.10566000000E+00 0. -1.
         23    2    1    0    0    0 -0.88397511928E+01 -0.82728604866E+01  0.27121891686E+02  0.95298511310E+02  0.90551796379E+02 0.  0.
         13    1    3    3    0    0  0.22034784865E+02  0.32336651684E+02  0.19495220406E+02  0.43718023387E+02  0.10566000000E+00 0.  1.
         22    1    1    0    0    0  0.88397511928E+01  0.82728604866E+01 -0.27121891686E+02  0.29701488690E+02  0.00000000000E+00 0.  1.
</event>
<event>
 5    1  0.1680526E-003  0.9118800E+02  0.7818608E-02  0.1130116E+00
         25   -1    0    0    0    0  0.00000000000E+00  0.00000000000E+00  0.99999998245E-14  0.12500000000E+03  0.12500000000E+03 0.  0.
        -13    1    3    3    0    0 -0.42537889850E+02 -0.38846716598E+02  0.23805850552E+02  0.62331927195E+02  0.10566000000E+00 0.  1.
         23    2    1    0    0    0 -0.26900160053E+02 -0.25245588496E+02  0.11882107057E+02  0.86242512756E+02  0.77043028166E+02 0.  0.
         13    1    3    3    0    0  0.15637729797E+02  0.13601128103E+02 -0.11923743495E+02  0.23910585560E+02  0.10566000000E+00 0. -1.
         22    1    1    0    0    0  0.26900160053E+02  0.25245588496E+02 -0.11882107057E+02  0.38757487244E+02  0.00000000000E+00 0.  1.
</event>
<event>
 5    1  0.1680526E-003  0.9118800E+02  0.7818608E-02  0.1130116E+00
         25   -1    0    0    0    0  0.00000000000E+00  0.00000000000E+00  0.99999998245E-14  0.12500000000E+03  0.12500000000E+03 0.  0.
        -13    1    3    3    0    0  0.43419068766E+02  0.28502550672E+02 -0.32870254328E+02  0.61466053321E+02  0.10566000000E+00 0.  1.
         23    2    1    0    0    0  0.15176223925E+02  0.19443908245E+02 -0.13647474633E+02  0.96810695214E+02  0.92615731944E+02 0.  0.
         13    1    3    3    0    0 -0.28242844840E+02 -0.90586424273E+01  0.19222779695E+02  0.35344641893E+02  0.10566000000E+00 0. -1.
         22    1    1    0    0    0 -0.15176223925E+02 -0.19443908245E+02  0.13647474633E+02  0.28189304786E+02  0.00000000000E+00 0.  1.
</event>
<event>
 5    1  0.1680526E-003  0.9118800E+02  0.7818608E-02  0.1130116E+00
         25   -1    0    0    0    0  0.00000000000E+00  0.00000000000E+00  0.99999998245E-14  0.12500000000E+03  0.12500000000E+03 0.  0.
        -13    1    3    3    0    0 -0.55181607317E+02 -0.24551823117E+01  0.13825061815E+02  0.56940154588E+02  0.10566000000E+00 0.  1.
         23    2    1    0    0    0 -0.21467973756E+02 -0.18954964107E+02  0.20081756086E+01  0.96291162846E+02  0.91911863823E+02 0.  0.
         13    1    3    3    0    0  0.33713633562E+02 -0.16499781796E+02 -0.11816886206E+02  0.39351008257E+02  0.10566000000E+00 0. -1.
         22    1    1    0    0    0  0.21467973756E+02  0.18954964107E+02 -0.20081756086E+01  0.28708837154E+02  0.00000000000E+00 0.  1.
</event>
<event>
 5    1  0.1680526E-003  0.9118800E+02  0.7818608E-02  0.1130116E+00
         25   -1    0    0    0    0  0.00000000000E+00  0.00000000000E+00  0.99999998245E-14  0.12500000000E+03  0.12500000000E+03 0.  0.
        -13    1    3    3    0    0  0.51466865661E+02  0.15393000640E+02 -0.38364406235E+01  0.53856403244E+02  0.10566000000E+00 0.  1.
         23    2    1    0    0    0  0.11462644859E+02  0.13963560591E+02 -0.20902439698E+02  0.97372382714E+02  0.93370743162E+02 0.  0.
         13    1    3    3    0    0 -0.40004220802E+02 -0.14294400490E+01 -0.17065999075E+02  0.43515979471E+02  0.10566000000E+00 0. -1.
         22    1    1    0    0    0 -0.11462644859E+02 -0.13963560591E+02  0.20902439698E+02  0.27627617286E+02  0.00000000000E+00 0.  1.
</event>
<event>
 5    1  0.1680526E-003  0.9118800E+02  0.7818608E-02  0.1130116E+00
         25   -1    0    0    0    0  0.00000000000E+00  0.00000000000E+00  0.99999998245E-14  0.12500000000E+03  0.12500000000E+03 0.  0.
        -13    1    3    3    0    0 -0.25401978499E+02  0.11926483952E+01 -0.45625467548E+02  0.52233871912E+02  0.10566000000E+00 0.  1.
         23    2    1    0    0    0 -0.26605385440E+02  0.95997795786E+01 -0.20366721998E+01  0.96642455395E+02  0.92388385897E+02 0.  0.
         13    1    3    3    0    0 -0.12034069418E+01  0.84071311834E+01  0.43588795349E+02  0.44408583483E+02  0.10566000000E+00 0. -1.
         22    1    1    0    0    0  0.26605385440E+02 -0.95997795786E+01  0.20366721998E+01  0.28357544605E+02  0.00000000000E+00 0.  1.
</event>
<event>
 5    1  0.1680526E-003  0.9118800E+02  0.7818608E-02  0.1130116E+00
         25   -1    0    0    0    0  0.00000000000E+00  0.00000000000E+00  0.99999998245E-14  0.12500000000E+03  0.12500000000E+03 0.  0.
        -13    1    3    3    0    0 -0.22282958485E+02  0.72993506355E+01 -0.26624393122E+02  0.35477883698E+02  0.10566000000E+00 0.  1.
         23    2    1    0    0    0  0.19110338044E+02 -0.20622835115E+02  0.74335183824E+01  0.95917985904E+02  0.91402934723E+02 0.  0.
         13    1    3    3    0    0  0.41393296529E+02 -0.27922185751E+02  0.34057911504E+02  0.60440102206E+02  0.10566000000E+00 0. -1.
         22    1    1    0    0    0 -0.19110338044E+02  0.20622835115E+02 -0.74335183824E+01  0.29082014096E+02  0.00000000000E+00 0. -1.
</event>
<event>
 5    1  0.1680526E-003  0.9118800E+02  0.7818608E-02  0.1130116E+00
         25   -1    0    0    0    0  0.00000000000E+00  0.00000000000E+00  0.99999998245E-14  0.12500000000E+03  0.12500000000E+03 0.  0.
        -13    1    3    3    0    0 -0.11047189302E+02  0.12940209708E+02  0.39639995521E+02  0.43137336818E+02  0.10566000000E+00 0.  1.
         23    2    1    0    0    0  0.29177889155E+02  0.65797644408E+01  0.10165914762E+02  0.93409046571E+02  0.87904844250E+02 0.  0.
         13    1    3    3    0    0  0.40225078457E+02 -0.63604452673E+01 -0.29474080759E+02  0.50271709753E+02  0.10566000000E+00 0. -1.
         22    1    1    0    0    0 -0.29177889155E+02 -0.65797644408E+01 -0.10165914762E+02  0.31590953429E+02  0.00000000000E+00 0.  1.
</event>
<event>
 5    1  0.1680526E-003  0.9118800E+02  0.7818608E-02  0.1130116E+00
         25   -1    0    0    0    0  0.00000000000E+00  0.00000000000E+00  0.99999998245E-14  0.12500000000E+03  0.12500000000E+03 0.  0.
        -13    1    3    3    0    0 -0.30292493929E+01 -0.25832686742E+02  0.22656240504E+02  0.34493774135E+02  0.10566000000E+00 0. -1.
         23    2    1    0    0    0  0.23842617479E+02  0.20217610839E+02 -0.28726143627E+01  0.93607738063E+02  0.88186929393E+02 0.  0.
         13    1    3    3    0    0  0.26871866871E+02  0.46050297581E+02 -0.25528854867E+02  0.59113963928E+02  0.10566000000E+00 0.  1.
         22    1    1    0    0    0 -0.23842617479E+02 -0.20217610839E+02  0.28726143627E+01  0.31392261937E+02  0.00000000000E+00 0.  1.
</event>
<event>
 5    1  0.1680526E-003  0.9118800E+02  0.7818608E-02  0.1130116E+00
         25   -1    0    0    0    0  0.00000000000E+00  0.00000000000E+00  0.99999998245E-14  0.12500000000E+03  0.12500000000E+03 0.  0.
        -13    1    3    3    0    0 -0.27358987122E+02  0.14952196800E+02 -0.48231421623E+01  0.31549266708E+02  0.10566000000E+00 0. -1.
         23    2    1    0    0    0 -0.39936888674E+01 -0.23666246294E+02  0.28563270010E+02  0.87691808432E+02  0.79359637777E+02 0.  0.
         13    1    3    3    0    0  0.23365298255E+02 -0.38618443093E+02  0.33386412172E+02  0.56142541724E+02  0.10566000000E+00 0.  1.
         22    1    1    0    0    0  0.39936888674E+01  0.23666246294E+02 -0.28563270010E+02  0.37308191568E+02  0.00000000000E+00 0.  1.
</event>
<event>
 5    1  0.1680526E-003  0.9118800E+02  0.7818608E-02  0.1130116E+00
         25   -1    0    0    0    0  0.00000000000E+00  0.00000000000E+00  0.99999998245E-14  0.12500000000E+03  0.12500000000E+03 0.  0.
        -13    1    3    3    0    0  0.38654790862E+02  0.28016418383E+00 -0.31346082493E+02  0.49768056023E+02  0.10566000000E+00 0. -1.
         23    2    1    0    0    0 -0.78714174286E+01  0.25423332483E+01 -0.27242068786E+02  0.96529787805E+02  0.92235822495E+02 0.  0.
         13    1    3    3    0    0 -0.46526208290E+02  0.22621690645E+01  0.41040137074E+01  0.46761731783E+02  0.10566000000E+00 0.  1.
         22    1    1    0    0    0  0.78714174286E+01 -0.25423332483E+01  0.27242068786E+02  0.28470212195E+02  0.00000000000E+00 0. -1.
</event>
<event>
 5    1  0.1680526E-003  0.9118800E+02  0.7818608E-02  0.1130116E+00
         25   -1    0    0    0    0  0.00000000000E+00  0.00000000000E+00  0.99999998245E-14  0.12500000000E+03  0.12500000000E+03 0.  0.
        -13    1    3    3    0    0  0.51460676022E+02 -0.28582154585E+02 -0.32377210400E+00  0.58866431264E+02  0.10566000000E+00 0.  1.
         23    2    1    0    0    0  0.16765191427E+02 -0.24032524010E+02 -0.78605470126E+01  0.94661541680E+02  0.89668196257E+02 0.  0.
         13    1    3    3    0    0 -0.34695484595E+02  0.45496305742E+01 -0.75367749086E+01  0.35795110416E+02  0.10566000000E+00 0. -1.
         22    1    1    0    0    0 -0.16765191427E+02  0.24032524010E+02  0.78605470126E+01  0.30338458320E+02  0.00000000000E+00 0.  1.
</event>
<event>
 5    1  0.1680526E-003  0.9118800E+02  0.7818608E-02  0.1130116E+00
         25   -1    0    0    0    0  0.00000000000E+00  0.00000000000E+00  0.99999998245E-14  0.12500000000E+03  0.12500000000E+03 0.  0.
        -13    1    3    3    0    0 -0.77564185334E+00  0.94861857919E+01  0.38050465140E+02  0.39222932101E+02  0.10566000000E+00 0.  1.
         23    2    1    0    0    0 -0.97818184106E+01  0.23023301373E+02 -0.15758623974E+02  0.95434976626E+02  0.90739981026E+02 0.  0.
         13    1    3    3    0    0 -0.90061765573E+01  0.13537115581E+02 -0.53809089114E+02  0.56212044526E+02  0.10566000000E+00 0. -1.
         22    1    1    0    0    0  0.97818184106E+01 -0.23023301373E+02  0.15758623974E+02  0.29565023374E+02  0.00000000000E+00 0. -1.
</event>
<event>
 5    1  0.1680526E-003  0.9118800E+02  0.7818608E-02  0.1130116E+00
         25   -1    0    0    0    0  0.00000000000E+00  0.00000000000E+00  0.99999998245E-14  0.12500000000E+03  0.12500000000E+03 0.  0.
        -13    1    3    3    0    0 -0.23661870809E+02 -0.54627885682E+02  0.11998257537E+02  0.60729394631E+02  0.10566000000E+00 0. -1.
         23    2    1    0    0    0 -0.15447475493E+02 -0.25524405849E+02 -0.39281985124E+01  0.94907633250E+02  0.90010601111E+02 0.  0.
         13    1    3    3    0    0  0.82143953156E+01  0.29103479833E+02 -0.15926456050E+02  0.34178238619E+02  0.10566000000E+00 0.  1.
         22    1    1    0    0    0  0.15447475493E+02  0.25524405849E+02  0.39281985124E+01  0.30092366750E+02  0.00000000000E+00 0. -1.
</event>
<event>
 5    1  0.1680526E-003  0.9118800E+02  0.7818608E-02  0.1130116E+00
         25   -1    0    0    0    0  0.00000000000E+00  0.00000000000E+00  0.99999998245E-14  0.12500000000E+03  0.12500000000E+03 0.  0.
        -13    1    3    3    0    0 -0.23294525334E+02 -0.30711820112E+02  0.98005014346E+00  0.38559336968E+02  0.10566000000E+00 0.  1.
         23    2    1    0    0    0 -0.10753775162E+02  0.14639593360E+02  0.27099105362E+02  0.92376038171E+02  0.86423431677E+02 0.  0.
         13    1    3    3    0    0  0.12540750172E+02  0.45351413472E+02  0.26119055219E+02  0.53816701203E+02  0.10566000000E+00 0. -1.
         22    1    1    0    0    0  0.10753775162E+02 -0.14639593360E+02 -0.27099105362E+02  0.32623961829E+02  0.00000000000E+00 0. -1.
</event>
<event>
 5    1  0.1680526E-003  0.9118800E+02  0.7818608E-02  0.1130116E+00
         25   -1    0    0    0    0  0.00000000000E+00  0.00000000000E+00  0.99999998245E-14  0.12500000000E+03  0.12500000000E+03 0.  0.
        -13    1    3    3    0    0 -0.34453632622E+02  0.42060987514E+02  0.79863037796E+00  0.54376727062E+02  0.10566000000E+00 0.  1.
         23    2    1    0    0    0  0.47914145244E+01  0.28644233978E+02 -0.15322938057E+01  0.95917398368E+02  0.91402131223E+02 0.  0.
         13    1    3    3    0    0  0.39245047147E+02 -0.13416753535E+02 -0.23309241837E+01  0.41540671306E+02  0.10566000000E+00 0. -1.
         22    1    1    0    0    0 -0.47914145244E+01 -0.28644233978E+02  0.15322938057E+01  0.29082601632E+02  0.00000000000E+00 0.  1.
</event>
<event>
 5    1  0.1680526E-003  0.9118800E+02  0.7818608E-02  0.1130116E+00
         25   -1    0    0    0    0  0.00000000000E+00  0.00000000000E+00  0.99999998245E-14  0.12500000000E+03  0.12500000000E+03 0.  0.
        -13    1    3    3    0    0  0.33692634415E+02  0.29686891904E+02  0.24574094062E+02  0.51189866455E+02  0.10566000000E+00 0.  1.
         23    2    1    0    0    0  0.16607386383E+02 -0.10384094657E+02  0.23014332333E+02  0.94779242282E+02  0.89832124379E+02 0.  0.
         13    1    3    3    0    0 -0.17085248032E+02 -0.40070986561E+02 -0.15597617285E+01  0.43589375827E+02  0.10566000000E+00 0. -1.
         22    1    1    0    0    0 -0.16607386383E+02  0.10384094657E+02 -0.23014332333E+02  0.30220757718E+02  0.00000000000E+00 0.  1.
</event>
<event>
 5    1  0.1680526E-003  0.9118800E+02  0.7818608E-02  0.1130116E+00
         25   -1    0    0    0    0  0.00000000000E+00  0.00000000000E+00  0.99999998245E-14  0.12500000000E+03  0.12500000000E+03 0.  0.
        -13    1    3    3    0    0 -0.30646970374E+02  0.43499646644E-01 -0.26332343962E+02  0.40405967231E+02  0.10566000000E+00 0.  1.
         23    2    1    0    0    0  0.22407328021E+02 -0.12448874393E+02 -0.11580150913E+02  0.96872385138E+02  0.92698955142E+02 0.  0.
         13    1    3    3    0    0  0.53054298395E+02 -0.12492374039E+02  0.14752193049E+02  0.56466417906E+02  0.10566000000E+00 0. -1.
         22    1    1    0    0    0 -0.22407328021E+02  0.12448874393E+02  0.11580150913E+02  0.28127614862E+02  0.00000000000E+00 0. -1.
</event>
<event>
 5    1  0.1680526E-003  0.9118800E+02  0.7818608E-02  0.1130116E+00
         25   -1    0    0    0    0  0.00000000000E+00  0.00000000000E+00  0.99999998245E-14  0.12500000000E+03  0.12500000000E+03 0.  0.
        -13    1    3    3    0    0 -0.99552762409E+01  0.59528452338E+02  0.15245071729E+02  0.62250843680E+02  0.10566000000E+00 0.  1.
         23    2    1    0    0    0 -0.81975512524E+01  0.26128727342E+02  0.57541098735E+01  0.97017505124E+02  0.92894436222E+02 0.  0.
         13    1    3    3    0    0  0.17577249885E+01 -0.33399724997E+02 -0.94909618553E+01  0.34766661444E+02  0.10566000000E+00 0. -1.
         22    1    1    0    0    0  0.81975512524E+01 -0.26128727342E+02 -0.57541098735E+01  0.27982494876E+02  0.00000000000E+00 0.  1.
</event>
<event>
 5    1  0.1680526E-003  0.9118800E+02  0.7818608E-02  0.1130116E+00
         25   -1    0    0    0    0  0.00000000000E+00  0.00000000000E+00  0.99999998245E-14  0.12500000000E+03  0.12500000000E+03 0.  0.
        -13    1    3    3    0    0 -0.35520774218E+02  0.72148445281E+01 -0.48491466753E+02  0.60541001763E+02  0.10566000000E+00 0.  1.
         23    2    1    0    0    0 -0.20595576066E+02  0.10590092595E+02 -0.14877505752E+02  0.97474230401E+02  0.93506992253E+02 0.  0.
         13    1    3    3    0    0  0.14925198152E+02  0.33752480668E+01  0.33613961001E+02  0.36933228637E+02  0.10566000000E+00 0. -1.
         22    1    1    0    0    0  0.20595576066E+02 -0.10590092595E+02  0.14877505752E+02  0.27525769599E+02  0.00000000000E+00 0.  1.
</event>
<event>
 5    1  0.1680526E-003  0.9118800E+02  0.7818608E-02  0.1130116E+00
         25   -1    0    0    0    0  0.00000000000E+00  0.00000000000E+00  0.99999998245E-14  0.12500000000E+03  0.12500000000E+03 0.  0.
        -13    1    3    3    0    0 -0.82895355020E+01 -0.15374690364E+02  0.47757413479E+02  0.50851540871E+02  0.10566000000E+00 0.  1.
         23    2    1    0    0    0  0.16785698681E+02 -0.23510258025E+02  0.33293975931E+02  0.80920744721E+02  0.67861522090E+02 0.  0.
         13    1    3    3    0    0  0.25075234183E+02 -0.81355676609E+01 -0.14463437548E+02  0.30069203851E+02  0.10566000000E+00 0. -1.
         22    1    1    0    0    0 -0.16785698681E+02  0.23510258025E+02 -0.33293975931E+02  0.44079255279E+02  0.00000000000E+00 0. -1.
</event>
<event>
 5    1  0.1680526E-003  0.9118800E+02  0.7818608E-02  0.1130116E+00
         25   -1    0    0    0    0  0.00000000000E+00  0.00000000000E+00  0.99999998245E-14  0.12500000000E+03  0.12500000000E+03 0.  0.
        -13    1    3    3    0    0 -0.52988846736E+02  0.67900998008E+01  0.41298757305E+01  0.53581623448E+02  0.10566000000E+00 0.  1.
         23    2    1    0    0    0 -0.16983772912E+02  0.19263960908E+02  0.17453791253E+02  0.93948694693E+02  0.88668899131E+02 0.  0.
         13    1    3    3    0    0  0.36005073824E+02  0.12473861107E+02  0.13323915523E+02  0.40367071245E+02  0.10566000000E+00 0. -1.
         22    1    1    0    0    0  0.16983772912E+02 -0.19263960908E+02 -0.17453791253E+02  0.31051305307E+02  0.00000000000E+00 0.  1.
</event>
<event>
 5    1  0.1680526E-003  0.9118800E+02  0.7818608E-02  0.1130116E+00
         25   -1    0    0    0    0  0.00000000000E+00  0.00000000000E+00  0.99999998245E-14  0.12500000000E+03  0.12500000000E+03 0.  0.
        -13    1    3    3    0    0 -0.11222207856E+02 -0.23300309343E+02  0.24336048717E+02  0.35511924699E+02  0.10566000000E+00 0.  1.
         23    2    1    0    0    0  0.22356835587E+02  0.15324815554E+02 -0.88227524690E+01  0.96495280560E+02  0.92189045661E+02 0.  0.
         13    1    3    3    0    0  0.33579043443E+02  0.38625124897E+02 -0.33158801186E+02  0.60983355861E+02  0.10566000000E+00 0. -1.
         22    1    1    0    0    0 -0.22356835587E+02 -0.15324815554E+02  0.88227524690E+01  0.28504719440E+02  0.00000000000E+00 0. -1.
</event>
<event>
 5    1  0.1680526E-003  0.9118800E+02  0.7818608E-02  0.1130116E+00
         25   -1    0    0    0    0  0.00000000000E+00  0.00000000000E+00  0.99999998245E-14  0.12500000000E+03  0.12500000000E+03 0.  0.
        -13    1    3    3    0    0  0.12402848696E+02  0.26686561337E+02 -0.36464010307E+02  0.46857639970E+02  0.10566000000E+00 0.  1.
         23    2    1    0    0    0 -0.25173499293E+02  0.94524676967E+01 -0.20557276572E+02  0.91152461946E+02  0.84635190592E+02 0.  0.
         13    1    3    3    0    0 -0.37576347989E+02 -0.17234093641E+02  0.15906733735E+02  0.44294821977E+02  0.10566000000E+00 0. -1.
         22    1    1    0    0    0  0.25173499293E+02 -0.94524676967E+01  0.20557276572E+02  0.33847538054E+02  0.00000000000E+00 0.  1.
</event>
<event>
 5    1  0.1680526E-003  0.9118800E+02  0.7818608E-02  0.1130116E+00
         25   -1    0    0    0    0  0.00000000000E+00  0.00000000000E+00  0.99999998245E-14  0.12500000000E+03  0.12500000000E+03 0.  0.
        -13    1    3    3    0    0  0.42518166841E+02  0.11954428329E+02 -0.13960718208E+02  0.46320791068E+02  0.10566000000E+00 0.  1.
         23    2    1    0    0    0  0.13915873346E+02 -0.23785926265E+02  0.68472589194E+01  0.96604458554E+02  0.92336962472E+02 0.  0.
         13    1    3    3    0    0 -0.28602293495E+02 -0.35740354594E+02  0.20807977128E+02  0.50283667486E+02  0.10566000000E+00 0. -1.
         22    1    1    0    0    0 -0.13915873346E+02  0.23785926265E+02 -0.68472589194E+01  0.28395541446E+02  0.00000000000E+00 0. -1.
</event>
<event>
 5    1  0.1680526E-003  0.9118800E+02  0.7818608E-02  0.1130116E+00
         25   -1    0    0    0    0  0.00000000000E+00  0.00000000000E+00  0.99999998245E-14  0.12500000000E+03  0.12500000000E+03 0.  0.
        -13    1    3    3    0    0  0.32401739683E+02  0.13245260925E+02 -0.96440722209E+01  0.36308800097E+02  0.10566000000E+00 0.  1.
         23    2    1    0    0    0 -0.93934154916E+01 -0.12966250304E+02  0.24090327178E+02  0.96074167859E+02  0.91616275654E+02 0.  0.
         13    1    3    3    0    0 -0.41795155174E+02 -0.26211511229E+02  0.33734399398E+02  0.59765367762E+02  0.10566000000E+00 0. -1.
         22    1    1    0    0    0  0.93934154916E+01  0.12966250304E+02 -0.24090327178E+02  0.28925832141E+02  0.00000000000E+00 0. -1.
</event>
<event>
 5    1  0.1680526E-003  0.9118800E+02  0.7818608E-02  0.1130116E+00
         25   -1    0    0    0    0  0.00000000000E+00  0.00000000000E+00  0.99999998245E-14  0.12500000000E+03  0.12500000000E+03 0.  0.
        -13    1    3    3    0    0  0.16521704174E+02  0.11051113499E+02  0.83813399860E+01  0.21572015260E+02  0.10566000000E+00 0.  1.
         23    2    1    0    0    0 -0.23617406809E+02 -0.25771070862E+02 -0.21758652090E+02  0.83825141913E+02  0.73015652282E+02 0.  0.
         13    1    3    3    0    0 -0.40139110983E+02 -0.36822184361E+02 -0.30139992076E+02  0.62253126652E+02  0.10566000000E+00 0. -1.
         22    1    1    0    0    0  0.23617406809E+02  0.25771070862E+02  0.21758652090E+02  0.41174858087E+02  0.00000000000E+00 0. -1.
</event>
<event>
 5    1  0.1680526E-003  0.9118800E+02  0.7818608E-02  0.1130116E+00
         25   -1    0    0    0    0  0.00000000000E+00  0.00000000000E+00  0.99999998245E-14  0.12500000000E+03  0.12500000000E+03 0.  0.
        -13    1    3    3    0    0 -0.16888105970E+02 -0.27956057872E+02 -0.46760351748E+02  0.57037627533E+02  0.10566000000E+00 0.  1.
         23    2    1    0    0    0 -0.14694935335E+02  0.42972378783E+01 -0.23842717173E+02  0.96664817980E+02  0.92418637163E+02 0.  0.
         13    1    3    3    0    0  0.21931706351E+01  0.32253295750E+02  0.22917634574E+02  0.39627190447E+02  0.10566000000E+00 0. -1.
         22    1    1    0    0    0  0.14694935335E+02 -0.42972378783E+01  0.23842717173E+02  0.28335182020E+02  0.00000000000E+00 0. -1.
</event>
<event>
 5    1  0.1680526E-003  0.9118800E+02  0.7818608E-02  0.1130116E+00
         25   -1    0    0    0    0  0.00000000000E+00  0.00000000000E+00  0.99999998245E-14  0.12500000000E+03  0.12500000000E+03 0.  0.
        -13    1    3    3    0    0 -0.64594651462E+01 -0.24281439807E+02 -0.32426736598E+02  0.41022157665E+02  0.10566000000E+00 0.  1.
         23    2    1    0    0    0  0.23717927819E+02 -0.19823848061E+02  0.93085055102E+01  0.92717290591E+02  0.86915606468E+02 0.  0.
         13    1    3    3    0    0  0.30177392965E+02  0.44575917465E+01  0.41735242108E+02  0.51695132926E+02  0.10566000000E+00 0. -1.
         22    1    1    0    0    0 -0.23717927819E+02  0.19823848061E+02 -0.93085055102E+01  0.32282709409E+02  0.00000000000E+00 0. -1.
</event>
<event>
 5    1  0.1680526E-003  0.9118800E+02  0.7818608E-02  0.1130116E+00
         25   -1    0    0    0    0  0.00000000000E+00  0.00000000000E+00  0.99999998245E-14  0.12500000000E+03  0.12500000000E+03 0.  0.
        -13    1    3    3    0    0 -0.30350782710E+02 -0.98406310463E+00 -0.15656851598E+02  0.34165575618E+02  0.10566000000E+00 0. -1.
         23    2    1    0    0    0  0.28665712252E+02  0.67303108738E+01 -0.64705410976E+00  0.95547685619E+02  0.90895112106E+02 0.  0.
         13    1    3    3    0    0  0.59016494962E+02  0.77143739785E+01  0.15009797488E+02  0.61382110001E+02  0.10566000000E+00 0.  1.
         22    1    1    0    0    0 -0.28665712252E+02 -0.67303108738E+01  0.64705410976E+00  0.29452314381E+02  0.00000000000E+00 0.  1.
</event>
<event>
 5    1  0.1680526E-003  0.9118800E+02  0.7818608E-02  0.1130116E+00
         25   -1    0    0    0    0  0.00000000000E+00  0.00000000000E+00  0.99999998245E-14  0.12500000000E+03  0.12500000000E+03 0.  0.
        -13    1    3    3    0    0  0.13624625033E+02  0.26084294090E+02 -0.54800464389E+01  0.29934309387E+02  0.10566000000E+00 0. -1.
         23    2    1    0    0    0 -0.25322880907E+02 -0.21603145099E+02 -0.34056618900E+01  0.91540431734E+02  0.85206266985E+02 0.  0.
         13    1    3    3    0    0 -0.38947505940E+02 -0.47687439189E+02  0.20743845488E+01  0.61606122347E+02  0.10566000000E+00 0.  1.
         22    1    1    0    0    0  0.25322880907E+02  0.21603145099E+02  0.34056618900E+01  0.33459568266E+02  0.00000000000E+00 0.  1.
</event>
<event>
 5    1  0.1680526E-003  0.9118800E+02  0.7818608E-02  0.1130116E+00
         25   -1    0    0    0    0  0.00000000000E+00  0.00000000000E+00  0.99999998245E-14  0.12500000000E+03  0.12500000000E+03 0.  0.
        -13    1    3    3    0    0  0.57487352471E+01 -0.31221261268E+02 -0.47398599930E+02  0.57047818113E+02  0.10566000000E+00 0.  1.
         23    2    1    0    0    0  0.20093457344E+02 -0.88216821029E+01 -0.18809248559E+02  0.96097457992E+02  0.91648046886E+02 0.  0.
         13    1    3    3    0    0  0.14344722097E+02  0.22399579165E+02  0.28589351371E+02  0.39049639879E+02  0.10566000000E+00 0. -1.
         22    1    1    0    0    0 -0.20093457344E+02  0.88216821029E+01  0.18809248559E+02  0.28902542008E+02  0.00000000000E+00 0.  1.
</event>
<event>
 5    1  0.1680526E-003  0.9118800E+02  0.7818608E-02  0.1130116E+00
         25   -1    0    0    0    0  0.00000000000E+00  0.00000000000E+00  0.99999998245E-14  0.12500000000E+03  0.12500000000E+03 0.  0.
        -13    1    3    3    0    0  0.18767086250E+02 -0.18005009560E+02 -0.39603729600E+02  0.47379852869E+02  0.10566000000E+00 0. -1.
         23    2    1    0    0    0 -0.14674349564E+02 -0.24677972293E+02 -0.51977240270E+01  0.95822008523E+02  0.91271584465E+02 0.  0.
         13    1    3    3    0    0 -0.33441435814E+02 -0.66729627321E+01  0.34406005573E+02  0.48442155654E+02  0.10566000000E+00 0.  1.
         22    1    1    0    0    0  0.14674349564E+02  0.24677972293E+02  0.51977240270E+01  0.29177991477E+02  0.00000000000E+00 0.  1.
</event>
<event>
 5    1  0.1680526E-003  0.9118800E+02  0.7818608E-02  0.1130116E+00
         25   -1    0    0    0    0  0.00000000000E+00  0.00000000000E+00  0.99999998245E-14  0.12500000000E+03  0.12500000000E+03 0.  0.
        -13    1    3    3    0    0  0.30958906625E+02  0.27387434705E+02  0.41321724101E+02  0.58446740934E+02  0.10566000000E+00 0. -1.
         23    2    1    0    0    0  0.47450247106E+01  0.25175166510E+02  0.23614487676E+02  0.90158239188E+02  0.83153832124E+02 0.  0.
         13    1    3    3    0    0 -0.26213881915E+02 -0.22122681942E+01 -0.17707236425E+02  0.31711498253E+02  0.10566000000E+00 0.  1.
         22    1    1    0    0    0 -0.47450247106E+01 -0.25175166510E+02 -0.23614487676E+02  0.34841760812E+02  0.00000000000E+00 0. -1.
</event>
<event>
 5    1  0.1680526E-003  0.9118800E+02  0.7818608E-02  0.1130116E+00
         25   -1    0    0    0    0  0.00000000000E+00  0.00000000000E+00  0.99999998245E-14  0.12500000000E+03  0.12500000000E+03 0.  0.
        -13    1    3    3    0    0 -0.19956233579E+02  0.25297562028E+02  0.18301461460E+02  0.37056343031E+02  0.10566000000E+00 0.  1.
         23    2    1    0    0    0  0.26954163351E+02 -0.74954466060E+01  0.42277946845E+00  0.97019875193E+02  0.92897625363E+02 0.  0.
         13    1    3    3    0    0  0.46910396930E+02 -0.32793008634E+02 -0.17878681992E+02  0.59963532161E+02  0.10566000000E+00 0. -1.
         22    1    1    0    0    0 -0.26954163351E+02  0.74954466060E+01 -0.42277946845E+00  0.27980124807E+02  0.00000000000E+00 0. -1.
</event>
<event>
 5    1  0.1680526E-003  0.9118800E+02  0.7818608E-02  0.1130116E+00
         25   -1    0    0    0    0  0.00000000000E+00  0.00000000000E+00  0.99999998245E-14  0.12500000000E+03  0.12500000000E+03 0.  0.
        -13    1    3    3    0    0 -0.14320185293E+02 -0.22480752976E+02 -0.30190691058E+02  0.40273328045E+02  0.10566000000E+00 0. -1.
         23    2    1    0    0    0 -0.16275761550E+02  0.26821269889E+01  0.21561774958E+02  0.97852175805E+02  0.94010871452E+02 0.  0.
         13    1    3    3    0    0 -0.19555762566E+01  0.25162879965E+02  0.51752466016E+02  0.57578847760E+02  0.10566000000E+00 0.  1.
         22    1    1    0    0    0  0.16275761550E+02 -0.26821269889E+01 -0.21561774958E+02  0.27147824195E+02  0.00000000000E+00 0.  1.
</event>
<event>
 5    1  0.1680526E-003  0.9118800E+02  0.7818608E-02  0.1130116E+00
         25   -1    0    0    0    0  0.00000000000E+00  0.00000000000E+00  0.99999998245E-14  0.12500000000E+03  0.12500000000E+03 0.  0.
        -13    1    3    3    0    0 -0.44843593295E+02  0.10043441827E+01  0.75800533772E+00  0.44861367600E+02  0.10566000000E+00 0.  1.
         23    2    1    0    0    0 -0.46123351980E+01 -0.24029009550E+02 -0.16719081693E+02  0.95365651203E+02  0.90644430611E+02 0.  0.
         13    1    3    3    0    0  0.40231258097E+02 -0.25033353733E+02 -0.17477087031E+02  0.50504283603E+02  0.10566000000E+00 0. -1.
         22    1    1    0    0    0  0.46123351980E+01  0.24029009550E+02  0.16719081693E+02  0.29634348797E+02  0.00000000000E+00 0.  1.
</event>
<event>
 5    1  0.1680526E-003  0.9118800E+02  0.7818608E-02  0.1130116E+00
         25   -1    0    0    0    0  0.00000000000E+00  0.00000000000E+00  0.99999998245E-14  0.12500000000E+03  0.12500000000E+03 0.  0.
        -13    1    3    3    0    0 -0.15781861475E+02 -0.57702733799E+02 -0.13102027457E+02  0.61240076151E+02  0.10566000000E+00 0.  1.
         23    2    1    0    0    0 -0.49356517820E+01 -0.38635657201E+02 -0.15800185545E+01  0.86018323221E+02  0.76678424640E+02 0.  0.
         13    1    3    3    0    0  0.10846209693E+02  0.19067076597E+02  0.11522008903E+02  0.24778247070E+02  0.10566000000E+00 0. -1.
         22    1    1    0    0    0  0.49356517820E+01  0.38635657201E+02  0.15800185545E+01  0.38981676779E+02  0.00000000000E+00 0.  1.
</event>
<event>
 5    1  0.1680526E-003  0.9118800E+02  0.7818608E-02  0.1130116E+00
         25   -1    0    0    0    0  0.00000000000E+00  0.00000000000E+00  0.99999998245E-14  0.12500000000E+03  0.12500000000E+03 0.  0.
        -13    1    3    3    0    0  0.49400553664E+02 -0.56749200693E+01  0.31791574990E+01  0.49827077242E+02  0.10566000000E+00 0.  1.
         23    2    1    0    0    0  0.17470810404E+02 -0.67278473955E+01 -0.25910281150E+02  0.93033833260E+02  0.87369664730E+02 0.  0.
         13    1    3    3    0    0 -0.31929743259E+02 -0.10529273261E+01 -0.29089438650E+02  0.43206756017E+02  0.10566000000E+00 0. -1.
         22    1    1    0    0    0 -0.17470810404E+02  0.67278473955E+01  0.25910281150E+02  0.31966166740E+02  0.00000000000E+00 0.  1.
</event>
<event>
 5    1  0.1680526E-003  0.9118800E+02  0.7818608E-02  0.1130116E+00
         25   -1    0    0    0    0  0.00000000000E+00  0.00000000000E+00  0.99999998245E-14  0.12500000000E+03  0.12500000000E+03 0.  0.
        -13    1    3    3    0    0  0.14047738233E+02  0.34348725199E+02 -0.48012017197E+02  0.60682277739E+02  0.10566000000E+00 0.  1.
         23    2    1    0    0    0  0.10676980462E+02  0.27084561632E+02 -0.20351732437E+02  0.89478676773E+02  0.82125934961E+02 0.  0.
         13    1    3    3    0    0 -0.33707577719E+01 -0.72641635663E+01  0.27660284760E+02  0.28796399034E+02  0.10566000000E+00 0. -1.
         22    1    1    0    0    0 -0.10676980462E+02 -0.27084561632E+02  0.20351732437E+02  0.35521323227E+02  0.00000000000E+00 0.  1.
</event>
<event>
 5    1  0.1680526E-003  0.9118800E+02  0.7818608E-02  0.1130116E+00
         25   -1    0    0    0    0  0.00000000000E+00  0.00000000000E+00  0.99999998245E-14  0.12500000000E+03  0.12500000000E+03 0.  0.
        -13    1    3    3    0    0 -0.67104450884E+01 -0.28299436720E+02 -0.25978571208E+02  0.38997250134E+02  0.10566000000E+00 0.  1.
         23    2    1    0    0    0 -0.14832073501E+02 -0.40394503123E+01  0.24780244980E+02  0.95838928271E+02  0.91294753779E+02 0.  0.
         13    1    3    3    0    0 -0.81216284125E+01  0.24259986408E+02  0.50758816188E+02  0.56841678137E+02  0.10566000000E+00 0. -1.
         22    1    1    0    0    0  0.14832073501E+02  0.40394503123E+01 -0.24780244980E+02  0.29161071729E+02  0.00000000000E+00 0. -1.
</event>
<event>
 5    1  0.1680526E-003  0.9118800E+02  0.7818608E-02  0.1130116E+00
         25   -1    0    0    0    0  0.00000000000E+00  0.00000000000E+00  0.99999998245E-14  0.12500000000E+03  0.12500000000E+03 0.  0.
        -13    1    3    3    0    0 -0.32990102240E+02 -0.21938724706E+02  0.74098680756E+01  0.40305977181E+02  0.10566000000E+00 0. -1.
         23    2    1    0    0    0  0.23338789257E+02 -0.45960790123E+01  0.97538079124E+01  0.99290861643E+02  0.95904720482E+02 0.  0.
         13    1    3    3    0    0  0.56328891498E+02  0.17342645694E+02  0.23439398368E+01  0.58984884462E+02  0.10566000000E+00 0.  1.
         22    1    1    0    0    0 -0.23338789257E+02  0.45960790123E+01 -0.97538079124E+01  0.25709138357E+02  0.00000000000E+00 0.  1.
</event>
<event>
 5    1  0.1680526E-003  0.9118800E+02  0.7818608E-02  0.1130116E+00
         25   -1    0    0    0    0  0.00000000000E+00  0.00000000000E+00  0.99999998245E-14  0.12500000000E+03  0.12500000000E+03 0.  0.
        -13    1    3    3    0    0  0.28703871504E+02  0.26277291944E+02  0.49548896946E+01  0.39229713320E+02  0.10566000000E+00 0. -1.
         23    2    1    0    0    0 -0.22691164201E+02  0.19728034078E+02  0.14014131339E+02  0.91826514525E+02  0.85624929963E+02 0.  0.
         13    1    3    3    0    0 -0.51395035706E+02 -0.65492578660E+01  0.90592416441E+01  0.52596801205E+02  0.10566000000E+00 0.  1.
         22    1    1    0    0    0  0.22691164201E+02 -0.19728034078E+02 -0.14014131339E+02  0.33173485475E+02  0.00000000000E+00 0.  1.
</event>
<event>
 5    1  0.1680526E-003  0.9118800E+02  0.7818608E-02  0.1130116E+00
         25   -1    0    0    0    0  0.00000000000E+00  0.00000000000E+00  0.99999998245E-14  0.12500000000E+03  0.12500000000E+03 0.  0.
        -13    1    3    3    0    0  0.19374064060E+02  0.17266526420E+02  0.36928906555E+02  0.45135823867E+02  0.10566000000E+00 0.  1.
         23    2    1    0    0    0 -0.24480048371E+02  0.86303893589E+01  0.11001048449E+02  0.96808166861E+02  0.92612319457E+02 0.  0.
         13    1    3    3    0    0 -0.43854112431E+02 -0.86361370610E+01 -0.25927858106E+02  0.51672342994E+02  0.10566000000E+00 0. -1.
         22    1    1    0    0    0  0.24480048371E+02 -0.86303893589E+01 -0.11001048449E+02  0.28191833139E+02  0.00000000000E+00 0. -1.
</event>
<event>
 5    1  0.1680526E-003  0.9118800E+02  0.7818608E-02  0.1130116E+00
         25   -1    0    0    0    0  0.00000000000E+00  0.00000000000E+00  0.99999998245E-14  0.12500000000E+03  0.12500000000E+03 0.  0.
        -13    1    3    3    0    0  0.13036627841E+02 -0.45483641951E+02  0.20959632705E+01  0.47361583342E+02  0.10566000000E+00 0. -1.
         23    2    1    0    0    0 -0.14908004983E+02 -0.27760731413E+02 -0.20478888099E+02  0.87419530619E+02  0.78929605692E+02 0.  0.
         13    1    3    3    0    0 -0.27944632824E+02  0.17722910538E+02 -0.22574851370E+02  0.40057947276E+02  0.10566000000E+00 0.  1.
         22    1    1    0    0    0  0.14908004983E+02  0.27760731413E+02  0.20478888099E+02  0.37580469381E+02  0.00000000000E+00 0. -1.
</event>
<event>
 5    1  0.1680526E-003  0.9118800E+02  0.7818608E-02  0.1130116E+00
         25   -1    0    0    0    0  0.00000000000E+00  0.00000000000E+00  0.99999998245E-14  0.12500000000E+03  0.12500000000E+03 0.  0.
        -13    1    3    3    0    0  0.44522529315E+02  0.85076289901E+01 -0.28048741730E+02  0.53304581832E+02  0.10566000000E+00 0.  1.
         23    2    1    0    0    0  0.33970928010E+01 -0.20882918692E+01 -0.28943935889E+02  0.95782665639E+02  0.91217686935E+02 0.  0.
         13    1    3    3    0    0 -0.41125436514E+02 -0.10595920859E+02 -0.89519415843E+00  0.42478083807E+02  0.10566000000E+00 0. -1.
         22    1    1    0    0    0 -0.33970928010E+01  0.20882918692E+01  0.28943935889E+02  0.29217334361E+02  0.00000000000E+00 0. -1.
</event>
<event>
 5    1  0.1680526E-003  0.9118800E+02  0.7818608E-02  0.1130116E+00
         25   -1    0    0    0    0  0.00000000000E+00  0.00000000000E+00  0.99999998245E-14  0.12500000000E+03  0.12500000000E+03 0.  0.
        -13    1    3    3    0    0 -0.61566950266E+02 -0.77774610972E+01  0.67832399615E+01  0.62425970353E+02  0.10566000000E+00 0. -1.
         23    2    1    0    0    0 -0.29077173725E+02 -0.25410910855E+01  0.13489445002E+01  0.95780848284E+02  0.91215196492E+02 0.  0.
         13    1    3    3    0    0  0.32489776541E+02  0.52363700117E+01 -0.54342954613E+01  0.33354877931E+02  0.10566000000E+00 0.  1.
         22    1    1    0    0    0  0.29077173725E+02  0.25410910855E+01 -0.13489445002E+01  0.29219151716E+02  0.00000000000E+00 0. -1.
</event>
<event>
 5    1  0.1680526E-003  0.9118800E+02  0.7818608E-02  0.1130116E+00
         25   -1    0    0    0    0  0.00000000000E+00  0.00000000000E+00  0.99999998245E-14  0.12500000000E+03  0.12500000000E+03 0.  0.
        -13    1    3    3    0    0 -0.13038254771E+02 -0.55150297191E+02 -0.23813413775E+02  0.61470653221E+02  0.10566000000E+00 0.  1.
         23    2    1    0    0    0  0.50500241166E-01 -0.25759893464E+02 -0.49415921582E+01  0.98770360379E+02  0.95223894558E+02 0.  0.
         13    1    3    3    0    0  0.13088755012E+02  0.29390403727E+02  0.18871821617E+02  0.37299707159E+02  0.10566000000E+00 0. -1.
         22    1    1    0    0    0 -0.50500241166E-01  0.25759893464E+02  0.49415921582E+01  0.26229639621E+02  0.00000000000E+00 0.  1.
</event>
<event>
 5    1  0.1680526E-003  0.9118800E+02  0.7818608E-02  0.1130116E+00
         25   -1    0    0    0    0  0.00000000000E+00  0.00000000000E+00  0.99999998245E-14  0.12500000000E+03  0.12500000000E+03 0.  0.
        -13    1    3    3    0    0  0.41424374387E+02 -0.25125317406E+02  0.24962745516E+01  0.48512914969E+02  0.10566000000E+00 0. -1.
         23    2    1    0    0    0  0.18351343176E+02  0.88817423978E+01 -0.20900931442E+02  0.95802293249E+02  0.91244579632E+02 0.  0.
         13    1    3    3    0    0 -0.23073031211E+02  0.34007059804E+02 -0.23397205993E+02  0.47289378280E+02  0.10566000000E+00 0.  1.
         22    1    1    0    0    0 -0.18351343176E+02 -0.88817423978E+01  0.20900931442E+02  0.29197706751E+02  0.00000000000E+00 0. -1.
</event>
<event>
 5    1  0.1680526E-003  0.9118800E+02  0.7818608E-02  0.1130116E+00
         25   -1    0    0    0    0  0.00000000000E+00  0.00000000000E+00  0.99999998245E-14  0.12500000000E+03  0.12500000000E+03 0.  0.
        -13    1    3    3    0    0  0.19214070598E+02 -0.21444414599E+02 -0.16715569645E+02  0.33293615890E+02  0.10566000000E+00 0.  1.
         23    2    1    0    0    0 -0.26003058478E+02  0.16506236553E+02 -0.19842593618E+01  0.94136555919E+02  0.88933340091E+02 0.  0.
         13    1    3    3    0    0 -0.45217129076E+02  0.37950651152E+02  0.14731310283E+02  0.60842940029E+02  0.10566000000E+00 0. -1.
         22    1    1    0    0    0  0.26003058478E+02 -0.16506236553E+02  0.19842593618E+01  0.30863444081E+02  0.00000000000E+00 0. -1.
</event>
<event>
 5    1  0.1680526E-003  0.9118800E+02  0.7818608E-02  0.1130116E+00
         25   -1    0    0    0    0  0.00000000000E+00  0.00000000000E+00  0.99999998245E-14  0.12500000000E+03  0.12500000000E+03 0.  0.
        -13    1    3    3    0    0 -0.12057524547E+02  0.18138490827E+02 -0.97671371906E+01  0.23870418526E+02  0.10566000000E+00 0. -1.
         23    2    1    0    0    0  0.12394347253E+02 -0.37018181559E+02  0.40081153779E+01  0.85756776398E+02  0.76250862943E+02 0.  0.
         13    1    3    3    0    0  0.24451871800E+02 -0.55156672386E+02  0.13775252568E+02  0.61886357872E+02  0.10566000000E+00 0.  1.
         22    1    1    0    0    0 -0.12394347253E+02  0.37018181559E+02 -0.40081153779E+01  0.39243223602E+02  0.00000000000E+00 0.  1.
</event>
<event>
 5    1  0.1680526E-003  0.9118800E+02  0.7818608E-02  0.1130116E+00
         25   -1    0    0    0    0  0.00000000000E+00  0.00000000000E+00  0.99999998245E-14  0.12500000000E+03  0.12500000000E+03 0.  0.
        -13    1    3    3    0    0 -0.12175352566E+02 -0.98766431080E+01  0.44432435697E+02  0.47117298258E+02  0.10566000000E+00 0.  1.
         23    2    1    0    0    0  0.22416706317E+02 -0.14950528675E+02  0.98014048015E+01  0.96327808492E+02  0.91961688344E+02 0.  0.
         13    1    3    3    0    0  0.34592058884E+02 -0.50738855673E+01 -0.34631030895E+02  0.49210510234E+02  0.10566000000E+00 0. -1.
         22    1    1    0    0    0 -0.22416706317E+02  0.14950528675E+02 -0.98014048015E+01  0.28672191508E+02  0.00000000000E+00 0.  1.
</event>
<event>
 5    1  0.1680526E-003  0.9118800E+02  0.7818608E-02  0.1130116E+00
         25   -1    0    0    0    0  0.00000000000E+00  0.00000000000E+00  0.99999998245E-14  0.12500000000E+03  0.12500000000E+03 0.  0.
        -13    1    3    3    0    0 -0.28679664004E+02 -0.25849538525E+02 -0.46608672387E+02  0.60523559669E+02  0.10566000000E+00 0. -1.
         23    2    1    0    0    0 -0.19061693489E+02 -0.24647883371E+01 -0.18690933599E+02  0.98190032842E+02  0.94459029269E+02 0.  0.
         13    1    3    3    0    0  0.96179705141E+01  0.23384750188E+02  0.27917738789E+02  0.37666473173E+02  0.10566000000E+00 0.  1.
         22    1    1    0    0    0  0.19061693489E+02  0.24647883371E+01  0.18690933599E+02  0.26809967158E+02  0.00000000000E+00 0. -1.
</event>
<event>
 5    1  0.1680526E-003  0.9118800E+02  0.7818608E-02  0.1130116E+00
         25   -1    0    0    0    0  0.00000000000E+00  0.00000000000E+00  0.99999998245E-14  0.12500000000E+03  0.12500000000E+03 0.  0.
        -13    1    3    3    0    0  0.26086580175E+02  0.34466498374E+02 -0.30453049560E+02  0.52875784315E+02  0.10566000000E+00 0. -1.
         23    2    1    0    0    0 -0.13049933071E+02  0.19256235358E+02 -0.13049001183E+02  0.98328296170E+02  0.94641819734E+02 0.  0.
         13    1    3    3    0    0 -0.39136513246E+02 -0.15210263015E+02  0.17404048377E+02  0.45452511855E+02  0.10566000000E+00 0.  1.
         22    1    1    0    0    0  0.13049933071E+02 -0.19256235358E+02  0.13049001183E+02  0.26671703830E+02  0.00000000000E+00 0. -1.
</event>
<event>
 5    1  0.1680526E-003  0.9118800E+02  0.7818608E-02  0.1130116E+00
         25   -1    0    0    0    0  0.00000000000E+00  0.00000000000E+00  0.99999998245E-14  0.12500000000E+03  0.12500000000E+03 0.  0.
        -13    1    3    3    0    0 -0.30427348567E+02 -0.21246021148E+02 -0.32302212873E+02  0.49200214186E+02  0.10566000000E+00 0.  1.
         23    2    1    0    0    0  0.52648981278E+01  0.75219885933E+01 -0.28335456873E+02  0.95214137902E+02  0.90435250183E+02 0.  0.
         13    1    3    3    0    0  0.35692246695E+02  0.28768009741E+02  0.39667560000E+01  0.46013923716E+02  0.10566000000E+00 0. -1.
         22    1    1    0    0    0 -0.52648981278E+01 -0.75219885933E+01  0.28335456873E+02  0.29785862098E+02  0.00000000000E+00 0.  1.
</event>
<event>
 5    1  0.1680526E-003  0.9118800E+02  0.7818608E-02  0.1130116E+00
         25   -1    0    0    0    0  0.00000000000E+00  0.00000000000E+00  0.99999998245E-14  0.12500000000E+03  0.12500000000E+03 0.  0.
        -13    1    3    3    0    0  0.37190367215E+02 -0.13924249139E+02  0.18069348601E+02  0.43629355377E+02  0.10566000000E+00 0. -1.
         23    2    1    0    0    0  0.84743178526E+01  0.26284290134E+02 -0.27506717409E+01  0.97246726932E+02  0.93202369783E+02 0.  0.
         13    1    3    3    0    0 -0.28716049363E+02  0.40208539273E+02 -0.20820020342E+02  0.53617371556E+02  0.10566000000E+00 0.  1.
         22    1    1    0    0    0 -0.84743178526E+01 -0.26284290134E+02  0.27506717409E+01  0.27753273068E+02  0.00000000000E+00 0.  1.
</event>
<event>
 5    1  0.1680526E-003  0.9118800E+02  0.7818608E-02  0.1130116E+00
         25   -1    0    0    0    0  0.00000000000E+00  0.00000000000E+00  0.99999998245E-14  0.12500000000E+03  0.12500000000E+03 0.  0.
        -13    1    3    3    0    0 -0.10844638996E+02  0.58836075771E+02  0.93096400411E+01  0.60547258970E+02  0.10566000000E+00 0.  1.
         23    2    1    0    0    0 -0.15750778473E+01  0.27145893361E+02  0.14835426518E+02  0.94024682785E+02  0.88775957872E+02 0.  0.
         13    1    3    3    0    0  0.92695611482E+01 -0.31690182409E+02  0.55257864772E+01  0.33477423814E+02  0.10566000000E+00 0. -1.
         22    1    1    0    0    0  0.15750778473E+01 -0.27145893361E+02 -0.14835426518E+02  0.30975317215E+02  0.00000000000E+00 0.  1.
</event>
<event>
 5    1  0.1680526E-003  0.9118800E+02  0.7818608E-02  0.1130116E+00
         25   -1    0    0    0    0  0.00000000000E+00  0.00000000000E+00  0.99999998245E-14  0.12500000000E+03  0.12500000000E+03 0.  0.
        -13    1    3    3    0    0 -0.25084403964E+02 -0.30014397070E+02 -0.14845422435E+02  0.41838846602E+02  0.10566000000E+00 0. -1.
         23    2    1    0    0    0  0.25080572433E+02 -0.15230473049E+02 -0.26675657713E+01  0.95536152152E+02  0.90879249766E+02 0.  0.
         13    1    3    3    0    0  0.50164976397E+02  0.14783924021E+02  0.12177856664E+02  0.53697305550E+02  0.10566000000E+00 0.  1.
         22    1    1    0    0    0 -0.25080572433E+02  0.15230473049E+02  0.26675657713E+01  0.29463847848E+02  0.00000000000E+00 0.  1.
</event>
<event>
 5    1  0.1680526E-003  0.9118800E+02  0.7818608E-02  0.1130116E+00
         25   -1    0    0    0    0  0.00000000000E+00  0.00000000000E+00  0.99999998245E-14  0.12500000000E+03  0.12500000000E+03 0.  0.
        -13    1    3    3    0    0 -0.31530024600E+02  0.33228142948E+01 -0.14364641078E+02  0.34807149028E+02  0.10566000000E+00 0.  1.
         23    2    1    0    0    0  0.18515589679E+02  0.14397619672E+02 -0.28608424697E+02  0.88005939977E+02  0.79852895966E+02 0.  0.
         13    1    3    3    0    0  0.50045614278E+02  0.11074805377E+02 -0.14243783619E+02  0.53198790949E+02  0.10566000000E+00 0. -1.
         22    1    1    0    0    0 -0.18515589679E+02 -0.14397619672E+02  0.28608424697E+02  0.36994060023E+02  0.00000000000E+00 0. -1.
</event>
<event>
 5    1  0.1680526E-003  0.9118800E+02  0.7818608E-02  0.1130116E+00
         25   -1    0    0    0    0  0.00000000000E+00  0.00000000000E+00  0.99999998245E-14  0.12500000000E+03  0.12500000000E+03 0.  0.
        -13    1    3    3    0    0  0.30482283973E+01 -0.43775361312E+02  0.63587664826E+01  0.44339813143E+02  0.10566000000E+00 0.  1.
         23    2    1    0    0    0 -0.23556850239E+01 -0.74352078734E+01 -0.28782156420E+02  0.95179803886E+02  0.90387781097E+02 0.  0.
         13    1    3    3    0    0 -0.54039134212E+01  0.36340153439E+02 -0.35140922903E+02  0.50839990743E+02  0.10566000000E+00 0. -1.
         22    1    1    0    0    0  0.23556850239E+01  0.74352078734E+01  0.28782156420E+02  0.29820196114E+02  0.00000000000E+00 0.  1.
</event>
<event>
 5    1  0.1680526E-003  0.9118800E+02  0.7818608E-02  0.1130116E+00
         25   -1    0    0    0    0  0.00000000000E+00  0.00000000000E+00  0.99999998245E-14  0.12500000000E+03  0.12500000000E+03 0.  0.
        -13    1    3    3    0    0 -0.23281695467E+02  0.41231776584E+02  0.16623499643E+02  0.50184147383E+02  0.10566000000E+00 0. -1.
         23    2    1    0    0    0 -0.22272301059E+02 -0.54302797894E+01  0.16322282836E+02  0.96858211677E+02  0.92679840953E+02 0.  0.
         13    1    3    3    0    0  0.10093944078E+01 -0.46662056374E+02 -0.30121680737E+00  0.46674064294E+02  0.10566000000E+00 0.  1.
         22    1    1    0    0    0  0.22272301059E+02  0.54302797894E+01 -0.16322282836E+02  0.28141788323E+02  0.00000000000E+00 0. -1.
</event>
<event>
 5    1  0.1680526E-003  0.9118800E+02  0.7818608E-02  0.1130116E+00
         25   -1    0    0    0    0  0.00000000000E+00  0.00000000000E+00  0.99999998245E-14  0.12500000000E+03  0.12500000000E+03 0.  0.
        -13    1    3    3    0    0 -0.10907596787E+02 -0.18029073009E+02 -0.61353275987E+00  0.21081051390E+02  0.10566000000E+00 0.  1.
         23    2    1    0    0    0 -0.11676665490E+02  0.26435656606E+02 -0.36654354258E+02  0.78323130533E+02  0.62895012785E+02 0.  0.
         13    1    3    3    0    0 -0.76906870278E+00  0.44464729615E+02 -0.36040821498E+02  0.57242079143E+02  0.10566000000E+00 0. -1.
         22    1    1    0    0    0  0.11676665490E+02 -0.26435656606E+02  0.36654354258E+02  0.46676869467E+02  0.00000000000E+00 0. -1.
</event>
<event>
 5    1  0.1680526E-003  0.9118800E+02  0.7818608E-02  0.1130116E+00
         25   -1    0    0    0    0  0.00000000000E+00  0.00000000000E+00  0.99999998245E-14  0.12500000000E+03  0.12500000000E+03 0.  0.
        -13    1    3    3    0    0  0.26174502315E+01 -0.13282857685E+02 -0.33345106121E+02  0.35988784646E+02  0.10566000000E+00 0.  1.
         23    2    1    0    0    0  0.46482818205E+01  0.93873027006E+01  0.24610076505E+02  0.98253339620E+02  0.94542767598E+02 0.  0.
         13    1    3    3    0    0  0.20308315890E+01  0.22670160386E+02  0.57955182627E+02  0.62264554975E+02  0.10566000000E+00 0. -1.
         22    1    1    0    0    0 -0.46482818205E+01 -0.93873027006E+01 -0.24610076505E+02  0.26746660380E+02  0.00000000000E+00 0. -1.
</event>
<event>
 5    1  0.1680526E-003  0.9118800E+02  0.7818608E-02  0.1130116E+00
         25   -1    0    0    0    0  0.00000000000E+00  0.00000000000E+00  0.99999998245E-14  0.12500000000E+03  0.12500000000E+03 0.  0.
        -13    1    3    3    0    0 -0.37377070041E+02  0.23783755047E+02  0.36051089063E+02  0.57117462791E+02  0.10566000000E+00 0.  1.
         23    2    1    0    0    0 -0.21922700680E+01  0.21168344694E+02  0.19684022868E+02  0.96010939625E+02  0.91529967259E+02 0.  0.
         13    1    3    3    0    0  0.35184799973E+02 -0.26154103537E+01 -0.16367066195E+02  0.38893476835E+02  0.10566000000E+00 0. -1.
         22    1    1    0    0    0  0.21922700680E+01 -0.21168344694E+02 -0.19684022868E+02  0.28989060375E+02  0.00000000000E+00 0.  1.
</event>
<event>
 5    1  0.1680526E-003  0.9118800E+02  0.7818608E-02  0.1130116E+00
         25   -1    0    0    0    0  0.00000000000E+00  0.00000000000E+00  0.99999998245E-14  0.12500000000E+03  0.12500000000E+03 0.  0.
        -13    1    3    3    0    0  0.31035942692E+02  0.64955013363E+01 -0.11952558764E+02  0.33886517989E+02  0.10566000000E+00 0.  1.
         23    2    1    0    0    0 -0.26662421970E+02  0.22564793230E+01  0.10922737960E+02  0.96098743127E+02  0.91649799683E+02 0.  0.
         13    1    3    3    0    0 -0.57698364662E+02 -0.42390220133E+01  0.22875296725E+02  0.62212225138E+02  0.10566000000E+00 0. -1.
         22    1    1    0    0    0  0.26662421970E+02 -0.22564793230E+01 -0.10922737960E+02  0.28901256873E+02  0.00000000000E+00 0. -1.
</event>
<event>
 5    1  0.1680526E-003  0.9118800E+02  0.7818608E-02  0.1130116E+00
         25   -1    0    0    0    0  0.00000000000E+00  0.00000000000E+00  0.99999998245E-14  0.12500000000E+03  0.12500000000E+03 0.  0.
        -13    1    3    3    0    0 -0.26997985485E+02 -0.27095182794E+02 -0.24368672433E+01  0.38327400602E+02  0.10566000000E+00 0. -1.
         23    2    1    0    0    0  0.26893263757E+02 -0.11457485742E+02  0.62417188844E+01  0.95108852989E+02  0.90289607637E+02 0.  0.
         13    1    3    3    0    0  0.53891249242E+02  0.15637697052E+02  0.86785861276E+01  0.56781452387E+02  0.10566000000E+00 0.  1.
         22    1    1    0    0    0 -0.26893263757E+02  0.11457485742E+02 -0.62417188844E+01  0.29891147011E+02  0.00000000000E+00 0.  1.
</event>
<event>
 5    1  0.1680526E-003  0.9118800E+02  0.7818608E-02  0.1130116E+00
         25   -1    0    0    0    0  0.00000000000E+00  0.00000000000E+00  0.99999998245E-14  0.12500000000E+03  0.12500000000E+03 0.  0.
        -13    1    3    3    0    0  0.38260795167E+02 -0.16206175532E+02 -0.18630050083E+02  0.45537001463E+02  0.10566000000E+00 0. -1.
         23    2    1    0    0    0  0.19423027119E+02  0.11706723510E+02  0.18550835353E+02  0.95700941139E+02  0.91105627076E+02 0.  0.
         13    1    3    3    0    0 -0.18837768048E+02  0.27912899042E+02  0.37180885436E+02  0.50163939676E+02  0.10566000000E+00 0.  1.
         22    1    1    0    0    0 -0.19423027119E+02 -0.11706723510E+02 -0.18550835353E+02  0.29299058861E+02  0.00000000000E+00 0.  1.
</event>
<event>
 5    1  0.1680526E-003  0.9118800E+02  0.7818608E-02  0.1130116E+00
         25   -1    0    0    0    0  0.00000000000E+00  0.00000000000E+00  0.99999998245E-14  0.12500000000E+03  0.12500000000E+03 0.  0.
        -13    1    3    3    0    0  0.14790536276E+02 -0.54862107519E+02 -0.15174477503E+02  0.58812300893E+02  0.10566000000E+00 0.  1.
         23    2    1    0    0    0 -0.38926325507E+01 -0.32868623368E+02  0.98567817322E+00  0.91887003280E+02  0.85713189301E+02 0.  0.
         13    1    3    3    0    0 -0.18683168827E+02  0.21993484151E+02  0.16160155676E+02  0.33074702388E+02  0.10566000000E+00 0. -1.
         22    1    1    0    0    0  0.38926325507E+01  0.32868623368E+02 -0.98567817322E+00  0.33112996720E+02  0.00000000000E+00 0.  1.
</event>
<event>
 5    1  0.1680526E-003  0.9118800E+02  0.7818608E-02  0.1130116E+00
         25   -1    0    0    0    0  0.00000000000E+00  0.00000000000E+00  0.99999998245E-14  0.12500000000E+03  0.12500000000E+03 0.  0.
        -13    1    3    3    0    0  0.22555778768E+02  0.64973835392E+01 -0.25238815090E+02  0.34467203250E+02  0.10566000000E+00 0. -1.
         23    2    1    0    0    0 -0.20948467070E+02 -0.16488897735E+02  0.11592814863E+02  0.95929131806E+02  0.91418176264E+02 0.  0.
         13    1    3    3    0    0 -0.43504245838E+02 -0.22986281275E+02  0.36831629953E+02  0.61461928556E+02  0.10566000000E+00 0.  1.
         22    1    1    0    0    0  0.20948467070E+02  0.16488897735E+02 -0.11592814863E+02  0.29070868194E+02  0.00000000000E+00 0.  1.
</event>
<event>
 5    1  0.1680526E-003  0.9118800E+02  0.7818608E-02  0.1130116E+00
         25   -1    0    0    0    0  0.00000000000E+00  0.00000000000E+00  0.99999998245E-14  0.12500000000E+03  0.12500000000E+03 0.  0.
        -13    1    3    3    0    0  0.28669818915E+02 -0.21749536699E+02  0.16773392959E+02  0.39703384473E+02  0.10566000000E+00 0.  1.
         23    2    1    0    0    0  0.23215752468E+02  0.53766369552E+01 -0.25417892414E+02  0.90158234225E+02  0.83153824663E+02 0.  0.
         13    1    3    3    0    0 -0.54540664476E+01  0.27126173654E+02 -0.42191285373E+02  0.50454849751E+02  0.10566000000E+00 0. -1.
         22    1    1    0    0    0 -0.23215752468E+02 -0.53766369552E+01  0.25417892414E+02  0.34841765775E+02  0.00000000000E+00 0. -1.
</event>
<event>
 5    1  0.1680526E-003  0.9118800E+02  0.7818608E-02  0.1130116E+00
         25   -1    0    0    0    0  0.00000000000E+00  0.00000000000E+00  0.99999998245E-14  0.12500000000E+03  0.12500000000E+03 0.  0.
        -13    1    3    3    0    0  0.52802395119E+02  0.10453449489E+01  0.17703556442E+02  0.55701101884E+02  0.10566000000E+00 0. -1.
         23    2    1    0    0    0  0.17154153088E+02  0.20166303193E+02  0.85708229000E+01  0.97171889072E+02  0.93101945565E+02 0.  0.
         13    1    3    3    0    0 -0.35648242031E+02  0.19120958244E+02 -0.91327335415E+01  0.41470787188E+02  0.10566000000E+00 0.  1.
         22    1    1    0    0    0 -0.17154153088E+02 -0.20166303193E+02 -0.85708229000E+01  0.27828110928E+02  0.00000000000E+00 0. -1.
</event>
<event>
 5    1  0.1680526E-003  0.9118800E+02  0.7818608E-02  0.1130116E+00
         25   -1    0    0    0    0  0.00000000000E+00  0.00000000000E+00  0.99999998245E-14  0.12500000000E+03  0.12500000000E+03 0.  0.
        -13    1    3    3    0    0  0.11351130686E+02 -0.40675184047E+02  0.10670984509E+02  0.43556857549E+02  0.10566000000E+00 0. -1.
         23    2    1    0    0    0 -0.24430093623E+02 -0.28318546796E+01  0.15608646733E+02  0.95871341806E+02  0.91339123334E+02 0.  0.
         13    1    3    3    0    0 -0.35781224310E+02  0.37843329368E+02  0.49376622230E+01  0.52314484256E+02  0.10566000000E+00 0.  1.
         22    1    1    0    0    0  0.24430093623E+02  0.28318546796E+01 -0.15608646733E+02  0.29128658194E+02  0.00000000000E+00 0.  1.
</event>
<event>
 5    1  0.1680526E-003  0.9118800E+02  0.7818608E-02  0.1130116E+00
         25   -1    0    0    0    0  0.00000000000E+00  0.00000000000E+00  0.99999998245E-14  0.12500000000E+03  0.12500000000E+03 0.  0.
        -13    1    3    3    0    0  0.36636252140E+02  0.15980264970E+02  0.23987930545E+01  0.40041843259E+02  0.10566000000E+00 0.  1.
         23    2    1    0    0    0  0.27104875827E+01 -0.16438850146E+02  0.27188666250E+02  0.93112602654E+02  0.87482287713E+02 0.  0.
         13    1    3    3    0    0 -0.33925764558E+02 -0.32419115116E+02  0.24789873195E+02  0.53070759395E+02  0.10566000000E+00 0. -1.
         22    1    1    0    0    0 -0.27104875827E+01  0.16438850146E+02 -0.27188666250E+02  0.31887397346E+02  0.00000000000E+00 0. -1.
</event>
<event>
 5    1  0.1680526E-003  0.9118800E+02  0.7818608E-02  0.1130116E+00
         25   -1    0    0    0    0  0.00000000000E+00  0.00000000000E+00  0.99999998245E-14  0.12500000000E+03  0.12500000000E+03 0.  0.
        -13    1    3    3    0    0  0.44330181315E+02 -0.38646515771E+02  0.60183443257E+01  0.59118100351E+02  0.10566000000E+00 0.  1.
         23    2    1    0    0    0  0.28745972061E+02 -0.61468135758E+01  0.36509786813E+00  0.95601912931E+02  0.90969655560E+02 0.  0.
         13    1    3    3    0    0 -0.15584209253E+02  0.32499702195E+02 -0.56532464576E+01  0.36483812580E+02  0.10566000000E+00 0. -1.
         22    1    1    0    0    0 -0.28745972061E+02  0.61468135758E+01 -0.36509786813E+00  0.29398087069E+02  0.00000000000E+00 0.  1.
</event>
<event>
 5    1  0.1680526E-003  0.9118800E+02  0.7818608E-02  0.1130116E+00
         25   -1    0    0    0    0  0.00000000000E+00  0.00000000000E+00  0.99999998245E-14  0.12500000000E+03  0.12500000000E+03 0.  0.
        -13    1    3    3    0    0 -0.53025383962E+02  0.81306449419E+01 -0.15308183007E+02  0.55786650397E+02  0.10566000000E+00 0.  1.
         23    2    1    0    0    0 -0.17065834559E+02  0.22954576905E+02 -0.63606035308E+01  0.95697908141E+02  0.91101465604E+02 0.  0.
         13    1    3    3    0    0  0.35959549404E+02  0.14823931963E+02  0.89475794766E+01  0.39911257744E+02  0.10566000000E+00 0. -1.
         22    1    1    0    0    0  0.17065834559E+02 -0.22954576905E+02  0.63606035308E+01  0.29302091859E+02  0.00000000000E+00 0.  1.
</event>
<event>
 5    1  0.1680526E-003  0.9118800E+02  0.7818608E-02  0.1130116E+00
         25   -1    0    0    0    0  0.00000000000E+00  0.00000000000E+00  0.99999998245E-14  0.12500000000E+03  0.12500000000E+03 0.  0.
        -13    1    3    3    0    0  0.84705288458E+01 -0.12144607095E+02 -0.10620482384E+02  0.18222160973E+02  0.10566000000E+00 0.  1.
         23    2    1    0    0    0 -0.24255837791E+02  0.12697262706E+02  0.35616410872E+02  0.80076789178E+02  0.66288741838E+02 0.  0.
         13    1    3    3    0    0 -0.32726366637E+02  0.24841869801E+02  0.46236893256E+02  0.61854628205E+02  0.10566000000E+00 0. -1.
         22    1    1    0    0    0  0.24255837791E+02 -0.12697262706E+02 -0.35616410872E+02  0.44923210822E+02  0.00000000000E+00 0. -1.
</event>
<event>
 5    1  0.1680526E-003  0.9118800E+02  0.7818608E-02  0.1130116E+00
         25   -1    0    0    0    0  0.00000000000E+00  0.00000000000E+00  0.99999998245E-14  0.12500000000E+03  0.12500000000E+03 0.  0.
        -13    1    3    3    0    0 -0.27824599211E+02 -0.41897984649E+02 -0.12579289045E+01  0.50311459809E+02  0.10566000000E+00 0.  1.
         23    2    1    0    0    0  0.12933396297E+02 -0.25273195683E+02 -0.94354059675E+01  0.95082880393E+02  0.90253643130E+02 0.  0.
         13    1    3    3    0    0  0.40757995508E+02  0.16624788966E+02 -0.81774770629E+01  0.44771420584E+02  0.10566000000E+00 0. -1.
         22    1    1    0    0    0 -0.12933396297E+02  0.25273195683E+02  0.94354059675E+01  0.29917119607E+02  0.00000000000E+00 0.  1.
</event>
<event>
 5    1  0.1680526E-003  0.9118800E+02  0.7818608E-02  0.1130116E+00
         25   -1    0    0    0    0  0.00000000000E+00  0.00000000000E+00  0.99999998245E-14  0.12500000000E+03  0.12500000000E+03 0.  0.
        -13    1    3    3    0    0  0.62562662277E+01  0.32679357365E+02  0.31786440057E+02  0.46015977665E+02  0.10566000000E+00 0.  1.
         23    2    1    0    0    0 -0.20232669663E+02 -0.68655266378E+01  0.21454481935E+02  0.94721440378E+02  0.89751657892E+02 0.  0.
         13    1    3    3    0    0 -0.26488935891E+02 -0.39544884003E+02 -0.10331958122E+02  0.48705462713E+02  0.10566000000E+00 0. -1.
         22    1    1    0    0    0  0.20232669663E+02  0.68655266378E+01 -0.21454481935E+02  0.30278559622E+02  0.00000000000E+00 0. -1.
</event>
<event>
 5    1  0.1680526E-003  0.9118800E+02  0.7818608E-02  0.1130116E+00
         25   -1    0    0    0    0  0.00000000000E+00  0.00000000000E+00  0.99999998245E-14  0.12500000000E+03  0.12500000000E+03 0.  0.
        -13    1    3    3    0    0 -0.41854139595E+02  0.24923793836E+02  0.24513583060E+02  0.54533397280E+02  0.10566000000E+00 0.  1.
         23    2    1    0    0    0 -0.77560086482E+01  0.28984539260E+02  0.34993935631E+01  0.94792303272E+02  0.89850296706E+02 0.  0.
         13    1    3    3    0    0  0.34098130947E+02  0.40607454244E+01 -0.21014189497E+02  0.40258905993E+02  0.10566000000E+00 0. -1.
         22    1    1    0    0    0  0.77560086482E+01 -0.28984539260E+02 -0.34993935631E+01  0.30207696728E+02  0.00000000000E+00 0.  1.
</event>
<event>
 5    1  0.1680526E-003  0.9118800E+02  0.7818608E-02  0.1130116E+00
         25   -1    0    0    0    0  0.00000000000E+00  0.00000000000E+00  0.99999998245E-14  0.12500000000E+03  0.12500000000E+03 0.  0.
        -13    1    3    3    0    0 -0.17126438474E+02  0.16692040299E+02 -0.13149369774E+02  0.27292053672E+02  0.10566000000E+00 0.  1.
         23    2    1    0    0    0  0.10620701257E+02  0.59942798627E+01  0.37246434145E+02  0.85807812732E+02  0.76334482268E+02 0.  0.
         13    1    3    3    0    0  0.27747139732E+02 -0.10697760436E+02  0.50395803920E+02  0.58515759060E+02  0.10566000000E+00 0. -1.
         22    1    1    0    0    0 -0.10620701257E+02 -0.59942798627E+01 -0.37246434145E+02  0.39192187268E+02  0.00000000000E+00 0. -1.
</event>
<event>
 5    1  0.1680526E-003  0.9118800E+02  0.7818608E-02  0.1130116E+00
         25   -1    0    0    0    0  0.00000000000E+00  0.00000000000E+00  0.99999998245E-14  0.12500000000E+03  0.12500000000E+03 0.  0.
        -13    1    3    3    0    0  0.53356753186E+02  0.10321918672E+02  0.23601930288E+02  0.59249872515E+02  0.10566000000E+00 0. -1.
         23    2    1    0    0    0  0.23253616363E+02 -0.93272622966E+01  0.13241311910E+02  0.96661671944E+02  0.92414381922E+02 0.  0.
         13    1    3    3    0    0 -0.30103136823E+02 -0.19649180969E+02 -0.10360618377E+02  0.37411799429E+02  0.10566000000E+00 0.  1.
         22    1    1    0    0    0 -0.23253616363E+02  0.93272622966E+01 -0.13241311910E+02  0.28338328056E+02  0.00000000000E+00 0.  1.
</event>
<event>
 5    1  0.1680526E-003  0.9118800E+02  0.7818608E-02  0.1130116E+00
         25   -1    0    0    0    0  0.00000000000E+00  0.00000000000E+00  0.99999998245E-14  0.12500000000E+03  0.12500000000E+03 0.  0.
        -13    1    3    3    0    0  0.60039725132E+01 -0.54158873980E+02  0.28390624118E+02  0.61443225978E+02  0.10566000000E+00 0.  1.
         23    2    1    0    0    0  0.39474681241E+01 -0.20351015985E+02  0.19680123194E+02  0.96415850456E+02  0.92081282648E+02 0.  0.
         13    1    3    3    0    0 -0.20565043890E+01  0.33807857995E+02 -0.87105009239E+01  0.34972624478E+02  0.10566000000E+00 0. -1.
         22    1    1    0    0    0 -0.39474681241E+01  0.20351015985E+02 -0.19680123194E+02  0.28584149544E+02  0.00000000000E+00 0.  1.
</event>
<event>
 5    1  0.1680526E-003  0.9118800E+02  0.7818608E-02  0.1130116E+00
         25   -1    0    0    0    0  0.00000000000E+00  0.00000000000E+00  0.99999998245E-14  0.12500000000E+03  0.12500000000E+03 0.  0.
        -13    1    3    3    0    0 -0.17782736095E+02  0.10447244183E+02 -0.28515887283E+02  0.35192862993E+02  0.10566000000E+00 0.  1.
         23    2    1    0    0    0  0.71649214661E+01 -0.26345315388E+02  0.11848507847E+02  0.95237626427E+02  0.90467710299E+02 0.  0.
         13    1    3    3    0    0  0.24947657561E+02 -0.36792559571E+02  0.40364395130E+02  0.60044763434E+02  0.10566000000E+00 0. -1.
         22    1    1    0    0    0 -0.71649214661E+01  0.26345315388E+02 -0.11848507847E+02  0.29762373573E+02  0.00000000000E+00 0. -1.
</event>
<event>
 5    1  0.1680526E-003  0.9118800E+02  0.7818608E-02  0.1130116E+00
         25   -1    0    0    0    0  0.00000000000E+00  0.00000000000E+00  0.99999998245E-14  0.12500000000E+03  0.12500000000E+03 0.  0.
        -13    1    3    3    0    0  0.17295088434E+02  0.21737838657E+02 -0.53498208610E+02  0.60280371614E+02  0.10566000000E+00 0.  1.
         23    2    1    0    0    0  0.15443264659E+02  0.40546846432E+01 -0.37672998241E+02  0.84083136883E+02  0.73456001938E+02 0.  0.
         13    1    3    3    0    0 -0.18518237748E+01 -0.17683154014E+02  0.15825210369E+02  0.23802765269E+02  0.10566000000E+00 0. -1.
         22    1    1    0    0    0 -0.15443264659E+02 -0.40546846432E+01  0.37672998241E+02  0.40916863117E+02  0.00000000000E+00 0.  1.
</event>
<event>
 5    1  0.1680526E-003  0.9118800E+02  0.7818608E-02  0.1130116E+00
         25   -1    0    0    0    0  0.00000000000E+00  0.00000000000E+00  0.99999998245E-14  0.12500000000E+03  0.12500000000E+03 0.  0.
        -13    1    3    3    0    0  0.21379118221E+02 -0.21834674603E+00 -0.50052634113E+02  0.54427857912E+02  0.10566000000E+00 0. -1.
         23    2    1    0    0    0  0.27538743390E+02 -0.98773046453E+01 -0.13415697291E+02  0.92814219470E+02  0.87054895712E+02 0.  0.
         13    1    3    3    0    0  0.61596251685E+01 -0.96589578993E+01  0.36636936822E+02  0.38386361558E+02  0.10566000000E+00 0.  1.
         22    1    1    0    0    0 -0.27538743390E+02  0.98773046453E+01  0.13415697291E+02  0.32185780530E+02  0.00000000000E+00 0. -1.
</event>
<event>
 5    1  0.1680526E-003  0.9118800E+02  0.7818608E-02  0.1130116E+00
         25   -1    0    0    0    0  0.00000000000E+00  0.00000000000E+00  0.99999998245E-14  0.12500000000E+03  0.12500000000E+03 0.  0.
        -13    1    3    3    0    0  0.11574972288E+02  0.82371827621E+01 -0.49242588606E+02  0.51251096183E+02  0.10566000000E+00 0.  1.
         23    2    1    0    0    0  0.35182192511E+01 -0.22625829640E+02 -0.22845224182E+02  0.92654825685E+02  0.86825724421E+02 0.  0.
         13    1    3    3    0    0 -0.80567530364E+01 -0.30863012402E+02  0.26397364425E+02  0.41403729501E+02  0.10566000000E+00 0. -1.
         22    1    1    0    0    0 -0.35182192511E+01  0.22625829640E+02  0.22845224182E+02  0.32345174315E+02  0.00000000000E+00 0.  1.
</event>
<event>
 5    1  0.1680526E-003  0.9118800E+02  0.7818608E-02  0.1130116E+00
         25   -1    0    0    0    0  0.00000000000E+00  0.00000000000E+00  0.99999998245E-14  0.12500000000E+03  0.12500000000E+03 0.  0.
        -13    1    3    3    0    0 -0.51973648054E+02 -0.13476870436E+02  0.12219864283E+02  0.55065618819E+02  0.10566000000E+00 0.  1.
         23    2    1    0    0    0 -0.15542561075E+02 -0.21179930976E+02 -0.81296295393E+01  0.97499971684E+02  0.93541396831E+02 0.  0.
         13    1    3    3    0    0  0.36431086979E+02 -0.77030605398E+01 -0.20349493822E+02  0.42434352865E+02  0.10566000000E+00 0. -1.
         22    1    1    0    0    0  0.15542561075E+02  0.21179930976E+02  0.81296295393E+01  0.27500028316E+02  0.00000000000E+00 0.  1.
</event>
<event>
 5    1  0.1680526E-003  0.9118800E+02  0.7818608E-02  0.1130116E+00
         25   -1    0    0    0    0  0.00000000000E+00  0.00000000000E+00  0.99999998245E-14  0.12500000000E+03  0.12500000000E+03 0.  0.
        -13    1    3    3    0    0  0.36356134491E+02 -0.21262596189E+02 -0.23246038079E+00  0.42118068732E+02  0.10566000000E+00 0. -1.
         23    2    1    0    0    0  0.11400277942E+01  0.99914858741E+01 -0.26935789219E+02  0.96248196679E+02  0.91853411313E+02 0.  0.
         13    1    3    3    0    0 -0.35216106697E+02  0.31254082063E+02 -0.26703328838E+02  0.54130127947E+02  0.10566000000E+00 0.  1.
         22    1    1    0    0    0 -0.11400277942E+01 -0.99914858741E+01  0.26935789219E+02  0.28751803321E+02  0.00000000000E+00 0.  1.
</event>
<event>
 5    1  0.1680526E-003  0.9118800E+02  0.7818608E-02  0.1130116E+00
         25   -1    0    0    0    0  0.00000000000E+00  0.00000000000E+00  0.99999998245E-14  0.12500000000E+03  0.12500000000E+03 0.  0.
        -13    1    3    3    0    0 -0.24969318601E+02  0.21039610784E+02  0.86483523168E+01  0.33777762732E+02  0.10566000000E+00 0.  1.
         23    2    1    0    0    0  0.10930936563E+02 -0.27793510719E+02 -0.82319678872E+00  0.95122880574E+02  0.90309025815E+02 0.  0.
         13    1    3    3    0    0  0.35900255164E+02 -0.48833121503E+02 -0.94715491055E+01  0.61345117842E+02  0.10566000000E+00 0. -1.
         22    1    1    0    0    0 -0.10930936563E+02  0.27793510719E+02  0.82319678872E+00  0.29877119426E+02  0.00000000000E+00 0. -1.
</event>
<event>
 5    1  0.1680526E-003  0.9118800E+02  0.7818608E-02  0.1130116E+00
         25   -1    0    0    0    0  0.00000000000E+00  0.00000000000E+00  0.99999998245E-14  0.12500000000E+03  0.12500000000E+03 0.  0.
        -13    1    3    3    0    0  0.49714627393E+02 -0.16140542135E+02 -0.82190804154E+01  0.52911489529E+02  0.10566000000E+00 0. -1.
         23    2    1    0    0    0  0.22658323481E+02  0.53051255306E+01  0.17433162357E+02  0.95923220095E+02  0.91410092571E+02 0.  0.
         13    1    3    3    0    0 -0.27056303913E+02  0.21445667665E+02  0.25652242772E+02  0.43011730566E+02  0.10566000000E+00 0.  1.
         22    1    1    0    0    0 -0.22658323481E+02 -0.53051255306E+01 -0.17433162357E+02  0.29076779905E+02  0.00000000000E+00 0. -1.
</event>
<event>
 5    1  0.1680526E-003  0.9118800E+02  0.7818608E-02  0.1130116E+00
         25   -1    0    0    0    0  0.00000000000E+00  0.00000000000E+00  0.99999998245E-14  0.12500000000E+03  0.12500000000E+03 0.  0.
        -13    1    3    3    0    0 -0.44069829095E+01 -0.12618816319E+02  0.30945707527E+02  0.33709108592E+02  0.10566000000E+00 0. -1.
         23    2    1    0    0    0 -0.11456157524E+02  0.87527977344E+01 -0.26182765294E+02  0.95110332691E+02  0.90291656164E+02 0.  0.
         13    1    3    3    0    0 -0.70491746147E+01  0.21371614053E+02 -0.57128472821E+02  0.61401224099E+02  0.10566000000E+00 0.  1.
         22    1    1    0    0    0  0.11456157524E+02 -0.87527977344E+01  0.26182765294E+02  0.29889667309E+02  0.00000000000E+00 0.  1.
</event>
<event>
 5    1  0.1680526E-003  0.9118800E+02  0.7818608E-02  0.1130116E+00
         25   -1    0    0    0    0  0.00000000000E+00  0.00000000000E+00  0.99999998245E-14  0.12500000000E+03  0.12500000000E+03 0.  0.
        -13    1    3    3    0    0  0.11844955241E+02  0.10313558595E+02  0.32517472055E+02  0.36111903971E+02  0.10566000000E+00 0.  1.
         23    2    1    0    0    0 -0.26218658157E+02 -0.85215176376E+01 -0.94870743333E+01  0.95844573784E+02  0.91302483241E+02 0.  0.
         13    1    3    3    0    0 -0.38063613399E+02 -0.18835076232E+02 -0.42004546388E+02  0.59732669813E+02  0.10566000000E+00 0. -1.
         22    1    1    0    0    0  0.26218658157E+02  0.85215176376E+01  0.94870743333E+01  0.29155426216E+02  0.00000000000E+00 0. -1.
</event>
<event>
 5    1  0.1680526E-003  0.9118800E+02  0.7818608E-02  0.1130116E+00
         25   -1    0    0    0    0  0.00000000000E+00  0.00000000000E+00  0.99999998245E-14  0.12500000000E+03  0.12500000000E+03 0.  0.
        -13    1    3    3    0    0  0.36307646282E+01 -0.37400329335E+02 -0.83145476880E+01  0.38485191353E+02  0.10566000000E+00 0. -1.
         23    2    1    0    0    0 -0.26818749286E+02  0.10014478743E+02 -0.94685888553E+01  0.94847234411E+02  0.89926684598E+02 0.  0.
         13    1    3    3    0    0 -0.30449513914E+02  0.47414808078E+02 -0.11540411674E+01  0.56362043058E+02  0.10566000000E+00 0.  1.
         22    1    1    0    0    0  0.26818749286E+02 -0.10014478743E+02  0.94685888553E+01  0.30152765589E+02  0.00000000000E+00 0.  1.
</event>
<event>
 5    1  0.1680526E-003  0.9118800E+02  0.7818608E-02  0.1130116E+00
         25   -1    0    0    0    0  0.00000000000E+00  0.00000000000E+00  0.99999998245E-14  0.12500000000E+03  0.12500000000E+03 0.  0.
        -13    1    3    3    0    0  0.31434187602E+02  0.48627751157E+02  0.69629121238E+01  0.58320319290E+02  0.10566000000E+00 0.  1.
         23    2    1    0    0    0  0.28200467310E+02  0.13961338536E+02  0.43213728929E+01  0.93237449821E+02  0.87660495409E+02 0.  0.
         13    1    3    3    0    0 -0.32337202928E+01 -0.34666412621E+02 -0.26415392308E+01  0.34917130531E+02  0.10566000000E+00 0. -1.
         22    1    1    0    0    0 -0.28200467310E+02 -0.13961338536E+02 -0.43213728929E+01  0.31762550179E+02  0.00000000000E+00 0.  1.
</event>
<event>
 5    1  0.1680526E-003  0.9118800E+02  0.7818608E-02  0.1130116E+00
         25   -1    0    0    0    0  0.00000000000E+00  0.00000000000E+00  0.99999998245E-14  0.12500000000E+03  0.12500000000E+03 0.  0.
        -13    1    3    3    0    0  0.22632629330E+02  0.46905623371E+01  0.46389038276E+02  0.51828479831E+02  0.10566000000E+00 0. -1.
         23    2    1    0    0    0  0.51406650726E+01  0.26598099607E+02  0.14554000171E+02  0.94247695029E+02  0.89089414395E+02 0.  0.
         13    1    3    3    0    0 -0.17491964258E+02  0.21907537269E+02 -0.31835038105E+02  0.42419215198E+02  0.10566000000E+00 0.  1.
         22    1    1    0    0    0 -0.51406650726E+01 -0.26598099607E+02 -0.14554000171E+02  0.30752304971E+02  0.00000000000E+00 0. -1.
</event>
<event>
 5    1  0.1680526E-003  0.9118800E+02  0.7818608E-02  0.1130116E+00
         25   -1    0    0    0    0  0.00000000000E+00  0.00000000000E+00  0.99999998245E-14  0.12500000000E+03  0.12500000000E+03 0.  0.
        -13    1    3    3    0    0  0.13276722179E+02 -0.15505585979E+02  0.92381455388E+01  0.22406450977E+02  0.10566000000E+00 0.  1.
         23    2    1    0    0    0 -0.23455235642E+02  0.31612737681E+02 -0.85009515821E+01  0.84728677194E+02  0.74546423781E+02 0.  0.
         13    1    3    3    0    0 -0.36731957821E+02  0.47118323661E+02 -0.17739097121E+02  0.62322226217E+02  0.10566000000E+00 0. -1.
         22    1    1    0    0    0  0.23455235642E+02 -0.31612737681E+02  0.85009515821E+01  0.40271322806E+02  0.00000000000E+00 0. -1.
</event>
<event>
 5    1  0.1680526E-003  0.9118800E+02  0.7818608E-02  0.1130116E+00
         25   -1    0    0    0    0  0.00000000000E+00  0.00000000000E+00  0.99999998245E-14  0.12500000000E+03  0.12500000000E+03 0.  0.
        -13    1    3    3    0    0  0.25629347608E+02 -0.10847982894E+02 -0.19832145446E+02  0.34174074218E+02  0.10566000000E+00 0. -1.
         23    2    1    0    0    0 -0.12960223876E+02  0.10084393941E+02  0.23809588849E+02  0.96076671608E+02  0.91619691672E+02 0.  0.
         13    1    3    3    0    0 -0.38589571484E+02  0.20932376835E+02  0.43641734295E+02  0.61902597390E+02  0.10566000000E+00 0.  1.
         22    1    1    0    0    0  0.12960223876E+02 -0.10084393941E+02 -0.23809588849E+02  0.28923328392E+02  0.00000000000E+00 0.  1.
</event>
<event>
 5    1  0.1680526E-003  0.9118800E+02  0.7818608E-02  0.1130116E+00
         25   -1    0    0    0    0  0.00000000000E+00  0.00000000000E+00  0.99999998245E-14  0.12500000000E+03  0.12500000000E+03 0.  0.
        -13    1    3    3    0    0 -0.33701904586E+02 -0.10272101565E+02  0.19294571589E+02  0.40169965150E+02  0.10566000000E+00 0. -1.
         23    2    1    0    0    0 -0.35115325078E+01 -0.10092603293E+02 -0.27295678150E+02  0.95687109534E+02  0.91086647669E+02 0.  0.
         13    1    3    3    0    0  0.30190372078E+02  0.17949827204E+00 -0.46590249739E+02  0.55517144385E+02  0.10566000000E+00 0.  1.
         22    1    1    0    0    0  0.35115325078E+01  0.10092603293E+02  0.27295678150E+02  0.29312890466E+02  0.00000000000E+00 0.  1.
</event>
<event>
 5    1  0.1680526E-003  0.9118800E+02  0.7818608E-02  0.1130116E+00
         25   -1    0    0    0    0  0.00000000000E+00  0.00000000000E+00  0.99999998245E-14  0.12500000000E+03  0.12500000000E+03 0.  0.
        -13    1    3    3    0    0  0.35761986038E+02  0.10564348964E+02  0.13975350229E+02  0.39822690673E+02  0.10566000000E+00 0.  1.
         23    2    1    0    0    0 -0.24824962556E+01  0.28312950072E+02 -0.16765641053E+02  0.92001929611E+02  0.85880628798E+02 0.  0.
         13    1    3    3    0    0 -0.38244482293E+02  0.17748601108E+02 -0.30740991282E+02  0.52179238938E+02  0.10566000000E+00 0. -1.
         22    1    1    0    0    0  0.24824962556E+01 -0.28312950072E+02  0.16765641053E+02  0.32998070389E+02  0.00000000000E+00 0. -1.
</event>
<event>
 5    1  0.1680526E-003  0.9118800E+02  0.7818608E-02  0.1130116E+00
         25   -1    0    0    0    0  0.00000000000E+00  0.00000000000E+00  0.99999998245E-14  0.12500000000E+03  0.12500000000E+03 0.  0.
        -13    1    3    3    0    0  0.13522560699E+02 -0.16739534097E+02 -0.54458349800E+02  0.58555910689E+02  0.10566000000E+00 0.  1.
         23    2    1    0    0    0  0.62765112427E+01 -0.22452224154E+02 -0.19825775189E+02  0.94396759572E+02  0.89298319654E+02 0.  0.
         13    1    3    3    0    0 -0.72460494567E+01 -0.57126900576E+01  0.34632574611E+02  0.35840848883E+02  0.10566000000E+00 0. -1.
         22    1    1    0    0    0 -0.62765112427E+01  0.22452224154E+02  0.19825775189E+02  0.30603240428E+02  0.00000000000E+00 0.  1.
</event>
<event>
 5    1  0.1680526E-003  0.9118800E+02  0.7818608E-02  0.1130116E+00
         25   -1    0    0    0    0  0.00000000000E+00  0.00000000000E+00  0.99999998245E-14  0.12500000000E+03  0.12500000000E+03 0.  0.
        -13    1    3    3    0    0  0.45921167151E+01  0.25904474783E+02  0.43578635753E+02  0.50904204226E+02  0.10566000000E+00 0.  1.
         23    2    1    0    0    0  0.80360196666E+01 -0.53153455095E+01  0.41515362395E+02  0.82381273779E+02  0.70500485421E+02 0.  0.
         13    1    3    3    0    0  0.34439029516E+01 -0.31219820293E+02 -0.20632733583E+01  0.31477069553E+02  0.10566000000E+00 0. -1.
         22    1    1    0    0    0 -0.80360196666E+01  0.53153455095E+01 -0.41515362395E+02  0.42618726221E+02  0.00000000000E+00 0.  1.
</event>
<event>
 5    1  0.1680526E-003  0.9118800E+02  0.7818608E-02  0.1130116E+00
         25   -1    0    0    0    0  0.00000000000E+00  0.00000000000E+00  0.99999998245E-14  0.12500000000E+03  0.12500000000E+03 0.  0.
        -13    1    3    3    0    0 -0.10754475087E+02 -0.46750256839E+01  0.33830059764E+02  0.35805009527E+02  0.10566000000E+00 0. -1.
         23    2    1    0    0    0 -0.88074992477E+01  0.44925404468E+00 -0.26853352427E+02  0.96735598207E+02  0.92514320792E+02 0.  0.
         13    1    3    3    0    0  0.19469758394E+01  0.51242797286E+01 -0.60683412191E+02  0.60930588679E+02  0.10566000000E+00 0.  1.
         22    1    1    0    0    0  0.88074992477E+01 -0.44925404468E+00  0.26853352427E+02  0.28264401793E+02  0.00000000000E+00 0.  1.
</event>
<event>
 5    1  0.1680526E-003  0.9118800E+02  0.7818608E-02  0.1130116E+00
         25   -1    0    0    0    0  0.00000000000E+00  0.00000000000E+00  0.99999998245E-14  0.12500000000E+03  0.12500000000E+03 0.  0.
        -13    1    3    3    0    0  0.21986325080E+02  0.19049959444E+01  0.28705846910E+02  0.36208622052E+02  0.10566000000E+00 0. -1.
         23    2    1    0    0    0  0.23755551089E+00  0.13517608421E+02 -0.25711463139E+02  0.95950705572E+02  0.91447670243E+02 0.  0.
         13    1    3    3    0    0 -0.21748769569E+02  0.11612612477E+02 -0.54417310049E+02  0.59742083520E+02  0.10566000000E+00 0.  1.
         22    1    1    0    0    0 -0.23755551089E+00 -0.13517608421E+02  0.25711463139E+02  0.29049294428E+02  0.00000000000E+00 0.  1.
</event>
<event>
 5    1  0.1680526E-003  0.9118800E+02  0.7818608E-02  0.1130116E+00
         25   -1    0    0    0    0  0.00000000000E+00  0.00000000000E+00  0.99999998245E-14  0.12500000000E+03  0.12500000000E+03 0.  0.
        -13    1    3    3    0    0  0.27930685208E+02 -0.21997673568E+02  0.61941779405E+01  0.36088776967E+02  0.10566000000E+00 0. -1.
         23    2    1    0    0    0 -0.73743825147E+01  0.27173772849E+02  0.24144292553E+01  0.96740047471E+02  0.92520332185E+02 0.  0.
         13    1    3    3    0    0 -0.35305067722E+02  0.49171446417E+02 -0.37797486852E+01  0.60651270504E+02  0.10566000000E+00 0.  1.
         22    1    1    0    0    0  0.73743825147E+01 -0.27173772849E+02 -0.24144292553E+01  0.28259952529E+02  0.00000000000E+00 0.  1.
</event>
<event>
 5    1  0.1680526E-003  0.9118800E+02  0.7818608E-02  0.1130116E+00
         25   -1    0    0    0    0  0.00000000000E+00  0.00000000000E+00  0.99999998245E-14  0.12500000000E+03  0.12500000000E+03 0.  0.
        -13    1    3    3    0    0 -0.14510631049E+02 -0.32043817824E+02  0.91689121828E+01  0.36351682063E+02  0.10566000000E+00 0.  1.
         23    2    1    0    0    0 -0.13546686698E+00  0.27131667827E+02  0.49038384327E+00  0.97863562749E+02  0.94026010695E+02 0.  0.
         13    1    3    3    0    0  0.14375164182E+02  0.59175485651E+02 -0.86785283395E+01  0.61511880686E+02  0.10566000000E+00 0. -1.
         22    1    1    0    0    0  0.13546686698E+00 -0.27131667827E+02 -0.49038384327E+00  0.27136437251E+02  0.00000000000E+00 0. -1.
</event>
<event>
 5    1  0.1680526E-003  0.9118800E+02  0.7818608E-02  0.1130116E+00
         25   -1    0    0    0    0  0.00000000000E+00  0.00000000000E+00  0.99999998245E-14  0.12500000000E+03  0.12500000000E+03 0.  0.
        -13    1    3    3    0    0 -0.19161823087E+02  0.10547497631E+02  0.47261155455E+02  0.52077376559E+02  0.10566000000E+00 0.  1.
         23    2    1    0    0    0 -0.32478928030E+02  0.80342952932E+01  0.12679050270E+02  0.89220271346E+02  0.81731681962E+02 0.  0.
         13    1    3    3    0    0 -0.13317104943E+02 -0.25132023380E+01 -0.34582105185E+02  0.37142894787E+02  0.10566000000E+00 0. -1.
         22    1    1    0    0    0  0.32478928030E+02 -0.80342952932E+01 -0.12679050270E+02  0.35779728654E+02  0.00000000000E+00 0.  1.
</event>
<event>
 5    1  0.1680526E-003  0.9118800E+02  0.7818608E-02  0.1130116E+00
         25   -1    0    0    0    0  0.00000000000E+00  0.00000000000E+00  0.99999998245E-14  0.12500000000E+03  0.12500000000E+03 0.  0.
        -13    1    3    3    0    0 -0.13380316015E+02  0.20367946482E+02  0.43215299239E+02  0.49613096586E+02  0.10566000000E+00 0. -1.
         23    2    1    0    0    0  0.17716790352E+02  0.22616212571E+02  0.11596803063E+02  0.94018334895E+02  0.88767019347E+02 0.  0.
         13    1    3    3    0    0  0.31097106366E+02  0.22482660895E+01 -0.31618496176E+02  0.44405238308E+02  0.10566000000E+00 0.  1.
         22    1    1    0    0    0 -0.17716790352E+02 -0.22616212571E+02 -0.11596803063E+02  0.30981665105E+02  0.00000000000E+00 0. -1.
</event>
<event>
 5    1  0.1680526E-003  0.9118800E+02  0.7818608E-02  0.1130116E+00
         25   -1    0    0    0    0  0.00000000000E+00  0.00000000000E+00  0.99999998245E-14  0.12500000000E+03  0.12500000000E+03 0.  0.
        -13    1    3    3    0    0  0.22725160882E+02 -0.37145636253E+02 -0.36645759517E+02  0.56913566786E+02  0.10566000000E+00 0. -1.
         23    2    1    0    0    0  0.30052524873E+02 -0.14228062575E+02 -0.22939123101E+02  0.84604512820E+02  0.74337932477E+02 0.  0.
         13    1    3    3    0    0  0.73273639913E+01  0.22917573678E+02  0.13706636416E+02  0.27690946033E+02  0.10566000000E+00 0.  1.
         22    1    1    0    0    0 -0.30052524873E+02  0.14228062575E+02  0.22939123101E+02  0.40395487180E+02  0.00000000000E+00 0. -1.
</event>
<event>
 5    1  0.1680526E-003  0.9118800E+02  0.7818608E-02  0.1130116E+00
         25   -1    0    0    0    0  0.00000000000E+00  0.00000000000E+00  0.99999998245E-14  0.12500000000E+03  0.12500000000E+03 0.  0.
        -13    1    3    3    0    0 -0.38304928029E+02  0.82998146333E+01 -0.28793298300E+02  0.48633523677E+02  0.10566000000E+00 0.  1.
         23    2    1    0    0    0 -0.15978701688E+02  0.22958983345E+02  0.96202537935E+01  0.95419886631E+02  0.90719191232E+02 0.  0.
         13    1    3    3    0    0  0.22326226341E+02  0.14659168712E+02  0.38413552094E+02  0.46786362954E+02  0.10566000000E+00 0. -1.
         22    1    1    0    0    0  0.15978701688E+02 -0.22958983345E+02 -0.96202537935E+01  0.29580113369E+02  0.00000000000E+00 0.  1.
</event>
<event>
 5    1  0.1680526E-003  0.9118800E+02  0.7818608E-02  0.1130116E+00
         25   -1    0    0    0    0  0.00000000000E+00  0.00000000000E+00  0.99999998245E-14  0.12500000000E+03  0.12500000000E+03 0.  0.
        -13    1    3    3    0    0 -0.32810023384E+02  0.50737586825E+01 -0.75133057327E+01  0.34039706060E+02  0.10566000000E+00 0. -1.
         23    2    1    0    0    0  0.21583687648E+02  0.29174327206E+01  0.20349703429E+02  0.95192661712E+02  0.90405560825E+02 0.  0.
         13    1    3    3    0    0  0.54393711031E+02 -0.21563259619E+01  0.27863009162E+02  0.61152955652E+02  0.10566000000E+00 0.  1.
         22    1    1    0    0    0 -0.21583687648E+02 -0.29174327206E+01 -0.20349703429E+02  0.29807338288E+02  0.00000000000E+00 0.  1.
</event>
<event>
 5    1  0.1680526E-003  0.9118800E+02  0.7818608E-02  0.1130116E+00
         25   -1    0    0    0    0  0.00000000000E+00  0.00000000000E+00  0.99999998245E-14  0.12500000000E+03  0.12500000000E+03 0.  0.
        -13    1    3    3    0    0  0.61729932543E+01 -0.34020021554E+02 -0.11650353812E+02  0.36485745439E+02  0.10566000000E+00 0. -1.
         23    2    1    0    0    0 -0.10340776191E+02  0.79414271283E+01  0.26443773151E+02  0.95516596948E+02  0.90852348549E+02 0.  0.
         13    1    3    3    0    0 -0.16513769445E+02  0.41961448682E+02  0.38094126963E+02  0.59030851509E+02  0.10566000000E+00 0.  1.
         22    1    1    0    0    0  0.10340776191E+02 -0.79414271283E+01 -0.26443773151E+02  0.29483403052E+02  0.00000000000E+00 0.  1.
</event>
<event>
 5    1  0.1680526E-003  0.9118800E+02  0.7818608E-02  0.1130116E+00
         25   -1    0    0    0    0  0.00000000000E+00  0.00000000000E+00  0.99999998245E-14  0.12500000000E+03  0.12500000000E+03 0.  0.
        -13    1    3    3    0    0 -0.17741085467E+02 -0.29754283987E+02 -0.47878626825E+02  0.59096849322E+02  0.10566000000E+00 0.  1.
         23    2    1    0    0    0 -0.21245476207E+02 -0.94164349857E+01 -0.17126763893E+02  0.96131928562E+02  0.91695049705E+02 0.  0.
         13    1    3    3    0    0 -0.35043907402E+01  0.20337849001E+02  0.30751862932E+02  0.37035079239E+02  0.10566000000E+00 0. -1.
         22    1    1    0    0    0  0.21245476207E+02  0.94164349857E+01  0.17126763893E+02  0.28868071438E+02  0.00000000000E+00 0.  1.
</event>
<event>
 5    1  0.1680526E-003  0.9118800E+02  0.7818608E-02  0.1130116E+00
         25   -1    0    0    0    0  0.00000000000E+00  0.00000000000E+00  0.99999998245E-14  0.12500000000E+03  0.12500000000E+03 0.  0.
        -13    1    3    3    0    0 -0.59283386390E+01  0.25846645051E+02  0.23002472156E+02  0.35104403552E+02  0.10566000000E+00 0.  1.
         23    2    1    0    0    0  0.13973941337E+02 -0.53297914357E+01 -0.25099245184E+02  0.95782713643E+02  0.91217752717E+02 0.  0.
         13    1    3    3    0    0  0.19902279977E+02 -0.31176436487E+02 -0.48101717340E+02  0.60678310091E+02  0.10566000000E+00 0. -1.
         22    1    1    0    0    0 -0.13973941337E+02  0.53297914357E+01  0.25099245184E+02  0.29217286357E+02  0.00000000000E+00 0. -1.
</event>
<event>
 5    1  0.1680526E-003  0.9118800E+02  0.7818608E-02  0.1130116E+00
         25   -1    0    0    0    0  0.00000000000E+00  0.00000000000E+00  0.99999998245E-14  0.12500000000E+03  0.12500000000E+03 0.  0.
        -13    1    3    3    0    0  0.24806779299E+01 -0.95443104203E+01 -0.38714635923E+02  0.39950992768E+02  0.10566000000E+00 0. -1.
         23    2    1    0    0    0  0.26009512975E+02 -0.12674391107E+02  0.10200654265E+02  0.94321207609E+02  0.89192499137E+02 0.  0.
         13    1    3    3    0    0  0.23528835045E+02 -0.31300806870E+01  0.48915290188E+02  0.54370214842E+02  0.10566000000E+00 0.  1.
         22    1    1    0    0    0 -0.26009512975E+02  0.12674391107E+02 -0.10200654265E+02  0.30678792391E+02  0.00000000000E+00 0.  1.
</event>
<event>
 5    1  0.1680526E-003  0.9118800E+02  0.7818608E-02  0.1130116E+00
         25   -1    0    0    0    0  0.00000000000E+00  0.00000000000E+00  0.99999998245E-14  0.12500000000E+03  0.12500000000E+03 0.  0.
        -13    1    3    3    0    0  0.14862589821E+02  0.40736299894E+02  0.60958589101E+01  0.43789420699E+02  0.10566000000E+00 0.  1.
         23    2    1    0    0    0 -0.26044807740E+02  0.20320801192E+02  0.11926566893E+02  0.89878639418E+02  0.82732459497E+02 0.  0.
         13    1    3    3    0    0 -0.40907397561E+02 -0.20415498702E+02  0.58307079827E+01  0.46089218719E+02  0.10566000000E+00 0. -1.
         22    1    1    0    0    0  0.26044807740E+02 -0.20320801192E+02 -0.11926566893E+02  0.35121360582E+02  0.00000000000E+00 0. -1.
</event>
<event>
 5    1  0.1680526E-003  0.9118800E+02  0.7818608E-02  0.1130116E+00
         25   -1    0    0    0    0  0.00000000000E+00  0.00000000000E+00  0.99999998245E-14  0.12500000000E+03  0.12500000000E+03 0.  0.
        -13    1    3    3    0    0 -0.45607820440E+02  0.25230165066E+02 -0.30633675720E+02  0.60457156456E+02  0.10566000000E+00 0.  1.
         23    2    1    0    0    0 -0.14008251132E+02 -0.65452584242E+00 -0.96386450671E+00  0.11094338097E+03  0.11004928551E+03 0.  0.
         13    1    3    3    0    0  0.31599569308E+02 -0.25884690909E+02  0.29669811213E+02  0.50486224511E+02  0.10566000000E+00 0. -1.
         22    1    1    0    0    0  0.14008251132E+02  0.65452584242E+00  0.96386450671E+00  0.14056619033E+02  0.00000000000E+00 0.  1.
</event>
<event>
 5    1  0.1680526E-003  0.9118800E+02  0.7818608E-02  0.1130116E+00
         25   -1    0    0    0    0  0.00000000000E+00  0.00000000000E+00  0.99999998245E-14  0.12500000000E+03  0.12500000000E+03 0.  0.
        -13    1    3    3    0    0 -0.38653117951E+02  0.11588715571E+02 -0.17894302344E+02  0.44142712608E+02  0.10566000000E+00 0.  1.
         23    2    1    0    0    0 -0.63712845977E+01  0.21061610619E+02  0.20314580690E+02  0.95052263893E+02  0.90211229752E+02 0.  0.
         13    1    3    3    0    0  0.32281833354E+02  0.94728950479E+01  0.38208883035E+02  0.50909551285E+02  0.10566000000E+00 0. -1.
         22    1    1    0    0    0  0.63712845977E+01 -0.21061610619E+02 -0.20314580690E+02  0.29947736107E+02  0.00000000000E+00 0.  1.
</event>
<event>
 5    1  0.1680526E-003  0.9118800E+02  0.7818608E-02  0.1130116E+00
         25   -1    0    0    0    0  0.00000000000E+00  0.00000000000E+00  0.99999998245E-14  0.12500000000E+03  0.12500000000E+03 0.  0.
        -13    1    3    3    0    0  0.16217352593E+01 -0.11342736857E+02 -0.48536651339E+02  0.49870887218E+02  0.10566000000E+00 0. -1.
         23    2    1    0    0    0 -0.22063645972E+02  0.11592125301E+01 -0.29953532368E+01  0.10270380328E+03  0.10025443042E+03 0.  0.
         13    1    3    3    0    0 -0.23685381231E+02  0.12501949387E+02  0.45541298102E+02  0.52832916060E+02  0.10566000000E+00 0.  1.
         22    1    1    0    0    0  0.22063645972E+02 -0.11592125301E+01  0.29953532368E+01  0.22296196722E+02  0.00000000000E+00 0.  1.
</event>
<event>
 5    1  0.1680526E-003  0.9118800E+02  0.7818608E-02  0.1130116E+00
         25   -1    0    0    0    0  0.00000000000E+00  0.00000000000E+00  0.99999998245E-14  0.12500000000E+03  0.12500000000E+03 0.  0.
        -13    1    3    3    0    0 -0.59419139603E+00 -0.45021075329E+02 -0.77984809337E+00  0.45031873315E+02  0.10566000000E+00 0.  1.
         23    2    1    0    0    0  0.23074536715E+02 -0.16250699333E+01 -0.16139524394E+02  0.96794338431E+02  0.92593653172E+02 0.  0.
         13    1    3    3    0    0  0.23668728111E+02  0.43396005396E+02 -0.15359676300E+02  0.51762465115E+02  0.10566000000E+00 0. -1.
         22    1    1    0    0    0 -0.23074536715E+02  0.16250699333E+01  0.16139524394E+02  0.28205661569E+02  0.00000000000E+00 0. -1.
</event>
<event>
 5    1  0.1680526E-003  0.9118800E+02  0.7818608E-02  0.1130116E+00
         25   -1    0    0    0    0  0.00000000000E+00  0.00000000000E+00  0.99999998245E-14  0.12500000000E+03  0.12500000000E+03 0.  0.
        -13    1    3    3    0    0 -0.33599654845E+02 -0.99394747068E+01 -0.32717819194E+02  0.47939512096E+02  0.10566000000E+00 0.  1.
         23    2    1    0    0    0  0.11112246361E+02  0.72797729888E+01 -0.25301250625E+02  0.96423254259E+02  0.92091332734E+02 0.  0.
         13    1    3    3    0    0  0.44711901207E+02  0.17219247696E+02  0.74165685691E+01  0.48483742163E+02  0.10566000000E+00 0. -1.
         22    1    1    0    0    0 -0.11112246361E+02 -0.72797729888E+01  0.25301250625E+02  0.28576745741E+02  0.00000000000E+00 0. -1.
</event>
<event>
 5    1  0.1680526E-003  0.9118800E+02  0.7818608E-02  0.1130116E+00
         25   -1    0    0    0    0  0.00000000000E+00  0.00000000000E+00  0.99999998245E-14  0.12500000000E+03  0.12500000000E+03 0.  0.
        -13    1    3    3    0    0  0.11581361075E+02  0.31575515059E+02  0.40962151556E+02  0.53000472637E+02  0.10566000000E+00 0.  1.
         23    2    1    0    0    0  0.21995602876E+02  0.16757615234E+02  0.48622567023E+00  0.97343886216E+02  0.93332585703E+02 0.  0.
         13    1    3    3    0    0  0.10414241802E+02 -0.14817899825E+02 -0.40475925885E+02  0.44343413579E+02  0.10566000000E+00 0. -1.
         22    1    1    0    0    0 -0.21995602876E+02 -0.16757615234E+02 -0.48622567023E+00  0.27656113784E+02  0.00000000000E+00 0. -1.
</event>
<event>
 5    1  0.1680526E-003  0.9118800E+02  0.7818608E-02  0.1130116E+00
         25   -1    0    0    0    0  0.00000000000E+00  0.00000000000E+00  0.99999998245E-14  0.12500000000E+03  0.12500000000E+03 0.  0.
        -13    1    3    3    0    0 -0.13601766886E+02 -0.37414126945E+02  0.38623442494E+02  0.55467165347E+02  0.10566000000E+00 0. -1.
         23    2    1    0    0    0 -0.93837952921E+01 -0.37935822312E+01  0.33829390101E+02  0.89688889640E+02  0.82445269180E+02 0.  0.
         13    1    3    3    0    0  0.42179715934E+01  0.33620544714E+02 -0.47940523928E+01  0.34221724294E+02  0.10566000000E+00 0.  1.
         22    1    1    0    0    0  0.93837952921E+01  0.37935822312E+01 -0.33829390101E+02  0.35311110360E+02  0.00000000000E+00 0. -1.
</event>
<event>
 5    1  0.1680526E-003  0.9118800E+02  0.7818608E-02  0.1130116E+00
         25   -1    0    0    0    0  0.00000000000E+00  0.00000000000E+00  0.99999998245E-14  0.12500000000E+03  0.12500000000E+03 0.  0.
        -13    1    3    3    0    0  0.42507737251E+02  0.12630296710E+02 -0.21450178060E+02  0.49260059115E+02  0.10566000000E+00 0. -1.
         23    2    1    0    0    0  0.14290358130E+02 -0.18533476919E+02 -0.24128873188E+02  0.91385916292E+02  0.84979286141E+02 0.  0.
         13    1    3    3    0    0 -0.28217379122E+02 -0.31163773629E+02 -0.26786951282E+01  0.42125857177E+02  0.10566000000E+00 0.  1.
         22    1    1    0    0    0 -0.14290358130E+02  0.18533476919E+02  0.24128873188E+02  0.33614083708E+02  0.00000000000E+00 0. -1.
</event>
<event>
 5    1  0.1680526E-003  0.9118800E+02  0.7818608E-02  0.1130116E+00
         25   -1    0    0    0    0  0.00000000000E+00  0.00000000000E+00  0.99999998245E-14  0.12500000000E+03  0.12500000000E+03 0.  0.
        -13    1    3    3    0    0 -0.10283069510E+02  0.72881602326E+01 -0.33615303438E+02  0.35900676698E+02  0.10566000000E+00 0. -1.
         23    2    1    0    0    0 -0.15740155833E+02 -0.11839695199E+01  0.25031582228E+02  0.95407190090E+02  0.90701695258E+02 0.  0.
         13    1    3    3    0    0 -0.54570863234E+01 -0.84721297525E+01  0.58646885667E+02  0.59506513392E+02  0.10566000000E+00 0.  1.
         22    1    1    0    0    0  0.15740155833E+02  0.11839695199E+01 -0.25031582228E+02  0.29592809910E+02  0.00000000000E+00 0.  1.
</event>
<event>
 5    1  0.1680526E-003  0.9118800E+02  0.7818608E-02  0.1130116E+00
         25   -1    0    0    0    0  0.00000000000E+00  0.00000000000E+00  0.99999998245E-14  0.12500000000E+03  0.12500000000E+03 0.  0.
        -13    1    3    3    0    0  0.53369670807E+02  0.28292627435E+02 -0.72577599107E+01  0.60839795958E+02  0.10566000000E+00 0. -1.
         23    2    1    0    0    0  0.26876526059E+02  0.94189733221E+01  0.58779254985E+01  0.95920544716E+02  0.91406434014E+02 0.  0.
         13    1    3    3    0    0 -0.26493144749E+02 -0.18873654113E+02  0.13135685409E+02  0.35080748758E+02  0.10566000000E+00 0.  1.
         22    1    1    0    0    0 -0.26876526059E+02 -0.94189733221E+01 -0.58779254985E+01  0.29079455284E+02  0.00000000000E+00 0. -1.
</event>
<event>
 5    1  0.1680526E-003  0.9118800E+02  0.7818608E-02  0.1130116E+00
         25   -1    0    0    0    0  0.00000000000E+00  0.00000000000E+00  0.99999998245E-14  0.12500000000E+03  0.12500000000E+03 0.  0.
        -13    1    3    3    0    0 -0.24614710197E+02 -0.28075977223E+02 -0.43206316657E+02  0.57104653209E+02  0.10566000000E+00 0.  1.
         23    2    1    0    0    0 -0.20041922320E+02  0.29241594035E+01 -0.22818887973E+02  0.94488837997E+02  0.89427118365E+02 0.  0.
         13    1    3    3    0    0  0.45727878770E+01  0.31000136626E+02  0.20387428684E+02  0.37384184787E+02  0.10566000000E+00 0. -1.
         22    1    1    0    0    0  0.20041922320E+02 -0.29241594035E+01  0.22818887973E+02  0.30511162003E+02  0.00000000000E+00 0.  1.
</event>
<event>
 5    1  0.1680526E-003  0.9118800E+02  0.7818608E-02  0.1130116E+00
         25   -1    0    0    0    0  0.00000000000E+00  0.00000000000E+00  0.99999998245E-14  0.12500000000E+03  0.12500000000E+03 0.  0.
        -13    1    3    3    0    0  0.36335578358E+02  0.19897498681E+02 -0.10641695073E+02  0.42771971505E+02  0.10566000000E+00 0.  1.
         23    2    1    0    0    0 -0.14644473457E+02  0.25528510205E+02 -0.94970201776E+01  0.94074948208E+02  0.88846705352E+02 0.  0.
         13    1    3    3    0    0 -0.50980051815E+02  0.56310115238E+01  0.11446748958E+01  0.51302976703E+02  0.10566000000E+00 0. -1.
         22    1    1    0    0    0  0.14644473457E+02 -0.25528510205E+02  0.94970201776E+01  0.30925051792E+02  0.00000000000E+00 0. -1.
</event>
<event>
 5    1  0.1680526E-003  0.9118800E+02  0.7818608E-02  0.1130116E+00
         25   -1    0    0    0    0  0.00000000000E+00  0.00000000000E+00  0.99999998245E-14  0.12500000000E+03  0.12500000000E+03 0.  0.
        -13    1    3    3    0    0 -0.41031492510E+02  0.40882736732E+02 -0.22481838448E+01  0.57965912698E+02  0.10566000000E+00 0. -1.
         23    2    1    0    0    0 -0.29297160536E+02  0.57059121850E+01  0.47817483316E+00  0.95148539391E+02  0.90344534133E+02 0.  0.
         13    1    3    3    0    0  0.11734331974E+02 -0.35176824547E+02  0.27263586780E+01  0.37182626693E+02  0.10566000000E+00 0.  1.
         22    1    1    0    0    0  0.29297160536E+02 -0.57059121850E+01 -0.47817483316E+00  0.29851460609E+02  0.00000000000E+00 0. -1.
</event>
<event>
 5    1  0.1680526E-003  0.9118800E+02  0.7818608E-02  0.1130116E+00
         25   -1    0    0    0    0  0.00000000000E+00  0.00000000000E+00  0.99999998245E-14  0.12500000000E+03  0.12500000000E+03 0.  0.
        -13    1    3    3    0    0 -0.34930869353E+01 -0.32800037611E+02 -0.30889554425E+02  0.45190926746E+02  0.10566000000E+00 0.  1.
         23    2    1    0    0    0 -0.55381063258E+01  0.12836546866E+02 -0.31130880356E+02  0.90874067502E+02  0.84223018680E+02 0.  0.
         13    1    3    3    0    0 -0.20450193905E+01  0.45636584477E+02 -0.24132593119E+00  0.45683140756E+02  0.10566000000E+00 0. -1.
         22    1    1    0    0    0  0.55381063258E+01 -0.12836546866E+02  0.31130880356E+02  0.34125932498E+02  0.00000000000E+00 0. -1.
</event>
<event>
 5    1  0.1680526E-003  0.9118800E+02  0.7818608E-02  0.1130116E+00
         25   -1    0    0    0    0  0.00000000000E+00  0.00000000000E+00  0.99999998245E-14  0.12500000000E+03  0.12500000000E+03 0.  0.
        -13    1    3    3    0    0  0.59416581866E+00  0.11066612972E+02 -0.48247295416E+02  0.49503895146E+02  0.10566000000E+00 0.  1.
         23    2    1    0    0    0  0.13666804511E+01  0.26318736417E+02 -0.15890712311E+01  0.98597938538E+02  0.94997287511E+02 0.  0.
         13    1    3    3    0    0  0.77251463243E+00  0.15252123446E+02  0.46658224185E+02  0.49094043392E+02  0.10566000000E+00 0. -1.
         22    1    1    0    0    0 -0.13666804511E+01 -0.26318736417E+02  0.15890712311E+01  0.26402061462E+02  0.00000000000E+00 0.  1.
</event>
<event>
 5    1  0.1680526E-003  0.9118800E+02  0.7818608E-02  0.1130116E+00
         25   -1    0    0    0    0  0.00000000000E+00  0.00000000000E+00  0.99999998245E-14  0.12500000000E+03  0.12500000000E+03 0.  0.
        -13    1    3    3    0    0  0.38740788287E+02 -0.28123245605E+02  0.14718680710E+02  0.50084092747E+02  0.10566000000E+00 0.  1.
         23    2    1    0    0    0  0.18793877328E+01 -0.30145557078E+02 -0.84088714069E+01  0.93647235718E+02  0.88242897331E+02 0.  0.
         13    1    3    3    0    0 -0.36861400554E+02 -0.20223114728E+01 -0.23127552117E+02  0.43563142970E+02  0.10566000000E+00 0. -1.
         22    1    1    0    0    0 -0.18793877328E+01  0.30145557078E+02  0.84088714069E+01  0.31352764282E+02  0.00000000000E+00 0. -1.
</event>
<event>
 5    1  0.1680526E-003  0.9118800E+02  0.7818608E-02  0.1130116E+00
         25   -1    0    0    0    0  0.00000000000E+00  0.00000000000E+00  0.99999998245E-14  0.12500000000E+03  0.12500000000E+03 0.  0.
        -13    1    3    3    0    0 -0.27963734776E+02 -0.98248300602E+00  0.39505552130E+02  0.48411109765E+02  0.10566000000E+00 0.  1.
         23    2    1    0    0    0 -0.21989371657E+02  0.17492676684E+02 -0.45309366120E+01  0.96538524458E+02  0.92247661837E+02 0.  0.
         13    1    3    3    0    0  0.59743631187E+01  0.18475159690E+02 -0.44036488743E+02  0.48127414693E+02  0.10566000000E+00 0. -1.
         22    1    1    0    0    0  0.21989371657E+02 -0.17492676684E+02  0.45309366120E+01  0.28461475542E+02  0.00000000000E+00 0. -1.
</event>
<event>
 5    1  0.1680526E-003  0.9118800E+02  0.7818608E-02  0.1130116E+00
         25   -1    0    0    0    0  0.00000000000E+00  0.00000000000E+00  0.99999998245E-14  0.12500000000E+03  0.12500000000E+03 0.  0.
        -13    1    3    3    0    0  0.13306146264E+02 -0.24810422820E+02 -0.42149556942E+02  0.50687344805E+02  0.10566000000E+00 0.  1.
         23    2    1    0    0    0  0.11612232607E+02 -0.29046193631E+02  0.63264852561E+00  0.93712213969E+02  0.88334893967E+02 0.  0.
         13    1    3    3    0    0 -0.16939136565E+01 -0.42357708107E+01  0.42782205468E+02  0.43024869164E+02  0.10566000000E+00 0. -1.
         22    1    1    0    0    0 -0.11612232607E+02  0.29046193631E+02 -0.63264852561E+00  0.31287786031E+02  0.00000000000E+00 0.  1.
</event>
<event>
 5    1  0.1680526E-003  0.9118800E+02  0.7818608E-02  0.1130116E+00
         25   -1    0    0    0    0  0.00000000000E+00  0.00000000000E+00  0.99999998245E-14  0.12500000000E+03  0.12500000000E+03 0.  0.
        -13    1    3    3    0    0 -0.26528821208E+02  0.26162729468E+02  0.38530232281E+02  0.53599036667E+02  0.10566000000E+00 0.  1.
         23    2    1    0    0    0 -0.27974008620E+02 -0.45438183254E+01  0.11930107399E+02  0.94250708857E+02  0.89093642950E+02 0.  0.
         13    1    3    3    0    0 -0.14451874121E+01 -0.30706547794E+02 -0.26600124882E+02  0.40651672190E+02  0.10566000000E+00 0. -1.
         22    1    1    0    0    0  0.27974008620E+02  0.45438183254E+01 -0.11930107399E+02  0.30749291143E+02  0.00000000000E+00 0.  1.
</event>
<event>
 5    1  0.1680526E-003  0.9118800E+02  0.7818608E-02  0.1130116E+00
         25   -1    0    0    0    0  0.00000000000E+00  0.00000000000E+00  0.99999998245E-14  0.12500000000E+03  0.12500000000E+03 0.  0.
        -13    1    3    3    0    0  0.41932544494E+02 -0.37992258667E+02 -0.60031565488E+01  0.56901661302E+02  0.10566000000E+00 0.  1.
         23    2    1    0    0    0  0.14505528316E+02 -0.20279895751E+02  0.15168787298E+02  0.95814787452E+02  0.91261694390E+02 0.  0.
         13    1    3    3    0    0 -0.27427016178E+02  0.17712362915E+02  0.21171943847E+02  0.38913126150E+02  0.10566000000E+00 0. -1.
         22    1    1    0    0    0 -0.14505528316E+02  0.20279895751E+02 -0.15168787298E+02  0.29185212548E+02  0.00000000000E+00 0.  1.
</event>
<event>
 5    1  0.1680526E-003  0.9118800E+02  0.7818608E-02  0.1130116E+00
         25   -1    0    0    0    0  0.00000000000E+00  0.00000000000E+00  0.99999998245E-14  0.12500000000E+03  0.12500000000E+03 0.  0.
        -13    1    3    3    0    0  0.37513830189E+01  0.16181685917E+02 -0.37021232520E+02  0.40577119846E+02  0.10566000000E+00 0.  1.
         23    2    1    0    0    0 -0.93493890705E+01  0.31914763293E+02  0.86586030738E+01  0.90635271000E+02  0.83867858862E+02 0.  0.
         13    1    3    3    0    0 -0.13100772089E+02  0.15733077376E+02  0.45679835594E+02  0.50058151154E+02  0.10566000000E+00 0. -1.
         22    1    1    0    0    0  0.93493890705E+01 -0.31914763293E+02 -0.86586030738E+01  0.34364729000E+02  0.00000000000E+00 0. -1.
</event>
<event>
 5    1  0.1680526E-003  0.9118800E+02  0.7818608E-02  0.1130116E+00
         25   -1    0    0    0    0  0.00000000000E+00  0.00000000000E+00  0.99999998245E-14  0.12500000000E+03  0.12500000000E+03 0.  0.
        -13    1    3    3    0    0  0.23513972504E+00  0.57097152769E+02 -0.14663213628E+02  0.58950497394E+02  0.10566000000E+00 0.  1.
         23    2    1    0    0    0 -0.26873392807E+01  0.20499171205E+02 -0.20217790779E+02  0.96082931053E+02  0.91628231256E+02 0.  0.
         13    1    3    3    0    0 -0.29224790057E+01 -0.36597981564E+02 -0.55545771514E+01  0.37132433659E+02  0.10566000000E+00 0. -1.
         22    1    1    0    0    0  0.26873392807E+01 -0.20499171205E+02  0.20217790779E+02  0.28917068947E+02  0.00000000000E+00 0.  1.
</event>
<event>
 5    1  0.1680526E-003  0.9118800E+02  0.7818608E-02  0.1130116E+00
         25   -1    0    0    0    0  0.00000000000E+00  0.00000000000E+00  0.99999998245E-14  0.12500000000E+03  0.12500000000E+03 0.  0.
        -13    1    3    3    0    0 -0.23576670014E+02 -0.25220585314E+02 -0.89199038516E+01  0.35658282926E+02  0.10566000000E+00 0.  1.
         23    2    1    0    0    0  0.20869999722E+02  0.12217228497E+02 -0.18495696352E+02  0.94554830530E+02  0.89519314298E+02 0.  0.
         13    1    3    3    0    0  0.44446669736E+02  0.37437813811E+02 -0.95757925003E+01  0.58896547603E+02  0.10566000000E+00 0. -1.
         22    1    1    0    0    0 -0.20869999722E+02 -0.12217228497E+02  0.18495696352E+02  0.30445169470E+02  0.00000000000E+00 0. -1.
</event>
<event>
 5    1  0.1680526E-003  0.9118800E+02  0.7818608E-02  0.1130116E+00
         25   -1    0    0    0    0  0.00000000000E+00  0.00000000000E+00  0.99999998245E-14  0.12500000000E+03  0.12500000000E+03 0.  0.
        -13    1    3    3    0    0  0.63484729680E+01 -0.68720536248E+01  0.48881492449E+02  0.49768862737E+02  0.10566000000E+00 0.  1.
         23    2    1    0    0    0  0.11807783301E+01  0.24541600146E+02  0.15233645490E+02  0.96090687831E+02  0.91638812507E+02 0.  0.
         13    1    3    3    0    0 -0.51676946379E+01  0.31413653770E+02 -0.33647846958E+02  0.46321825094E+02  0.10566000000E+00 0. -1.
         22    1    1    0    0    0 -0.11807783301E+01 -0.24541600146E+02 -0.15233645490E+02  0.28909312169E+02  0.00000000000E+00 0.  1.
</event>
<event>
 5    1  0.1680526E-003  0.9118800E+02  0.7818608E-02  0.1130116E+00
         25   -1    0    0    0    0  0.00000000000E+00  0.00000000000E+00  0.99999998245E-14  0.12500000000E+03  0.12500000000E+03 0.  0.
        -13    1    3    3    0    0  0.22414029592E+02  0.89337430063E+01  0.41658163821E+02  0.48141606367E+02  0.10566000000E+00 0.  1.
         23    2    1    0    0    0  0.23487981795E+02 -0.22451965802E+02  0.15564509429E+02  0.88971816436E+02  0.81350808902E+02 0.  0.
         13    1    3    3    0    0  0.10739522023E+01 -0.31385708808E+02 -0.26093654391E+02  0.40830210069E+02  0.10566000000E+00 0. -1.
         22    1    1    0    0    0 -0.23487981795E+02  0.22451965802E+02 -0.15564509429E+02  0.36028183564E+02  0.00000000000E+00 0.  1.
</event>
<event>
 5    1  0.1680526E-003  0.9118800E+02  0.7818608E-02  0.1130116E+00
         25   -1    0    0    0    0  0.00000000000E+00  0.00000000000E+00  0.99999998245E-14  0.12500000000E+03  0.12500000000E+03 0.  0.
        -13    1    3    3    0    0  0.14857569812E+02 -0.51313752958E+02  0.28418733787E+02  0.60510199284E+02  0.10566000000E+00 0.  1.
         23    2    1    0    0    0  0.17334238704E+02 -0.21837116007E+02  0.98782796865E+01  0.95421023065E+02  0.90720757086E+02 0.  0.
         13    1    3    3    0    0  0.24766688925E+01  0.29476636951E+02 -0.18540454100E+02  0.34910823781E+02  0.10566000000E+00 0. -1.
         22    1    1    0    0    0 -0.17334238704E+02  0.21837116007E+02 -0.98782796865E+01  0.29578976935E+02  0.00000000000E+00 0.  1.
</event>
<event>
 5    1  0.1680526E-003  0.9118800E+02  0.7818608E-02  0.1130116E+00
         25   -1    0    0    0    0  0.00000000000E+00  0.00000000000E+00  0.99999998245E-14  0.12500000000E+03  0.12500000000E+03 0.  0.
        -13    1    3    3    0    0  0.15738373412E+02 -0.36437984080E+02 -0.12481412918E+02  0.41607930901E+02  0.10566000000E+00 0. -1.
         23    2    1    0    0    0  0.23194034342E+02  0.16812094937E+02 -0.55271128454E+01  0.95825375038E+02  0.91276194923E+02 0.  0.
         13    1    3    3    0    0  0.74556609300E+01  0.53250079017E+02  0.69543000722E+01  0.54217444137E+02  0.10566000000E+00 0.  1.
         22    1    1    0    0    0 -0.23194034342E+02 -0.16812094937E+02  0.55271128454E+01  0.29174624962E+02  0.00000000000E+00 0. -1.
</event>
<event>
 5    1  0.1680526E-003  0.9118800E+02  0.7818608E-02  0.1130116E+00
         25   -1    0    0    0    0  0.00000000000E+00  0.00000000000E+00  0.99999998245E-14  0.12500000000E+03  0.12500000000E+03 0.  0.
        -13    1    3    3    0    0 -0.23304330096E+02 -0.56481434549E+02 -0.45675846005E+01  0.61270859656E+02  0.10566000000E+00 0.  1.
         23    2    1    0    0    0 -0.19425531677E+02 -0.26493902810E+02  0.15092663055E+01  0.92112980497E+02  0.86042112504E+02 0.  0.
         13    1    3    3    0    0  0.38787984195E+01  0.29987531739E+02  0.60768509060E+01  0.30842120840E+02  0.10566000000E+00 0. -1.
         22    1    1    0    0    0  0.19425531677E+02  0.26493902810E+02 -0.15092663055E+01  0.32887019503E+02  0.00000000000E+00 0.  1.
</event>
<event>
 5    1  0.1680526E-003  0.9118800E+02  0.7818608E-02  0.1130116E+00
         25   -1    0    0    0    0  0.00000000000E+00  0.00000000000E+00  0.99999998245E-14  0.12500000000E+03  0.12500000000E+03 0.  0.
        -13    1    3    3    0    0 -0.22196365822E+02 -0.22707198026E+02 -0.13721354069E+02  0.34591649562E+02  0.10566000000E+00 0. -1.
         23    2    1    0    0    0  0.16327731640E+02  0.22729008017E+02  0.39724361464E+01  0.96733714873E+02  0.92511776106E+02 0.  0.
         13    1    3    3    0    0  0.38524097462E+02  0.45436206043E+02  0.17693790215E+02  0.62142065311E+02  0.10566000000E+00 0.  1.
         22    1    1    0    0    0 -0.16327731640E+02 -0.22729008017E+02 -0.39724361464E+01  0.28266285127E+02  0.00000000000E+00 0.  1.
</event>
<event>
 5    1  0.1680526E-003  0.9118800E+02  0.7818608E-02  0.1130116E+00
         25   -1    0    0    0    0  0.00000000000E+00  0.00000000000E+00  0.99999998245E-14  0.12500000000E+03  0.12500000000E+03 0.  0.
        -13    1    3    3    0    0 -0.18557266891E+01  0.24436645115E+02  0.30935654864E+02  0.39466685342E+02  0.10566000000E+00 0.  1.
         23    2    1    0    0    0  0.21448416078E+02 -0.20120419486E+02  0.12895210004E+02  0.92888440188E+02  0.87161402277E+02 0.  0.
         13    1    3    3    0    0  0.23304142767E+02 -0.44557064601E+02 -0.18040444860E+02  0.53421754845E+02  0.10566000000E+00 0. -1.
         22    1    1    0    0    0 -0.21448416078E+02  0.20120419486E+02 -0.12895210004E+02  0.32111559812E+02  0.00000000000E+00 0. -1.
</event>
<event>
 5    1  0.1680526E-003  0.9118800E+02  0.7818608E-02  0.1130116E+00
         25   -1    0    0    0    0  0.00000000000E+00  0.00000000000E+00  0.99999998245E-14  0.12500000000E+03  0.12500000000E+03 0.  0.
        -13    1    3    3    0    0  0.30903261896E+02  0.17932518439E+02 -0.35178448704E+02  0.50141013458E+02  0.10566000000E+00 0. -1.
         23    2    1    0    0    0 -0.11750255805E+02  0.10643759873E+02 -0.26264158833E+02  0.94321600842E+02  0.89193050236E+02 0.  0.
         13    1    3    3    0    0 -0.42653517700E+02 -0.72887585663E+01  0.89142898707E+01  0.44180587384E+02  0.10566000000E+00 0.  1.
         22    1    1    0    0    0  0.11750255805E+02 -0.10643759873E+02  0.26264158833E+02  0.30678399158E+02  0.00000000000E+00 0. -1.
</event>
<event>
 5    1  0.1680526E-003  0.9118800E+02  0.7818608E-02  0.1130116E+00
         25   -1    0    0    0    0  0.00000000000E+00  0.00000000000E+00  0.99999998245E-14  0.12500000000E+03  0.12500000000E+03 0.  0.
        -13    1    3    3    0    0 -0.26524081261E-01  0.14052483896E+02 -0.43618630997E+02  0.45826511336E+02  0.10566000000E+00 0. -1.
         23    2    1    0    0    0  0.88667863708E+01 -0.24478506722E+02 -0.12646712173E+02  0.96055976080E+02  0.91591451676E+02 0.  0.
         13    1    3    3    0    0  0.88933104521E+01 -0.38530990618E+02  0.30971918824E+02  0.50229464744E+02  0.10566000000E+00 0.  1.
         22    1    1    0    0    0 -0.88667863708E+01  0.24478506722E+02  0.12646712173E+02  0.28944023920E+02  0.00000000000E+00 0.  1.
</event>
<event>
 5    1  0.1680526E-003  0.9118800E+02  0.7818608E-02  0.1130116E+00
         25   -1    0    0    0    0  0.00000000000E+00  0.00000000000E+00  0.99999998245E-14  0.12500000000E+03  0.12500000000E+03 0.  0.
        -13    1    3    3    0    0 -0.33621332197E+02  0.36438875450E+02 -0.45901452984E+01  0.49792230525E+02  0.10566000000E+00 0. -1.
         23    2    1    0    0    0 -0.24427430358E+02 -0.79163124719E+01 -0.13547075116E+02  0.95967421725E+02  0.91470516732E+02 0.  0.
         13    1    3    3    0    0  0.91939018383E+01 -0.44355187922E+02 -0.89569298180E+01  0.46175191200E+02  0.10566000000E+00 0.  1.
         22    1    1    0    0    0  0.24427430358E+02  0.79163124719E+01  0.13547075116E+02  0.29032578275E+02  0.00000000000E+00 0. -1.
</event>
<event>
 5    1  0.1680526E-003  0.9118800E+02  0.7818608E-02  0.1130116E+00
         25   -1    0    0    0    0  0.00000000000E+00  0.00000000000E+00  0.99999998245E-14  0.12500000000E+03  0.12500000000E+03 0.  0.
        -13    1    3    3    0    0 -0.17982401050E+02 -0.48138847041E+00  0.30427546948E+02  0.35347492976E+02  0.10566000000E+00 0. -1.
         23    2    1    0    0    0  0.24114202756E+02  0.17837038886E+02 -0.65523206289E+01  0.94298409872E+02  0.89160543224E+02 0.  0.
         13    1    3    3    0    0  0.42096603806E+02  0.18318427356E+02 -0.36979867577E+02  0.58950916896E+02  0.10566000000E+00 0.  1.
         22    1    1    0    0    0 -0.24114202756E+02 -0.17837038886E+02  0.65523206289E+01  0.30701590128E+02  0.00000000000E+00 0. -1.
</event>
<event>
 5    1  0.1680526E-003  0.9118800E+02  0.7818608E-02  0.1130116E+00
         25   -1    0    0    0    0  0.00000000000E+00  0.00000000000E+00  0.99999998245E-14  0.12500000000E+03  0.12500000000E+03 0.  0.
        -13    1    3    3    0    0  0.23617170190E+02  0.27614110686E+02 -0.92086667976E+01  0.37484937575E+02  0.10566000000E+00 0.  1.
         23    2    1    0    0    0 -0.16042927568E+02 -0.14269763582E+02 -0.19403123197E+02  0.96060703751E+02  0.91597903566E+02 0.  0.
         13    1    3    3    0    0 -0.39660097758E+02 -0.41883874268E+02 -0.10194456399E+02  0.58575766176E+02  0.10566000000E+00 0. -1.
         22    1    1    0    0    0  0.16042927568E+02  0.14269763582E+02  0.19403123197E+02  0.28939296249E+02  0.00000000000E+00 0. -1.
</event>
<event>
 5    1  0.1680526E-003  0.9118800E+02  0.7818608E-02  0.1130116E+00
         25   -1    0    0    0    0  0.00000000000E+00  0.00000000000E+00  0.99999998245E-14  0.12500000000E+03  0.12500000000E+03 0.  0.
        -13    1    3    3    0    0 -0.86165831996E+01 -0.49972951562E+02  0.20573130711E+02  0.54724823117E+02  0.10566000000E+00 0. -1.
         23    2    1    0    0    0 -0.16342652784E+02 -0.11111253466E+02  0.23308330916E+02  0.94441522556E+02  0.89360957017E+02 0.  0.
         13    1    3    3    0    0 -0.77260695847E+01  0.38861698096E+02  0.27352002048E+01  0.39716699439E+02  0.10566000000E+00 0.  1.
         22    1    1    0    0    0  0.16342652784E+02  0.11111253466E+02 -0.23308330916E+02  0.30558477444E+02  0.00000000000E+00 0. -1.
</event>
<event>
 5    1  0.1680526E-003  0.9118800E+02  0.7818608E-02  0.1130116E+00
         25   -1    0    0    0    0  0.00000000000E+00  0.00000000000E+00  0.99999998245E-14  0.12500000000E+03  0.12500000000E+03 0.  0.
        -13    1    3    3    0    0  0.34614249812E+02 -0.23416861238E+02  0.39174507418E+02  0.57281313496E+02  0.10566000000E+00 0. -1.
         23    2    1    0    0    0  0.14338975384E+02 -0.23145020188E+02  0.45655232291E+01  0.97393077373E+02  0.93398444009E+02 0.  0.
         13    1    3    3    0    0 -0.20275274428E+02  0.27184105007E+00 -0.34608984189E+02  0.40111763877E+02  0.10566000000E+00 0.  1.
         22    1    1    0    0    0 -0.14338975384E+02  0.23145020188E+02 -0.45655232291E+01  0.27606922627E+02  0.00000000000E+00 0. -1.
</event>
<event>
 5    1  0.1680526E-003  0.9118800E+02  0.7818608E-02  0.1130116E+00
         25   -1    0    0    0    0  0.00000000000E+00  0.00000000000E+00  0.99999998245E-14  0.12500000000E+03  0.12500000000E+03 0.  0.
        -13    1    3    3    0    0 -0.31004632680E+02 -0.16336124484E+02 -0.12173305204E+02  0.37099282128E+02  0.10566000000E+00 0. -1.
         23    2    1    0    0    0 -0.26854715379E+02 -0.26871241435E+02  0.27334717693E+02  0.78198011306E+02  0.62645852429E+02 0.  0.
         13    1    3    3    0    0  0.41499173016E+01 -0.10535116951E+02  0.39508022897E+02  0.41098729178E+02  0.10566000000E+00 0.  1.
         22    1    1    0    0    0  0.26854715379E+02  0.26871241435E+02 -0.27334717693E+02  0.46801988694E+02  0.00000000000E+00 0. -1.
</event>
<event>
 5    1  0.1680526E-003  0.9118800E+02  0.7818608E-02  0.1130116E+00
         25   -1    0    0    0    0  0.00000000000E+00  0.00000000000E+00  0.99999998245E-14  0.12500000000E+03  0.12500000000E+03 0.  0.
        -13    1    3    3    0    0 -0.27855884707E+02 -0.38648897385E+02  0.28105079868E+02  0.55313599235E+02  0.10566000000E+00 0.  1.
         23    2    1    0    0    0 -0.19813257348E+02 -0.46761758297E+00  0.22958009480E+02  0.94670904527E+02  0.89681247380E+02 0.  0.
         13    1    3    3    0    0  0.80426273594E+01  0.38181279802E+02 -0.51470703880E+01  0.39357305291E+02  0.10566000000E+00 0. -1.
         22    1    1    0    0    0  0.19813257348E+02  0.46761758297E+00 -0.22958009480E+02  0.30329095473E+02  0.00000000000E+00 0.  1.
</event>
<event>
 5    1  0.1680526E-003  0.9118800E+02  0.7818608E-02  0.1130116E+00
         25   -1    0    0    0    0  0.00000000000E+00  0.00000000000E+00  0.99999998245E-14  0.12500000000E+03  0.12500000000E+03 0.  0.
        -13    1    3    3    0    0  0.37581595347E+02  0.30657218174E+02  0.10502473337E+02  0.49624131682E+02  0.10566000000E+00 0. -1.
         23    2    1    0    0    0 -0.10131728236E+02  0.20408399802E+02  0.13496676144E+02  0.98517648019E+02  0.94891580262E+02 0.  0.
         13    1    3    3    0    0 -0.47713323582E+02 -0.10248818372E+02  0.29942028075E+01  0.48893516337E+02  0.10566000000E+00 0.  1.
         22    1    1    0    0    0  0.10131728236E+02 -0.20408399802E+02 -0.13496676144E+02  0.26482351981E+02  0.00000000000E+00 0.  1.
</event>
<event>
 5    1  0.1680526E-003  0.9118800E+02  0.7818608E-02  0.1130116E+00
         25   -1    0    0    0    0  0.00000000000E+00  0.00000000000E+00  0.99999998245E-14  0.12500000000E+03  0.12500000000E+03 0.  0.
        -13    1    3    3    0    0 -0.46377284716E+02 -0.33079117806E+02  0.19489671862E+02  0.60207466695E+02  0.10566000000E+00 0.  1.
         23    2    1    0    0    0 -0.20261631517E+02 -0.20136590109E+02 -0.19152802527E+01  0.96369871265E+02  0.92018844897E+02 0.  0.
         13    1    3    3    0    0  0.26115653200E+02  0.12942527697E+02 -0.21404952115E+02  0.36162404570E+02  0.10566000000E+00 0. -1.
         22    1    1    0    0    0  0.20261631517E+02  0.20136590109E+02  0.19152802527E+01  0.28630128735E+02  0.00000000000E+00 0.  1.
</event>
<event>
 5    1  0.1680526E-003  0.9118800E+02  0.7818608E-02  0.1130116E+00
         25   -1    0    0    0    0  0.00000000000E+00  0.00000000000E+00  0.99999998245E-14  0.12500000000E+03  0.12500000000E+03 0.  0.
        -13    1    3    3    0    0 -0.69287499558E+01  0.37078473184E+02  0.47175620089E+02  0.60401747031E+02  0.10566000000E+00 0.  1.
         23    2    1    0    0    0 -0.87373211235E+01  0.97027414027E+01  0.28674754972E+02  0.93492452589E+02  0.88023367053E+02 0.  0.
         13    1    3    3    0    0 -0.18085711676E+01 -0.27375731781E+02 -0.18500865117E+02  0.33090705558E+02  0.10566000000E+00 0. -1.
         22    1    1    0    0    0  0.87373211235E+01 -0.97027414027E+01 -0.28674754972E+02  0.31507547411E+02  0.00000000000E+00 0.  1.
</event>
<event>
 5    1  0.1680526E-003  0.9118800E+02  0.7818608E-02  0.1130116E+00
         25   -1    0    0    0    0  0.00000000000E+00  0.00000000000E+00  0.99999998245E-14  0.12500000000E+03  0.12500000000E+03 0.  0.
        -13    1    3    3    0    0 -0.66330475728E+01 -0.22030383946E+01 -0.54557183933E+02  0.55003165191E+02  0.10566000000E+00 0.  1.
         23    2    1    0    0    0 -0.14907859669E+02  0.16370612811E+02 -0.19671622786E+02  0.95382201521E+02  0.90667250869E+02 0.  0.
         13    1    3    3    0    0 -0.82748120964E+01  0.18573651206E+02  0.34885561147E+02  0.40379036330E+02  0.10566000000E+00 0. -1.
         22    1    1    0    0    0  0.14907859669E+02 -0.16370612811E+02  0.19671622786E+02  0.29617798479E+02  0.00000000000E+00 0.  1.
</event>
<event>
 5    1  0.1680526E-003  0.9118800E+02  0.7818608E-02  0.1130116E+00
         25   -1    0    0    0    0  0.00000000000E+00  0.00000000000E+00  0.99999998245E-14  0.12500000000E+03  0.12500000000E+03 0.  0.
        -13    1    3    3    0    0 -0.24709703420E+02 -0.39184415491E+02 -0.40722729746E+02  0.61679329945E+02  0.10566000000E+00 0.  1.
         23    2    1    0    0    0 -0.17518514094E+02 -0.17517838336E+02 -0.15145728161E+02  0.95962677851E+02  0.91464033711E+02 0.  0.
         13    1    3    3    0    0  0.71911893264E+01  0.21666577154E+02  0.25577001585E+02  0.34283347906E+02  0.10566000000E+00 0. -1.
         22    1    1    0    0    0  0.17518514094E+02  0.17517838336E+02  0.15145728161E+02  0.29037322149E+02  0.00000000000E+00 0.  1.
</event>
<event>
 5    1  0.1680526E-003  0.9118800E+02  0.7818608E-02  0.1130116E+00
         25   -1    0    0    0    0  0.00000000000E+00  0.00000000000E+00  0.99999998245E-14  0.12500000000E+03  0.12500000000E+03 0.  0.
        -13    1    3    3    0    0 -0.87907216937E+01  0.47327951856E+02 -0.38719791107E+02  0.61777384229E+02  0.10566000000E+00 0. -1.
         23    2    1    0    0    0 -0.10641164171E+02  0.21064120088E+02 -0.16888951735E+02  0.95979865253E+02  0.91487519987E+02 0.  0.
         13    1    3    3    0    0 -0.18504424771E+01 -0.26263831767E+02  0.21830839372E+02  0.34202481024E+02  0.10566000000E+00 0.  1.
         22    1    1    0    0    0  0.10641164171E+02 -0.21064120088E+02  0.16888951735E+02  0.29020134747E+02  0.00000000000E+00 0. -1.
</event>
<event>
 5    1  0.1680526E-003  0.9118800E+02  0.7818608E-02  0.1130116E+00
         25   -1    0    0    0    0  0.00000000000E+00  0.00000000000E+00  0.99999998245E-14  0.12500000000E+03  0.12500000000E+03 0.  0.
        -13    1    3    3    0    0  0.11896638180E+02  0.33010322433E+02  0.76086646210E+01  0.35904238308E+02  0.10566000000E+00 0.  1.
         23    2    1    0    0    0 -0.18355904743E+00 -0.25700935891E+02 -0.84248334266E+01  0.97952826066E+02  0.94144604287E+02 0.  0.
         13    1    3    3    0    0 -0.12080197228E+02 -0.58711258324E+02 -0.16033498048E+02  0.62048587757E+02  0.10566000000E+00 0. -1.
         22    1    1    0    0    0  0.18355904743E+00  0.25700935891E+02  0.84248334266E+01  0.27047173934E+02  0.00000000000E+00 0. -1.
</event>
<event>
 5    1  0.1680526E-003  0.9118800E+02  0.7818608E-02  0.1130116E+00
         25   -1    0    0    0    0  0.00000000000E+00  0.00000000000E+00  0.99999998245E-14  0.12500000000E+03  0.12500000000E+03 0.  0.
        -13    1    3    3    0    0 -0.23164768206E+02  0.27355210058E+02  0.39939149185E+01  0.36067665904E+02  0.10566000000E+00 0. -1.
         23    2    1    0    0    0 -0.53460968265E+01 -0.27263989998E+02 -0.10464551624E+02  0.95311403829E+02  0.90569591791E+02 0.  0.
         13    1    3    3    0    0  0.17818671380E+02 -0.54619200056E+02 -0.14458466543E+02  0.59243737925E+02  0.10566000000E+00 0.  1.
         22    1    1    0    0    0  0.53460968265E+01  0.27263989998E+02  0.10464551624E+02  0.29688596171E+02  0.00000000000E+00 0.  1.
</event>
<event>
 5    1  0.1680526E-003  0.9118800E+02  0.7818608E-02  0.1130116E+00
         25   -1    0    0    0    0  0.00000000000E+00  0.00000000000E+00  0.99999998245E-14  0.12500000000E+03  0.12500000000E+03 0.  0.
        -13    1    3    3    0    0 -0.44057739891E+00  0.52927734856E+02 -0.19275628849E+02  0.56330278332E+02  0.10566000000E+00 0.  1.
         23    2    1    0    0    0 -0.14814195303E+02  0.20998343446E+02  0.48442978858E+01  0.98849320621E+02  0.95327488981E+02 0.  0.
         13    1    3    3    0    0 -0.14373617904E+02 -0.31929391410E+02  0.24119926735E+02  0.42519042289E+02  0.10566000000E+00 0. -1.
         22    1    1    0    0    0  0.14814195303E+02 -0.20998343446E+02 -0.48442978858E+01  0.26150679379E+02  0.00000000000E+00 0.  1.
</event>
<event>
 5    1  0.1680526E-003  0.9118800E+02  0.7818608E-02  0.1130116E+00
         25   -1    0    0    0    0  0.00000000000E+00  0.00000000000E+00  0.99999998245E-14  0.12500000000E+03  0.12500000000E+03 0.  0.
        -13    1    3    3    0    0 -0.14409629516E+02  0.32433328455E+02  0.19755380305E+02  0.40618277074E+02  0.10566000000E+00 0.  1.
         23    2    1    0    0    0 -0.28899609336E+02 -0.27514637216E+01 -0.15149605698E+02  0.92254488473E+02  0.86247447024E+02 0.  0.
         13    1    3    3    0    0 -0.14489979821E+02 -0.35184792177E+02 -0.34904986003E+02  0.51636211398E+02  0.10566000000E+00 0. -1.
         22    1    1    0    0    0  0.28899609336E+02  0.27514637216E+01  0.15149605698E+02  0.32745511527E+02  0.00000000000E+00 0.  1.
</event>
<event>
 5    1  0.1680526E-003  0.9118800E+02  0.7818608E-02  0.1130116E+00
         25   -1    0    0    0    0  0.00000000000E+00  0.00000000000E+00  0.99999998245E-14  0.12500000000E+03  0.12500000000E+03 0.  0.
        -13    1    3    3    0    0 -0.25436107021E+02  0.50108575403E+02 -0.40924918464E+01  0.56343806429E+02  0.10566000000E+00 0. -1.
         23    2    1    0    0    0 -0.24230745588E+02  0.10933398273E+02 -0.11159007991E+02  0.96169604774E+02  0.91746396079E+02 0.  0.
         13    1    3    3    0    0  0.12053614333E+01 -0.39175177130E+02 -0.70665161442E+01  0.39825798345E+02  0.10566000000E+00 0.  1.
         22    1    1    0    0    0  0.24230745588E+02 -0.10933398273E+02  0.11159007991E+02  0.28830395226E+02  0.00000000000E+00 0. -1.
</event>
<event>
 5    1  0.1680526E-003  0.9118800E+02  0.7818608E-02  0.1130116E+00
         25   -1    0    0    0    0  0.00000000000E+00  0.00000000000E+00  0.99999998245E-14  0.12500000000E+03  0.12500000000E+03 0.  0.
        -13    1    3    3    0    0  0.23279406130E+02 -0.37696997056E+02 -0.10801745868E+02  0.45603543882E+02  0.10566000000E+00 0.  1.
         23    2    1    0    0    0 -0.13323390134E+02  0.31420860535E+01 -0.19545283810E+02  0.10113782180E+03  0.98282528706E+02 0.  0.
         13    1    3    3    0    0 -0.36602796264E+02  0.40839083109E+02 -0.87435379426E+01  0.55534277913E+02  0.10566000000E+00 0. -1.
         22    1    1    0    0    0  0.13323390134E+02 -0.31420860535E+01  0.19545283810E+02  0.23862178204E+02  0.00000000000E+00 0. -1.
</event>
<event>
 5    1  0.1680526E-003  0.9118800E+02  0.7818608E-02  0.1130116E+00
         25   -1    0    0    0    0  0.00000000000E+00  0.00000000000E+00  0.99999998245E-14  0.12500000000E+03  0.12500000000E+03 0.  0.
        -13    1    3    3    0    0 -0.26588725076E+02  0.11812592304E+02 -0.15618105289E+02  0.33021720352E+02  0.10566000000E+00 0. -1.
         23    2    1    0    0    0  0.23541785850E+02 -0.18128304907E+02  0.48449740513E+01  0.94894769668E+02  0.89992735356E+02 0.  0.
         13    1    3    3    0    0  0.50130510926E+02 -0.29940897211E+02  0.20463079341E+02  0.61873049316E+02  0.10566000000E+00 0.  1.
         22    1    1    0    0    0 -0.23541785850E+02  0.18128304907E+02 -0.48449740513E+01  0.30105230332E+02  0.00000000000E+00 0.  1.
</event>
<event>
 5    1  0.1680526E-003  0.9118800E+02  0.7818608E-02  0.1130116E+00
         25   -1    0    0    0    0  0.00000000000E+00  0.00000000000E+00  0.99999998245E-14  0.12500000000E+03  0.12500000000E+03 0.  0.
        -13    1    3    3    0    0 -0.56331662489E+02  0.98816010065E+01 -0.16582564354E+02  0.59547416752E+02  0.10566000000E+00 0.  1.
         23    2    1    0    0    0 -0.24907046979E+02 -0.69163802035E+01 -0.14774874336E+02  0.95225947270E+02  0.90451571669E+02 0.  0.
         13    1    3    3    0    0  0.31424615510E+02 -0.16797981210E+02  0.18076900183E+01  0.35678530518E+02  0.10566000000E+00 0. -1.
         22    1    1    0    0    0  0.24907046979E+02  0.69163802035E+01  0.14774874336E+02  0.29774052730E+02  0.00000000000E+00 0.  1.
</event>
<event>
 5    1  0.1680526E-003  0.9118800E+02  0.7818608E-02  0.1130116E+00
         25   -1    0    0    0    0  0.00000000000E+00  0.00000000000E+00  0.99999998245E-14  0.12500000000E+03  0.12500000000E+03 0.  0.
        -13    1    3    3    0    0 -0.11207022620E+02  0.34827441664E+02  0.31219144902E+02  0.48095677782E+02  0.10566000000E+00 0. -1.
         23    2    1    0    0    0 -0.13789297849E+02 -0.11996185134E+02  0.22863205297E+02  0.95729206547E+02  0.91144399920E+02 0.  0.
         13    1    3    3    0    0 -0.25822752291E+01 -0.46823626798E+02 -0.83559396051E+01  0.47633528765E+02  0.10566000000E+00 0.  1.
         22    1    1    0    0    0  0.13789297849E+02  0.11996185134E+02 -0.22863205297E+02  0.29270793453E+02  0.00000000000E+00 0. -1.
</event>
<event>
 5    1  0.1680526E-003  0.9118800E+02  0.7818608E-02  0.1130116E+00
         25   -1    0    0    0    0  0.00000000000E+00  0.00000000000E+00  0.99999998245E-14  0.12500000000E+03  0.12500000000E+03 0.  0.
        -13    1    3    3    0    0 -0.27740454986E+02  0.35917876868E+02  0.19628149949E+02  0.49445951867E+02  0.10566000000E+00 0.  1.
         23    2    1    0    0    0 -0.27464048736E+02  0.11938586322E+02 -0.14952271244E+02  0.91528008250E+02  0.85188039434E+02 0.  0.
         13    1    3    3    0    0  0.27640625018E+00 -0.23979290546E+02 -0.34580421193E+02  0.42082056383E+02  0.10566000000E+00 0. -1.
         22    1    1    0    0    0  0.27464048736E+02 -0.11938586322E+02  0.14952271244E+02  0.33471991750E+02  0.00000000000E+00 0.  1.
</event>
<event>
 5    1  0.1680526E-003  0.9118800E+02  0.7818608E-02  0.1130116E+00
         25   -1    0    0    0    0  0.00000000000E+00  0.00000000000E+00  0.99999998245E-14  0.12500000000E+03  0.12500000000E+03 0.  0.
        -13    1    3    3    0    0 -0.46353931464E+01 -0.14466174015E+02  0.34747054339E+02  0.37922631890E+02  0.10566000000E+00 0.  1.
         23    2    1    0    0    0 -0.29344877277E+01  0.24561890564E+02 -0.10869535143E+02  0.97980664692E+02  0.94181559622E+02 0.  0.
         13    1    3    3    0    0  0.17009054186E+01  0.39028064578E+02 -0.45616589481E+02  0.60058032801E+02  0.10566000000E+00 0. -1.
         22    1    1    0    0    0  0.29344877277E+01 -0.24561890564E+02  0.10869535143E+02  0.27019335308E+02  0.00000000000E+00 0. -1.
</event>
<event>
 5    1  0.1680526E-003  0.9118800E+02  0.7818608E-02  0.1130116E+00
         25   -1    0    0    0    0  0.00000000000E+00  0.00000000000E+00  0.99999998245E-14  0.12500000000E+03  0.12500000000E+03 0.  0.
        -13    1    3    3    0    0  0.46944043623E+02 -0.26611525317E+02  0.13858980795E+02  0.55713544350E+02  0.10566000000E+00 0. -1.
         23    2    1    0    0    0  0.12635684051E+02 -0.22679141736E+02 -0.94444057775E+01  0.97373911211E+02  0.93372789413E+02 0.  0.
         13    1    3    3    0    0 -0.34308359573E+02  0.39323835814E+01 -0.23303386572E+02  0.41660366861E+02  0.10566000000E+00 0.  1.
         22    1    1    0    0    0 -0.12635684051E+02  0.22679141736E+02  0.94444057775E+01  0.27626088789E+02  0.00000000000E+00 0. -1.
</event>
<event>
 5    1  0.1680526E-003  0.9118800E+02  0.7818608E-02  0.1130116E+00
         25   -1    0    0    0    0  0.00000000000E+00  0.00000000000E+00  0.99999998245E-14  0.12500000000E+03  0.12500000000E+03 0.  0.
        -13    1    3    3    0    0  0.40019384214E+02 -0.66036870228E+01  0.31451313371E+02  0.51325978529E+02  0.10566000000E+00 0. -1.
         23    2    1    0    0    0 -0.14450253409E+01 -0.12877668300E+02  0.28885560889E+02  0.93340908621E+02  0.87807899162E+02 0.  0.
         13    1    3    3    0    0 -0.41464409555E+02 -0.62739812777E+01 -0.25657524821E+01  0.42014930092E+02  0.10566000000E+00 0.  1.
         22    1    1    0    0    0  0.14450253409E+01  0.12877668300E+02 -0.28885560889E+02  0.31659091379E+02  0.00000000000E+00 0. -1.
</event>
<event>
 5    1  0.1680526E-003  0.9118800E+02  0.7818608E-02  0.1130116E+00
         25   -1    0    0    0    0  0.00000000000E+00  0.00000000000E+00  0.99999998245E-14  0.12500000000E+03  0.12500000000E+03 0.  0.
        -13    1    3    3    0    0 -0.10029931927E+02 -0.59222162957E+01  0.33027511838E+02  0.35021420339E+02  0.10566000000E+00 0.  1.
         23    2    1    0    0    0  0.20781859978E+02  0.12321128577E+02 -0.16212428215E+02  0.95904661160E+02  0.91384710374E+02 0.  0.
         13    1    3    3    0    0  0.30811791905E+02  0.18243344873E+02 -0.49239940053E+02  0.60883240822E+02  0.10566000000E+00 0. -1.
         22    1    1    0    0    0 -0.20781859978E+02 -0.12321128577E+02  0.16212428215E+02  0.29095338840E+02  0.00000000000E+00 0. -1.
</event>
<event>
 5    1  0.1680526E-003  0.9118800E+02  0.7818608E-02  0.1130116E+00
         25   -1    0    0    0    0  0.00000000000E+00  0.00000000000E+00  0.99999998245E-14  0.12500000000E+03  0.12500000000E+03 0.  0.
        -13    1    3    3    0    0  0.32133930396E+02  0.84110441875E+01  0.27775916400E+01  0.33332586553E+02  0.10566000000E+00 0.  1.
         23    2    1    0    0    0 -0.19720756790E+02 -0.20868346804E+02 -0.10647359706E+02  0.94377093289E+02  0.89270786500E+02 0.  0.
         13    1    3    3    0    0 -0.51854687185E+02 -0.29279390992E+02 -0.13424951346E+02  0.61044506736E+02  0.10566000000E+00 0. -1.
         22    1    1    0    0    0  0.19720756790E+02  0.20868346804E+02  0.10647359706E+02  0.30622906711E+02  0.00000000000E+00 0. -1.
</event>
<event>
 5    1  0.1680526E-003  0.9118800E+02  0.7818608E-02  0.1130116E+00
         25   -1    0    0    0    0  0.00000000000E+00  0.00000000000E+00  0.99999998245E-14  0.12500000000E+03  0.12500000000E+03 0.  0.
        -13    1    3    3    0    0 -0.62816625909E+01 -0.40682219322E+02  0.36253676753E+02  0.54852916933E+02  0.10566000000E+00 0.  1.
         23    2    1    0    0    0 -0.79187208586E+01 -0.11583844677E+01  0.28802371012E+02  0.95106446004E+02  0.90286275263E+02 0.  0.
         13    1    3    3    0    0 -0.16370582676E+01  0.39523834854E+02 -0.74513057413E+01  0.40253529071E+02  0.10566000000E+00 0. -1.
         22    1    1    0    0    0  0.79187208586E+01  0.11583844677E+01 -0.28802371012E+02  0.29893553996E+02  0.00000000000E+00 0.  1.
</event>
<event>
 5    1  0.1680526E-003  0.9118800E+02  0.7818608E-02  0.1130116E+00
         25   -1    0    0    0    0  0.00000000000E+00  0.00000000000E+00  0.99999998245E-14  0.12500000000E+03  0.12500000000E+03 0.  0.
        -13    1    3    3    0    0 -0.32381588474E+02 -0.18380344312E+02 -0.79235585511E+01  0.38068336886E+02  0.10566000000E+00 0. -1.
         23    2    1    0    0    0 -0.14984366683E+02  0.39155265136E+01  0.33423944057E+02  0.88162211940E+02  0.80097147172E+02 0.  0.
         13    1    3    3    0    0  0.17397221791E+02  0.22295870825E+02  0.41347502609E+02  0.50093875054E+02  0.10566000000E+00 0.  1.
         22    1    1    0    0    0  0.14984366683E+02 -0.39155265136E+01 -0.33423944057E+02  0.36837788060E+02  0.00000000000E+00 0.  1.
</event>
<event>
 5    1  0.1680526E-003  0.9118800E+02  0.7818608E-02  0.1130116E+00
         25   -1    0    0    0    0  0.00000000000E+00  0.00000000000E+00  0.99999998245E-14  0.12500000000E+03  0.12500000000E+03 0.  0.
        -13    1    3    3    0    0  0.21066132197E+02  0.20812513751E+02 -0.19873495796E+02  0.35663842384E+02  0.10566000000E+00 0.  1.
         23    2    1    0    0    0 -0.29809534410E+02  0.47701679589E+01  0.47883880686E+01  0.94433817635E+02  0.89350178560E+02 0.  0.
         13    1    3    3    0    0 -0.50875666607E+02 -0.16042345793E+02  0.24661883864E+02  0.58769975251E+02  0.10566000000E+00 0. -1.
         22    1    1    0    0    0  0.29809534410E+02 -0.47701679589E+01 -0.47883880686E+01  0.30566182365E+02  0.00000000000E+00 0. -1.
</event>
<event>
 5    1  0.1680526E-003  0.9118800E+02  0.7818608E-02  0.1130116E+00
         25   -1    0    0    0    0  0.00000000000E+00  0.00000000000E+00  0.99999998245E-14  0.12500000000E+03  0.12500000000E+03 0.  0.
        -13    1    3    3    0    0 -0.27682671299E+02  0.12708664968E+02  0.36492289305E+02  0.47534606323E+02  0.10566000000E+00 0. -1.
         23    2    1    0    0    0 -0.86391720029E+01  0.26496256037E+02 -0.63614137578E+01  0.96414086303E+02  0.92078887785E+02 0.  0.
         13    1    3    3    0    0  0.19043499296E+02  0.13787591069E+02 -0.42853703063E+02  0.48879479980E+02  0.10566000000E+00 0.  1.
         22    1    1    0    0    0  0.86391720029E+01 -0.26496256037E+02  0.63614137578E+01  0.28585913697E+02  0.00000000000E+00 0.  1.
</event>
<event>
 5    1  0.1680526E-003  0.9118800E+02  0.7818608E-02  0.1130116E+00
         25   -1    0    0    0    0  0.00000000000E+00  0.00000000000E+00  0.99999998245E-14  0.12500000000E+03  0.12500000000E+03 0.  0.
        -13    1    3    3    0    0 -0.16602763732E+02  0.43244525911E+01 -0.53968977639E+02  0.56630507372E+02  0.10566000000E+00 0. -1.
         23    2    1    0    0    0 -0.24626506556E+02 -0.18812451219E+01 -0.16873066992E+02  0.95088391918E+02  0.90261276190E+02 0.  0.
         13    1    3    3    0    0 -0.80237428235E+01 -0.62056977130E+01  0.37095910647E+02  0.38457884546E+02  0.10566000000E+00 0.  1.
         22    1    1    0    0    0  0.24626506556E+02  0.18812451219E+01  0.16873066992E+02  0.29911608082E+02  0.00000000000E+00 0. -1.
</event>
<event>
 5    1  0.1680526E-003  0.9118800E+02  0.7818608E-02  0.1130116E+00
         25   -1    0    0    0    0  0.00000000000E+00  0.00000000000E+00  0.99999998245E-14  0.12500000000E+03  0.12500000000E+03 0.  0.
        -13    1    3    3    0    0  0.18380160869E+02  0.26223267661E+02  0.38225678209E+02  0.49866859927E+02  0.10566000000E+00 0. -1.
         23    2    1    0    0    0  0.29085772156E+02 -0.18234479816E+01  0.36934042135E+01  0.95624017649E+02  0.91000024243E+02 0.  0.
         13    1    3    3    0    0  0.10705611286E+02 -0.28046715643E+02 -0.34532273996E+02  0.45757157721E+02  0.10566000000E+00 0.  1.
         22    1    1    0    0    0 -0.29085772156E+02  0.18234479816E+01 -0.36934042135E+01  0.29375982351E+02  0.00000000000E+00 0. -1.
</event>
<event>
 5    1  0.1680526E-003  0.9118800E+02  0.7818608E-02  0.1130116E+00
         25   -1    0    0    0    0  0.00000000000E+00  0.00000000000E+00  0.99999998245E-14  0.12500000000E+03  0.12500000000E+03 0.  0.
        -13    1    3    3    0    0 -0.57812555616E+00  0.68202918686E+01  0.38207780292E+02  0.38816185402E+02  0.10566000000E+00 0.  1.
         23    2    1    0    0    0 -0.35628478644E+00  0.82362949676E+01 -0.23271064545E+02  0.10031182593E+03  0.97226315798E+02 0.  0.
         13    1    3    3    0    0  0.22184076973E+00  0.14160030989E+01 -0.61478844836E+02  0.61495640533E+02  0.10566000000E+00 0. -1.
         22    1    1    0    0    0  0.35628478644E+00 -0.82362949676E+01  0.23271064545E+02  0.24688174065E+02  0.00000000000E+00 0. -1.
</event>
<event>
 5    1  0.1680526E-003  0.9118800E+02  0.7818608E-02  0.1130116E+00
         25   -1    0    0    0    0  0.00000000000E+00  0.00000000000E+00  0.99999998245E-14  0.12500000000E+03  0.12500000000E+03 0.  0.
        -13    1    3    3    0    0  0.21987824060E+02 -0.13322361952E+02 -0.22343958226E+02  0.34061904940E+02  0.10566000000E+00 0. -1.
         23    2    1    0    0    0 -0.35019145519E+01  0.26017454765E+02  0.15680882355E+02  0.94421225836E+02  0.89332561023E+02 0.  0.
         13    1    3    3    0    0 -0.25489738611E+02  0.39339816717E+02  0.38024840581E+02  0.60359320896E+02  0.10566000000E+00 0.  1.
         22    1    1    0    0    0  0.35019145519E+01 -0.26017454765E+02 -0.15680882355E+02  0.30578774164E+02  0.00000000000E+00 0.  1.
</event>
<event>
 5    1  0.1680526E-003  0.9118800E+02  0.7818608E-02  0.1130116E+00
         25   -1    0    0    0    0  0.00000000000E+00  0.00000000000E+00  0.99999998245E-14  0.12500000000E+03  0.12500000000E+03 0.  0.
        -13    1    3    3    0    0 -0.37141232884E+02  0.18992169139E+02 -0.13470551850E+02  0.43836521302E+02  0.10566000000E+00 0.  1.
         23    2    1    0    0    0 -0.93880976038E+01  0.16317199484E+01  0.27277866478E+02  0.96105694571E+02  0.91659280179E+02 0.  0.
         13    1    3    3    0    0  0.27753135280E+02 -0.17360449190E+02  0.40748418328E+02  0.52269173269E+02  0.10566000000E+00 0. -1.
         22    1    1    0    0    0  0.93880976038E+01 -0.16317199484E+01 -0.27277866478E+02  0.28894305429E+02  0.00000000000E+00 0. -1.
</event>
<event>
 5    1  0.1680526E-003  0.9118800E+02  0.7818608E-02  0.1130116E+00
         25   -1    0    0    0    0  0.00000000000E+00  0.00000000000E+00  0.99999998245E-14  0.12500000000E+03  0.12500000000E+03 0.  0.
        -13    1    3    3    0    0  0.16818139696E+02  0.19682401260E+02 -0.31645656615E+02  0.40886495189E+02  0.10566000000E+00 0. -1.
         23    2    1    0    0    0  0.23411279553E+02 -0.75197618015E+00  0.18315311006E+02  0.95266111997E+02  0.90507060495E+02 0.  0.
         13    1    3    3    0    0  0.65931398568E+01 -0.20434377440E+02  0.49960967621E+02  0.54379616808E+02  0.10566000000E+00 0.  1.
         22    1    1    0    0    0 -0.23411279553E+02  0.75197618015E+00 -0.18315311006E+02  0.29733888003E+02  0.00000000000E+00 0.  1.
</event>
<event>
 5    1  0.1680526E-003  0.9118800E+02  0.7818608E-02  0.1130116E+00
         25   -1    0    0    0    0  0.00000000000E+00  0.00000000000E+00  0.99999998245E-14  0.12500000000E+03  0.12500000000E+03 0.  0.
        -13    1    3    3    0    0 -0.17367388770E+02  0.50587542756E+02 -0.14485749662E+02  0.55412758297E+02  0.10566000000E+00 0.  1.
         23    2    1    0    0    0  0.13337585796E+02  0.23913569676E+02 -0.63542932349E+01  0.96890801292E+02  0.92723785098E+02 0.  0.
         13    1    3    3    0    0  0.30704974566E+02 -0.26673973080E+02  0.81314564276E+01  0.41478042994E+02  0.10566000000E+00 0. -1.
         22    1    1    0    0    0 -0.13337585796E+02 -0.23913569676E+02  0.63542932349E+01  0.28109198708E+02  0.00000000000E+00 0.  1.
</event>
<event>
 5    1  0.1680526E-003  0.9118800E+02  0.7818608E-02  0.1130116E+00
         25   -1    0    0    0    0  0.00000000000E+00  0.00000000000E+00  0.99999998245E-14  0.12500000000E+03  0.12500000000E+03 0.  0.
        -13    1    3    3    0    0 -0.20626603744E+02 -0.16599383848E+02  0.26139482802E+02  0.37205914199E+02  0.10566000000E+00 0. -1.
         23    2    1    0    0    0 -0.35237440132E+01  0.13174497520E+02 -0.23657348130E+02  0.97693329069E+02  0.93799425730E+02 0.  0.
         13    1    3    3    0    0  0.17102859731E+02  0.29773881369E+02 -0.49796830932E+02  0.60487414870E+02  0.10566000000E+00 0.  1.
         22    1    1    0    0    0  0.35237440132E+01 -0.13174497520E+02  0.23657348130E+02  0.27306670931E+02  0.00000000000E+00 0.  1.
</event>
<event>
 5    1  0.1680526E-003  0.9118800E+02  0.7818608E-02  0.1130116E+00
         25   -1    0    0    0    0  0.00000000000E+00  0.00000000000E+00  0.99999998245E-14  0.12500000000E+03  0.12500000000E+03 0.  0.
        -13    1    3    3    0    0 -0.30175572127E+02  0.17384219483E+02 -0.28326024707E+01  0.34940106482E+02  0.10566000000E+00 0. -1.
         23    2    1    0    0    0  0.16952900564E+02 -0.14816681887E+02  0.18483803249E+02  0.95869502541E+02  0.91336606217E+02 0.  0.
         13    1    3    3    0    0  0.47128472691E+02 -0.32200901370E+02  0.21316405720E+02  0.60929396058E+02  0.10566000000E+00 0.  1.
         22    1    1    0    0    0 -0.16952900564E+02  0.14816681887E+02 -0.18483803249E+02  0.29130497459E+02  0.00000000000E+00 0.  1.
</event>
<event>
 5    1  0.1680526E-003  0.9118800E+02  0.7818608E-02  0.1130116E+00
         25   -1    0    0    0    0  0.00000000000E+00  0.00000000000E+00  0.99999998245E-14  0.12500000000E+03  0.12500000000E+03 0.  0.
        -13    1    3    3    0    0  0.24132126315E+02 -0.43002025126E+02 -0.20488315055E+01  0.49353242649E+02  0.10566000000E+00 0.  1.
         23    2    1    0    0    0  0.10631832024E+02 -0.28146931344E+02 -0.29168896969E+02  0.83094032088E+02  0.71753104616E+02 0.  0.
         13    1    3    3    0    0 -0.13500294291E+02  0.14855093782E+02 -0.27120065463E+02  0.33740789439E+02  0.10566000000E+00 0. -1.
         22    1    1    0    0    0 -0.10631832024E+02  0.28146931344E+02  0.29168896969E+02  0.41905967912E+02  0.00000000000E+00 0.  1.
</event>
<event>
 5    1  0.1680526E-003  0.9118800E+02  0.7818608E-02  0.1130116E+00
         25   -1    0    0    0    0  0.00000000000E+00  0.00000000000E+00  0.99999998245E-14  0.12500000000E+03  0.12500000000E+03 0.  0.
        -13    1    3    3    0    0 -0.43343834689E+02 -0.24209408134E+02  0.44561735279E+01  0.49846284659E+02  0.10566000000E+00 0.  1.
         23    2    1    0    0    0 -0.21146591806E+02  0.89956584254E+01 -0.18127786778E+02  0.95730273848E+02  0.91145863659E+02 0.  0.
         13    1    3    3    0    0  0.22197242883E+02  0.33205066559E+02 -0.22583960306E+02  0.45883989190E+02  0.10566000000E+00 0. -1.
         22    1    1    0    0    0  0.21146591806E+02 -0.89956584254E+01  0.18127786778E+02  0.29269726152E+02  0.00000000000E+00 0. -1.
</event>
<event>
 5    1  0.1680526E-003  0.9118800E+02  0.7818608E-02  0.1130116E+00
         25   -1    0    0    0    0  0.00000000000E+00  0.00000000000E+00  0.99999998245E-14  0.12500000000E+03  0.12500000000E+03 0.  0.
        -13    1    3    3    0    0 -0.22130262001E+02 -0.34419790574E+02 -0.44625972801E+02  0.60547164194E+02  0.10566000000E+00 0.  1.
         23    2    1    0    0    0 -0.18487072948E+02 -0.19864601376E+02 -0.14429888172E+02  0.94265720658E+02  0.89114702291E+02 0.  0.
         13    1    3    3    0    0  0.36431890525E+01  0.14555189199E+02  0.30196084629E+02  0.33718556464E+02  0.10566000000E+00 0. -1.
         22    1    1    0    0    0  0.18487072948E+02  0.19864601376E+02  0.14429888172E+02  0.30734279342E+02  0.00000000000E+00 0.  1.
</event>
<event>
 5    1  0.1680526E-003  0.9118800E+02  0.7818608E-02  0.1130116E+00
         25   -1    0    0    0    0  0.00000000000E+00  0.00000000000E+00  0.99999998245E-14  0.12500000000E+03  0.12500000000E+03 0.  0.
        -13    1    3    3    0    0  0.55966705198E+02  0.22954226308E+02 -0.12896153529E+02  0.61850550006E+02  0.10566000000E+00 0. -1.
         23    2    1    0    0    0  0.33001613152E+02  0.20063792037E+02 -0.68309322035E+01  0.85778528121E+02  0.76286512768E+02 0.  0.
         13    1    3    3    0    0 -0.22965092046E+02 -0.28904342706E+01  0.60652213252E+01  0.23927978116E+02  0.10566000000E+00 0.  1.
         22    1    1    0    0    0 -0.33001613152E+02 -0.20063792037E+02  0.68309322035E+01  0.39221471879E+02  0.00000000000E+00 0. -1.
</event>
<event>
 5    1  0.1680526E-003  0.9118800E+02  0.7818608E-02  0.1130116E+00
         25   -1    0    0    0    0  0.00000000000E+00  0.00000000000E+00  0.99999998245E-14  0.12500000000E+03  0.12500000000E+03 0.  0.
        -13    1    3    3    0    0 -0.27016181436E+02 -0.43127391245E+02 -0.80430855913E+01  0.51522309002E+02  0.10566000000E+00 0. -1.
         23    2    1    0    0    0  0.40549075864E+00 -0.15308020825E+02 -0.26242476877E+02  0.94616328119E+02  0.89605145108E+02 0.  0.
         13    1    3    3    0    0  0.27421672195E+02  0.27819370420E+02 -0.18199391285E+02  0.43094019117E+02  0.10566000000E+00 0.  1.
         22    1    1    0    0    0 -0.40549075864E+00  0.15308020825E+02  0.26242476877E+02  0.30383671881E+02  0.00000000000E+00 0. -1.
</event>
<event>
 5    1  0.1680526E-003  0.9118800E+02  0.7818608E-02  0.1130116E+00
         25   -1    0    0    0    0  0.00000000000E+00  0.00000000000E+00  0.99999998245E-14  0.12500000000E+03  0.12500000000E+03 0.  0.
        -13    1    3    3    0    0 -0.23873632348E+02 -0.20450686697E+02  0.17108178121E+02  0.35789409474E+02  0.10566000000E+00 0. -1.
         23    2    1    0    0    0  0.21394032717E+02  0.18138990715E+02  0.64211566585E+01  0.96225725502E+02  0.91822826005E+02 0.  0.
         13    1    3    3    0    0  0.45267665065E+02  0.38589677412E+02 -0.10687021462E+02  0.60436316028E+02  0.10566000000E+00 0.  1.
         22    1    1    0    0    0 -0.21394032717E+02 -0.18138990715E+02 -0.64211566585E+01  0.28774274498E+02  0.00000000000E+00 0.  1.
</event>
<event>
 5    1  0.1680526E-003  0.9118800E+02  0.7818608E-02  0.1130116E+00
         25   -1    0    0    0    0  0.00000000000E+00  0.00000000000E+00  0.99999998245E-14  0.12500000000E+03  0.12500000000E+03 0.  0.
        -13    1    3    3    0    0  0.27278854699E+02 -0.15549459851E+02 -0.15591578139E+02  0.35057525415E+02  0.10566000000E+00 0.  1.
         23    2    1    0    0    0 -0.17708463739E+02  0.17383085099E+02  0.12194395183E+02  0.97351046865E+02  0.93342175442E+02 0.  0.
         13    1    3    3    0    0 -0.44987318438E+02  0.32932544950E+02  0.27785973322E+02  0.62293521450E+02  0.10566000000E+00 0. -1.
         22    1    1    0    0    0  0.17708463739E+02 -0.17383085099E+02 -0.12194395183E+02  0.27648953135E+02  0.00000000000E+00 0. -1.
</event>
<event>
 5    1  0.1680526E-003  0.9118800E+02  0.7818608E-02  0.1130116E+00
         25   -1    0    0    0    0  0.00000000000E+00  0.00000000000E+00  0.99999998245E-14  0.12500000000E+03  0.12500000000E+03 0.  0.
        -13    1    3    3    0    0  0.43176266152E+02 -0.11990665949E+02  0.33142361799E+02  0.55735027930E+02  0.10566000000E+00 0. -1.
         23    2    1    0    0    0  0.21512049395E+02  0.14980716442E+02  0.14970646888E+02  0.94812081844E+02  0.89877808502E+02 0.  0.
         13    1    3    3    0    0 -0.21664216757E+02  0.26971382392E+02 -0.18171714911E+02  0.39077053914E+02  0.10566000000E+00 0.  1.
         22    1    1    0    0    0 -0.21512049395E+02 -0.14980716442E+02 -0.14970646888E+02  0.30187918156E+02  0.00000000000E+00 0. -1.
</event>
<event>
 5    1  0.1680526E-003  0.9118800E+02  0.7818608E-02  0.1130116E+00
         25   -1    0    0    0    0  0.00000000000E+00  0.00000000000E+00  0.99999998245E-14  0.12500000000E+03  0.12500000000E+03 0.  0.
        -13    1    3    3    0    0  0.54722639955E+02 -0.12703386745E+02  0.16778243945E+02  0.58629889923E+02  0.10566000000E+00 0.  1.
         23    2    1    0    0    0  0.18788919181E+02 -0.19573646444E+02  0.11241644743E+02  0.95631212220E+02  0.91009906357E+02 0.  0.
         13    1    3    3    0    0 -0.35933720774E+02 -0.68702596990E+01 -0.55365992020E+01  0.37001322297E+02  0.10566000000E+00 0. -1.
         22    1    1    0    0    0 -0.18788919181E+02  0.19573646444E+02 -0.11241644743E+02  0.29368787780E+02  0.00000000000E+00 0.  1.
</event>
<event>
 5    1  0.1680526E-003  0.9118800E+02  0.7818608E-02  0.1130116E+00
         25   -1    0    0    0    0  0.00000000000E+00  0.00000000000E+00  0.99999998245E-14  0.12500000000E+03  0.12500000000E+03 0.  0.
        -13    1    3    3    0    0  0.54876970028E+02  0.23474059157E+02  0.14540266997E+02  0.61432432974E+02  0.10566000000E+00 0. -1.
         23    2    1    0    0    0  0.25355997021E+02  0.11374682866E+02 -0.15533641005E+01  0.97166154860E+02  0.93094246412E+02 0.  0.
         13    1    3    3    0    0 -0.29520973007E+02 -0.12099376291E+02 -0.16093631097E+02  0.35733721886E+02  0.10566000000E+00 0.  1.
         22    1    1    0    0    0 -0.25355997021E+02 -0.11374682866E+02  0.15533641005E+01  0.27833845140E+02  0.00000000000E+00 0. -1.
</event>
<event>
 5    1  0.1680526E-003  0.9118800E+02  0.7818608E-02  0.1130116E+00
         25   -1    0    0    0    0  0.00000000000E+00  0.00000000000E+00  0.99999998245E-14  0.12500000000E+03  0.12500000000E+03 0.  0.
        -13    1    3    3    0    0 -0.18386961883E+02 -0.24474468738E+02 -0.18382331437E+02  0.35707159792E+02  0.10566000000E+00 0. -1.
         23    2    1    0    0    0  0.26814481350E+02 -0.17823160585E+00  0.12300996078E+02  0.95498090212E+02  0.90826882326E+02 0.  0.
         13    1    3    3    0    0  0.45201443233E+02  0.24296237132E+02  0.30683327516E+02  0.59790930421E+02  0.10566000000E+00 0.  1.
         22    1    1    0    0    0 -0.26814481350E+02  0.17823160585E+00 -0.12300996078E+02  0.29501909788E+02  0.00000000000E+00 0.  1.
</event>
<event>
 5    1  0.1680526E-003  0.9118800E+02  0.7818608E-02  0.1130116E+00
         25   -1    0    0    0    0  0.00000000000E+00  0.00000000000E+00  0.99999998245E-14  0.12500000000E+03  0.12500000000E+03 0.  0.
        -13    1    3    3    0    0 -0.23370059098E+02 -0.37430862832E+02  0.38352873163E+02  0.58465230680E+02  0.10566000000E+00 0. -1.
         23    2    1    0    0    0 -0.22526223110E+02 -0.10972024818E+02  0.80957002288E+01  0.98668338100E+02  0.95089876038E+02 0.  0.
         13    1    3    3    0    0  0.84383598761E+00  0.26458838014E+02 -0.30257172934E+02  0.40203107420E+02  0.10566000000E+00 0.  1.
         22    1    1    0    0    0  0.22526223110E+02  0.10972024818E+02 -0.80957002288E+01  0.26331661900E+02  0.00000000000E+00 0. -1.
</event>
<event>
 5    1  0.1680526E-003  0.9118800E+02  0.7818608E-02  0.1130116E+00
         25   -1    0    0    0    0  0.00000000000E+00  0.00000000000E+00  0.99999998245E-14  0.12500000000E+03  0.12500000000E+03 0.  0.
        -13    1    3    3    0    0 -0.53730740403E+01  0.28978892845E+02  0.22832259092E+02  0.37282293042E+02  0.10566000000E+00 0. -1.
         23    2    1    0    0    0 -0.18254861569E+01 -0.27755154555E+02  0.86718204361E+01  0.95864429407E+02  0.91329663045E+02 0.  0.
         13    1    3    3    0    0  0.35475878834E+01 -0.56734047400E+02 -0.14160438656E+02  0.58582136366E+02  0.10566000000E+00 0.  1.
         22    1    1    0    0    0  0.18254861569E+01  0.27755154555E+02 -0.86718204361E+01  0.29135570593E+02  0.00000000000E+00 0.  1.
</event>
<event>
 5    1  0.1680526E-003  0.9118800E+02  0.7818608E-02  0.1130116E+00
         25   -1    0    0    0    0  0.00000000000E+00  0.00000000000E+00  0.99999998245E-14  0.12500000000E+03  0.12500000000E+03 0.  0.
        -13    1    3    3    0    0  0.26548243828E+02 -0.89310140265E+01  0.23593762897E+02  0.36623067507E+02  0.10566000000E+00 0.  1.
         23    2    1    0    0    0 -0.95000044626E+01 -0.13600455554E+02 -0.23574981213E+02  0.96172890966E+02  0.91750873246E+02 0.  0.
         13    1    3    3    0    0 -0.36048248291E+02 -0.46694415272E+01 -0.47168744111E+02  0.59549823459E+02  0.10566000000E+00 0. -1.
         22    1    1    0    0    0  0.95000044626E+01  0.13600455554E+02  0.23574981213E+02  0.28827109034E+02  0.00000000000E+00 0. -1.
</event>
<event>
 5    1  0.1680526E-003  0.9118800E+02  0.7818608E-02  0.1130116E+00
         25   -1    0    0    0    0  0.00000000000E+00  0.00000000000E+00  0.99999998245E-14  0.12500000000E+03  0.12500000000E+03 0.  0.
        -13    1    3    3    0    0 -0.18688458547E+02 -0.39401744231E+02  0.37808651553E+02  0.57717079167E+02  0.10566000000E+00 0.  1.
         23    2    1    0    0    0 -0.24372759856E+02 -0.13814557269E+02  0.27070277365E+02  0.86042672933E+02  0.76718108901E+02 0.  0.
         13    1    3    3    0    0 -0.56843013089E+01  0.25587186961E+02 -0.10738374188E+02  0.28325593766E+02  0.10566000000E+00 0. -1.
         22    1    1    0    0    0  0.24372759856E+02  0.13814557269E+02 -0.27070277365E+02  0.38957327067E+02  0.00000000000E+00 0.  1.
</event>
<event>
 5    1  0.1680526E-003  0.9118800E+02  0.7818608E-02  0.1130116E+00
         25   -1    0    0    0    0  0.00000000000E+00  0.00000000000E+00  0.99999998245E-14  0.12500000000E+03  0.12500000000E+03 0.  0.
        -13    1    3    3    0    0 -0.48329286564E+01  0.25326806213E+02 -0.30606322348E+02  0.40019525785E+02  0.10566000000E+00 0. -1.
         23    2    1    0    0    0  0.33707514506E+02  0.17188825570E+02 -0.54127528605E+01  0.86777622363E+02  0.77906389923E+02 0.  0.
         13    1    3    3    0    0  0.38540443163E+02 -0.81379806427E+01  0.25193569487E+02  0.46758096579E+02  0.10566000000E+00 0.  1.
         22    1    1    0    0    0 -0.33707514506E+02 -0.17188825570E+02  0.54127528605E+01  0.38222377637E+02  0.00000000000E+00 0.  1.
</event>
<event>
 5    1  0.1680526E-003  0.9118800E+02  0.7818608E-02  0.1130116E+00
         25   -1    0    0    0    0  0.00000000000E+00  0.00000000000E+00  0.99999998245E-14  0.12500000000E+03  0.12500000000E+03 0.  0.
        -13    1    3    3    0    0 -0.79247954652E+01 -0.54047393461E+02  0.19618997820E+02  0.58041703650E+02  0.10566000000E+00 0.  1.
         23    2    1    0    0    0 -0.12512207626E+02 -0.16586741678E+02  0.20527006548E+02  0.95793265555E+02  0.91232211355E+02 0.  0.
         13    1    3    3    0    0 -0.45874121607E+01  0.37460651783E+02  0.90800872788E+00  0.37751561905E+02  0.10566000000E+00 0. -1.
         22    1    1    0    0    0  0.12512207626E+02  0.16586741678E+02 -0.20527006548E+02  0.29206734445E+02  0.00000000000E+00 0.  1.
</event>
<event>
 5    1  0.1680526E-003  0.9118800E+02  0.7818608E-02  0.1130116E+00
         25   -1    0    0    0    0  0.00000000000E+00  0.00000000000E+00  0.99999998245E-14  0.12500000000E+03  0.12500000000E+03 0.  0.
        -13    1    3    3    0    0  0.22787502423E+02 -0.35347085528E+02  0.34415081716E+02  0.54342393539E+02  0.10566000000E+00 0.  1.
         23    2    1    0    0    0 -0.53504693982E+01 -0.88104255975E+01  0.30008940267E+02  0.93270083234E+02  0.87707016872E+02 0.  0.
         13    1    3    3    0    0 -0.28137971822E+02  0.26536659930E+02 -0.44061414492E+01  0.38927689695E+02  0.10566000000E+00 0. -1.
         22    1    1    0    0    0  0.53504693982E+01  0.88104255975E+01 -0.30008940267E+02  0.31729916766E+02  0.00000000000E+00 0.  1.
</event>
<event>
 5    1  0.1680526E-003  0.9118800E+02  0.7818608E-02  0.1130116E+00
         25   -1    0    0    0    0  0.00000000000E+00  0.00000000000E+00  0.99999998245E-14  0.12500000000E+03  0.12500000000E+03 0.  0.
        -13    1    3    3    0    0  0.18567803878E+02 -0.44526431436E+02 -0.11255263006E+02  0.49538455231E+02  0.10566000000E+00 0. -1.
         23    2    1    0    0    0  0.21847693813E+02 -0.13813349246E+01 -0.21832874257E+02  0.94082299415E+02  0.88857047294E+02 0.  0.
         13    1    3    3    0    0  0.32798899346E+01  0.43145096511E+02 -0.10577611251E+02  0.44543844185E+02  0.10566000000E+00 0.  1.
         22    1    1    0    0    0 -0.21847693813E+02  0.13813349246E+01  0.21832874257E+02  0.30917700585E+02  0.00000000000E+00 0. -1.
</event>
<event>
 5    1  0.1680526E-003  0.9118800E+02  0.7818608E-02  0.1130116E+00
         25   -1    0    0    0    0  0.00000000000E+00  0.00000000000E+00  0.99999998245E-14  0.12500000000E+03  0.12500000000E+03 0.  0.
        -13    1    3    3    0    0 -0.33866317062E+02 -0.32302811699E+02  0.29781717497E+02  0.55473966292E+02  0.10566000000E+00 0. -1.
         23    2    1    0    0    0 -0.14868494653E+01 -0.30796036525E+01  0.25467703083E+02  0.99303724388E+02  0.95921484022E+02 0.  0.
         13    1    3    3    0    0  0.32379467597E+02  0.29223208047E+02 -0.43140144134E+01  0.43829758096E+02  0.10566000000E+00 0.  1.
         22    1    1    0    0    0  0.14868494653E+01  0.30796036525E+01 -0.25467703083E+02  0.25696275612E+02  0.00000000000E+00 0. -1.
</event>
<event>
 5    1  0.1680526E-003  0.9118800E+02  0.7818608E-02  0.1130116E+00
         25   -1    0    0    0    0  0.00000000000E+00  0.00000000000E+00  0.99999998245E-14  0.12500000000E+03  0.12500000000E+03 0.  0.
        -13    1    3    3    0    0  0.19092006704E+02  0.27870333693E+02  0.10234811202E+02  0.35299047360E+02  0.10566000000E+00 0.  1.
         23    2    1    0    0    0 -0.15314993099E+02 -0.79501131445E+01 -0.23867685432E+02  0.95548009906E+02  0.90895558068E+02 0.  0.
         13    1    3    3    0    0 -0.34406999803E+02 -0.35820446838E+02 -0.34102496634E+02  0.60248962545E+02  0.10566000000E+00 0. -1.
         22    1    1    0    0    0  0.15314993099E+02  0.79501131445E+01  0.23867685432E+02  0.29451990094E+02  0.00000000000E+00 0. -1.
</event>
<event>
 5    1  0.1680526E-003  0.9118800E+02  0.7818608E-02  0.1130116E+00
         25   -1    0    0    0    0  0.00000000000E+00  0.00000000000E+00  0.99999998245E-14  0.12500000000E+03  0.12500000000E+03 0.  0.
        -13    1    3    3    0    0 -0.32285314221E+02  0.23717003801E+02 -0.36817815439E+02  0.54409562407E+02  0.10566000000E+00 0.  1.
         23    2    1    0    0    0 -0.26918884950E+02 -0.14313828971E+01 -0.16275935257E+01  0.97993995396E+02  0.94199250788E+02 0.  0.
         13    1    3    3    0    0  0.53664292704E+01 -0.25148386698E+02  0.35190221914E+02  0.43584432989E+02  0.10566000000E+00 0. -1.
         22    1    1    0    0    0  0.26918884950E+02  0.14313828971E+01  0.16275935257E+01  0.27006004604E+02  0.00000000000E+00 0. -1.
</event>
<event>
 5    1  0.1680526E-003  0.9118800E+02  0.7818608E-02  0.1130116E+00
         25   -1    0    0    0    0  0.00000000000E+00  0.00000000000E+00  0.99999998245E-14  0.12500000000E+03  0.12500000000E+03 0.  0.
        -13    1    3    3    0    0  0.37223268638E+02  0.97327358096E+01 -0.13111146032E+02  0.40647400763E+02  0.10566000000E+00 0.  1.
         23    2    1    0    0    0 -0.15464387760E+02  0.24159495536E+02 -0.37488546400E+01  0.96071079791E+02  0.91612062240E+02 0.  0.
         13    1    3    3    0    0 -0.52687656398E+02  0.14426759726E+02  0.93622913916E+01  0.55423679029E+02  0.10566000000E+00 0. -1.
         22    1    1    0    0    0  0.15464387760E+02 -0.24159495536E+02  0.37488546400E+01  0.28928920209E+02  0.00000000000E+00 0. -1.
</event>
<event>
 5    1  0.1680526E-003  0.9118800E+02  0.7818608E-02  0.1130116E+00
         25   -1    0    0    0    0  0.00000000000E+00  0.00000000000E+00  0.99999998245E-14  0.12500000000E+03  0.12500000000E+03 0.  0.
        -13    1    3    3    0    0 -0.18778798782E+02 -0.20863023161E+02 -0.43908740657E+02  0.52114275292E+02  0.10566000000E+00 0. -1.
         23    2    1    0    0    0  0.11841258899E+02 -0.20778085192E+02 -0.69793505613E+01  0.10008704010E+03  0.96936886818E+02 0.  0.
         13    1    3    3    0    0  0.30620057681E+02  0.84937969400E-01  0.36929390095E+02  0.47972764812E+02  0.10566000000E+00 0.  1.
         22    1    1    0    0    0 -0.11841258899E+02  0.20778085192E+02  0.69793505613E+01  0.24912959896E+02  0.00000000000E+00 0. -1.
</event>
<event>
 5    1  0.1680526E-003  0.9118800E+02  0.7818608E-02  0.1130116E+00
         25   -1    0    0    0    0  0.00000000000E+00  0.00000000000E+00  0.99999998245E-14  0.12500000000E+03  0.12500000000E+03 0.  0.
        -13    1    3    3    0    0 -0.42241121027E+02  0.81347167196E+01  0.38133797359E+02  0.57486377402E+02  0.10566000000E+00 0.  1.
         23    2    1    0    0    0  0.58285380299E+00 -0.42427521851E+01  0.18174498111E+02  0.10632774662E+03  0.10467538706E+03 0.  0.
         13    1    3    3    0    0  0.42823974830E+02 -0.12377468905E+02 -0.19959299249E+02  0.48841369220E+02  0.10566000000E+00 0. -1.
         22    1    1    0    0    0 -0.58285380299E+00  0.42427521851E+01 -0.18174498111E+02  0.18672253379E+02  0.00000000000E+00 0.  1.
</event>
<event>
 5    1  0.1680526E-003  0.9118800E+02  0.7818608E-02  0.1130116E+00
         25   -1    0    0    0    0  0.00000000000E+00  0.00000000000E+00  0.99999998245E-14  0.12500000000E+03  0.12500000000E+03 0.  0.
        -13    1    3    3    0    0 -0.33957542884E+02  0.43584695817E+02 -0.76884044886E+01  0.55784076185E+02  0.10566000000E+00 0. -1.
         23    2    1    0    0    0 -0.15098479750E+02  0.13213260416E+02 -0.22827914383E+02  0.94608092908E+02  0.89593656176E+02 0.  0.
         13    1    3    3    0    0  0.18859063134E+02 -0.30371435401E+02 -0.15139509895E+02  0.38824016723E+02  0.10566000000E+00 0.  1.
         22    1    1    0    0    0  0.15098479750E+02 -0.13213260416E+02  0.22827914383E+02  0.30391907092E+02  0.00000000000E+00 0. -1.
</event>
<event>
 5    1  0.1680526E-003  0.9118800E+02  0.7818608E-02  0.1130116E+00
         25   -1    0    0    0    0  0.00000000000E+00  0.00000000000E+00  0.99999998245E-14  0.12500000000E+03  0.12500000000E+03 0.  0.
        -13    1    3    3    0    0 -0.37144247536E+02  0.10929644571E+02 -0.13140352494E+02  0.40888045725E+02  0.10566000000E+00 0.  1.
         23    2    1    0    0    0  0.17474101384E+02  0.21228010075E+02 -0.39921819479E+01  0.97216728997E+02  0.93162128836E+02 0.  0.
         13    1    3    3    0    0  0.54618348920E+02  0.10298365504E+02  0.91481705457E+01  0.56328683272E+02  0.10566000000E+00 0. -1.
         22    1    1    0    0    0 -0.17474101384E+02 -0.21228010075E+02  0.39921819479E+01  0.27783271003E+02  0.00000000000E+00 0. -1.
</event>
<event>
 5    1  0.1680526E-003  0.9118800E+02  0.7818608E-02  0.1130116E+00
         25   -1    0    0    0    0  0.00000000000E+00  0.00000000000E+00  0.99999998245E-14  0.12500000000E+03  0.12500000000E+03 0.  0.
        -13    1    3    3    0    0  0.28375772079E+02  0.45891984152E+01 -0.32553915476E+02  0.43428259924E+02  0.10566000000E+00 0. -1.
         23    2    1    0    0    0 -0.12128897556E+02 -0.21177466510E+02 -0.20997351625E+02  0.92805528131E+02  0.87042415136E+02 0.  0.
         13    1    3    3    0    0 -0.40504669634E+02 -0.25766664925E+02  0.11556563851E+02  0.49377268207E+02  0.10566000000E+00 0.  1.
         22    1    1    0    0    0  0.12128897556E+02  0.21177466510E+02  0.20997351625E+02  0.32194471869E+02  0.00000000000E+00 0.  1.
</event>
<event>
 5    1  0.1680526E-003  0.9118800E+02  0.7818608E-02  0.1130116E+00
         25   -1    0    0    0    0  0.00000000000E+00  0.00000000000E+00  0.99999998245E-14  0.12500000000E+03  0.12500000000E+03 0.  0.
        -13    1    3    3    0    0  0.41414945172E+02  0.36423552105E+02 -0.20086891821E+01  0.55189843520E+02  0.10566000000E+00 0.  1.
         23    2    1    0    0    0  0.49981417799E+01  0.32290738733E+02 -0.49217241504E+01  0.91956141300E+02  0.85813957634E+02 0.  0.
         13    1    3    3    0    0 -0.36416803392E+02 -0.41328133719E+01 -0.29130349683E+01  0.36766297779E+02  0.10566000000E+00 0. -1.
         22    1    1    0    0    0 -0.49981417799E+01 -0.32290738733E+02  0.49217241504E+01  0.33043858700E+02  0.00000000000E+00 0.  1.
</event>
<event>
 5    1  0.1680526E-003  0.9118800E+02  0.7818608E-02  0.1130116E+00
         25   -1    0    0    0    0  0.00000000000E+00  0.00000000000E+00  0.99999998245E-14  0.12500000000E+03  0.12500000000E+03 0.  0.
        -13    1    3    3    0    0 -0.10376241375E+02 -0.40807024101E+02 -0.19619752534E+02  0.46452399880E+02  0.10566000000E+00 0.  1.
         23    2    1    0    0    0  0.13478507651E+02 -0.17482867400E+02  0.17841392608E+02  0.96616270308E+02  0.92352951101E+02 0.  0.
         13    1    3    3    0    0  0.23854749026E+02  0.23324156701E+02  0.37461145142E+02  0.50163870428E+02  0.10566000000E+00 0. -1.
         22    1    1    0    0    0 -0.13478507651E+02  0.17482867400E+02 -0.17841392608E+02  0.28383729692E+02  0.00000000000E+00 0. -1.
</event>
<event>
 5    1  0.1680526E-003  0.9118800E+02  0.7818608E-02  0.1130116E+00
         25   -1    0    0    0    0  0.00000000000E+00  0.00000000000E+00  0.99999998245E-14  0.12500000000E+03  0.12500000000E+03 0.  0.
        -13    1    3    3    0    0 -0.45519050418E+02  0.33909060017E+02  0.98114027286E+01  0.57602804530E+02  0.10566000000E+00 0.  1.
         23    2    1    0    0    0 -0.25901485743E+02  0.77027265280E+01 -0.10365970188E+02  0.96057431047E+02  0.91593437329E+02 0.  0.
         13    1    3    3    0    0  0.19617564675E+02 -0.26206333489E+02 -0.20177372916E+02  0.38454626517E+02  0.10566000000E+00 0. -1.
         22    1    1    0    0    0  0.25901485743E+02 -0.77027265280E+01  0.10365970188E+02  0.28942568953E+02  0.00000000000E+00 0.  1.
</event>
<event>
 5    1  0.1680526E-003  0.9118800E+02  0.7818608E-02  0.1130116E+00
         25   -1    0    0    0    0  0.00000000000E+00  0.00000000000E+00  0.99999998245E-14  0.12500000000E+03  0.12500000000E+03 0.  0.
        -13    1    3    3    0    0 -0.18442042309E+02 -0.22395435867E+02 -0.33696383932E+02  0.44464839214E+02  0.10566000000E+00 0. -1.
         23    2    1    0    0    0 -0.23341319274E+02  0.11606326974E+02  0.72785902950E+01  0.97935227916E+02  0.94121235537E+02 0.  0.
         13    1    3    3    0    0 -0.48992769654E+01  0.34001762841E+02  0.40974974227E+02  0.53470388702E+02  0.10566000000E+00 0.  1.
         22    1    1    0    0    0  0.23341319274E+02 -0.11606326974E+02 -0.72785902950E+01  0.27064772084E+02  0.00000000000E+00 0.  1.
</event>
<event>
 5    1  0.1680526E-003  0.9118800E+02  0.7818608E-02  0.1130116E+00
         25   -1    0    0    0    0  0.00000000000E+00  0.00000000000E+00  0.99999998245E-14  0.12500000000E+03  0.12500000000E+03 0.  0.
        -13    1    3    3    0    0  0.28634350765E+02 -0.38674281670E+02 -0.14041358976E+02  0.50127806978E+02  0.10566000000E+00 0. -1.
         23    2    1    0    0    0  0.11398415113E+02 -0.21965796254E+02  0.20959474361E+02  0.92569772778E+02  0.86703190221E+02 0.  0.
         13    1    3    3    0    0 -0.17235935652E+02  0.16708485416E+02  0.35000833337E+02  0.42441965801E+02  0.10566000000E+00 0.  1.
         22    1    1    0    0    0 -0.11398415113E+02  0.21965796254E+02 -0.20959474361E+02  0.32430227222E+02  0.00000000000E+00 0.  1.
</event>
<event>
 5    1  0.1680526E-003  0.9118800E+02  0.7818608E-02  0.1130116E+00
         25   -1    0    0    0    0  0.00000000000E+00  0.00000000000E+00  0.99999998245E-14  0.12500000000E+03  0.12500000000E+03 0.  0.
        -13    1    3    3    0    0 -0.29243426902E+02  0.31221628678E+02  0.13855340504E+02  0.44966095437E+02  0.10566000000E+00 0.  1.
         23    2    1    0    0    0 -0.10162314097E+02 -0.15390017166E+02  0.22328436437E+02  0.96039952868E+02  0.91569581287E+02 0.  0.
         13    1    3    3    0    0  0.19081112806E+02 -0.46611645844E+02  0.84730959325E+01  0.51073857431E+02  0.10566000000E+00 0. -1.
         22    1    1    0    0    0  0.10162314097E+02  0.15390017166E+02 -0.22328436437E+02  0.28960047132E+02  0.00000000000E+00 0. -1.
</event>
<event>
 5    1  0.1680526E-003  0.9118800E+02  0.7818608E-02  0.1130116E+00
         25   -1    0    0    0    0  0.00000000000E+00  0.00000000000E+00  0.99999998245E-14  0.12500000000E+03  0.12500000000E+03 0.  0.
        -13    1    3    3    0    0  0.34123137660E+02 -0.23913593681E+02 -0.62754326810E+01  0.42138351959E+02  0.10566000000E+00 0. -1.
         23    2    1    0    0    0 -0.16305895776E+02 -0.14664763751E+02 -0.20113015603E+02  0.95243136429E+02  0.90475323194E+02 0.  0.
         13    1    3    3    0    0 -0.50429033436E+02  0.92488299299E+01 -0.13837582922E+02  0.53104784469E+02  0.10566000000E+00 0.  1.
         22    1    1    0    0    0  0.16305895776E+02  0.14664763751E+02  0.20113015603E+02  0.29756863571E+02  0.00000000000E+00 0.  1.
</event>
<event>
 5    1  0.1680526E-003  0.9118800E+02  0.7818608E-02  0.1130116E+00
         25   -1    0    0    0    0  0.00000000000E+00  0.00000000000E+00  0.99999998245E-14  0.12500000000E+03  0.12500000000E+03 0.  0.
        -13    1    3    3    0    0 -0.10808017434E+02  0.31113233281E+02  0.31222311472E+02  0.45383812354E+02  0.10566000000E+00 0.  1.
         23    2    1    0    0    0 -0.47562014206E+01  0.23500482516E+02 -0.17658133937E+02  0.95222427490E+02  0.90446707362E+02 0.  0.
         13    1    3    3    0    0  0.60518160130E+01 -0.76127507654E+01 -0.48880445409E+02  0.49838615137E+02  0.10566000000E+00 0. -1.
         22    1    1    0    0    0  0.47562014206E+01 -0.23500482516E+02  0.17658133937E+02  0.29777572510E+02  0.00000000000E+00 0. -1.
</event>
<event>
 5    1  0.1680526E-003  0.9118800E+02  0.7818608E-02  0.1130116E+00
         25   -1    0    0    0    0  0.00000000000E+00  0.00000000000E+00  0.99999998245E-14  0.12500000000E+03  0.12500000000E+03 0.  0.
        -13    1    3    3    0    0 -0.44065809348E+02  0.27537273566E+02 -0.27911126032E+02  0.58984227632E+02  0.10566000000E+00 0. -1.
         23    2    1    0    0    0 -0.18426369693E+02  0.11111881887E+01 -0.22008767880E+02  0.96274546081E+02  0.91889262268E+02 0.  0.
         13    1    3    3    0    0  0.25639439655E+02 -0.26426085377E+02  0.59023581517E+01  0.37290318449E+02  0.10566000000E+00 0.  1.
         22    1    1    0    0    0  0.18426369693E+02 -0.11111881887E+01  0.22008767880E+02  0.28725453919E+02  0.00000000000E+00 0. -1.
</event>
<event>
 5    1  0.1680526E-003  0.9118800E+02  0.7818608E-02  0.1130116E+00
         25   -1    0    0    0    0  0.00000000000E+00  0.00000000000E+00  0.99999998245E-14  0.12500000000E+03  0.12500000000E+03 0.  0.
        -13    1    3    3    0    0 -0.57162653733E+01  0.26004547431E+02  0.37629335735E+02  0.46096531852E+02  0.10566000000E+00 0.  1.
         23    2    1    0    0    0  0.16882395642E+02  0.22742316568E+02 -0.66409081235E+01  0.95908250204E+02  0.91389619492E+02 0.  0.
         13    1    3    3    0    0  0.22598661015E+02 -0.32622308629E+01 -0.44270243858E+02  0.49811718352E+02  0.10566000000E+00 0. -1.
         22    1    1    0    0    0 -0.16882395642E+02 -0.22742316568E+02  0.66409081235E+01  0.29091749796E+02  0.00000000000E+00 0.  1.
</event>
<event>
 5    1  0.1680526E-003  0.9118800E+02  0.7818608E-02  0.1130116E+00
         25   -1    0    0    0    0  0.00000000000E+00  0.00000000000E+00  0.99999998245E-14  0.12500000000E+03  0.12500000000E+03 0.  0.
        -13    1    3    3    0    0  0.13803801878E+01 -0.22103096504E+02  0.57406869035E+01  0.22878351660E+02  0.10566000000E+00 0. -1.
         23    2    1    0    0    0  0.20235733455E+02  0.35220018267E+02 -0.46651048325E+01  0.84113598859E+02  0.73507820773E+02 0.  0.
         13    1    3    3    0    0  0.18855353267E+02  0.57323114771E+02 -0.10405791736E+02  0.61235247199E+02  0.10566000000E+00 0.  1.
         22    1    1    0    0    0 -0.20235733455E+02 -0.35220018267E+02  0.46651048325E+01  0.40886401141E+02  0.00000000000E+00 0.  1.
</event>
<event>
 5    1  0.1680526E-003  0.9118800E+02  0.7818608E-02  0.1130116E+00
         25   -1    0    0    0    0  0.00000000000E+00  0.00000000000E+00  0.99999998245E-14  0.12500000000E+03  0.12500000000E+03 0.  0.
        -13    1    3    3    0    0 -0.44718781088E+02  0.30734937368E+02  0.27354123997E+02  0.60767302233E+02  0.10566000000E+00 0. -1.
         23    2    1    0    0    0 -0.12683085437E+02  0.18709213574E+02  0.17611475663E+02  0.96345865851E+02  0.91986229745E+02 0.  0.
         13    1    3    3    0    0  0.32035695650E+02 -0.12025723794E+02 -0.97426483338E+01  0.35578563618E+02  0.10566000000E+00 0.  1.
         22    1    1    0    0    0  0.12683085437E+02 -0.18709213574E+02 -0.17611475663E+02  0.28654134149E+02  0.00000000000E+00 0. -1.
</event>
<event>
 5    1  0.1680526E-003  0.9118800E+02  0.7818608E-02  0.1130116E+00
         25   -1    0    0    0    0  0.00000000000E+00  0.00000000000E+00  0.99999998245E-14  0.12500000000E+03  0.12500000000E+03 0.  0.
        -13    1    3    3    0    0  0.12700125855E+02 -0.18122752608E+02  0.45789624885E+02  0.50856939251E+02  0.10566000000E+00 0. -1.
         23    2    1    0    0    0 -0.10875696380E+02  0.14460783180E+02  0.14446956919E+02  0.10184595962E+03  0.99179079970E+02 0.  0.
         13    1    3    3    0    0 -0.23575822235E+02  0.32583535788E+02 -0.31342667966E+02  0.50989020364E+02  0.10566000000E+00 0.  1.
         22    1    1    0    0    0  0.10875696380E+02 -0.14460783180E+02 -0.14446956919E+02  0.23154040385E+02  0.00000000000E+00 0.  1.
</event>
<event>
 4    1  0.1680526E-003  0.9118800E+02  0.7818608E-02  0.1130116E+00
         25   -1    0    0    0    0  0.00000000000E+00  0.00000000000E+00  0.99999998245E-14  0.12500000000E+03  0.12500000000E+03 0.  0.
        -13    1    1    0    0    0  0.58049797101E+01 -0.17824438846E+02 -0.23696197728E+02  0.30214720923E+02  0.10566000000E+00 0.  1.
         13    1    1    0    0    0 -0.22281359858E+02 -0.61206454113E+01 -0.27496556510E+02  0.35916473676E+02  0.10566000000E+00 0. -1.
         22    1    1    0    0    0  0.16476380148E+02  0.23945084258E+02  0.51192754238E+02  0.58868805401E+02  0.00000000000E+00 0.  1.
</event>
<event>
 5    1  0.1680526E-003  0.9118800E+02  0.7818608E-02  0.1130116E+00
         25   -1    0    0    0    0  0.00000000000E+00  0.00000000000E+00  0.99999998245E-14  0.12500000000E+03  0.12500000000E+03 0.  0.
        -13    1    3    3    0    0  0.16545926504E+02 -0.16332781995E+02  0.53652398651E+02  0.58473228889E+02  0.10566000000E+00 0.  1.
         23    2    1    0    0    0 -0.36113917873E+01 -0.18500959770E+02  0.22423094006E+02  0.95706266748E+02  0.91112933697E+02 0.  0.
         13    1    3    3    0    0 -0.20157318291E+02 -0.21681777747E+01 -0.31229304645E+02  0.37233037859E+02  0.10566000000E+00 0. -1.
         22    1    1    0    0    0  0.36113917873E+01  0.18500959770E+02 -0.22423094006E+02  0.29293733252E+02  0.00000000000E+00 0.  1.
</event>
<event>
 5    1  0.1680526E-003  0.9118800E+02  0.7818608E-02  0.1130116E+00
         25   -1    0    0    0    0  0.00000000000E+00  0.00000000000E+00  0.99999998245E-14  0.12500000000E+03  0.12500000000E+03 0.  0.
        -13    1    3    3    0    0 -0.80914550318E+01  0.11087216756E+02  0.60577672598E+02  0.62113312594E+02  0.10566000000E+00 0.  1.
         23    2    1    0    0    0  0.49336412780E+00  0.31533086638E+01  0.29686564503E+02  0.95142356495E+02  0.90335979120E+02 0.  0.
         13    1    3    3    0    0  0.85848191596E+01 -0.79339080921E+01 -0.30891108095E+02  0.33029043901E+02  0.10566000000E+00 0. -1.
         22    1    1    0    0    0 -0.49336412780E+00 -0.31533086638E+01 -0.29686564503E+02  0.29857643505E+02  0.00000000000E+00 0.  1.
</event>
<event>
 5    1  0.1680526E-003  0.9118800E+02  0.7818608E-02  0.1130116E+00
         25   -1    0    0    0    0  0.00000000000E+00  0.00000000000E+00  0.99999998245E-14  0.12500000000E+03  0.12500000000E+03 0.  0.
        -13    1    3    3    0    0  0.31580861807E+02 -0.16689355919E+02  0.14740033395E+02  0.38641495597E+02  0.10566000000E+00 0.  1.
         23    2    1    0    0    0 -0.96427608655E+01 -0.47504844786E+01 -0.25408705234E+02  0.97411012314E+02  0.93422444190E+02 0.  0.
         13    1    3    3    0    0 -0.41223622673E+02  0.11938871440E+02 -0.40148738629E+02  0.58769516716E+02  0.10566000000E+00 0. -1.
         22    1    1    0    0    0  0.96427608655E+01  0.47504844786E+01  0.25408705234E+02  0.27588987686E+02  0.00000000000E+00 0. -1.
</event>
<event>
 5    1  0.1680526E-003  0.9118800E+02  0.7818608E-02  0.1130116E+00
         25   -1    0    0    0    0  0.00000000000E+00  0.00000000000E+00  0.99999998245E-14  0.12500000000E+03  0.12500000000E+03 0.  0.
        -13    1    3    3    0    0  0.22823505358E+02  0.17864516582E+01  0.24622739891E+02  0.33621336828E+02  0.10566000000E+00 0.  1.
         23    2    1    0    0    0 -0.11955427919E+02  0.48663437222E+01 -0.26496596570E+02  0.95526568103E+02  0.90866066416E+02 0.  0.
         13    1    3    3    0    0 -0.34778933277E+02  0.30798920640E+01 -0.51119336461E+02  0.61905231275E+02  0.10566000000E+00 0. -1.
         22    1    1    0    0    0  0.11955427919E+02 -0.48663437222E+01  0.26496596570E+02  0.29473431897E+02  0.00000000000E+00 0. -1.
</event>
<event>
 5    1  0.1680526E-003  0.9118800E+02  0.7818608E-02  0.1130116E+00
         25   -1    0    0    0    0  0.00000000000E+00  0.00000000000E+00  0.99999998245E-14  0.12500000000E+03  0.12500000000E+03 0.  0.
        -13    1    3    3    0    0  0.39490784883E+02  0.35171117876E+02  0.18718936981E+02  0.56097588086E+02  0.10566000000E+00 0.  1.
         23    2    1    0    0    0  0.22482094074E+02  0.37891163508E+02  0.82732177642E+00  0.80933354027E+02  0.67884744287E+02 0.  0.
         13    1    3    3    0    0 -0.17008690808E+02  0.27200456318E+01 -0.17891615205E+02  0.24835765942E+02  0.10566000000E+00 0. -1.
         22    1    1    0    0    0 -0.22482094074E+02 -0.37891163508E+02 -0.82732177642E+00  0.44066645973E+02  0.00000000000E+00 0.  1.
</event>
<event>
 5    1  0.1680526E-003  0.9118800E+02  0.7818608E-02  0.1130116E+00
         25   -1    0    0    0    0  0.00000000000E+00  0.00000000000E+00  0.99999998245E-14  0.12500000000E+03  0.12500000000E+03 0.  0.
        -13    1    3    3    0    0  0.12190607226E+02 -0.28016962017E+02 -0.38261150520E+02  0.48964148807E+02  0.10566000000E+00 0. -1.
         23    2    1    0    0    0 -0.18645955041E+02 -0.21321882850E+02 -0.26392014054E+01  0.96552509571E+02  0.92266610389E+02 0.  0.
         13    1    3    3    0    0 -0.30836562267E+02  0.66950791671E+01  0.35621949115E+02  0.47588360765E+02  0.10566000000E+00 0.  1.
         22    1    1    0    0    0  0.18645955041E+02  0.21321882850E+02  0.26392014054E+01  0.28447490429E+02  0.00000000000E+00 0.  1.
</event>
<event>
 5    1  0.1680526E-003  0.9118800E+02  0.7818608E-02  0.1130116E+00
         25   -1    0    0    0    0  0.00000000000E+00  0.00000000000E+00  0.99999998245E-14  0.12500000000E+03  0.12500000000E+03 0.  0.
        -13    1    3    3    0    0 -0.38527691474E+02 -0.35103936608E+01 -0.35655187707E+02  0.52611875545E+02  0.10566000000E+00 0. -1.
         23    2    1    0    0    0 -0.34556000616E+01 -0.80042739679E+01 -0.35986562889E+02  0.87972411879E+02  0.79800394546E+02 0.  0.
         13    1    3    3    0    0  0.35072091412E+02 -0.44938803072E+01 -0.33137518142E+00  0.35360536333E+02  0.10566000000E+00 0.  1.
         22    1    1    0    0    0  0.34556000616E+01  0.80042739679E+01  0.35986562889E+02  0.37027588121E+02  0.00000000000E+00 0. -1.
</event>
<event>
 5    1  0.1680526E-003  0.9118800E+02  0.7818608E-02  0.1130116E+00
         25   -1    0    0    0    0  0.00000000000E+00  0.00000000000E+00  0.99999998245E-14  0.12500000000E+03  0.12500000000E+03 0.  0.
        -13    1    3    3    0    0 -0.22482936930E+02 -0.42591856586E+02  0.18952871503E+02  0.51756846915E+02  0.10566000000E+00 0.  1.
         23    2    1    0    0    0 -0.17796297503E+02 -0.17421373343E+02 -0.16233337120E+02  0.95272341364E+02  0.90515663511E+02 0.  0.
         13    1    3    3    0    0  0.46866394264E+01  0.25170483243E+02 -0.35186208623E+02  0.43515494448E+02  0.10566000000E+00 0. -1.
         22    1    1    0    0    0  0.17796297503E+02  0.17421373343E+02  0.16233337120E+02  0.29727658636E+02  0.00000000000E+00 0. -1.
</event>
<event>
 5    1  0.1680526E-003  0.9118800E+02  0.7818608E-02  0.1130116E+00
         25   -1    0    0    0    0  0.00000000000E+00  0.00000000000E+00  0.99999998245E-14  0.12500000000E+03  0.12500000000E+03 0.  0.
        -13    1    3    3    0    0 -0.30459440752E+02 -0.29521451829E+02 -0.11146358476E+02  0.43858250311E+02  0.10566000000E+00 0. -1.
         23    2    1    0    0    0 -0.19795803676E+01 -0.86978920230E+01  0.27442364097E+02  0.96144230883E+02  0.91711818872E+02 0.  0.
         13    1    3    3    0    0  0.28479860385E+02  0.20823559806E+02  0.38588722573E+02  0.52285980572E+02  0.10566000000E+00 0.  1.
         22    1    1    0    0    0  0.19795803676E+01  0.86978920230E+01 -0.27442364097E+02  0.28855769117E+02  0.00000000000E+00 0. -1.
</event>
<event>
 5    1  0.1680526E-003  0.9118800E+02  0.7818608E-02  0.1130116E+00
         25   -1    0    0    0    0  0.00000000000E+00  0.00000000000E+00  0.99999998245E-14  0.12500000000E+03  0.12500000000E+03 0.  0.
        -13    1    3    3    0    0  0.24314194866E+01  0.46315166210E+02 -0.20968731228E+02  0.50898971258E+02  0.10566000000E+00 0. -1.
         23    2    1    0    0    0  0.34280041289E+01  0.23135781074E+02  0.17477114815E+02  0.95802994666E+02  0.91245540529E+02 0.  0.
         13    1    3    3    0    0  0.99658464238E+00 -0.23179385135E+02  0.38445846043E+02  0.44904023408E+02  0.10566000000E+00 0.  1.
         22    1    1    0    0    0 -0.34280041289E+01 -0.23135781074E+02 -0.17477114815E+02  0.29197005334E+02  0.00000000000E+00 0. -1.
</event>
<event>
 5    1  0.1680526E-003  0.9118800E+02  0.7818608E-02  0.1130116E+00
         25   -1    0    0    0    0  0.00000000000E+00  0.00000000000E+00  0.99999998245E-14  0.12500000000E+03  0.12500000000E+03 0.  0.
        -13    1    3    3    0    0 -0.40841334608E+02 -0.38706425157E+02 -0.20419477643E+02  0.59859570599E+02  0.10566000000E+00 0.  1.
         23    2    1    0    0    0 -0.13445337949E+02 -0.26046247191E+02 -0.11520270356E+01  0.95665527590E+02  0.91057025525E+02 0.  0.
         13    1    3    3    0    0  0.27395996659E+02  0.12660177967E+02  0.19267450608E+02  0.35805956991E+02  0.10566000000E+00 0. -1.
         22    1    1    0    0    0  0.13445337949E+02  0.26046247191E+02  0.11520270356E+01  0.29334472410E+02  0.00000000000E+00 0.  1.
</event>
<event>
 5    1  0.1680526E-003  0.9118800E+02  0.7818608E-02  0.1130116E+00
         25   -1    0    0    0    0  0.00000000000E+00  0.00000000000E+00  0.99999998245E-14  0.12500000000E+03  0.12500000000E+03 0.  0.
        -13    1    3    3    0    0  0.32230827622E+02  0.33689129864E+02 -0.36956845830E+02  0.59494565617E+02  0.10566000000E+00 0.  1.
         23    2    1    0    0    0  0.18869583044E+02  0.37529611450E+01 -0.22701404074E+02  0.95242654209E+02  0.90474656961E+02 0.  0.
         13    1    3    3    0    0 -0.13361244578E+02 -0.29936168719E+02  0.14255441757E+02  0.35748088592E+02  0.10566000000E+00 0. -1.
         22    1    1    0    0    0 -0.18869583044E+02 -0.37529611450E+01  0.22701404074E+02  0.29757345791E+02  0.00000000000E+00 0.  1.
</event>
<event>
 5    1  0.1680526E-003  0.9118800E+02  0.7818608E-02  0.1130116E+00
         25   -1    0    0    0    0  0.00000000000E+00  0.00000000000E+00  0.99999998245E-14  0.12500000000E+03  0.12500000000E+03 0.  0.
        -13    1    3    3    0    0 -0.39280169860E+02 -0.92319485414E+01  0.47205249699E+02  0.62100784063E+02  0.10566000000E+00 0. -1.
         23    2    1    0    0    0 -0.21366620046E+02 -0.48826128877E+00  0.20884963038E+02  0.95117688637E+02  0.90301839180E+02 0.  0.
         13    1    3    3    0    0  0.17913549814E+02  0.87436872526E+01 -0.26320286660E+02  0.33016904574E+02  0.10566000000E+00 0.  1.
         22    1    1    0    0    0  0.21366620046E+02  0.48826128877E+00 -0.20884963038E+02  0.29882311363E+02  0.00000000000E+00 0. -1.
</event>
<event>
 5    1  0.1680526E-003  0.9118800E+02  0.7818608E-02  0.1130116E+00
         25   -1    0    0    0    0  0.00000000000E+00  0.00000000000E+00  0.99999998245E-14  0.12500000000E+03  0.12500000000E+03 0.  0.
        -13    1    3    3    0    0  0.11969498791E+02 -0.35564198799E+02 -0.89495434070E+01  0.38577022031E+02  0.10566000000E+00 0. -1.
         23    2    1    0    0    0  0.61848512088E+01  0.55510261956E+01  0.29003248363E+02  0.94829572561E+02  0.89902130899E+02 0.  0.
         13    1    3    3    0    0 -0.57846475822E+01  0.41115224994E+02  0.37952791770E+02  0.56252550530E+02  0.10566000000E+00 0.  1.
         22    1    1    0    0    0 -0.61848512088E+01 -0.55510261956E+01 -0.29003248363E+02  0.30170427439E+02  0.00000000000E+00 0.  1.
</event>
<event>
 5    1  0.1680526E-003  0.9118800E+02  0.7818608E-02  0.1130116E+00
         25   -1    0    0    0    0  0.00000000000E+00  0.00000000000E+00  0.99999998245E-14  0.12500000000E+03  0.12500000000E+03 0.  0.
        -13    1    3    3    0    0  0.17204660996E+02  0.32744764619E+02  0.10212197849E+02  0.38373429855E+02  0.10566000000E+00 0. -1.
         23    2    1    0    0    0 -0.27196750660E+02 -0.21140277903E+01 -0.59254688719E+01  0.97085065980E+02  0.92985302576E+02 0.  0.
         13    1    3    3    0    0 -0.44401411656E+02 -0.34858792409E+02 -0.16137666721E+02  0.58711636125E+02  0.10566000000E+00 0.  1.
         22    1    1    0    0    0  0.27196750660E+02  0.21140277903E+01  0.59254688719E+01  0.27914934020E+02  0.00000000000E+00 0.  1.
</event>
<event>
 5    1  0.1680526E-003  0.9118800E+02  0.7818608E-02  0.1130116E+00
         25   -1    0    0    0    0  0.00000000000E+00  0.00000000000E+00  0.99999998245E-14  0.12500000000E+03  0.12500000000E+03 0.  0.
        -13    1    3    3    0    0 -0.24731226580E+02  0.18649869004E+02  0.14639201950E+02  0.34260306183E+02  0.10566000000E+00 0.  1.
         23    2    1    0    0    0  0.18975936867E+02 -0.91420517671E+01 -0.19501558033E+02  0.96295051713E+02  0.91917152524E+02 0.  0.
         13    1    3    3    0    0  0.43707163447E+02 -0.27791920771E+02 -0.34140759983E+02  0.62034745529E+02  0.10566000000E+00 0. -1.
         22    1    1    0    0    0 -0.18975936867E+02  0.91420517671E+01  0.19501558033E+02  0.28704948287E+02  0.00000000000E+00 0. -1.
</event>
<event>
 5    1  0.1680526E-003  0.9118800E+02  0.7818608E-02  0.1130116E+00
         25   -1    0    0    0    0  0.00000000000E+00  0.00000000000E+00  0.99999998245E-14  0.12500000000E+03  0.12500000000E+03 0.  0.
        -13    1    3    3    0    0 -0.24381186030E+02  0.36520832200E+02  0.39033743271E+02  0.58752512241E+02  0.10566000000E+00 0.  1.
         23    2    1    0    0    0 -0.17864998457E+02  0.23778350382E+02  0.61315237933E+01  0.94632851619E+02  0.89628192578E+02 0.  0.
         13    1    3    3    0    0  0.65161875737E+01 -0.12742481818E+02 -0.32902219477E+02  0.35880339379E+02  0.10566000000E+00 0. -1.
         22    1    1    0    0    0  0.17864998457E+02 -0.23778350382E+02 -0.61315237933E+01  0.30367148381E+02  0.00000000000E+00 0.  1.
</event>
<event>
 5    1  0.1680526E-003  0.9118800E+02  0.7818608E-02  0.1130116E+00
         25   -1    0    0    0    0  0.00000000000E+00  0.00000000000E+00  0.99999998245E-14  0.12500000000E+03  0.12500000000E+03 0.  0.
        -13    1    3    3    0    0  0.32348994163E+02  0.18802575539E+02  0.39488548706E+02  0.54399916481E+02  0.10566000000E+00 0.  1.
         23    2    1    0    0    0  0.27784310567E+02 -0.90257213293E+01  0.13238743987E+02  0.92926710466E+02  0.87216269219E+02 0.  0.
         13    1    3    3    0    0 -0.45646835960E+01 -0.27828296868E+02 -0.26249804719E+02  0.38526793985E+02  0.10566000000E+00 0. -1.
         22    1    1    0    0    0 -0.27784310567E+02  0.90257213293E+01 -0.13238743987E+02  0.32073289534E+02  0.00000000000E+00 0.  1.
</event>
<event>
 5    1  0.1680526E-003  0.9118800E+02  0.7818608E-02  0.1130116E+00
         25   -1    0    0    0    0  0.00000000000E+00  0.00000000000E+00  0.99999998245E-14  0.12500000000E+03  0.12500000000E+03 0.  0.
        -13    1    3    3    0    0 -0.19786768834E+02  0.48224835788E+02 -0.14827184799E+02  0.54194165560E+02  0.10566000000E+00 0.  1.
         23    2    1    0    0    0 -0.37434701008E+01  0.12253965226E+02 -0.26744861440E+02  0.95344294890E+02  0.90614975155E+02 0.  0.
         13    1    3    3    0    0  0.16043298733E+02 -0.35970870562E+02 -0.11917676641E+02  0.41150129329E+02  0.10566000000E+00 0. -1.
         22    1    1    0    0    0  0.37434701008E+01 -0.12253965226E+02  0.26744861440E+02  0.29655705110E+02  0.00000000000E+00 0.  1.
</event>
<event>
 5    1  0.1680526E-003  0.9118800E+02  0.7818608E-02  0.1130116E+00
         25   -1    0    0    0    0  0.00000000000E+00  0.00000000000E+00  0.99999998245E-14  0.12500000000E+03  0.12500000000E+03 0.  0.
        -13    1    3    3    0    0 -0.86683914330E+01 -0.37634539307E+02 -0.50309285249E+01  0.38946385773E+02  0.10566000000E+00 0. -1.
         23    2    1    0    0    0 -0.26911796984E+02  0.94846979993E+01  0.14346219318E+02  0.93062274318E+02  0.87410345952E+02 0.  0.
         13    1    3    3    0    0 -0.18243405551E+02  0.47119237307E+02  0.19377147843E+02  0.54115888545E+02  0.10566000000E+00 0.  1.
         22    1    1    0    0    0  0.26911796984E+02 -0.94846979993E+01 -0.14346219318E+02  0.31937725682E+02  0.00000000000E+00 0.  1.
</event>
<event>
 5    1  0.1680526E-003  0.9118800E+02  0.7818608E-02  0.1130116E+00
         25   -1    0    0    0    0  0.00000000000E+00  0.00000000000E+00  0.99999998245E-14  0.12500000000E+03  0.12500000000E+03 0.  0.
        -13    1    3    3    0    0 -0.27462722981E+02  0.19027189372E+02 -0.56133462931E+01  0.33878546450E+02  0.10566000000E+00 0.  1.
         23    2    1    0    0    0  0.27588171735E+02 -0.89361620784E+01  0.10406657294E+01  0.95981984948E+02  0.91490416094E+02 0.  0.
         13    1    3    3    0    0  0.55050894716E+02 -0.27963351451E+02  0.66540120224E+01  0.62103438499E+02  0.10566000000E+00 0. -1.
         22    1    1    0    0    0 -0.27588171735E+02  0.89361620784E+01 -0.10406657294E+01  0.29018015052E+02  0.00000000000E+00 0. -1.
</event>
<event>
 5    1  0.1680526E-003  0.9118800E+02  0.7818608E-02  0.1130116E+00
         25   -1    0    0    0    0  0.00000000000E+00  0.00000000000E+00  0.99999998245E-14  0.12500000000E+03  0.12500000000E+03 0.  0.
        -13    1    3    3    0    0 -0.18130402631E+02 -0.19132407002E+02  0.30114957961E+02  0.40021023904E+02  0.10566000000E+00 0. -1.
         23    2    1    0    0    0  0.11093002892E+02  0.24210890247E+02  0.14989377642E+02  0.94440167510E+02  0.89359061530E+02 0.  0.
         13    1    3    3    0    0  0.29223405523E+02  0.43343297250E+02 -0.15125580319E+02  0.54419143606E+02  0.10566000000E+00 0.  1.
         22    1    1    0    0    0 -0.11093002892E+02 -0.24210890247E+02 -0.14989377642E+02  0.30559832490E+02  0.00000000000E+00 0.  1.
</event>
<event>
 5    1  0.1680526E-003  0.9118800E+02  0.7818608E-02  0.1130116E+00
         25   -1    0    0    0    0  0.00000000000E+00  0.00000000000E+00  0.99999998245E-14  0.12500000000E+03  0.12500000000E+03 0.  0.
        -13    1    3    3    0    0  0.35613300385E+00 -0.49325612603E+02 -0.10198111088E+02  0.50370184864E+02  0.10566000000E+00 0. -1.
         23    2    1    0    0    0 -0.22222451011E+02 -0.91472745284E+01 -0.14942613490E+02  0.96701737542E+02  0.92468558903E+02 0.  0.
         13    1    3    3    0    0 -0.22578584015E+02  0.40178338075E+02 -0.47445024020E+01  0.46331552679E+02  0.10566000000E+00 0.  1.
         22    1    1    0    0    0  0.22222451011E+02  0.91472745284E+01  0.14942613490E+02  0.28298262458E+02  0.00000000000E+00 0. -1.
</event>
<event>
 5    1  0.1680526E-003  0.9118800E+02  0.7818608E-02  0.1130116E+00
         25   -1    0    0    0    0  0.00000000000E+00  0.00000000000E+00  0.99999998245E-14  0.12500000000E+03  0.12500000000E+03 0.  0.
        -13    1    3    3    0    0 -0.14722665591E+02  0.30791642936E+02 -0.14825244416E+02  0.37211304638E+02  0.10566000000E+00 0.  1.
         23    2    1    0    0    0  0.29469951825E+02  0.29071828725E+02 -0.13502581614E+02  0.81457273899E+02  0.68842708219E+02 0.  0.
         13    1    3    3    0    0  0.44192617416E+02 -0.17198142106E+01  0.13226628023E+01  0.44245969262E+02  0.10566000000E+00 0. -1.
         22    1    1    0    0    0 -0.29469951825E+02 -0.29071828725E+02  0.13502581614E+02  0.43542726101E+02  0.00000000000E+00 0.  1.
</event>
<event>
 5    1  0.1680526E-003  0.9118800E+02  0.7818608E-02  0.1130116E+00
         25   -1    0    0    0    0  0.00000000000E+00  0.00000000000E+00  0.99999998245E-14  0.12500000000E+03  0.12500000000E+03 0.  0.
        -13    1    3    3    0    0 -0.19467478766E+02  0.12767618866E+02 -0.26205030670E+02  0.35052954476E+02  0.10566000000E+00 0. -1.
         23    2    1    0    0    0 -0.23027445940E+01 -0.20479269340E+02  0.21192555352E+02  0.95439426465E+02  0.90746110750E+02 0.  0.
         13    1    3    3    0    0  0.17164734172E+02 -0.33246888206E+02  0.47397586022E+02  0.60386471989E+02  0.10566000000E+00 0.  1.
         22    1    1    0    0    0  0.23027445940E+01  0.20479269340E+02 -0.21192555352E+02  0.29560573535E+02  0.00000000000E+00 0.  1.
</event>
<event>
 5    1  0.1680526E-003  0.9118800E+02  0.7818608E-02  0.1130116E+00
         25   -1    0    0    0    0  0.00000000000E+00  0.00000000000E+00  0.99999998245E-14  0.12500000000E+03  0.12500000000E+03 0.  0.
        -13    1    3    3    0    0  0.49325939320E+01  0.23594709945E+02 -0.29176602970E+02  0.37846084939E+02  0.10566000000E+00 0. -1.
         23    2    1    0    0    0 -0.30992715400E+01  0.15329470588E+02  0.26242287926E+02  0.94450763869E+02  0.89373883027E+02 0.  0.
         13    1    3    3    0    0 -0.80318654720E+01 -0.82652393574E+01  0.55418890896E+02  0.56604678930E+02  0.10566000000E+00 0.  1.
         22    1    1    0    0    0  0.30992715400E+01 -0.15329470588E+02 -0.26242287926E+02  0.30549236131E+02  0.00000000000E+00 0.  1.
</event>
<event>
 5    1  0.1680526E-003  0.9118800E+02  0.7818608E-02  0.1130116E+00
         25   -1    0    0    0    0  0.00000000000E+00  0.00000000000E+00  0.99999998245E-14  0.12500000000E+03  0.12500000000E+03 0.  0.
        -13    1    3    3    0    0  0.20557643769E+02  0.40333215152E+01  0.33335021701E+02  0.39371553635E+02  0.10566000000E+00 0.  1.
         23    2    1    0    0    0 -0.18310747665E+01  0.30865322925E+02 -0.75656299045E+01  0.93168258767E+02  0.87561776431E+02 0.  0.
         13    1    3    3    0    0 -0.22388718535E+02  0.26832001410E+02 -0.40900651605E+02  0.53796705132E+02  0.10566000000E+00 0. -1.
         22    1    1    0    0    0  0.18310747665E+01 -0.30865322925E+02  0.75656299045E+01  0.31831741233E+02  0.00000000000E+00 0. -1.
</event>
<event>
 5    1  0.1680526E-003  0.9118800E+02  0.7818608E-02  0.1130116E+00
         25   -1    0    0    0    0  0.00000000000E+00  0.00000000000E+00  0.99999998245E-14  0.12500000000E+03  0.12500000000E+03 0.  0.
        -13    1    3    3    0    0  0.19616312520E+02 -0.22420861866E+02  0.34194279309E+02  0.45351457146E+02  0.10566000000E+00 0.  1.
         23    2    1    0    0    0 -0.23558127680E+02 -0.15456743431E+02  0.14450268863E+02  0.93334457726E+02  0.87798715432E+02 0.  0.
         13    1    3    3    0    0 -0.43174440200E+02  0.69641184357E+01 -0.19744010446E+02  0.47983000580E+02  0.10566000000E+00 0. -1.
         22    1    1    0    0    0  0.23558127680E+02  0.15456743431E+02 -0.14450268863E+02  0.31665542274E+02  0.00000000000E+00 0.  1.
</event>
<event>
 5    1  0.1680526E-003  0.9118800E+02  0.7818608E-02  0.1130116E+00
         25   -1    0    0    0    0  0.00000000000E+00  0.00000000000E+00  0.99999998245E-14  0.12500000000E+03  0.12500000000E+03 0.  0.
        -13    1    3    3    0    0  0.97028829337E+00 -0.52891206840E+02  0.19583451743E+02  0.56408722433E+02  0.10566000000E+00 0.  1.
         23    2    1    0    0    0  0.20542560152E+01 -0.27674925957E+02 -0.10186746008E+02  0.95438347666E+02  0.90744624725E+02 0.  0.
         13    1    3    3    0    0  0.10839677218E+01  0.25216280883E+02 -0.29770197752E+02  0.39029625232E+02  0.10566000000E+00 0. -1.
         22    1    1    0    0    0 -0.20542560152E+01  0.27674925957E+02  0.10186746008E+02  0.29561652334E+02  0.00000000000E+00 0.  1.
</event>
<event>
 5    1  0.1680526E-003  0.9118800E+02  0.7818608E-02  0.1130116E+00
         25   -1    0    0    0    0  0.00000000000E+00  0.00000000000E+00  0.99999998245E-14  0.12500000000E+03  0.12500000000E+03 0.  0.
        -13    1    3    3    0    0 -0.37428255713E+02 -0.17823676934E+02  0.42069658106E+01  0.41668543418E+02  0.10566000000E+00 0. -1.
         23    2    1    0    0    0 -0.66833921867E+01  0.87310951410E+01 -0.28902244385E+02  0.94076877842E+02  0.88849420147E+02 0.  0.
         13    1    3    3    0    0  0.30744863527E+02  0.26554772075E+02 -0.33109210196E+02  0.52408334424E+02  0.10566000000E+00 0.  1.
         22    1    1    0    0    0  0.66833921867E+01 -0.87310951410E+01  0.28902244385E+02  0.30923122158E+02  0.00000000000E+00 0.  1.
</event>
<event>
 5    1  0.1680526E-003  0.9118800E+02  0.7818608E-02  0.1130116E+00
         25   -1    0    0    0    0  0.00000000000E+00  0.00000000000E+00  0.99999998245E-14  0.12500000000E+03  0.12500000000E+03 0.  0.
        -13    1    3    3    0    0  0.30316508137E+02  0.27354083766E+02  0.96066891156E+01  0.41948017880E+02  0.10566000000E+00 0.  1.
         23    2    1    0    0    0  0.86587860051E+01 -0.13984120494E+02 -0.21423541434E+02  0.97990773268E+02  0.94194975009E+02 0.  0.
         13    1    3    3    0    0 -0.21657722132E+02 -0.41338204260E+02 -0.31030230550E+02  0.56042755387E+02  0.10566000000E+00 0. -1.
         22    1    1    0    0    0 -0.86587860051E+01  0.13984120494E+02  0.21423541434E+02  0.27009226732E+02  0.00000000000E+00 0. -1.
</event>
<event>
 5    1  0.1680526E-003  0.9118800E+02  0.7818608E-02  0.1130116E+00
         25   -1    0    0    0    0  0.00000000000E+00  0.00000000000E+00  0.99999998245E-14  0.12500000000E+03  0.12500000000E+03 0.  0.
        -13    1    3    3    0    0  0.46672576418E+01 -0.14057257123E+02  0.35849168512E+02  0.38788707362E+02  0.10566000000E+00 0.  1.
         23    2    1    0    0    0 -0.16910467454E+02  0.26263596265E+02  0.66014990719E+01  0.93073205794E+02  0.87425976966E+02 0.  0.
         13    1    3    3    0    0 -0.21577725096E+02  0.40320853388E+02 -0.29247669441E+02  0.54284498432E+02  0.10566000000E+00 0. -1.
         22    1    1    0    0    0  0.16910467454E+02 -0.26263596265E+02 -0.66014990719E+01  0.31926794206E+02  0.00000000000E+00 0. -1.
</event>
<event>
 5    1  0.1680526E-003  0.9118800E+02  0.7818608E-02  0.1130116E+00
         25   -1    0    0    0    0  0.00000000000E+00  0.00000000000E+00  0.99999998245E-14  0.12500000000E+03  0.12500000000E+03 0.  0.
        -13    1    3    3    0    0  0.13664278005E+02  0.28979198192E+02 -0.48155777220E+02  0.57840266813E+02  0.10566000000E+00 0.  1.
         23    2    1    0    0    0  0.18870226266E+02  0.19849997860E+02 -0.12719096431E+02  0.94802595006E+02  0.89864613455E+02 0.  0.
         13    1    3    3    0    0  0.52059482609E+01 -0.91292003321E+01  0.35436680790E+02  0.36962328193E+02  0.10566000000E+00 0. -1.
         22    1    1    0    0    0 -0.18870226266E+02 -0.19849997860E+02  0.12719096431E+02  0.30197404994E+02  0.00000000000E+00 0.  1.
</event>
<event>
 5    1  0.1680526E-003  0.9118800E+02  0.7818608E-02  0.1130116E+00
         25   -1    0    0    0    0  0.00000000000E+00  0.00000000000E+00  0.99999998245E-14  0.12500000000E+03  0.12500000000E+03 0.  0.
        -13    1    3    3    0    0  0.37705832869E+02  0.19724991829E+01 -0.15305620886E+02  0.40741794022E+02  0.10566000000E+00 0.  1.
         23    2    1    0    0    0 -0.16390125779E+02  0.14418835388E+02  0.90617885013E+01  0.10136411525E+03  0.98569918398E+02 0.  0.
         13    1    3    3    0    0 -0.54095958648E+02  0.12446336205E+02  0.24367409387E+02  0.60622321230E+02  0.10566000000E+00 0. -1.
         22    1    1    0    0    0  0.16390125779E+02 -0.14418835388E+02 -0.90617885013E+01  0.23635884748E+02  0.00000000000E+00 0. -1.
</event>
<event>
 5    1  0.1680526E-003  0.9118800E+02  0.7818608E-02  0.1130116E+00
         25   -1    0    0    0    0  0.00000000000E+00  0.00000000000E+00  0.99999998245E-14  0.12500000000E+03  0.12500000000E+03 0.  0.
        -13    1    3    3    0    0  0.14516927806E+02 -0.37358040717E+02  0.15781541751E+02  0.43074733003E+02  0.10566000000E+00 0. -1.
         23    2    1    0    0    0 -0.24706370194E+02 -0.82127110801E+01 -0.84610020779E+01  0.97624063347E+02  0.93707074636E+02 0.  0.
         13    1    3    3    0    0 -0.39223298000E+02  0.29145329637E+02 -0.24242543829E+02  0.54549330345E+02  0.10566000000E+00 0.  1.
         22    1    1    0    0    0  0.24706370194E+02  0.82127110801E+01  0.84610020779E+01  0.27375936653E+02  0.00000000000E+00 0. -1.
</event>
<event>
 5    1  0.1680526E-003  0.9118800E+02  0.7818608E-02  0.1130116E+00
         25   -1    0    0    0    0  0.00000000000E+00  0.00000000000E+00  0.99999998245E-14  0.12500000000E+03  0.12500000000E+03 0.  0.
        -13    1    3    3    0    0 -0.47640592108E+02  0.11535368118E+02  0.14690988987E+02  0.51171545369E+02  0.10566000000E+00 0.  1.
         23    2    1    0    0    0 -0.25410024070E+02 -0.19688908298E+02  0.15057094006E+02  0.89502978813E+02  0.82162915621E+02 0.  0.
         13    1    3    3    0    0  0.22230568038E+02 -0.31224276416E+02  0.36610501887E+00  0.38331433444E+02  0.10566000000E+00 0. -1.
         22    1    1    0    0    0  0.25410024070E+02  0.19688908298E+02 -0.15057094006E+02  0.35497021187E+02  0.00000000000E+00 0.  1.
</event>
<event>
 5    1  0.1680526E-003  0.9118800E+02  0.7818608E-02  0.1130116E+00
         25   -1    0    0    0    0  0.00000000000E+00  0.00000000000E+00  0.99999998245E-14  0.12500000000E+03  0.12500000000E+03 0.  0.
        -13    1    3    3    0    0  0.25081960220E+02 -0.10055555509E+02 -0.21099553103E+02  0.34284416727E+02  0.10566000000E+00 0.  1.
         23    2    1    0    0    0 -0.37157513002E+01  0.54412049105E+01  0.29632707950E+02  0.94643602008E+02  0.89643184359E+02 0.  0.
         13    1    3    3    0    0 -0.28797711521E+02  0.15496760420E+02  0.50732261053E+02  0.60359185282E+02  0.10566000000E+00 0. -1.
         22    1    1    0    0    0  0.37157513002E+01 -0.54412049105E+01 -0.29632707950E+02  0.30356397992E+02  0.00000000000E+00 0. -1.
</event>
<event>
 5    1  0.1680526E-003  0.9118800E+02  0.7818608E-02  0.1130116E+00
         25   -1    0    0    0    0  0.00000000000E+00  0.00000000000E+00  0.99999998245E-14  0.12500000000E+03  0.12500000000E+03 0.  0.
        -13    1    3    3    0    0  0.41629852371E+02  0.11094350352E+02  0.24085055318E+02  0.49358183434E+02  0.10566000000E+00 0.  1.
         23    2    1    0    0    0 -0.35465908272E+01  0.22278231925E+02  0.17682792228E+02  0.96336799461E+02  0.91973908611E+02 0.  0.
         13    1    3    3    0    0 -0.45176443198E+02  0.11183881573E+02 -0.64022630908E+01  0.46978616027E+02  0.10566000000E+00 0. -1.
         22    1    1    0    0    0  0.35465908272E+01 -0.22278231925E+02 -0.17682792228E+02  0.28663200539E+02  0.00000000000E+00 0.  1.
</event>
<event>
 5    1  0.1680526E-003  0.9118800E+02  0.7818608E-02  0.1130116E+00
         25   -1    0    0    0    0  0.00000000000E+00  0.00000000000E+00  0.99999998245E-14  0.12500000000E+03  0.12500000000E+03 0.  0.
        -13    1    3    3    0    0 -0.10591512637E+02  0.42613110499E+02 -0.44339543613E+01  0.44133076504E+02  0.10566000000E+00 0.  1.
         23    2    1    0    0    0  0.16078607173E+02  0.87331657702E+01  0.23280430751E+02  0.95389727308E+02  0.90677625834E+02 0.  0.
         13    1    3    3    0    0  0.26670119809E+02 -0.33879944729E+02  0.27714385112E+02  0.51256650804E+02  0.10566000000E+00 0. -1.
         22    1    1    0    0    0 -0.16078607173E+02 -0.87331657702E+01 -0.23280430751E+02  0.29610272692E+02  0.00000000000E+00 0. -1.
</event>
<event>
 5    1  0.1680526E-003  0.9118800E+02  0.7818608E-02  0.1130116E+00
         25   -1    0    0    0    0  0.00000000000E+00  0.00000000000E+00  0.99999998245E-14  0.12500000000E+03  0.12500000000E+03 0.  0.
        -13    1    3    3    0    0  0.46786795270E+02  0.80866659052E+01  0.59440040989E+01  0.47851235364E+02  0.10566000000E+00 0.  1.
         23    2    1    0    0    0  0.79582581860E+01  0.98740460431E+01 -0.24624851084E+02  0.97301372786E+02  0.93275630239E+02 0.  0.
         13    1    3    3    0    0 -0.38828537084E+02  0.17873801379E+01 -0.30568855183E+02  0.49450137422E+02  0.10566000000E+00 0. -1.
         22    1    1    0    0    0 -0.79582581860E+01 -0.98740460431E+01  0.24624851084E+02  0.27698627214E+02  0.00000000000E+00 0. -1.
</event>
<event>
 5    1  0.1680526E-003  0.9118800E+02  0.7818608E-02  0.1130116E+00
         25   -1    0    0    0    0  0.00000000000E+00  0.00000000000E+00  0.99999998245E-14  0.12500000000E+03  0.12500000000E+03 0.  0.
        -13    1    3    3    0    0  0.19423136509E+02  0.50698981373E+02  0.24487983135E+02  0.59559360525E+02  0.10566000000E+00 0. -1.
         23    2    1    0    0    0 -0.45824674284E-01  0.29612949642E+02  0.33606512773E+01  0.95196931980E+02  0.90411464953E+02 0.  0.
         13    1    3    3    0    0 -0.19468961183E+02 -0.21086031731E+02 -0.21127331858E+02  0.35637571455E+02  0.10566000000E+00 0.  1.
         22    1    1    0    0    0  0.45824674284E-01 -0.29612949642E+02 -0.33606512773E+01  0.29803068020E+02  0.00000000000E+00 0. -1.
</event>
<event>
 5    1  0.1680526E-003  0.9118800E+02  0.7818608E-02  0.1130116E+00
         25   -1    0    0    0    0  0.00000000000E+00  0.00000000000E+00  0.99999998245E-14  0.12500000000E+03  0.12500000000E+03 0.  0.
        -13    1    3    3    0    0  0.15961965550E+02 -0.31100359737E+01  0.38811208535E+02  0.42080610024E+02  0.10566000000E+00 0.  1.
         23    2    1    0    0    0 -0.22317472429E+02 -0.17889571746E+02  0.35602967347E+01  0.96176709665E+02  0.91756075637E+02 0.  0.
         13    1    3    3    0    0 -0.38279437979E+02 -0.14779535772E+02 -0.35250911800E+02  0.54096099642E+02  0.10566000000E+00 0. -1.
         22    1    1    0    0    0  0.22317472429E+02  0.17889571746E+02 -0.35602967347E+01  0.28823290335E+02  0.00000000000E+00 0. -1.
</event>
<event>
 5    1  0.1680526E-003  0.9118800E+02  0.7818608E-02  0.1130116E+00
         25   -1    0    0    0    0  0.00000000000E+00  0.00000000000E+00  0.99999998245E-14  0.12500000000E+03  0.12500000000E+03 0.  0.
        -13    1    3    3    0    0 -0.34191273955E+02 -0.14387174779E+02 -0.58382077145E+00  0.37099676865E+02  0.10566000000E+00 0. -1.
         23    2    1    0    0    0  0.25941082591E+02 -0.89569649884E+01 -0.18918610757E+01  0.97490981004E+02  0.93529381752E+02 0.  0.
         13    1    3    3    0    0  0.60132356546E+02  0.54302097910E+01 -0.13080403043E+01  0.60391304139E+02  0.10566000000E+00 0.  1.
         22    1    1    0    0    0 -0.25941082591E+02  0.89569649884E+01  0.18918610757E+01  0.27509018996E+02  0.00000000000E+00 0.  1.
</event>
<event>
 5    1  0.1680526E-003  0.9118800E+02  0.7818608E-02  0.1130116E+00
         25   -1    0    0    0    0  0.00000000000E+00  0.00000000000E+00  0.99999998245E-14  0.12500000000E+03  0.12500000000E+03 0.  0.
        -13    1    3    3    0    0  0.20198216479E+02 -0.41510397535E+02  0.65432348578E+01  0.46625166369E+02  0.10566000000E+00 0.  1.
         23    2    1    0    0    0  0.11875763395E+02  0.22972890427E+01  0.26796080952E+02  0.95600318922E+02  0.90967465230E+02 0.  0.
         13    1    3    3    0    0 -0.83224530846E+01  0.43807686578E+02  0.20252846094E+02  0.48975152553E+02  0.10566000000E+00 0. -1.
         22    1    1    0    0    0 -0.11875763395E+02 -0.22972890427E+01 -0.26796080952E+02  0.29399681078E+02  0.00000000000E+00 0. -1.
</event>
<event>
 5    1  0.1680526E-003  0.9118800E+02  0.7818608E-02  0.1130116E+00
         25   -1    0    0    0    0  0.00000000000E+00  0.00000000000E+00  0.99999998245E-14  0.12500000000E+03  0.12500000000E+03 0.  0.
        -13    1    3    3    0    0 -0.48121227864E+00 -0.29711464086E+02  0.18320695108E+02  0.34909335380E+02  0.10566000000E+00 0.  1.
         23    2    1    0    0    0  0.11722626283E+01  0.21240272566E+02 -0.17697420067E+02  0.97328316723E+02  0.93311731207E+02 0.  0.
         13    1    3    3    0    0  0.16534749069E+01  0.50951736652E+02 -0.36018115175E+02  0.62418981343E+02  0.10566000000E+00 0. -1.
         22    1    1    0    0    0 -0.11722626283E+01 -0.21240272566E+02  0.17697420067E+02  0.27671683277E+02  0.00000000000E+00 0. -1.
</event>
<event>
 5    1  0.1680526E-003  0.9118800E+02  0.7818608E-02  0.1130116E+00
         25   -1    0    0    0    0  0.00000000000E+00  0.00000000000E+00  0.99999998245E-14  0.12500000000E+03  0.12500000000E+03 0.  0.
        -13    1    3    3    0    0  0.46029152294E+02  0.93201635247E+01 -0.37336528148E+02  0.59996464957E+02  0.10566000000E+00 0. -1.
         23    2    1    0    0    0  0.25105932396E+02 -0.36815986776E+01 -0.78076760452E+01  0.98451519525E+02  0.94804429650E+02 0.  0.
         13    1    3    3    0    0 -0.20923219898E+02 -0.13001762202E+02  0.29528852103E+02  0.38455054568E+02  0.10566000000E+00 0.  1.
         22    1    1    0    0    0 -0.25105932396E+02  0.36815986776E+01  0.78076760452E+01  0.26548480475E+02  0.00000000000E+00 0. -1.
</event>
<event>
 5    1  0.1680526E-003  0.9118800E+02  0.7818608E-02  0.1130116E+00
         25   -1    0    0    0    0  0.00000000000E+00  0.00000000000E+00  0.99999998245E-14  0.12500000000E+03  0.12500000000E+03 0.  0.
        -13    1    3    3    0    0  0.33598640180E+02 -0.35957605528E+02  0.37002493858E+02  0.61571208637E+02  0.10566000000E+00 0.  1.
         23    2    1    0    0    0  0.88421437518E+01 -0.16174394581E+02  0.20948882305E+02  0.97095695386E+02  0.92999590571E+02 0.  0.
         13    1    3    3    0    0 -0.24756496428E+02  0.19783210947E+02 -0.16053611554E+02  0.35524486748E+02  0.10566000000E+00 0. -1.
         22    1    1    0    0    0 -0.88421437518E+01  0.16174394581E+02 -0.20948882305E+02  0.27904304614E+02  0.00000000000E+00 0.  1.
</event>
<event>
 5    1  0.1680526E-003  0.9118800E+02  0.7818608E-02  0.1130116E+00
         25   -1    0    0    0    0  0.00000000000E+00  0.00000000000E+00  0.99999998245E-14  0.12500000000E+03  0.12500000000E+03 0.  0.
        -13    1    3    3    0    0 -0.73956060309E+01  0.18301542480E+02  0.48092051892E+02  0.51985556310E+02  0.10566000000E+00 0.  1.
         23    2    1    0    0    0  0.15724333137E+02 -0.96284837378E+01  0.19524390325E+02  0.98145500018E+02  0.94400079473E+02 0.  0.
         13    1    3    3    0    0  0.23119939168E+02 -0.27930026218E+02 -0.28567661567E+02  0.46159943708E+02  0.10566000000E+00 0. -1.
         22    1    1    0    0    0 -0.15724333137E+02  0.96284837378E+01 -0.19524390325E+02  0.26854499982E+02  0.00000000000E+00 0.  1.
</event>
<event>
 5    1  0.1680526E-003  0.9118800E+02  0.7818608E-02  0.1130116E+00
         25   -1    0    0    0    0  0.00000000000E+00  0.00000000000E+00  0.99999998245E-14  0.12500000000E+03  0.12500000000E+03 0.  0.
        -13    1    3    3    0    0  0.44302843520E+02 -0.39358484939E+02 -0.50411766476E+01  0.59474842637E+02  0.10566000000E+00 0.  1.
         23    2    1    0    0    0  0.98462405203E+01 -0.26897662206E+02 -0.34461368431E+01  0.96150241878E+02  0.91720011282E+02 0.  0.
         13    1    3    3    0    0 -0.34456603000E+02  0.12460822733E+02  0.15950398045E+01  0.36675399241E+02  0.10566000000E+00 0. -1.
         22    1    1    0    0    0 -0.98462405203E+01  0.26897662206E+02  0.34461368431E+01  0.28849758122E+02  0.00000000000E+00 0.  1.
</event>
<event>
 5    1  0.1680526E-003  0.9118800E+02  0.7818608E-02  0.1130116E+00
         25   -1    0    0    0    0  0.00000000000E+00  0.00000000000E+00  0.99999998245E-14  0.12500000000E+03  0.12500000000E+03 0.  0.
        -13    1    3    3    0    0  0.21037642800E+02  0.25646916878E+02 -0.30423451486E+00  0.33173038489E+02  0.10566000000E+00 0. -1.
         23    2    1    0    0    0 -0.14544832341E+02 -0.25533416552E+02  0.19685258277E+01  0.95548640055E+02  0.90896424648E+02 0.  0.
         13    1    3    3    0    0 -0.35582475142E+02 -0.51180333430E+02  0.22727603426E+01  0.62375601566E+02  0.10566000000E+00 0.  1.
         22    1    1    0    0    0  0.14544832341E+02  0.25533416552E+02 -0.19685258277E+01  0.29451359945E+02  0.00000000000E+00 0.  1.
</event>
<event>
 5    1  0.1680526E-003  0.9118800E+02  0.7818608E-02  0.1130116E+00
         25   -1    0    0    0    0  0.00000000000E+00  0.00000000000E+00  0.99999998245E-14  0.12500000000E+03  0.12500000000E+03 0.  0.
        -13    1    3    3    0    0 -0.72052349333E+01 -0.37961097236E+02  0.26191342099E+02  0.46679308894E+02  0.10566000000E+00 0. -1.
         23    2    1    0    0    0 -0.34217841794E+01 -0.14381474925E+02 -0.20853293194E+02  0.99438402534E+02  0.96096829466E+02 0.  0.
         13    1    3    3    0    0  0.37834507538E+01  0.23579622311E+02 -0.47044635292E+02  0.52759093640E+02  0.10566000000E+00 0.  1.
         22    1    1    0    0    0  0.34217841794E+01  0.14381474925E+02  0.20853293194E+02  0.25561597466E+02  0.00000000000E+00 0.  1.
</event>
<event>
 5    1  0.1680526E-003  0.9118800E+02  0.7818608E-02  0.1130116E+00
         25   -1    0    0    0    0  0.00000000000E+00  0.00000000000E+00  0.99999998245E-14  0.12500000000E+03  0.12500000000E+03 0.  0.
        -13    1    3    3    0    0  0.23602816737E+02  0.53877645455E+02 -0.17586092942E+02  0.61393610960E+02  0.10566000000E+00 0.  1.
         23    2    1    0    0    0  0.36156893664E+01  0.25559100132E+02 -0.29512819170E+01  0.99018258833E+02  0.95548755660E+02 0.  0.
         13    1    3    3    0    0 -0.19987127370E+02 -0.28318545324E+02  0.14634811025E+02  0.37624647873E+02  0.10566000000E+00 0. -1.
         22    1    1    0    0    0 -0.36156893664E+01 -0.25559100132E+02  0.29512819170E+01  0.25981741167E+02  0.00000000000E+00 0. -1.
</event>
<event>
 5    1  0.1680526E-003  0.9118800E+02  0.7818608E-02  0.1130116E+00
         25   -1    0    0    0    0  0.00000000000E+00  0.00000000000E+00  0.99999998245E-14  0.12500000000E+03  0.12500000000E+03 0.  0.
        -13    1    3    3    0    0 -0.18283542643E+02  0.50808906080E+02 -0.11735677580E+02  0.55259118351E+02  0.10566000000E+00 0. -1.
         23    2    1    0    0    0  0.22192245891E+01  0.25421977671E+02  0.13145022489E+02  0.96294712635E+02  0.91916691404E+02 0.  0.
         13    1    3    3    0    0  0.20502767232E+02 -0.25386928410E+02  0.24880700069E+02  0.41035594284E+02  0.10566000000E+00 0.  1.
         22    1    1    0    0    0 -0.22192245891E+01 -0.25421977671E+02 -0.13145022489E+02  0.28705287365E+02  0.00000000000E+00 0.  1.
</event>
<event>
 5    1  0.1680526E-003  0.9118800E+02  0.7818608E-02  0.1130116E+00
         25   -1    0    0    0    0  0.00000000000E+00  0.00000000000E+00  0.99999998245E-14  0.12500000000E+03  0.12500000000E+03 0.  0.
        -13    1    3    3    0    0 -0.88818126173E+01 -0.33272996963E+02 -0.45078380710E+02  0.56727863469E+02  0.10566000000E+00 0.  1.
         23    2    1    0    0    0  0.14340014920E+02 -0.12328559282E+02 -0.24018934495E+02  0.94429775661E+02  0.89344523700E+02 0.  0.
         13    1    3    3    0    0  0.23221827538E+02  0.20944437681E+02  0.21059446215E+02  0.37701912192E+02  0.10566000000E+00 0. -1.
         22    1    1    0    0    0 -0.14340014920E+02  0.12328559282E+02  0.24018934495E+02  0.30570224339E+02  0.00000000000E+00 0.  1.
</event>
<event>
 5    1  0.1680526E-003  0.9118800E+02  0.7818608E-02  0.1130116E+00
         25   -1    0    0    0    0  0.00000000000E+00  0.00000000000E+00  0.99999998245E-14  0.12500000000E+03  0.12500000000E+03 0.  0.
        -13    1    3    3    0    0 -0.33079495336E+01 -0.21141406670E+02 -0.41169421133E+02  0.46398642292E+02  0.10566000000E+00 0. -1.
         23    2    1    0    0    0 -0.24422159268E+02 -0.17686886759E+02  0.22076651039E+01  0.94765225125E+02  0.89812617606E+02 0.  0.
         13    1    3    3    0    0 -0.21114209735E+02  0.34545199114E+01  0.43377086236E+02  0.48366582833E+02  0.10566000000E+00 0.  1.
         22    1    1    0    0    0  0.24422159268E+02  0.17686886759E+02 -0.22076651039E+01  0.30234774875E+02  0.00000000000E+00 0.  1.
</event>
<event>
 5    1  0.1680526E-003  0.9118800E+02  0.7818608E-02  0.1130116E+00
         25   -1    0    0    0    0  0.00000000000E+00  0.00000000000E+00  0.99999998245E-14  0.12500000000E+03  0.12500000000E+03 0.  0.
        -13    1    3    3    0    0  0.13758451576E+02 -0.47869673418E+02  0.20644531784E+02  0.53916680902E+02  0.10566000000E+00 0. -1.
         23    2    1    0    0    0  0.13135626791E+01 -0.78743922310E+01  0.27503426216E+02  0.96361390510E+02  0.92007323771E+02 0.  0.
         13    1    3    3    0    0 -0.12444888897E+02  0.39995281187E+02  0.68588944320E+01  0.42444709608E+02  0.10566000000E+00 0.  1.
         22    1    1    0    0    0 -0.13135626791E+01  0.78743922310E+01 -0.27503426216E+02  0.28638609490E+02  0.00000000000E+00 0. -1.
</event>
<event>
 5    1  0.1680526E-003  0.9118800E+02  0.7818608E-02  0.1130116E+00
         25   -1    0    0    0    0  0.00000000000E+00  0.00000000000E+00  0.99999998245E-14  0.12500000000E+03  0.12500000000E+03 0.  0.
        -13    1    3    3    0    0 -0.38466781716E+01  0.42689514644E+01 -0.40585212177E+02  0.40990138949E+02  0.10566000000E+00 0.  1.
         23    2    1    0    0    0 -0.27102520945E+02 -0.43632908463E+01  0.87306943956E+01  0.96193577570E+02  0.91779052035E+02 0.  0.
         13    1    3    3    0    0 -0.23255842774E+02 -0.86322423106E+01  0.49315906573E+02  0.55203438621E+02  0.10566000000E+00 0. -1.
         22    1    1    0    0    0  0.27102520945E+02  0.43632908463E+01 -0.87306943956E+01  0.28806422430E+02  0.00000000000E+00 0. -1.
</event>
<event>
 5    1  0.1680526E-003  0.9118800E+02  0.7818608E-02  0.1130116E+00
         25   -1    0    0    0    0  0.00000000000E+00  0.00000000000E+00  0.99999998245E-14  0.12500000000E+03  0.12500000000E+03 0.  0.
        -13    1    3    3    0    0 -0.24080827637E+02 -0.30452896239E+02  0.16011551620E+00  0.38823986787E+02  0.10566000000E+00 0.  1.
         23    2    1    0    0    0  0.12404634846E+02  0.60050326844E+01 -0.25182862453E+02  0.96292649991E+02  0.91913886316E+02 0.  0.
         13    1    3    3    0    0  0.36485462483E+02  0.36457928924E+02 -0.25342977969E+02  0.57468663204E+02  0.10566000000E+00 0. -1.
         22    1    1    0    0    0 -0.12404634846E+02 -0.60050326844E+01  0.25182862453E+02  0.28707350009E+02  0.00000000000E+00 0. -1.
</event>
<event>
 5    1  0.1680526E-003  0.9118800E+02  0.7818608E-02  0.1130116E+00
         25   -1    0    0    0    0  0.00000000000E+00  0.00000000000E+00  0.99999998245E-14  0.12500000000E+03  0.12500000000E+03 0.  0.
        -13    1    3    3    0    0 -0.29744929460E+02 -0.21021642555E+02  0.37061924346E+02  0.51964099959E+02  0.10566000000E+00 0.  1.
         23    2    1    0    0    0 -0.16950023392E+02 -0.24593707384E+02 -0.37619520546E+01  0.94895083140E+02  0.89993170769E+02 0.  0.
         13    1    3    3    0    0  0.12794906068E+02 -0.35720648296E+01 -0.40823876401E+02  0.42930983181E+02  0.10566000000E+00 0. -1.
         22    1    1    0    0    0  0.16950023392E+02  0.24593707384E+02  0.37619520546E+01  0.30104916860E+02  0.00000000000E+00 0.  1.
</event>
<event>
 5    1  0.1680526E-003  0.9118800E+02  0.7818608E-02  0.1130116E+00
         25   -1    0    0    0    0  0.00000000000E+00  0.00000000000E+00  0.99999998245E-14  0.12500000000E+03  0.12500000000E+03 0.  0.
        -13    1    3    3    0    0  0.19151475189E+02  0.35056902720E+02  0.17418731050E+02  0.43579683176E+02  0.10566000000E+00 0. -1.
         23    2    1    0    0    0  0.14734796770E+02 -0.11188285464E+02  0.28202474887E+02  0.91270612854E+02  0.84809511339E+02 0.  0.
         13    1    3    3    0    0 -0.44166784191E+01 -0.46245188184E+02  0.10783743837E+02  0.47690929679E+02  0.10566000000E+00 0.  1.
         22    1    1    0    0    0 -0.14734796770E+02  0.11188285464E+02 -0.28202474887E+02  0.33729387146E+02  0.00000000000E+00 0.  1.
</event>
<event>
 5    1  0.1680526E-003  0.9118800E+02  0.7818608E-02  0.1130116E+00
         25   -1    0    0    0    0  0.00000000000E+00  0.00000000000E+00  0.99999998245E-14  0.12500000000E+03  0.12500000000E+03 0.  0.
        -13    1    3    3    0    0  0.48856823048E+02  0.97050115047E+01  0.24117189338E+02  0.55342807955E+02  0.10566000000E+00 0.  1.
         23    2    1    0    0    0  0.27163254397E+02 -0.84476584324E+01 -0.52006860220E+01  0.96081970027E+02  0.91626920208E+02 0.  0.
         13    1    3    3    0    0 -0.21693568651E+02 -0.18152669937E+02 -0.29317875360E+02  0.40739162072E+02  0.10566000000E+00 0. -1.
         22    1    1    0    0    0 -0.27163254397E+02  0.84476584324E+01  0.52006860220E+01  0.28918029973E+02  0.00000000000E+00 0.  1.
</event>
<event>
 5    1  0.1680526E-003  0.9118800E+02  0.7818608E-02  0.1130116E+00
         25   -1    0    0    0    0  0.00000000000E+00  0.00000000000E+00  0.99999998245E-14  0.12500000000E+03  0.12500000000E+03 0.  0.
        -13    1    3    3    0    0  0.19479745223E+02  0.71662016397E+01  0.35406838121E+02  0.41042298542E+02  0.10566000000E+00 0.  1.
         23    2    1    0    0    0  0.20214961350E+02 -0.15136605277E+02 -0.14619240287E+02  0.95819806919E+02  0.91268569233E+02 0.  0.
         13    1    3    3    0    0  0.73521612639E+00 -0.22302806916E+02 -0.50026078407E+02  0.54777508377E+02  0.10566000000E+00 0. -1.
         22    1    1    0    0    0 -0.20214961350E+02  0.15136605277E+02  0.14619240287E+02  0.29180193081E+02  0.00000000000E+00 0.  1.
</event>
<event>
 5    1  0.1680526E-003  0.9118800E+02  0.7818608E-02  0.1130116E+00
         25   -1    0    0    0    0  0.00000000000E+00  0.00000000000E+00  0.99999998245E-14  0.12500000000E+03  0.12500000000E+03 0.  0.
        -13    1    3    3    0    0  0.96180977177E+01  0.29567358225E+02 -0.98086208817E+01  0.32603016483E+02  0.10566000000E+00 0.  1.
         23    2    1    0    0    0 -0.67047348413E+01 -0.27868527609E+02  0.85781663472E+01  0.95080219949E+02  0.90249958379E+02 0.  0.
         13    1    3    3    0    0 -0.16322832559E+02 -0.57435885835E+02  0.18386787229E+02  0.62477203467E+02  0.10566000000E+00 0. -1.
         22    1    1    0    0    0  0.67047348413E+01  0.27868527609E+02 -0.85781663472E+01  0.29919780051E+02  0.00000000000E+00 0. -1.
</event>
<event>
 5    1  0.1680526E-003  0.9118800E+02  0.7818608E-02  0.1130116E+00
         25   -1    0    0    0    0  0.00000000000E+00  0.00000000000E+00  0.99999998245E-14  0.12500000000E+03  0.12500000000E+03 0.  0.
        -13    1    3    3    0    0 -0.52824023599E+01 -0.15557692338E+02 -0.29080895944E+02  0.33401425696E+02  0.10566000000E+00 0.  1.
         23    2    1    0    0    0  0.11521924131E+02 -0.41609494128E+01  0.28242742831E+02  0.94214926372E+02  0.89043425322E+02 0.  0.
         13    1    3    3    0    0  0.16804326491E+02  0.11396742925E+02  0.57323638775E+02  0.60813500676E+02  0.10566000000E+00 0. -1.
         22    1    1    0    0    0 -0.11521924131E+02  0.41609494128E+01 -0.28242742831E+02  0.30785073628E+02  0.00000000000E+00 0. -1.
</event>
<event>
 5    1  0.1680526E-003  0.9118800E+02  0.7818608E-02  0.1130116E+00
         25   -1    0    0    0    0  0.00000000000E+00  0.00000000000E+00  0.99999998245E-14  0.12500000000E+03  0.12500000000E+03 0.  0.
        -13    1    3    3    0    0 -0.30310866190E+02 -0.22600485852E+01 -0.25813908014E+02  0.39877630820E+02  0.10566000000E+00 0.  1.
         23    2    1    0    0    0 -0.26781405287E+01  0.26062220084E+02  0.13388148041E+02  0.95577997003E+02  0.90936787115E+02 0.  0.
         13    1    3    3    0    0  0.27632725661E+02  0.28322268669E+02  0.39202056054E+02  0.55700366183E+02  0.10566000000E+00 0. -1.
         22    1    1    0    0    0  0.26781405287E+01 -0.26062220084E+02 -0.13388148041E+02  0.29422002997E+02  0.00000000000E+00 0. -1.
</event>
<event>
 5    1  0.1680526E-003  0.9118800E+02  0.7818608E-02  0.1130116E+00
         25   -1    0    0    0    0  0.00000000000E+00  0.00000000000E+00  0.99999998245E-14  0.12500000000E+03  0.12500000000E+03 0.  0.
        -13    1    3    3    0    0 -0.58447859495E+02  0.13991647388E+02  0.13379752144E+02  0.61570670028E+02  0.10566000000E+00 0. -1.
         23    2    1    0    0    0 -0.27050499916E+02  0.11666538827E+02  0.64030934925E+00  0.95533957341E+02  0.90876230860E+02 0.  0.
         13    1    3    3    0    0  0.31397359579E+02 -0.23251085611E+01 -0.12739442795E+02  0.33963287314E+02  0.10566000000E+00 0.  1.
         22    1    1    0    0    0  0.27050499916E+02 -0.11666538827E+02 -0.64030934925E+00  0.29466042659E+02  0.00000000000E+00 0. -1.
</event>
<event>
 5    1  0.1680526E-003  0.9118800E+02  0.7818608E-02  0.1130116E+00
         25   -1    0    0    0    0  0.00000000000E+00  0.00000000000E+00  0.99999998245E-14  0.12500000000E+03  0.12500000000E+03 0.  0.
        -13    1    3    3    0    0 -0.31174865341E+02 -0.36778539214E+02  0.36449512471E+02  0.60440973678E+02  0.10566000000E+00 0. -1.
         23    2    1    0    0    0 -0.21308462820E+02 -0.83022212833E+01  0.19020265480E+02  0.95255286774E+02  0.90492108459E+02 0.  0.
         13    1    3    3    0    0  0.98664025206E+01  0.28476317931E+02 -0.17429246991E+02  0.34814313095E+02  0.10566000000E+00 0.  1.
         22    1    1    0    0    0  0.21308462820E+02  0.83022212833E+01 -0.19020265480E+02  0.29744713226E+02  0.00000000000E+00 0. -1.
</event>
<event>
 5    1  0.1680526E-003  0.9118800E+02  0.7818608E-02  0.1130116E+00
         25   -1    0    0    0    0  0.00000000000E+00  0.00000000000E+00  0.99999998245E-14  0.12500000000E+03  0.12500000000E+03 0.  0.
        -13    1    3    3    0    0 -0.37062189888E+01 -0.55036413058E+02 -0.27566876270E+02  0.61665927811E+02  0.10566000000E+00 0.  1.
         23    2    1    0    0    0 -0.85546315341E+01 -0.24918121056E+02 -0.15203490772E+02  0.94582232013E+02  0.89557568096E+02 0.  0.
         13    1    3    3    0    0 -0.48484125452E+01  0.30118292002E+02  0.12363385497E+02  0.32916304202E+02  0.10566000000E+00 0. -1.
         22    1    1    0    0    0  0.85546315341E+01  0.24918121056E+02  0.15203490772E+02  0.30417767987E+02  0.00000000000E+00 0.  1.
</event>
<event>
 5    1  0.1680526E-003  0.9118800E+02  0.7818608E-02  0.1130116E+00
         25   -1    0    0    0    0  0.00000000000E+00  0.00000000000E+00  0.99999998245E-14  0.12500000000E+03  0.12500000000E+03 0.  0.
        -13    1    3    3    0    0  0.24454108708E+02  0.21226701765E+02 -0.89031208437E+01  0.33583523123E+02  0.10566000000E+00 0. -1.
         23    2    1    0    0    0 -0.21027232342E+02  0.82099850147E+01  0.24645444872E+02  0.91579253347E+02  0.85263200367E+02 0.  0.
         13    1    3    3    0    0 -0.45481341050E+02 -0.13016716751E+02  0.33548565716E+02  0.57995730224E+02  0.10566000000E+00 0.  1.
         22    1    1    0    0    0  0.21027232342E+02 -0.82099850147E+01 -0.24645444872E+02  0.33420746653E+02  0.00000000000E+00 0.  1.
</event>
<event>
 5    1  0.1680526E-003  0.9118800E+02  0.7818608E-02  0.1130116E+00
         25   -1    0    0    0    0  0.00000000000E+00  0.00000000000E+00  0.99999998245E-14  0.12500000000E+03  0.12500000000E+03 0.  0.
        -13    1    3    3    0    0  0.30556525794E+02 -0.11095878763E+02 -0.11989370913E+02  0.34649328609E+02  0.10566000000E+00 0.  1.
         23    2    1    0    0    0 -0.25523454724E+02  0.51284659971E+01 -0.18017625687E+02  0.93339571387E+02  0.87805995506E+02 0.  0.
         13    1    3    3    0    0 -0.56079980518E+02  0.16224344760E+02 -0.60282547740E+01  0.58690242779E+02  0.10566000000E+00 0. -1.
         22    1    1    0    0    0  0.25523454724E+02 -0.51284659971E+01  0.18017625687E+02  0.31660428613E+02  0.00000000000E+00 0. -1.
</event>
<event>
 5    1  0.1680526E-003  0.9118800E+02  0.7818608E-02  0.1130116E+00
         25   -1    0    0    0    0  0.00000000000E+00  0.00000000000E+00  0.99999998245E-14  0.12500000000E+03  0.12500000000E+03 0.  0.
        -13    1    3    3    0    0 -0.17995946313E+02  0.39375504648E+02  0.50642589270E+01  0.43588327938E+02  0.10566000000E+00 0. -1.
         23    2    1    0    0    0  0.25258333014E+02  0.12456158887E+02 -0.70762831367E+01  0.95961868795E+02  0.91462928002E+02 0.  0.
         13    1    3    3    0    0  0.43254279326E+02 -0.26919345761E+02 -0.12140542064E+02  0.52373540857E+02  0.10566000000E+00 0.  1.
         22    1    1    0    0    0 -0.25258333014E+02 -0.12456158887E+02  0.70762831367E+01  0.29038131205E+02  0.00000000000E+00 0. -1.
</event>
<event>
 5    1  0.1680526E-003  0.9118800E+02  0.7818608E-02  0.1130116E+00
         25   -1    0    0    0    0  0.00000000000E+00  0.00000000000E+00  0.99999998245E-14  0.12500000000E+03  0.12500000000E+03 0.  0.
        -13    1    3    3    0    0 -0.21747413325E+02 -0.56077897197E+02 -0.30886313810E+01  0.60226500382E+02  0.10566000000E+00 0. -1.
         23    2    1    0    0    0 -0.20113902764E+02 -0.26556754079E+02  0.59819659916E+01  0.91153077116E+02  0.84636099148E+02 0.  0.
         13    1    3    3    0    0  0.16335105608E+01  0.29521143118E+02  0.90705973726E+01  0.30926576734E+02  0.10566000000E+00 0.  1.
         22    1    1    0    0    0  0.20113902764E+02  0.26556754079E+02 -0.59819659916E+01  0.33846922884E+02  0.00000000000E+00 0. -1.
</event>
<event>
 5    1  0.1680526E-003  0.9118800E+02  0.7818608E-02  0.1130116E+00
         25   -1    0    0    0    0  0.00000000000E+00  0.00000000000E+00  0.99999998245E-14  0.12500000000E+03  0.12500000000E+03 0.  0.
        -13    1    3    3    0    0 -0.20326686201E+02 -0.26036235714E+02  0.32273326245E+02  0.46180499056E+02  0.10566000000E+00 0.  1.
         23    2    1    0    0    0 -0.15636035676E+02  0.19235760880E+02  0.19519986970E+02  0.93447979469E+02  0.87960189104E+02 0.  0.
         13    1    3    3    0    0  0.46906505252E+01  0.45271996594E+02 -0.12753339275E+02  0.47267480413E+02  0.10566000000E+00 0. -1.
         22    1    1    0    0    0  0.15636035676E+02 -0.19235760880E+02 -0.19519986970E+02  0.31552020531E+02  0.00000000000E+00 0.  1.
</event>
<event>
 5    1  0.1680526E-003  0.9118800E+02  0.7818608E-02  0.1130116E+00
         25   -1    0    0    0    0  0.00000000000E+00  0.00000000000E+00  0.99999998245E-14  0.12500000000E+03  0.12500000000E+03 0.  0.
        -13    1    3    3    0    0  0.13647784050E+01 -0.10524734196E+02  0.32011817135E+02  0.33725365088E+02  0.10566000000E+00 0.  1.
         23    2    1    0    0    0  0.13114075906E+02 -0.48528181392E+01 -0.27231406808E+02  0.94388264546E+02  0.89286427505E+02 0.  0.
         13    1    3    3    0    0  0.11749297501E+02  0.56719160570E+01 -0.59243223943E+02  0.60662899458E+02  0.10566000000E+00 0. -1.
         22    1    1    0    0    0 -0.13114075906E+02  0.48528181392E+01  0.27231406808E+02  0.30611735454E+02  0.00000000000E+00 0. -1.
</event>
<event>
 5    1  0.1680526E-003  0.9118800E+02  0.7818608E-02  0.1130116E+00
         25   -1    0    0    0    0  0.00000000000E+00  0.00000000000E+00  0.99999998245E-14  0.12500000000E+03  0.12500000000E+03 0.  0.
        -13    1    3    3    0    0  0.25870647501E+02 -0.22303943158E+02 -0.23924756956E+02  0.41703254573E+02  0.10566000000E+00 0. -1.
         23    2    1    0    0    0 -0.17392686980E+02  0.81426076768E+01 -0.23556284731E+02  0.94607465218E+02  0.89592780426E+02 0.  0.
         13    1    3    3    0    0 -0.43263334481E+02  0.30446550835E+02  0.36847222562E+00  0.52904210645E+02  0.10566000000E+00 0.  1.
         22    1    1    0    0    0  0.17392686980E+02 -0.81426076768E+01  0.23556284731E+02  0.30392534782E+02  0.00000000000E+00 0.  1.
</event>
<event>
 5    1  0.1680526E-003  0.9118800E+02  0.7818608E-02  0.1130116E+00
         25   -1    0    0    0    0  0.00000000000E+00  0.00000000000E+00  0.99999998245E-14  0.12500000000E+03  0.12500000000E+03 0.  0.
        -13    1    3    3    0    0 -0.11672916391E+02  0.32957196498E+02 -0.40772349271E+00  0.34965857354E+02  0.10566000000E+00 0.  1.
         23    2    1    0    0    0  0.53062500621E+01 -0.25505632411E+02 -0.10932127173E+02  0.96747478362E+02  0.92530371178E+02 0.  0.
         13    1    3    3    0    0  0.16979166453E+02 -0.58462828908E+02 -0.10524403681E+02  0.61781621007E+02  0.10566000000E+00 0. -1.
         22    1    1    0    0    0 -0.53062500621E+01  0.25505632411E+02  0.10932127173E+02  0.28252521638E+02  0.00000000000E+00 0. -1.
</event>
<event>
 5    1  0.1680526E-003  0.9118800E+02  0.7818608E-02  0.1130116E+00
         25   -1    0    0    0    0  0.00000000000E+00  0.00000000000E+00  0.99999998245E-14  0.12500000000E+03  0.12500000000E+03 0.  0.
        -13    1    3    3    0    0  0.44295665649E+01 -0.53187055254E+02 -0.28287528958E+01  0.53446205792E+02  0.10566000000E+00 0. -1.
         23    2    1    0    0    0  0.14294442163E+02 -0.17962426195E+02 -0.20637625975E+02  0.94131060312E+02  0.88925615422E+02 0.  0.
         13    1    3    3    0    0  0.98648755982E+01  0.35224629060E+02 -0.17808873079E+02  0.40684854520E+02  0.10566000000E+00 0.  1.
         22    1    1    0    0    0 -0.14294442163E+02  0.17962426195E+02  0.20637625975E+02  0.30868939688E+02  0.00000000000E+00 0. -1.
</event>
<event>
 5    1  0.1680526E-003  0.9118800E+02  0.7818608E-02  0.1130116E+00
         25   -1    0    0    0    0  0.00000000000E+00  0.00000000000E+00  0.99999998245E-14  0.12500000000E+03  0.12500000000E+03 0.  0.
        -13    1    3    3    0    0  0.51019637717E+02  0.28763686113E+02 -0.14524282997E+02  0.60343342899E+02  0.10566000000E+00 0. -1.
         23    2    1    0    0    0  0.28622877220E+02  0.28867305015E+01 -0.59870668509E+01  0.95615526501E+02  0.90988359834E+02 0.  0.
         13    1    3    3    0    0 -0.22396760497E+02 -0.25876955612E+02  0.85372161457E+01  0.35272183602E+02  0.10566000000E+00 0.  1.
         22    1    1    0    0    0 -0.28622877220E+02 -0.28867305015E+01  0.59870668509E+01  0.29384473499E+02  0.00000000000E+00 0. -1.
</event>
<event>
 5    1  0.1680526E-003  0.9118800E+02  0.7818608E-02  0.1130116E+00
         25   -1    0    0    0    0  0.00000000000E+00  0.00000000000E+00  0.99999998245E-14  0.12500000000E+03  0.12500000000E+03 0.  0.
        -13    1    3    3    0    0 -0.80801903384E+01  0.30487887595E+02  0.21766788556E+02  0.38322382676E+02  0.10566000000E+00 0.  1.
         23    2    1    0    0    0 -0.72880985216E+01 -0.25847057218E+02  0.12337692494E+02  0.95446566986E+02  0.90755946066E+02 0.  0.
         13    1    3    3    0    0  0.79209181674E+00 -0.56334944812E+02 -0.94290960624E+01  0.57124184310E+02  0.10566000000E+00 0. -1.
         22    1    1    0    0    0  0.72880985216E+01  0.25847057218E+02 -0.12337692494E+02  0.29553433014E+02  0.00000000000E+00 0. -1.
</event>
<event>
 5    1  0.1680526E-003  0.9118800E+02  0.7818608E-02  0.1130116E+00
         25   -1    0    0    0    0  0.00000000000E+00  0.00000000000E+00  0.99999998245E-14  0.12500000000E+03  0.12500000000E+03 0.  0.
        -13    1    3    3    0    0 -0.29705237656E+02 -0.10224303472E+02 -0.18943784599E+02  0.36685360359E+02  0.10566000000E+00 0.  1.
         23    2    1    0    0    0 -0.19599209114E+00  0.12723549184E+02  0.26544400987E+02  0.95563078618E+02  0.90916278270E+02 0.  0.
         13    1    3    3    0    0  0.29509245565E+02  0.22947852656E+02  0.45488185586E+02  0.58877718258E+02  0.10566000000E+00 0. -1.
         22    1    1    0    0    0  0.19599209114E+00 -0.12723549184E+02 -0.26544400987E+02  0.29436921382E+02  0.00000000000E+00 0. -1.
</event>
<event>
 5    1  0.1680526E-003  0.9118800E+02  0.7818608E-02  0.1130116E+00
         25   -1    0    0    0    0  0.00000000000E+00  0.00000000000E+00  0.99999998245E-14  0.12500000000E+03  0.12500000000E+03 0.  0.
        -13    1    3    3    0    0  0.13373031881E+02  0.28961009685E+02 -0.32082845601E+01  0.32060603824E+02  0.10566000000E+00 0.  1.
         23    2    1    0    0    0 -0.24336418147E+02 -0.19325088765E+02  0.36533032333E+01  0.93709954802E+02  0.88331697032E+02 0.  0.
         13    1    3    3    0    0 -0.37709450028E+02 -0.48286098450E+02  0.68615877934E+01  0.61649350978E+02  0.10566000000E+00 0. -1.
         22    1    1    0    0    0  0.24336418147E+02  0.19325088765E+02 -0.36533032333E+01  0.31290045198E+02  0.00000000000E+00 0. -1.
</event>
<event>
 5    1  0.1680526E-003  0.9118800E+02  0.7818608E-02  0.1130116E+00
         25   -1    0    0    0    0  0.00000000000E+00  0.00000000000E+00  0.99999998245E-14  0.12500000000E+03  0.12500000000E+03 0.  0.
        -13    1    3    3    0    0  0.11101863058E+02  0.57647291581E+02 -0.21391954629E+01  0.58745628869E+02  0.10566000000E+00 0.  1.
         23    2    1    0    0    0 -0.42908075314E+01  0.27417356341E+02 -0.12985904101E+02  0.94360872020E+02  0.89248070036E+02 0.  0.
         13    1    3    3    0    0 -0.15392670589E+02 -0.30229935239E+02 -0.10846708638E+02  0.35615243152E+02  0.10566000000E+00 0. -1.
         22    1    1    0    0    0  0.42908075314E+01 -0.27417356341E+02  0.12985904101E+02  0.30639127980E+02  0.00000000000E+00 0.  1.
</event>
<event>
 5    1  0.1680526E-003  0.9118800E+02  0.7818608E-02  0.1130116E+00
         25   -1    0    0    0    0  0.00000000000E+00  0.00000000000E+00  0.99999998245E-14  0.12500000000E+03  0.12500000000E+03 0.  0.
        -13    1    3    3    0    0 -0.77886465376E+01  0.21084219808E+02  0.47116930760E+02  0.52203674852E+02  0.10566000000E+00 0. -1.
         23    2    1    0    0    0  0.20480251524E+02  0.64865457398E+00  0.19761872082E+02  0.96532596826E+02  0.92239629263E+02 0.  0.
         13    1    3    3    0    0  0.28268898062E+02 -0.20435565234E+02 -0.27355058678E+02  0.44328921974E+02  0.10566000000E+00 0.  1.
         22    1    1    0    0    0 -0.20480251524E+02 -0.64865457398E+00 -0.19761872082E+02  0.28467403174E+02  0.00000000000E+00 0. -1.
</event>
<event>
 5    1  0.1680526E-003  0.9118800E+02  0.7818608E-02  0.1130116E+00
         25   -1    0    0    0    0  0.00000000000E+00  0.00000000000E+00  0.99999998245E-14  0.12500000000E+03  0.12500000000E+03 0.  0.
        -13    1    3    3    0    0  0.22247602448E+02 -0.16248792970E+01 -0.28616973947E+02  0.36284134403E+02  0.10566000000E+00 0.  1.
         23    2    1    0    0    0  0.45374562836E+02 -0.10519488658E+02  0.51182872475E+01  0.78141623390E+02  0.62533237942E+02 0.  0.
         13    1    3    3    0    0  0.23126960387E+02 -0.88946093610E+01  0.33735261194E+02  0.41857488987E+02  0.10566000000E+00 0. -1.
         22    1    1    0    0    0 -0.45374562836E+02  0.10519488658E+02 -0.51182872475E+01  0.46858376610E+02  0.00000000000E+00 0.  1.
</event>
<event>
 5    1  0.1680526E-003  0.9118800E+02  0.7818608E-02  0.1130116E+00
         25   -1    0    0    0    0  0.00000000000E+00  0.00000000000E+00  0.99999998245E-14  0.12500000000E+03  0.12500000000E+03 0.  0.
        -13    1    3    3    0    0  0.14084864788E+02  0.38481971616E+02  0.44413878062E+02  0.60430532714E+02  0.10566000000E+00 0.  1.
         23    2    1    0    0    0 -0.27376238649E+01  0.24987539498E+02  0.26589628511E+02  0.88409289991E+02  0.80481814702E+02 0.  0.
         13    1    3    3    0    0 -0.16822488653E+02 -0.13494432118E+02 -0.17824249551E+02  0.27978757277E+02  0.10566000000E+00 0. -1.
         22    1    1    0    0    0  0.27376238649E+01 -0.24987539498E+02 -0.26589628511E+02  0.36590710009E+02  0.00000000000E+00 0.  1.
</event>
<event>
 5    1  0.1680526E-003  0.9118800E+02  0.7818608E-02  0.1130116E+00
         25   -1    0    0    0    0  0.00000000000E+00  0.00000000000E+00  0.99999998245E-14  0.12500000000E+03  0.12500000000E+03 0.  0.
        -13    1    3    3    0    0  0.24134744648E+02  0.25245099562E+02  0.60599638832E+01  0.35447641352E+02  0.10566000000E+00 0.  1.
         23    2    1    0    0    0 -0.26426881440E+02 -0.17877721723E+01 -0.12499712686E+02  0.95711452593E+02  0.91120048004E+02 0.  0.
         13    1    3    3    0    0 -0.50561626088E+02 -0.27032871734E+02 -0.18559676569E+02  0.60263811241E+02  0.10566000000E+00 0. -1.
         22    1    1    0    0    0  0.26426881440E+02  0.17877721723E+01  0.12499712686E+02  0.29288547407E+02  0.00000000000E+00 0. -1.
</event>
<event>
 5    1  0.1680526E-003  0.9118800E+02  0.7818608E-02  0.1130116E+00
         25   -1    0    0    0    0  0.00000000000E+00  0.00000000000E+00  0.99999998245E-14  0.12500000000E+03  0.12500000000E+03 0.  0.
        -13    1    3    3    0    0 -0.16736959162E+02 -0.30722746835E+02  0.57156203182E+01  0.35449858317E+02  0.10566000000E+00 0. -1.
         23    2    1    0    0    0 -0.52332904514E+01  0.28464119452E+02  0.41331289220E+01  0.95765154699E+02  0.91193687691E+02 0.  0.
         13    1    3    3    0    0  0.11503668710E+02  0.59186866286E+02 -0.15824913961E+01  0.60315296382E+02  0.10566000000E+00 0.  1.
         22    1    1    0    0    0  0.52332904514E+01 -0.28464119452E+02 -0.41331289220E+01  0.29234845301E+02  0.00000000000E+00 0.  1.
</event>
<event>
 5    1  0.1680526E-003  0.9118800E+02  0.7818608E-02  0.1130116E+00
         25   -1    0    0    0    0  0.00000000000E+00  0.00000000000E+00  0.99999998245E-14  0.12500000000E+03  0.12500000000E+03 0.  0.
        -13    1    3    3    0    0 -0.23484693155E+02  0.32480645739E+02 -0.44927880072E+02  0.60208377590E+02  0.10566000000E+00 0.  1.
         23    2    1    0    0    0  0.67853740770E+00  0.14615724894E+02 -0.24222570780E+02  0.96701364655E+02  0.92468054828E+02 0.  0.
         13    1    3    3    0    0  0.24163230563E+02 -0.17864920845E+02  0.20705309291E+02  0.36492987065E+02  0.10566000000E+00 0. -1.
         22    1    1    0    0    0 -0.67853740770E+00 -0.14615724894E+02  0.24222570780E+02  0.28298635345E+02  0.00000000000E+00 0.  1.
</event>
<event>
 5    1  0.1680526E-003  0.9118800E+02  0.7818608E-02  0.1130116E+00
         25   -1    0    0    0    0  0.00000000000E+00  0.00000000000E+00  0.99999998245E-14  0.12500000000E+03  0.12500000000E+03 0.  0.
        -13    1    3    3    0    0 -0.21434997937E+02  0.34977794251E+02 -0.91037256930E+01  0.42021354247E+02  0.10566000000E+00 0.  1.
         23    2    1    0    0    0  0.20367901218E+02  0.10036089146E+02  0.16413691532E+02  0.96982438453E+02  0.92847238048E+02 0.  0.
         13    1    3    3    0    0  0.41802899154E+02 -0.24941705104E+02  0.25517417225E+02  0.54961084206E+02  0.10566000000E+00 0. -1.
         22    1    1    0    0    0 -0.20367901218E+02 -0.10036089146E+02 -0.16413691532E+02  0.28017561547E+02  0.00000000000E+00 0.  1.
</event>
<event>
 5    1  0.1680526E-003  0.9118800E+02  0.7818608E-02  0.1130116E+00
         25   -1    0    0    0    0  0.00000000000E+00  0.00000000000E+00  0.99999998245E-14  0.12500000000E+03  0.12500000000E+03 0.  0.
        -13    1    3    3    0    0 -0.35292753890E+02  0.21399597589E+02 -0.35202576791E+02  0.54247155049E+02  0.10566000000E+00 0.  1.
         23    2    1    0    0    0 -0.19183598669E+02 -0.12270331690E+02 -0.20486756620E+02  0.94368664827E+02  0.89258983900E+02 0.  0.
         13    1    3    3    0    0  0.16109155221E+02 -0.33669929278E+02  0.14715820171E+02  0.40121509779E+02  0.10566000000E+00 0. -1.
         22    1    1    0    0    0  0.19183598669E+02  0.12270331690E+02  0.20486756620E+02  0.30631335173E+02  0.00000000000E+00 0.  1.
</event>
<event>
 5    1  0.1680526E-003  0.9118800E+02  0.7818608E-02  0.1130116E+00
         25   -1    0    0    0    0  0.00000000000E+00  0.00000000000E+00  0.99999998245E-14  0.12500000000E+03  0.12500000000E+03 0.  0.
        -13    1    3    3    0    0 -0.25239617879E+02 -0.15820794429E+02  0.20980582525E+02  0.36435310541E+02  0.10566000000E+00 0. -1.
         23    2    1    0    0    0  0.29169489373E+02  0.50669550044E+00  0.55120866807E+01  0.95309952001E+02  0.90567588023E+02 0.  0.
         13    1    3    3    0    0  0.54409107252E+02  0.16327489930E+02 -0.15468495844E+02  0.58874641461E+02  0.10566000000E+00 0.  1.
         22    1    1    0    0    0 -0.29169489373E+02 -0.50669550044E+00 -0.55120866807E+01  0.29690047999E+02  0.00000000000E+00 0.  1.
</event>
<event>
 5    1  0.1680526E-003  0.9118800E+02  0.7818608E-02  0.1130116E+00
         25   -1    0    0    0    0  0.00000000000E+00  0.00000000000E+00  0.99999998245E-14  0.12500000000E+03  0.12500000000E+03 0.  0.
        -13    1    3    3    0    0 -0.17711653468E+02 -0.27386868571E+02 -0.10622497517E+02  0.34301484752E+02  0.10566000000E+00 0.  1.
         23    2    1    0    0    0  0.23228121496E+02  0.13617662040E+02  0.10675658132E+02  0.96035262401E+02  0.91563178190E+02 0.  0.
         13    1    3    3    0    0  0.40939774964E+02  0.41004530610E+02  0.21298155649E+02  0.61733777648E+02  0.10566000000E+00 0. -1.
         22    1    1    0    0    0 -0.23228121496E+02 -0.13617662040E+02 -0.10675658132E+02  0.28964737599E+02  0.00000000000E+00 0. -1.
</event>
<event>
 5    1  0.1680526E-003  0.9118800E+02  0.7818608E-02  0.1130116E+00
         25   -1    0    0    0    0  0.00000000000E+00  0.00000000000E+00  0.99999998245E-14  0.12500000000E+03  0.12500000000E+03 0.  0.
        -13    1    3    3    0    0  0.40414320230E+02  0.33594604646E+01  0.29704470089E+02  0.50268976134E+02  0.10566000000E+00 0. -1.
         23    2    1    0    0    0  0.10391014510E+02  0.27378192874E+02  0.71089066042E+01  0.94865714200E+02  0.89952368229E+02 0.  0.
         13    1    3    3    0    0 -0.30023305720E+02  0.24018732409E+02 -0.22595563485E+02  0.44596738066E+02  0.10566000000E+00 0.  1.
         22    1    1    0    0    0 -0.10391014510E+02 -0.27378192874E+02 -0.71089066042E+01  0.30134285800E+02  0.00000000000E+00 0.  1.
</event>
<event>
 5    1  0.1680526E-003  0.9118800E+02  0.7818608E-02  0.1130116E+00
         25   -1    0    0    0    0  0.00000000000E+00  0.00000000000E+00  0.99999998245E-14  0.12500000000E+03  0.12500000000E+03 0.  0.
        -13    1    3    3    0    0 -0.18009942017E+02  0.37524041234E+02  0.22897681802E+02  0.47505017398E+02  0.10566000000E+00 0. -1.
         23    2    1    0    0    0 -0.76493283445E+01  0.26484004901E+02 -0.18644581816E+02  0.91720348998E+02  0.85469803144E+02 0.  0.
         13    1    3    3    0    0  0.10360613673E+02 -0.11040036333E+02 -0.41542263619E+02  0.44215331600E+02  0.10566000000E+00 0.  1.
         22    1    1    0    0    0  0.76493283445E+01 -0.26484004901E+02  0.18644581816E+02  0.33279651002E+02  0.00000000000E+00 0. -1.
</event>
<event>
 5    1  0.1680526E-003  0.9118800E+02  0.7818608E-02  0.1130116E+00
         25   -1    0    0    0    0  0.00000000000E+00  0.00000000000E+00  0.99999998245E-14  0.12500000000E+03  0.12500000000E+03 0.  0.
        -13    1    3    3    0    0 -0.28563114088E+02 -0.49443702336E+02 -0.12161786400E+02  0.58381944123E+02  0.10566000000E+00 0.  1.
         23    2    1    0    0    0 -0.23862616864E+02 -0.15580735212E+02  0.40429967650E+01  0.96215809614E+02  0.91809326343E+02 0.  0.
         13    1    3    3    0    0  0.47004972243E+01  0.33862967124E+02  0.16204783165E+02  0.37833865492E+02  0.10566000000E+00 0. -1.
         22    1    1    0    0    0  0.23862616864E+02  0.15580735212E+02 -0.40429967650E+01  0.28784190386E+02  0.00000000000E+00 0.  1.
</event>
<event>
 5    1  0.1680526E-003  0.9118800E+02  0.7818608E-02  0.1130116E+00
         25   -1    0    0    0    0  0.00000000000E+00  0.00000000000E+00  0.99999998245E-14  0.12500000000E+03  0.12500000000E+03 0.  0.
        -13    1    3    3    0    0 -0.71313880724E+00  0.90117839710E+01  0.44230740992E+02  0.45145214918E+02  0.10566000000E+00 0.  1.
         23    2    1    0    0    0  0.23457018546E+02 -0.14275312320E+02  0.44680560711E+01  0.97179507805E+02  0.93112174023E+02 0.  0.
         13    1    3    3    0    0  0.24170157353E+02 -0.23287096291E+02 -0.39762684921E+02  0.52034292887E+02  0.10566000000E+00 0. -1.
         22    1    1    0    0    0 -0.23457018546E+02  0.14275312320E+02 -0.44680560711E+01  0.27820492195E+02  0.00000000000E+00 0. -1.
</event>
<event>
 5    1  0.1680526E-003  0.9118800E+02  0.7818608E-02  0.1130116E+00
         25   -1    0    0    0    0  0.00000000000E+00  0.00000000000E+00  0.99999998245E-14  0.12500000000E+03  0.12500000000E+03 0.  0.
        -13    1    3    3    0    0  0.47563486385E+01 -0.36104361388E+02 -0.18961789081E+02  0.41057379030E+02  0.10566000000E+00 0. -1.
         23    2    1    0    0    0  0.79946988613E+01 -0.16242428463E+02  0.27719941163E+02  0.91892193815E+02  0.85720758593E+02 0.  0.
         13    1    3    3    0    0  0.32383502228E+01  0.19861932924E+02  0.46681730244E+02  0.50834814786E+02  0.10566000000E+00 0.  1.
         22    1    1    0    0    0 -0.79946988613E+01  0.16242428463E+02 -0.27719941163E+02  0.33107806185E+02  0.00000000000E+00 0.  1.
</event>
<event>
 5    1  0.1680526E-003  0.9118800E+02  0.7818608E-02  0.1130116E+00
         25   -1    0    0    0    0  0.00000000000E+00  0.00000000000E+00  0.99999998245E-14  0.12500000000E+03  0.12500000000E+03 0.  0.
        -13    1    3    3    0    0  0.51820855982E+01 -0.12930540197E+02 -0.32442350566E+02  0.35306800411E+02  0.10566000000E+00 0. -1.
         23    2    1    0    0    0 -0.99015080169E+01  0.24674284272E+02  0.12332165728E+02  0.95692279568E+02  0.91093742332E+02 0.  0.
         13    1    3    3    0    0 -0.15083593615E+02  0.37604824469E+02  0.44774516295E+02  0.60385479158E+02  0.10566000000E+00 0.  1.
         22    1    1    0    0    0  0.99015080169E+01 -0.24674284272E+02 -0.12332165728E+02  0.29307720432E+02  0.00000000000E+00 0.  1.
</event>
<event>
 5    1  0.1680526E-003  0.9118800E+02  0.7818608E-02  0.1130116E+00
         25   -1    0    0    0    0  0.00000000000E+00  0.00000000000E+00  0.99999998245E-14  0.12500000000E+03  0.12500000000E+03 0.  0.
        -13    1    3    3    0    0 -0.37419088197E+02  0.12531620002E+02 -0.43922023806E+02  0.59045617963E+02  0.10566000000E+00 0. -1.
         23    2    1    0    0    0 -0.55605695025E+01  0.11152719572E+02 -0.27263832257E+02  0.95023014888E+02  0.90170692146E+02 0.  0.
         13    1    3    3    0    0  0.31858518695E+02 -0.13789004302E+01  0.16658191549E+02  0.35977396926E+02  0.10566000000E+00 0.  1.
         22    1    1    0    0    0  0.55605695025E+01 -0.11152719572E+02  0.27263832257E+02  0.29976985112E+02  0.00000000000E+00 0. -1.
</event>
<event>
 5    1  0.1680526E-003  0.9118800E+02  0.7818608E-02  0.1130116E+00
         25   -1    0    0    0    0  0.00000000000E+00  0.00000000000E+00  0.99999998245E-14  0.12500000000E+03  0.12500000000E+03 0.  0.
        -13    1    3    3    0    0  0.27604032112E+02 -0.32161159978E+02  0.29795036375E+02  0.51808089683E+02  0.10566000000E+00 0.  1.
         23    2    1    0    0    0  0.11108175978E+02 -0.25695467336E+02 -0.99235372716E+01  0.95299407293E+02  0.90553033208E+02 0.  0.
         13    1    3    3    0    0 -0.16495856133E+02  0.64656926419E+01 -0.39718573646E+02  0.43491317610E+02  0.10566000000E+00 0. -1.
         22    1    1    0    0    0 -0.11108175978E+02  0.25695467336E+02  0.99235372716E+01  0.29700592707E+02  0.00000000000E+00 0.  1.
</event>
<event>
 5    1  0.1680526E-003  0.9118800E+02  0.7818608E-02  0.1130116E+00
         25   -1    0    0    0    0  0.00000000000E+00  0.00000000000E+00  0.99999998245E-14  0.12500000000E+03  0.12500000000E+03 0.  0.
        -13    1    3    3    0    0  0.39625399107E+02  0.59176686971E+01  0.46607275814E+02  0.61460884959E+02  0.10566000000E+00 0. -1.
         23    2    1    0    0    0  0.19322466147E+02  0.11029046532E+02  0.23924997535E+02  0.92328864843E+02  0.86355174777E+02 0.  0.
         13    1    3    3    0    0 -0.20302932960E+02  0.51113778349E+01 -0.22682278279E+02  0.30867979884E+02  0.10566000000E+00 0.  1.
         22    1    1    0    0    0 -0.19322466147E+02 -0.11029046532E+02 -0.23924997535E+02  0.32671135157E+02  0.00000000000E+00 0. -1.
</event>
<event>
 5    1  0.1680526E-003  0.9118800E+02  0.7818608E-02  0.1130116E+00
         25   -1    0    0    0    0  0.00000000000E+00  0.00000000000E+00  0.99999998245E-14  0.12500000000E+03  0.12500000000E+03 0.  0.
        -13    1    3    3    0    0 -0.28358389639E+02 -0.42685799081E+02 -0.28420401050E+02  0.58600393053E+02  0.10566000000E+00 0.  1.
         23    2    1    0    0    0  0.14787607888E+01 -0.25552476513E+02 -0.11586872340E+02  0.96904245872E+02  0.92741907830E+02 0.  0.
         13    1    3    3    0    0  0.29837150428E+02  0.17133322568E+02  0.16833528711E+02  0.38303852819E+02  0.10566000000E+00 0. -1.
         22    1    1    0    0    0 -0.14787607888E+01  0.25552476513E+02  0.11586872340E+02  0.28095754128E+02  0.00000000000E+00 0.  1.
</event>
<event>
 5    1  0.1680526E-003  0.9118800E+02  0.7818608E-02  0.1130116E+00
         25   -1    0    0    0    0  0.00000000000E+00  0.00000000000E+00  0.99999998245E-14  0.12500000000E+03  0.12500000000E+03 0.  0.
        -13    1    3    3    0    0  0.38787023730E+02 -0.55089425185E+01  0.15346682903E+02  0.42075093554E+02  0.10566000000E+00 0.  1.
         23    2    1    0    0    0  0.82873510750E+01  0.69151622019E+01 -0.27117487142E+02  0.95813397508E+02  0.91259790581E+02 0.  0.
         13    1    3    3    0    0 -0.30499672654E+02  0.12424104720E+02 -0.42464170045E+02  0.53738303953E+02  0.10566000000E+00 0. -1.
         22    1    1    0    0    0 -0.82873510750E+01 -0.69151622019E+01  0.27117487142E+02  0.29186602492E+02  0.00000000000E+00 0. -1.
</event>
<event>
 5    1  0.1680526E-003  0.9118800E+02  0.7818608E-02  0.1130116E+00
         25   -1    0    0    0    0  0.00000000000E+00  0.00000000000E+00  0.99999998245E-14  0.12500000000E+03  0.12500000000E+03 0.  0.
        -13    1    3    3    0    0 -0.23419018616E+02  0.36894694315E+02 -0.14002635865E+02  0.45888493948E+02  0.10566000000E+00 0. -1.
         23    2    1    0    0    0  0.32734673075E+01  0.11539938584E+02  0.23608510064E+02  0.98518921507E+02  0.94893257804E+02 0.  0.
         13    1    3    3    0    0  0.26692485923E+02 -0.25354755731E+02  0.37611145929E+02  0.52630427559E+02  0.10566000000E+00 0.  1.
         22    1    1    0    0    0 -0.32734673075E+01 -0.11539938584E+02 -0.23608510064E+02  0.26481078493E+02  0.00000000000E+00 0. -1.
</event>
<event>
 5    1  0.1680526E-003  0.9118800E+02  0.7818608E-02  0.1130116E+00
         25   -1    0    0    0    0  0.00000000000E+00  0.00000000000E+00  0.99999998245E-14  0.12500000000E+03  0.12500000000E+03 0.  0.
        -13    1    3    3    0    0  0.10200297776E+02  0.92819863692E+01 -0.25903139511E+02  0.29345956216E+02  0.10566000000E+00 0. -1.
         23    2    1    0    0    0 -0.75205671936E+01 -0.16948380843E+02  0.27740457394E+02  0.91633257268E+02  0.85342336018E+02 0.  0.
         13    1    3    3    0    0 -0.17720864970E+02 -0.26230367212E+02  0.53643596905E+02  0.62287301052E+02  0.10566000000E+00 0.  1.
         22    1    1    0    0    0  0.75205671936E+01  0.16948380843E+02 -0.27740457394E+02  0.33366742732E+02  0.00000000000E+00 0.  1.
</event>
<event>
 5    1  0.1680526E-003  0.9118800E+02  0.7818608E-02  0.1130116E+00
         25   -1    0    0    0    0  0.00000000000E+00  0.00000000000E+00  0.99999998245E-14  0.12500000000E+03  0.12500000000E+03 0.  0.
        -13    1    3    3    0    0 -0.28962963908E+02 -0.25751434695E+02  0.90071176859E+01  0.39788553633E+02  0.10566000000E+00 0. -1.
         23    2    1    0    0    0  0.12987897287E+02  0.66086203403E+01  0.25800921038E+02  0.95368144419E+02  0.90647868727E+02 0.  0.
         13    1    3    3    0    0  0.41950861195E+02  0.32360055035E+02  0.16793803352E+02  0.55579590786E+02  0.10566000000E+00 0.  1.
         22    1    1    0    0    0 -0.12987897287E+02 -0.66086203403E+01 -0.25800921038E+02  0.29631855581E+02  0.00000000000E+00 0.  1.
</event>
<event>
 5    1  0.1680526E-003  0.9118800E+02  0.7818608E-02  0.1130116E+00
         25   -1    0    0    0    0  0.00000000000E+00  0.00000000000E+00  0.99999998245E-14  0.12500000000E+03  0.12500000000E+03 0.  0.
        -13    1    3    3    0    0 -0.16149355060E+02  0.24662794121E+02  0.21268224010E+02  0.36351115516E+02  0.10566000000E+00 0.  1.
         23    2    1    0    0    0 -0.12725588083E+02 -0.20115143404E+02 -0.17321287699E+02  0.95562157114E+02  0.90915011294E+02 0.  0.
         13    1    3    3    0    0  0.34237669773E+01 -0.44777937524E+02 -0.38589511708E+02  0.59211041598E+02  0.10566000000E+00 0. -1.
         22    1    1    0    0    0  0.12725588083E+02  0.20115143404E+02  0.17321287699E+02  0.29437842886E+02  0.00000000000E+00 0. -1.
</event>
<event>
 5    1  0.1680526E-003  0.9118800E+02  0.7818608E-02  0.1130116E+00
         25   -1    0    0    0    0  0.00000000000E+00  0.00000000000E+00  0.99999998245E-14  0.12500000000E+03  0.12500000000E+03 0.  0.
        -13    1    3    3    0    0 -0.10790329590E+02 -0.51084192082E+01  0.53637056844E+02  0.54949724207E+02  0.10566000000E+00 0.  1.
         23    2    1    0    0    0  0.11275632919E+02  0.12324448467E+02  0.23483285163E+02  0.96181661919E+02  0.91762821882E+02 0.  0.
         13    1    3    3    0    0  0.22065962510E+02  0.17432867675E+02 -0.30153771681E+02  0.41231937712E+02  0.10566000000E+00 0. -1.
         22    1    1    0    0    0 -0.11275632919E+02 -0.12324448467E+02 -0.23483285163E+02  0.28818338081E+02  0.00000000000E+00 0. -1.
</event>
<event>
 5    1  0.1680526E-003  0.9118800E+02  0.7818608E-02  0.1130116E+00
         25   -1    0    0    0    0  0.00000000000E+00  0.00000000000E+00  0.99999998245E-14  0.12500000000E+03  0.12500000000E+03 0.  0.
        -13    1    3    3    0    0  0.22690531434E+02  0.13517465614E+02 -0.20824808923E+02  0.33634296842E+02  0.10566000000E+00 0. -1.
         23    2    1    0    0    0 -0.12515239300E+02 -0.92882484952E+01  0.24861753904E+02  0.95657035221E+02  0.91045366742E+02 0.  0.
         13    1    3    3    0    0 -0.35205770734E+02 -0.22805714109E+02  0.45686562827E+02  0.62022738378E+02  0.10566000000E+00 0.  1.
         22    1    1    0    0    0  0.12515239300E+02  0.92882484952E+01 -0.24861753904E+02  0.29342964779E+02  0.00000000000E+00 0.  1.
</event>
<event>
 5    1  0.1680526E-003  0.9118800E+02  0.7818608E-02  0.1130116E+00
         25   -1    0    0    0    0  0.00000000000E+00  0.00000000000E+00  0.99999998245E-14  0.12500000000E+03  0.12500000000E+03 0.  0.
        -13    1    3    3    0    0 -0.23306167181E+02  0.27863450793E+02  0.12590896875E+02  0.38445951242E+02  0.10566000000E+00 0.  1.
         23    2    1    0    0    0 -0.62649936609E+01 -0.11492412653E+02 -0.25840826952E+02  0.96033225383E+02  0.91560397256E+02 0.  0.
         13    1    3    3    0    0  0.17041173520E+02 -0.39355863447E+02 -0.38431723827E+02  0.57587274141E+02  0.10566000000E+00 0. -1.
         22    1    1    0    0    0  0.62649936609E+01  0.11492412653E+02  0.25840826952E+02  0.28966774617E+02  0.00000000000E+00 0. -1.
</event>
<event>
 5    1  0.1680526E-003  0.9118800E+02  0.7818608E-02  0.1130116E+00
         25   -1    0    0    0    0  0.00000000000E+00  0.00000000000E+00  0.99999998245E-14  0.12500000000E+03  0.12500000000E+03 0.  0.
        -13    1    3    3    0    0 -0.11754773120E+00 -0.10166091101E+02  0.36933500343E+02  0.38307412303E+02  0.10566000000E+00 0. -1.
         23    2    1    0    0    0  0.18901209262E+02 -0.16208212179E+02 -0.16355008823E+02  0.95209931736E+02  0.90429436214E+02 0.  0.
         13    1    3    3    0    0  0.19018756993E+02 -0.60421210771E+01 -0.53288509165E+02  0.56902519433E+02  0.10566000000E+00 0.  1.
         22    1    1    0    0    0 -0.18901209262E+02  0.16208212179E+02  0.16355008823E+02  0.29790068264E+02  0.00000000000E+00 0.  1.
</event>
<event>
 5    1  0.1680526E-003  0.9118800E+02  0.7818608E-02  0.1130116E+00
         25   -1    0    0    0    0  0.00000000000E+00  0.00000000000E+00  0.99999998245E-14  0.12500000000E+03  0.12500000000E+03 0.  0.
        -13    1    3    3    0    0  0.18104888975E+02  0.32398805472E+02 -0.13513029436E+02  0.39497882594E+02  0.10566000000E+00 0. -1.
         23    2    1    0    0    0  0.26651364713E+02 -0.18318267725E+02 -0.60707490708E-01  0.92660274291E+02  0.86833568237E+02 0.  0.
         13    1    3    3    0    0  0.85464757377E+01 -0.50717073197E+02  0.13452321945E+02  0.53162391697E+02  0.10566000000E+00 0.  1.
         22    1    1    0    0    0 -0.26651364713E+02  0.18318267725E+02  0.60707490708E-01  0.32339725709E+02  0.00000000000E+00 0.  1.
</event>
<event>
 5    1  0.1680526E-003  0.9118800E+02  0.7818608E-02  0.1130116E+00
         25   -1    0    0    0    0  0.00000000000E+00  0.00000000000E+00  0.99999998245E-14  0.12500000000E+03  0.12500000000E+03 0.  0.
        -13    1    3    3    0    0 -0.53286532026E+01 -0.38141427990E+02  0.41901142395E+02  0.56911158591E+02  0.10566000000E+00 0. -1.
         23    2    1    0    0    0 -0.85873062854E-01 -0.20151461028E+01  0.29449931768E+02  0.95481079472E+02  0.90803468369E+02 0.  0.
         13    1    3    3    0    0  0.52427801398E+01  0.36126281888E+02 -0.12451210627E+02  0.38569920880E+02  0.10566000000E+00 0.  1.
         22    1    1    0    0    0  0.85873062854E-01  0.20151461028E+01 -0.29449931768E+02  0.29518920528E+02  0.00000000000E+00 0. -1.
</event>
<event>
 5    1  0.1680526E-003  0.9118800E+02  0.7818608E-02  0.1130116E+00
         25   -1    0    0    0    0  0.00000000000E+00  0.00000000000E+00  0.99999998245E-14  0.12500000000E+03  0.12500000000E+03 0.  0.
        -13    1    3    3    0    0 -0.56474429583E+02 -0.10955533195E+02 -0.17049950444E+02  0.60000807315E+02  0.10566000000E+00 0. -1.
         23    2    1    0    0    0 -0.19611341378E+02 -0.10389474059E+02 -0.17285803353E+02  0.96869147197E+02  0.92694588835E+02 0.  0.
         13    1    3    3    0    0  0.36863088205E+02  0.56605913563E+00 -0.23585290942E+00  0.36868339881E+02  0.10566000000E+00 0.  1.
         22    1    1    0    0    0  0.19611341378E+02  0.10389474059E+02  0.17285803353E+02  0.28130852803E+02  0.00000000000E+00 0. -1.
</event>
<event>
 5    1  0.1680526E-003  0.9118800E+02  0.7818608E-02  0.1130116E+00
         25   -1    0    0    0    0  0.00000000000E+00  0.00000000000E+00  0.99999998245E-14  0.12500000000E+03  0.12500000000E+03 0.  0.
        -13    1    3    3    0    0 -0.35787798081E+02  0.43717307130E+02  0.15519770299E+01  0.56518928077E+02  0.10566000000E+00 0. -1.
         23    2    1    0    0    0 -0.88381504453E+01  0.26248562993E+02  0.17357671972E+02  0.92313783658E+02  0.86333341847E+02 0.  0.
         13    1    3    3    0    0  0.26949647636E+02 -0.17468744137E+02  0.15805694942E+02  0.35794855581E+02  0.10566000000E+00 0.  1.
         22    1    1    0    0    0  0.88381504453E+01 -0.26248562993E+02 -0.17357671972E+02  0.32686216342E+02  0.00000000000E+00 0. -1.
</event>
<event>
 5    1  0.1680526E-003  0.9118800E+02  0.7818608E-02  0.1130116E+00
         25   -1    0    0    0    0  0.00000000000E+00  0.00000000000E+00  0.99999998245E-14  0.12500000000E+03  0.12500000000E+03 0.  0.
        -13    1    3    3    0    0 -0.72879838780E+01 -0.29768755097E+02 -0.10692406442E+02  0.32459701302E+02  0.10566000000E+00 0. -1.
         23    2    1    0    0    0 -0.71219704455E+01  0.17078523723E+02 -0.35127393217E+02  0.85296949868E+02  0.75493294185E+02 0.  0.
         13    1    3    3    0    0  0.16601343247E+00  0.46847278820E+02 -0.24434986776E+02  0.52837248566E+02  0.10566000000E+00 0.  1.
         22    1    1    0    0    0  0.71219704455E+01 -0.17078523723E+02  0.35127393217E+02  0.39703050132E+02  0.00000000000E+00 0. -1.
</event>
<event>
 5    1  0.1680526E-003  0.9118800E+02  0.7818608E-02  0.1130116E+00
         25   -1    0    0    0    0  0.00000000000E+00  0.00000000000E+00  0.99999998245E-14  0.12500000000E+03  0.12500000000E+03 0.  0.
        -13    1    3    3    0    0 -0.47756646182E+02  0.24192955829E+02 -0.18406727886E+02  0.56611086916E+02  0.10566000000E+00 0. -1.
         23    2    1    0    0    0 -0.27206109763E+02 -0.53697442548E+01  0.47319107951E+00  0.97264995555E+02  0.93226867847E+02 0.  0.
         13    1    3    3    0    0  0.20550536420E+02 -0.29562700084E+02  0.18879918965E+02  0.40653908638E+02  0.10566000000E+00 0.  1.
         22    1    1    0    0    0  0.27206109763E+02  0.53697442548E+01 -0.47319107951E+00  0.27735004445E+02  0.00000000000E+00 0. -1.
</event>
<event>
 5    1  0.1680526E-003  0.9118800E+02  0.7818608E-02  0.1130116E+00
         25   -1    0    0    0    0  0.00000000000E+00  0.00000000000E+00  0.99999998245E-14  0.12500000000E+03  0.12500000000E+03 0.  0.
        -13    1    3    3    0    0 -0.30216233998E+02 -0.22551585401E+02 -0.17740626079E+02  0.41669362592E+02  0.10566000000E+00 0.  1.
         23    2    1    0    0    0  0.22291345207E+02 -0.35922786029E+01 -0.15637601810E+02  0.97534692300E+02  0.93587782723E+02 0.  0.
         13    1    3    3    0    0  0.52507579205E+02  0.18959306798E+02  0.21030242691E+01  0.55865329708E+02  0.10566000000E+00 0. -1.
         22    1    1    0    0    0 -0.22291345207E+02  0.35922786029E+01  0.15637601810E+02  0.27465307700E+02  0.00000000000E+00 0.  1.
</event>
<event>
 5    1  0.1680526E-003  0.9118800E+02  0.7818608E-02  0.1130116E+00
         25   -1    0    0    0    0  0.00000000000E+00  0.00000000000E+00  0.99999998245E-14  0.12500000000E+03  0.12500000000E+03 0.  0.
        -13    1    3    3    0    0 -0.24708755483E+02 -0.23347669627E+02  0.67162903091E+00  0.34001448853E+02  0.10566000000E+00 0.  1.
         23    2    1    0    0    0 -0.88732485770E+01  0.31068921579E+02 -0.89172772703E+01  0.91480897054E+02  0.85118883120E+02 0.  0.
         13    1    3    3    0    0  0.15835506906E+02  0.54416591206E+02 -0.95889063012E+01  0.57479448201E+02  0.10566000000E+00 0. -1.
         22    1    1    0    0    0  0.88732485770E+01 -0.31068921579E+02  0.89172772703E+01  0.33519102946E+02  0.00000000000E+00 0. -1.
</event>
<event>
 5    1  0.1680526E-003  0.9118800E+02  0.7818608E-02  0.1130116E+00
         25   -1    0    0    0    0  0.00000000000E+00  0.00000000000E+00  0.99999998245E-14  0.12500000000E+03  0.12500000000E+03 0.  0.
        -13    1    3    3    0    0  0.29124543696E+02 -0.50856386964E+01  0.48877354921E+02  0.57123635691E+02  0.10566000000E+00 0.  1.
         23    2    1    0    0    0  0.95216997754E+00 -0.15672828830E+02  0.24715141842E+02  0.95718906655E+02  0.91130273036E+02 0.  0.
         13    1    3    3    0    0 -0.28172373718E+02 -0.10587190133E+02 -0.24162213079E+02  0.38595270964E+02  0.10566000000E+00 0. -1.
         22    1    1    0    0    0 -0.95216997754E+00  0.15672828830E+02 -0.24715141842E+02  0.29281093345E+02  0.00000000000E+00 0.  1.
</event>
<event>
 5    1  0.1680526E-003  0.9118800E+02  0.7818608E-02  0.1130116E+00
         25   -1    0    0    0    0  0.00000000000E+00  0.00000000000E+00  0.99999998245E-14  0.12500000000E+03  0.12500000000E+03 0.  0.
        -13    1    3    3    0    0  0.65266402240E+01  0.13385552942E+02 -0.33444822830E+02  0.36610618656E+02  0.10566000000E+00 0.  1.
         23    2    1    0    0    0 -0.43304884949E+01  0.19465037659E+02  0.23085630181E+02  0.94494473574E+02  0.89434995351E+02 0.  0.
         13    1    3    3    0    0 -0.10857128719E+02  0.60794847174E+01  0.56530453012E+02  0.57883854918E+02  0.10566000000E+00 0. -1.
         22    1    1    0    0    0  0.43304884949E+01 -0.19465037659E+02 -0.23085630181E+02  0.30505526426E+02  0.00000000000E+00 0. -1.
</event>
<event>
 5    1  0.1680526E-003  0.9118800E+02  0.7818608E-02  0.1130116E+00
         25   -1    0    0    0    0  0.00000000000E+00  0.00000000000E+00  0.99999998245E-14  0.12500000000E+03  0.12500000000E+03 0.  0.
        -13    1    3    3    0    0 -0.57025921147E+01 -0.45021902606E+02  0.25012553111E+02  0.51818242427E+02  0.10566000000E+00 0. -1.
         23    2    1    0    0    0  0.22030880517E+02 -0.16919773940E+02  0.29020298096E+01  0.97070441759E+02  0.92965641179E+02 0.  0.
         13    1    3    3    0    0  0.27733472631E+02  0.28102128665E+02 -0.22110523301E+02  0.45252199332E+02  0.10566000000E+00 0.  1.
         22    1    1    0    0    0 -0.22030880517E+02  0.16919773940E+02 -0.29020298096E+01  0.27929558241E+02  0.00000000000E+00 0.  1.
</event>
<event>
 5    1  0.1680526E-003  0.9118800E+02  0.7818608E-02  0.1130116E+00
         25   -1    0    0    0    0  0.00000000000E+00  0.00000000000E+00  0.99999998245E-14  0.12500000000E+03  0.12500000000E+03 0.  0.
        -13    1    3    3    0    0 -0.33492306255E+02  0.14007413015E+02 -0.40655394779E+02  0.54505178527E+02  0.10566000000E+00 0.  1.
         23    2    1    0    0    0  0.81895268262E+00 -0.84159031485E+01 -0.25381184411E+02  0.98247380850E+02  0.94534888863E+02 0.  0.
         13    1    3    3    0    0  0.34311258937E+02 -0.22423316163E+02  0.15274210368E+02  0.43742202322E+02  0.10566000000E+00 0. -1.
         22    1    1    0    0    0 -0.81895268262E+00  0.84159031485E+01  0.25381184411E+02  0.26752619150E+02  0.00000000000E+00 0.  1.
</event>
<event>
 5    1  0.1680526E-003  0.9118800E+02  0.7818608E-02  0.1130116E+00
         25   -1    0    0    0    0  0.00000000000E+00  0.00000000000E+00  0.99999998245E-14  0.12500000000E+03  0.12500000000E+03 0.  0.
        -13    1    3    3    0    0 -0.34495886445E+02 -0.39128560123E+02  0.49937515259E+01  0.52401899940E+02  0.10566000000E+00 0.  1.
         23    2    1    0    0    0 -0.26710732991E+02  0.16076892638E+01  0.13937301881E+02  0.94828882927E+02  0.89901172027E+02 0.  0.
         13    1    3    3    0    0  0.77851534535E+01  0.40736249387E+02  0.89435503556E+01  0.42426982988E+02  0.10566000000E+00 0. -1.
         22    1    1    0    0    0  0.26710732991E+02 -0.16076892638E+01 -0.13937301881E+02  0.30171117073E+02  0.00000000000E+00 0.  1.
</event>
<event>
 5    1  0.1680526E-003  0.9118800E+02  0.7818608E-02  0.1130116E+00
         25   -1    0    0    0    0  0.00000000000E+00  0.00000000000E+00  0.99999998245E-14  0.12500000000E+03  0.12500000000E+03 0.  0.
        -13    1    3    3    0    0 -0.31061473322E+02 -0.11514304478E+02 -0.18753840576E+01  0.33180153133E+02  0.10566000000E+00 0. -1.
         23    2    1    0    0    0  0.23091671612E+02  0.53219516685E+00 -0.22868714621E+02  0.92496359621E+02  0.86597285784E+02 0.  0.
         13    1    3    3    0    0  0.54153144933E+02  0.12046499645E+02 -0.20993330563E+02  0.59316206487E+02  0.10566000000E+00 0.  1.
         22    1    1    0    0    0 -0.23091671612E+02 -0.53219516685E+00  0.22868714621E+02  0.32503640379E+02  0.00000000000E+00 0.  1.
</event>
<event>
 5    1  0.1680526E-003  0.9118800E+02  0.7818608E-02  0.1130116E+00
         25   -1    0    0    0    0  0.00000000000E+00  0.00000000000E+00  0.99999998245E-14  0.12500000000E+03  0.12500000000E+03 0.  0.
        -13    1    3    3    0    0  0.14945942262E+02  0.57091951000E+00  0.30869107516E+02  0.34301896479E+02  0.10566000000E+00 0.  1.
         23    2    1    0    0    0 -0.20165535167E+02  0.41990080134E+01 -0.20046942240E+02  0.96256994415E+02  0.91865383054E+02 0.  0.
         13    1    3    3    0    0 -0.35111477429E+02  0.36280885034E+01 -0.50916049756E+02  0.61955097936E+02  0.10566000000E+00 0. -1.
         22    1    1    0    0    0  0.20165535167E+02 -0.41990080134E+01  0.20046942240E+02  0.28743005585E+02  0.00000000000E+00 0. -1.
</event>
<event>
 5    1  0.1680526E-003  0.9118800E+02  0.7818608E-02  0.1130116E+00
         25   -1    0    0    0    0  0.00000000000E+00  0.00000000000E+00  0.99999998245E-14  0.12500000000E+03  0.12500000000E+03 0.  0.
        -13    1    3    3    0    0 -0.35851917849E-03 -0.53312544019E+02  0.30162978449E+02  0.61253928713E+02  0.10566000000E+00 0.  1.
         23    2    1    0    0    0 -0.83020754880E+01 -0.23380514351E+02  0.16600740579E+02  0.95147738838E+02  0.90343426488E+02 0.  0.
         13    1    3    3    0    0 -0.83017169688E+01  0.29932029668E+02 -0.13562237871E+02  0.33893810125E+02  0.10566000000E+00 0. -1.
         22    1    1    0    0    0  0.83020754880E+01  0.23380514351E+02 -0.16600740579E+02  0.29852261162E+02  0.00000000000E+00 0.  1.
</event>
<event>
 5    1  0.1680526E-003  0.9118800E+02  0.7818608E-02  0.1130116E+00
         25   -1    0    0    0    0  0.00000000000E+00  0.00000000000E+00  0.99999998245E-14  0.12500000000E+03  0.12500000000E+03 0.  0.
        -13    1    3    3    0    0  0.14056436910E+02  0.17385260173E+02 -0.24951710128E+02  0.33502681867E+02  0.10566000000E+00 0.  1.
         23    2    1    0    0    0 -0.14029991512E+02 -0.16922022418E+02  0.19008471745E+02  0.95939416685E+02  0.91432238139E+02 0.  0.
         13    1    3    3    0    0 -0.28086428423E+02 -0.34307282591E+02  0.43960181873E+02  0.62436734818E+02  0.10566000000E+00 0. -1.
         22    1    1    0    0    0  0.14029991512E+02  0.16922022418E+02 -0.19008471745E+02  0.29060583315E+02  0.00000000000E+00 0. -1.
</event>
<event>
 5    1  0.1680526E-003  0.9118800E+02  0.7818608E-02  0.1130116E+00
         25   -1    0    0    0    0  0.00000000000E+00  0.00000000000E+00  0.99999998245E-14  0.12500000000E+03  0.12500000000E+03 0.  0.
        -13    1    3    3    0    0  0.41736796419E+01  0.29674074001E+02  0.36804160485E+02  0.47460801327E+02  0.10566000000E+00 0.  1.
         23    2    1    0    0    0 -0.74627953515E+01 -0.14524740959E+02  0.25790939764E+02  0.94474044023E+02  0.89406437161E+02 0.  0.
         13    1    3    3    0    0 -0.11636474993E+02 -0.44198814960E+02 -0.11013220721E+02  0.47013242696E+02  0.10566000000E+00 0. -1.
         22    1    1    0    0    0  0.74627953515E+01  0.14524740959E+02 -0.25790939764E+02  0.30525955977E+02  0.00000000000E+00 0.  1.
</event>
<event>
 5    1  0.1680526E-003  0.9118800E+02  0.7818608E-02  0.1130116E+00
         25   -1    0    0    0    0  0.00000000000E+00  0.00000000000E+00  0.99999998245E-14  0.12500000000E+03  0.12500000000E+03 0.  0.
        -13    1    3    3    0    0  0.36115426336E+02  0.79081810883E+01 -0.64311166065E+01  0.37526440977E+02  0.10566000000E+00 0.  1.
         23    2    1    0    0    0 -0.93776720392E+01 -0.26365048400E+02  0.72248117024E+01  0.96099231599E+02  0.91650465901E+02 0.  0.
         13    1    3    3    0    0 -0.45493098375E+02 -0.34273229489E+02  0.13655928309E+02  0.58572790623E+02  0.10566000000E+00 0. -1.
         22    1    1    0    0    0  0.93776720392E+01  0.26365048400E+02 -0.72248117024E+01  0.28900768401E+02  0.00000000000E+00 0. -1.
</event>
<event>
 5    1  0.1680526E-003  0.9118800E+02  0.7818608E-02  0.1130116E+00
         25   -1    0    0    0    0  0.00000000000E+00  0.00000000000E+00  0.99999998245E-14  0.12500000000E+03  0.12500000000E+03 0.  0.
        -13    1    3    3    0    0  0.38929873709E+02  0.44000754884E+02 -0.21244940770E+02  0.62473675814E+02  0.10566000000E+00 0.  1.
         23    2    1    0    0    0  0.17897505994E+02  0.20604153101E+02 -0.85367431130E+01  0.96404059225E+02  0.92065274704E+02 0.  0.
         13    1    3    3    0    0 -0.21032367715E+02 -0.23396601783E+02  0.12708197657E+02  0.33930383411E+02  0.10566000000E+00 0. -1.
         22    1    1    0    0    0 -0.17897505994E+02 -0.20604153101E+02  0.85367431130E+01  0.28595940775E+02  0.00000000000E+00 0.  1.
</event>
<event>
 5    1  0.1680526E-003  0.9118800E+02  0.7818608E-02  0.1130116E+00
         25   -1    0    0    0    0  0.00000000000E+00  0.00000000000E+00  0.99999998245E-14  0.12500000000E+03  0.12500000000E+03 0.  0.
        -13    1    3    3    0    0  0.10344152503E+02  0.71075501595E+01 -0.35698972373E+02  0.37841069657E+02  0.10566000000E+00 0. -1.
         23    2    1    0    0    0  0.12009212630E+02  0.18085027663E+02  0.20508939100E+02  0.95135204729E+02  0.90326082514E+02 0.  0.
         13    1    3    3    0    0  0.16650601274E+01  0.10977477504E+02  0.56207911472E+02  0.57294135072E+02  0.10566000000E+00 0.  1.
         22    1    1    0    0    0 -0.12009212630E+02 -0.18085027663E+02 -0.20508939100E+02  0.29864795271E+02  0.00000000000E+00 0.  1.
</event>
<event>
 5    1  0.1680526E-003  0.9118800E+02  0.7818608E-02  0.1130116E+00
         25   -1    0    0    0    0  0.00000000000E+00  0.00000000000E+00  0.99999998245E-14  0.12500000000E+03  0.12500000000E+03 0.  0.
        -13    1    3    3    0    0 -0.23671154481E+02 -0.25662497048E+02  0.39244787740E+02  0.52526677393E+02  0.10566000000E+00 0.  1.
         23    2    1    0    0    0 -0.18780194510E+02 -0.21754271463E+02 -0.37876133945E+01  0.96012243137E+02  0.91531747412E+02 0.  0.
         13    1    3    3    0    0  0.48909599714E+01  0.39082255851E+01 -0.43032401134E+02  0.43485565744E+02  0.10566000000E+00 0. -1.
         22    1    1    0    0    0  0.18780194510E+02  0.21754271463E+02  0.37876133945E+01  0.28987756863E+02  0.00000000000E+00 0.  1.
</event>
<event>
 5    1  0.1680526E-003  0.9118800E+02  0.7818608E-02  0.1130116E+00
         25   -1    0    0    0    0  0.00000000000E+00  0.00000000000E+00  0.99999998245E-14  0.12500000000E+03  0.12500000000E+03 0.  0.
        -13    1    3    3    0    0 -0.30542226654E+02 -0.24360825466E+02 -0.29162465552E+02  0.48751799838E+02  0.10566000000E+00 0. -1.
         23    2    1    0    0    0 -0.22735748902E+02  0.16571295514E+02 -0.67467406793E+01  0.96068345659E+02  0.91608331579E+02 0.  0.
         13    1    3    3    0    0  0.78064777518E+01  0.40932120980E+02  0.22415724872E+02  0.47316545821E+02  0.10566000000E+00 0.  1.
         22    1    1    0    0    0  0.22735748902E+02 -0.16571295514E+02  0.67467406793E+01  0.28931654341E+02  0.00000000000E+00 0. -1.
</event>
<event>
 5    1  0.1680526E-003  0.9118800E+02  0.7818608E-02  0.1130116E+00
         25   -1    0    0    0    0  0.00000000000E+00  0.00000000000E+00  0.99999998245E-14  0.12500000000E+03  0.12500000000E+03 0.  0.
        -13    1    3    3    0    0  0.44320449397E+02 -0.28069886837E+02  0.87718540838E+01  0.53190011938E+02  0.10566000000E+00 0.  1.
         23    2    1    0    0    0  0.73079776384E+01 -0.26451345720E+02  0.18997836736E+02  0.91623391002E+02  0.85327883781E+02 0.  0.
         13    1    3    3    0    0 -0.37012471759E+02  0.16185411170E+01  0.10225982652E+02  0.38433379064E+02  0.10566000000E+00 0. -1.
         22    1    1    0    0    0 -0.73079776384E+01  0.26451345720E+02 -0.18997836736E+02  0.33376608998E+02  0.00000000000E+00 0.  1.
</event>
<event>
 5    1  0.1680526E-003  0.9118800E+02  0.7818608E-02  0.1130116E+00
         25   -1    0    0    0    0  0.00000000000E+00  0.00000000000E+00  0.99999998245E-14  0.12500000000E+03  0.12500000000E+03 0.  0.
        -13    1    3    3    0    0 -0.24596481605E+02  0.30694805669E+02  0.36370328122E+02  0.53572100334E+02  0.10566000000E+00 0.  1.
         23    2    1    0    0    0  0.65629858654E+01  0.34504980117E+01  0.28303478185E+02  0.95741401309E+02  0.91161122894E+02 0.  0.
         13    1    3    3    0    0  0.31159467470E+02 -0.27244307658E+02 -0.80668499376E+01  0.42169300975E+02  0.10566000000E+00 0. -1.
         22    1    1    0    0    0 -0.65629858654E+01 -0.34504980117E+01 -0.28303478185E+02  0.29258598691E+02  0.00000000000E+00 0.  1.
</event>
<event>
 5    1  0.1680526E-003  0.9118800E+02  0.7818608E-02  0.1130116E+00
         25   -1    0    0    0    0  0.00000000000E+00  0.00000000000E+00  0.99999998245E-14  0.12500000000E+03  0.12500000000E+03 0.  0.
        -13    1    3    3    0    0 -0.38959945312E+02 -0.33384242949E+02  0.30093820158E+02  0.59481376848E+02  0.10566000000E+00 0.  1.
         23    2    1    0    0    0 -0.15192823257E+02 -0.23120750104E+02  0.26524412256E+01  0.97207439694E+02  0.93149664109E+02 0.  0.
         13    1    3    3    0    0  0.23767122054E+02  0.10263492846E+02 -0.27441378932E+02  0.37726062846E+02  0.10566000000E+00 0. -1.
         22    1    1    0    0    0  0.15192823257E+02  0.23120750104E+02 -0.26524412256E+01  0.27792560306E+02  0.00000000000E+00 0.  1.
</event>
<event>
 5    1  0.1680526E-003  0.9118800E+02  0.7818608E-02  0.1130116E+00
         25   -1    0    0    0    0  0.00000000000E+00  0.00000000000E+00  0.99999998245E-14  0.12500000000E+03  0.12500000000E+03 0.  0.
        -13    1    3    3    0    0 -0.22227495456E+02  0.39486960429E+02 -0.25532240517E+02  0.52011422476E+02  0.10566000000E+00 0.  1.
         23    2    1    0    0    0  0.82779327892E+01  0.10039640535E+02 -0.27626089081E+02  0.94462820182E+02  0.89390743623E+02 0.  0.
         13    1    3    3    0    0  0.30505428245E+02 -0.29447319894E+02 -0.20938485631E+01  0.42451397706E+02  0.10566000000E+00 0. -1.
         22    1    1    0    0    0 -0.82779327892E+01 -0.10039640535E+02  0.27626089081E+02  0.30537179818E+02  0.00000000000E+00 0.  1.
</event>
<event>
 5    1  0.1680526E-003  0.9118800E+02  0.7818608E-02  0.1130116E+00
         25   -1    0    0    0    0  0.00000000000E+00  0.00000000000E+00  0.99999998245E-14  0.12500000000E+03  0.12500000000E+03 0.  0.
        -13    1    3    3    0    0  0.59546805254E+01 -0.50035588735E+02 -0.18629416670E+02  0.53722292298E+02  0.10566000000E+00 0.  1.
         23    2    1    0    0    0  0.41530543001E+01 -0.24906433608E+02  0.14914599498E+02  0.95673841484E+02  0.91068437843E+02 0.  0.
         13    1    3    3    0    0 -0.18016262252E+01  0.25129155127E+02  0.33544016168E+02  0.41951549186E+02  0.10566000000E+00 0. -1.
         22    1    1    0    0    0 -0.41530543001E+01  0.24906433608E+02 -0.14914599498E+02  0.29326158516E+02  0.00000000000E+00 0.  1.
</event>
<event>
 5    1  0.1680526E-003  0.9118800E+02  0.7818608E-02  0.1130116E+00
         25   -1    0    0    0    0  0.00000000000E+00  0.00000000000E+00  0.99999998245E-14  0.12500000000E+03  0.12500000000E+03 0.  0.
        -13    1    3    3    0    0 -0.14105604265E+02 -0.36503804758E+02 -0.36275976765E+02  0.53361535659E+02  0.10566000000E+00 0. -1.
         23    2    1    0    0    0 -0.13937497311E+02  0.42454036366E+01 -0.25693667166E+02  0.95462873942E+02  0.90778403188E+02 0.  0.
         13    1    3    3    0    0  0.16810695410E+00  0.40749208395E+02  0.10582309599E+02  0.42101338283E+02  0.10566000000E+00 0.  1.
         22    1    1    0    0    0  0.13937497311E+02 -0.42454036366E+01  0.25693667166E+02  0.29537126058E+02  0.00000000000E+00 0. -1.
</event>
<event>
 5    1  0.1680526E-003  0.9118800E+02  0.7818608E-02  0.1130116E+00
         25   -1    0    0    0    0  0.00000000000E+00  0.00000000000E+00  0.99999998245E-14  0.12500000000E+03  0.12500000000E+03 0.  0.
        -13    1    3    3    0    0 -0.44918670935E+02  0.41509487334E+02 -0.35445004815E+01  0.61264175380E+02  0.10566000000E+00 0. -1.
         23    2    1    0    0    0 -0.24231117213E+02  0.14547985050E+02 -0.82146470969E+01  0.95567512213E+02  0.90922373777E+02 0.  0.
         13    1    3    3    0    0  0.20687553722E+02 -0.26961502284E+02 -0.46701466154E+01  0.34303336833E+02  0.10566000000E+00 0.  1.
         22    1    1    0    0    0  0.24231117213E+02 -0.14547985050E+02  0.82146470969E+01  0.29432487787E+02  0.00000000000E+00 0. -1.
</event>
<event>
 5    1  0.1680526E-003  0.9118800E+02  0.7818608E-02  0.1130116E+00
         25   -1    0    0    0    0  0.00000000000E+00  0.00000000000E+00  0.99999998245E-14  0.12500000000E+03  0.12500000000E+03 0.  0.
        -13    1    3    3    0    0 -0.41099006540E+02 -0.12248452296E+02 -0.20649461444E+02  0.47597944747E+02  0.10566000000E+00 0.  1.
         23    2    1    0    0    0 -0.15656004099E+02 -0.19395491702E+02  0.17883103941E+02  0.94322630992E+02  0.89194493933E+02 0.  0.
         13    1    3    3    0    0  0.25443002441E+02 -0.71470394060E+01  0.38532565385E+02  0.46724686244E+02  0.10566000000E+00 0. -1.
         22    1    1    0    0    0  0.15656004099E+02  0.19395491702E+02 -0.17883103941E+02  0.30677369008E+02  0.00000000000E+00 0. -1.
</event>
<event>
 5    1  0.1680526E-003  0.9118800E+02  0.7818608E-02  0.1130116E+00
         25   -1    0    0    0    0  0.00000000000E+00  0.00000000000E+00  0.99999998245E-14  0.12500000000E+03  0.12500000000E+03 0.  0.
        -13    1    3    3    0    0 -0.47356713682E+02  0.15690968186E+02  0.15092503869E+02  0.52121585264E+02  0.10566000000E+00 0.  1.
         23    2    1    0    0    0 -0.88027353589E+01  0.26496075491E+02 -0.45364191527E+01  0.96713797269E+02  0.92484859935E+02 0.  0.
         13    1    3    3    0    0  0.38553978323E+02  0.10805107305E+02 -0.19628923022E+02  0.44592212005E+02  0.10566000000E+00 0. -1.
         22    1    1    0    0    0  0.88027353589E+01 -0.26496075491E+02  0.45364191527E+01  0.28286202731E+02  0.00000000000E+00 0.  1.
</event>
<event>
 5    1  0.1680526E-003  0.9118800E+02  0.7818608E-02  0.1130116E+00
         25   -1    0    0    0    0  0.00000000000E+00  0.00000000000E+00  0.99999998245E-14  0.12500000000E+03  0.12500000000E+03 0.  0.
        -13    1    3    3    0    0 -0.40017629747E+00  0.57263011369E+02 -0.31738826679E-01  0.57264515920E+02  0.10566000000E+00 0.  1.
         23    2    1    0    0    0 -0.16257117039E+01  0.18827487424E+02 -0.17263671580E+02  0.99404071072E+02  0.96052161704E+02 0.  0.
         13    1    3    3    0    0 -0.12255354065E+01 -0.38435523946E+02 -0.17231932754E+02  0.42139555153E+02  0.10566000000E+00 0. -1.
         22    1    1    0    0    0  0.16257117039E+01 -0.18827487424E+02  0.17263671580E+02  0.25595928928E+02  0.00000000000E+00 0.  1.
</event>
<event>
 5    1  0.1680526E-003  0.9118800E+02  0.7818608E-02  0.1130116E+00
         25   -1    0    0    0    0  0.00000000000E+00  0.00000000000E+00  0.99999998245E-14  0.12500000000E+03  0.12500000000E+03 0.  0.
        -13    1    3    3    0    0  0.44834317528E+02  0.35928439591E+02  0.13231339401E+02  0.58958021558E+02  0.10566000000E+00 0. -1.
         23    2    1    0    0    0  0.19451556962E+02  0.95669797006E+01  0.19206869156E+02  0.96038059602E+02  0.91566996787E+02 0.  0.
         13    1    3    3    0    0 -0.25382760566E+02 -0.26361459890E+02  0.59755297542E+01  0.37080038044E+02  0.10566000000E+00 0.  1.
         22    1    1    0    0    0 -0.19451556962E+02 -0.95669797006E+01 -0.19206869156E+02  0.28961940398E+02  0.00000000000E+00 0. -1.
</event>
<event>
 5    1  0.1680526E-003  0.9118800E+02  0.7818608E-02  0.1130116E+00
         25   -1    0    0    0    0  0.00000000000E+00  0.00000000000E+00  0.99999998245E-14  0.12500000000E+03  0.12500000000E+03 0.  0.
        -13    1    3    3    0    0 -0.14183617997E+02 -0.25677767270E+02  0.26234824051E+02  0.39354795241E+02  0.10566000000E+00 0.  1.
         23    2    1    0    0    0  0.99720208489E+00  0.26787129324E+02  0.10693559819E+02  0.96140046240E+02  0.91706115172E+02 0.  0.
         13    1    3    3    0    0  0.15180820082E+02  0.52464896594E+02 -0.15541264232E+02  0.56785250999E+02  0.10566000000E+00 0. -1.
         22    1    1    0    0    0 -0.99720208489E+00 -0.26787129324E+02 -0.10693559819E+02  0.28859953760E+02  0.00000000000E+00 0. -1.
</event>
<event>
 5    1  0.1680526E-003  0.9118800E+02  0.7818608E-02  0.1130116E+00
         25   -1    0    0    0    0  0.00000000000E+00  0.00000000000E+00  0.99999998245E-14  0.12500000000E+03  0.12500000000E+03 0.  0.
        -13    1    3    3    0    0  0.20993667321E+02  0.62680309851E+00  0.37187294688E+02  0.42708699347E+02  0.10566000000E+00 0. -1.
         23    2    1    0    0    0  0.15637028790E+01 -0.30289671438E+02  0.22069556135E+00  0.94669189443E+02  0.89678856821E+02 0.  0.
         13    1    3    3    0    0 -0.19429964442E+02 -0.30916474537E+02 -0.36966599126E+02  0.51960490096E+02  0.10566000000E+00 0.  1.
         22    1    1    0    0    0 -0.15637028790E+01  0.30289671438E+02 -0.22069556135E+00  0.30330810557E+02  0.00000000000E+00 0.  1.
</event>
<event>
 5    1  0.1680526E-003  0.9118800E+02  0.7818608E-02  0.1130116E+00
         25   -1    0    0    0    0  0.00000000000E+00  0.00000000000E+00  0.99999998245E-14  0.12500000000E+03  0.12500000000E+03 0.  0.
        -13    1    3    3    0    0  0.23381217354E+02 -0.24632289393E+02  0.26865111809E+02  0.43303307059E+02  0.10566000000E+00 0. -1.
         23    2    1    0    0    0  0.27747572334E+02  0.18341438778E+02  0.62881442822E+01  0.91149196385E+02  0.84630367458E+02 0.  0.
         13    1    3    3    0    0  0.43663549797E+01  0.42973728171E+02 -0.20576967527E+02  0.47845889326E+02  0.10566000000E+00 0.  1.
         22    1    1    0    0    0 -0.27747572334E+02 -0.18341438778E+02 -0.62881442822E+01  0.33850803615E+02  0.00000000000E+00 0. -1.
</event>
<event>
 5    1  0.1680526E-003  0.9118800E+02  0.7818608E-02  0.1130116E+00
         25   -1    0    0    0    0  0.00000000000E+00  0.00000000000E+00  0.99999998245E-14  0.12500000000E+03  0.12500000000E+03 0.  0.
        -13    1    3    3    0    0 -0.39158049396E+02 -0.10741364790E+02 -0.98439742291E+01  0.41780913617E+02  0.10566000000E+00 0. -1.
         23    2    1    0    0    0  0.59474850467E+01 -0.30966480624E+02  0.42476064449E+01  0.93182745858E+02  0.87582455232E+02 0.  0.
         13    1    3    3    0    0  0.45105534442E+02 -0.20225115834E+02  0.14091580674E+02  0.51401832241E+02  0.10566000000E+00 0.  1.
         22    1    1    0    0    0 -0.59474850467E+01  0.30966480624E+02 -0.42476064449E+01  0.31817254142E+02  0.00000000000E+00 0. -1.
</event>
<event>
 5    1  0.1680526E-003  0.9118800E+02  0.7818608E-02  0.1130116E+00
         25   -1    0    0    0    0  0.00000000000E+00  0.00000000000E+00  0.99999998245E-14  0.12500000000E+03  0.12500000000E+03 0.  0.
        -13    1    3    3    0    0 -0.28269918517E+02 -0.25091789112E+01 -0.15480688370E+02  0.32328735642E+02  0.10566000000E+00 0.  1.
         23    2    1    0    0    0  0.29644746723E+02 -0.72812917448E+01  0.52483044666E+01  0.94026254383E+02  0.88778170717E+02 0.  0.
         13    1    3    3    0    0  0.57914665240E+02 -0.47721128336E+01  0.20728992837E+02  0.61697518741E+02  0.10566000000E+00 0. -1.
         22    1    1    0    0    0 -0.29644746723E+02  0.72812917448E+01 -0.52483044666E+01  0.30973745617E+02  0.00000000000E+00 0. -1.
</event>
<event>
 5    1  0.1680526E-003  0.9118800E+02  0.7818608E-02  0.1130116E+00
         25   -1    0    0    0    0  0.00000000000E+00  0.00000000000E+00  0.99999998245E-14  0.12500000000E+03  0.12500000000E+03 0.  0.
        -13    1    3    3    0    0 -0.47429991443E+02  0.84358259522E+01  0.34065088444E+02  0.59001768300E+02  0.10566000000E+00 0.  1.
         23    2    1    0    0    0 -0.16071190645E+02  0.47080409090E+01  0.29730194169E+02  0.90877672071E+02  0.84228368248E+02 0.  0.
         13    1    3    3    0    0  0.31358800798E+02 -0.37277850432E+01 -0.43348942753E+01  0.31875903771E+02  0.10566000000E+00 0. -1.
         22    1    1    0    0    0  0.16071190645E+02 -0.47080409090E+01 -0.29730194169E+02  0.34122327929E+02  0.00000000000E+00 0.  1.
</event>
<event>
 5    1  0.1680526E-003  0.9118800E+02  0.7818608E-02  0.1130116E+00
         25   -1    0    0    0    0  0.00000000000E+00  0.00000000000E+00  0.99999998245E-14  0.12500000000E+03  0.12500000000E+03 0.  0.
        -13    1    3    3    0    0 -0.52598597132E+02 -0.14362870577E+01 -0.33282824511E+02  0.62261006355E+02  0.10566000000E+00 0.  1.
         23    2    1    0    0    0 -0.25048883900E+02  0.14311505115E+01 -0.12021638874E+02  0.97178882524E+02  0.93111334599E+02 0.  0.
         13    1    3    3    0    0  0.27549713233E+02  0.28674375692E+01  0.21261185637E+02  0.34917876169E+02  0.10566000000E+00 0. -1.
         22    1    1    0    0    0  0.25048883900E+02 -0.14311505115E+01  0.12021638874E+02  0.27821117476E+02  0.00000000000E+00 0.  1.
</event>
<event>
 5    1  0.1680526E-003  0.9118800E+02  0.7818608E-02  0.1130116E+00
         25   -1    0    0    0    0  0.00000000000E+00  0.00000000000E+00  0.99999998245E-14  0.12500000000E+03  0.12500000000E+03 0.  0.
        -13    1    3    3    0    0  0.44710048448E+01 -0.13551583755E+02 -0.37356140445E+02  0.39989094758E+02  0.10566000000E+00 0. -1.
         23    2    1    0    0    0  0.26833972487E+02 -0.86954527600E-01  0.11830798578E+02  0.95673605139E+02  0.91068113436E+02 0.  0.
         13    1    3    3    0    0  0.22362967642E+02  0.13464629227E+02  0.49186939023E+02  0.55684510382E+02  0.10566000000E+00 0.  1.
         22    1    1    0    0    0 -0.26833972487E+02  0.86954527600E-01 -0.11830798578E+02  0.29326394861E+02  0.00000000000E+00 0.  1.
</event>
<event>
 5    1  0.1680526E-003  0.9118800E+02  0.7818608E-02  0.1130116E+00
         25   -1    0    0    0    0  0.00000000000E+00  0.00000000000E+00  0.99999998245E-14  0.12500000000E+03  0.12500000000E+03 0.  0.
        -13    1    3    3    0    0  0.31304769900E+02 -0.38447664085E+01  0.15741085826E+02  0.35250018358E+02  0.10566000000E+00 0.  1.
         23    2    1    0    0    0 -0.25213377279E+02  0.11683232758E+02 -0.36177248683E+01  0.96976790785E+02  0.92839634296E+02 0.  0.
         13    1    3    3    0    0 -0.56518147179E+02  0.15527999166E+02 -0.19358810694E+02  0.61726772427E+02  0.10566000000E+00 0. -1.
         22    1    1    0    0    0  0.25213377279E+02 -0.11683232758E+02  0.36177248683E+01  0.28023209215E+02  0.00000000000E+00 0. -1.
</event>
<event>
 5    1  0.1680526E-003  0.9118800E+02  0.7818608E-02  0.1130116E+00
         25   -1    0    0    0    0  0.00000000000E+00  0.00000000000E+00  0.99999998245E-14  0.12500000000E+03  0.12500000000E+03 0.  0.
        -13    1    3    3    0    0 -0.52843155352E+02 -0.49801684400E+00  0.20372969614E+02  0.56636703146E+02  0.10566000000E+00 0.  1.
         23    2    1    0    0    0 -0.13872955966E+02 -0.53763486018E+01  0.24716779734E+02  0.96150680563E+02  0.91720609139E+02 0.  0.
         13    1    3    3    0    0  0.38970199386E+02 -0.48783317578E+01  0.43438101206E+01  0.39513977417E+02  0.10566000000E+00 0. -1.
         22    1    1    0    0    0  0.13872955966E+02  0.53763486018E+01 -0.24716779734E+02  0.28849319437E+02  0.00000000000E+00 0.  1.
</event>
<event>
 5    1  0.1680526E-003  0.9118800E+02  0.7818608E-02  0.1130116E+00
         25   -1    0    0    0    0  0.00000000000E+00  0.00000000000E+00  0.99999998245E-14  0.12500000000E+03  0.12500000000E+03 0.  0.
        -13    1    3    3    0    0 -0.36217234706E+02  0.24211871837E+02  0.18469651084E+02  0.47318516490E+02  0.10566000000E+00 0.  1.
         23    2    1    0    0    0 -0.19196399694E+02 -0.19838734587E+02  0.11664511048E+02  0.95031049915E+02  0.90181830092E+02 0.  0.
         13    1    3    3    0    0  0.17020835013E+02 -0.44050606424E+02 -0.68051400359E+01  0.47712533425E+02  0.10566000000E+00 0. -1.
         22    1    1    0    0    0  0.19196399694E+02  0.19838734587E+02 -0.11664511048E+02  0.29968950085E+02  0.00000000000E+00 0.  1.
</event>
<event>
 5    1  0.1680526E-003  0.9118800E+02  0.7818608E-02  0.1130116E+00
         25   -1    0    0    0    0  0.00000000000E+00  0.00000000000E+00  0.99999998245E-14  0.12500000000E+03  0.12500000000E+03 0.  0.
        -13    1    3    3    0    0  0.14779547488E+02  0.39019130663E+02  0.46108710138E+02  0.62184820465E+02  0.10566000000E+00 0.  1.
         23    2    1    0    0    0  0.61885111622E+01  0.24315856955E+02  0.22474109153E+02  0.91315520606E+02  0.84875674674E+02 0.  0.
         13    1    3    3    0    0 -0.85910363262E+01 -0.14703273708E+02 -0.23634600985E+02  0.29130700140E+02  0.10566000000E+00 0. -1.
         22    1    1    0    0    0 -0.61885111622E+01 -0.24315856955E+02 -0.22474109153E+02  0.33684479394E+02  0.00000000000E+00 0.  1.
</event>
<event>
 5    1  0.1680526E-003  0.9118800E+02  0.7818608E-02  0.1130116E+00
         25   -1    0    0    0    0  0.00000000000E+00  0.00000000000E+00  0.99999998245E-14  0.12500000000E+03  0.12500000000E+03 0.  0.
        -13    1    3    3    0    0  0.35518820473E+02  0.71430724261E+01 -0.34739676291E+02  0.50194286172E+02  0.10566000000E+00 0.  1.
         23    2    1    0    0    0  0.29927724638E+02 -0.11155608028E+00  0.80943823208E+01  0.93996771589E+02  0.88736649121E+02 0.  0.
         13    1    3    3    0    0 -0.55910958350E+01 -0.72546285064E+01  0.42834058612E+02  0.43802485416E+02  0.10566000000E+00 0. -1.
         22    1    1    0    0    0 -0.29927724638E+02  0.11155608028E+00 -0.80943823208E+01  0.31003228411E+02  0.00000000000E+00 0.  1.
</event>
<event>
 5    1  0.1680526E-003  0.9118800E+02  0.7818608E-02  0.1130116E+00
         25   -1    0    0    0    0  0.00000000000E+00  0.00000000000E+00  0.99999998245E-14  0.12500000000E+03  0.12500000000E+03 0.  0.
        -13    1    3    3    0    0 -0.76815897065E+01  0.37265361546E+02  0.15533548808E+02  0.41097643414E+02  0.10566000000E+00 0.  1.
         23    2    1    0    0    0  0.19535888673E+02 -0.11062371031E+02  0.17402960084E+02  0.96594190405E+02  0.92323061048E+02 0.  0.
         13    1    3    3    0    0  0.27217478379E+02 -0.48327732577E+02  0.18694112756E+01  0.55496546991E+02  0.10566000000E+00 0. -1.
         22    1    1    0    0    0 -0.19535888673E+02  0.11062371031E+02 -0.17402960084E+02  0.28405809595E+02  0.00000000000E+00 0. -1.
</event>
<event>
 5    1  0.1680526E-003  0.9118800E+02  0.7818608E-02  0.1130116E+00
         25   -1    0    0    0    0  0.00000000000E+00  0.00000000000E+00  0.99999998245E-14  0.12500000000E+03  0.12500000000E+03 0.  0.
        -13    1    3    3    0    0 -0.48636514090E+01  0.43741192259E+02 -0.32437751459E+02  0.54673264847E+02  0.10566000000E+00 0. -1.
         23    2    1    0    0    0 -0.10945078727E+02  0.63042688178E+01 -0.29730612114E+02  0.92697556589E+02  0.86887220851E+02 0.  0.
         13    1    3    3    0    0 -0.60814273180E+01 -0.37436923441E+02  0.27071393453E+01  0.38024291742E+02  0.10566000000E+00 0.  1.
         22    1    1    0    0    0  0.10945078727E+02 -0.63042688178E+01  0.29730612114E+02  0.32302443411E+02  0.00000000000E+00 0. -1.
</event>
<event>
 5    1  0.1680526E-003  0.9118800E+02  0.7818608E-02  0.1130116E+00
         25   -1    0    0    0    0  0.00000000000E+00  0.00000000000E+00  0.99999998245E-14  0.12500000000E+03  0.12500000000E+03 0.  0.
        -13    1    3    3    0    0 -0.59366762801E+00  0.18014118623E+02  0.13142633561E+02  0.22306969583E+02  0.10566000000E+00 0. -1.
         23    2    1    0    0    0  0.70087583051E+00 -0.20432433660E+02 -0.35325023664E+02  0.84185384124E+02  0.73629790378E+02 0.  0.
         13    1    3    3    0    0  0.12945434585E+01 -0.38446552283E+02 -0.48467657225E+02  0.61878414542E+02  0.10566000000E+00 0.  1.
         22    1    1    0    0    0 -0.70087583051E+00  0.20432433660E+02  0.35325023664E+02  0.40814615876E+02  0.00000000000E+00 0.  1.
</event>
<event>
 5    1  0.1680526E-003  0.9118800E+02  0.7818608E-02  0.1130116E+00
         25   -1    0    0    0    0  0.00000000000E+00  0.00000000000E+00  0.99999998245E-14  0.12500000000E+03  0.12500000000E+03 0.  0.
        -13    1    3    3    0    0  0.12173523660E+02  0.10220167476E+02  0.33293441499E+02  0.36893236675E+02  0.10566000000E+00 0.  1.
         23    2    1    0    0    0 -0.21155113208E+02 -0.19606979751E+02 -0.49422643648E+01  0.95735713799E+02  0.91153323855E+02 0.  0.
         13    1    3    3    0    0 -0.33328636867E+02 -0.29827147227E+02 -0.38235705863E+02  0.58842477124E+02  0.10566000000E+00 0. -1.
         22    1    1    0    0    0  0.21155113208E+02  0.19606979751E+02  0.49422643648E+01  0.29264286201E+02  0.00000000000E+00 0. -1.
</event>
<event>
 5    1  0.1680526E-003  0.9118800E+02  0.7818608E-02  0.1130116E+00
         25   -1    0    0    0    0  0.00000000000E+00  0.00000000000E+00  0.99999998245E-14  0.12500000000E+03  0.12500000000E+03 0.  0.
        -13    1    3    3    0    0 -0.13473597670E+02 -0.28415732170E+01 -0.33747338109E+02  0.36448681265E+02  0.10566000000E+00 0. -1.
         23    2    1    0    0    0 -0.62828010928E+01 -0.30082469880E+02  0.13480426247E+02  0.91441834444E+02  0.85061498993E+02 0.  0.
         13    1    3    3    0    0  0.71907965771E+01 -0.27240896663E+02  0.47227764356E+02  0.54993153179E+02  0.10566000000E+00 0.  1.
         22    1    1    0    0    0  0.62828010928E+01  0.30082469880E+02 -0.13480426247E+02  0.33558165556E+02  0.00000000000E+00 0.  1.
</event>
<event>
 5    1  0.1680526E-003  0.9118800E+02  0.7818608E-02  0.1130116E+00
         25   -1    0    0    0    0  0.00000000000E+00  0.00000000000E+00  0.99999998245E-14  0.12500000000E+03  0.12500000000E+03 0.  0.
        -13    1    3    3    0    0 -0.45420564965E+02 -0.12595494278E+02 -0.36611008711E+02  0.59682923191E+02  0.10566000000E+00 0. -1.
         23    2    1    0    0    0 -0.31003005055E+01 -0.10502926335E+02 -0.12290056330E+02  0.10853886974E+03  0.10728335116E+03 0.  0.
         13    1    3    3    0    0  0.42320264459E+02  0.20925679429E+01  0.24320952381E+02  0.48855946550E+02  0.10566000000E+00 0.  1.
         22    1    1    0    0    0  0.31003005055E+01  0.10502926335E+02  0.12290056330E+02  0.16461130259E+02  0.00000000000E+00 0. -1.
</event>
<event>
 5    1  0.1680526E-003  0.9118800E+02  0.7818608E-02  0.1130116E+00
         25   -1    0    0    0    0  0.00000000000E+00  0.00000000000E+00  0.99999998245E-14  0.12500000000E+03  0.12500000000E+03 0.  0.
        -13    1    3    3    0    0  0.24959765178E+02  0.52684302773E+02 -0.22014063601E+02  0.62315774862E+02  0.10566000000E+00 0.  1.
         23    2    1    0    0    0  0.80923092944E+01  0.23865557514E+02 -0.11275622842E+02  0.97392211685E+02  0.93397285406E+02 0.  0.
         13    1    3    3    0    0 -0.16867455883E+02 -0.28818745258E+02  0.10738440758E+02  0.35076436823E+02  0.10566000000E+00 0. -1.
         22    1    1    0    0    0 -0.80923092944E+01 -0.23865557514E+02  0.11275622842E+02  0.27607788315E+02  0.00000000000E+00 0.  1.
</event>
<event>
 5    1  0.1680526E-003  0.9118800E+02  0.7818608E-02  0.1130116E+00
         25   -1    0    0    0    0  0.00000000000E+00  0.00000000000E+00  0.99999998245E-14  0.12500000000E+03  0.12500000000E+03 0.  0.
        -13    1    3    3    0    0 -0.30202135338E+02 -0.38324307386E+02 -0.29836726409E+02  0.57194081184E+02  0.10566000000E+00 0.  1.
         23    2    1    0    0    0 -0.27672257111E+01 -0.11516708251E+02 -0.26832557436E+02  0.95669499737E+02  0.91062478191E+02 0.  0.
         13    1    3    3    0    0  0.27434909627E+02  0.26807599135E+02  0.30041689728E+01  0.38475418554E+02  0.10566000000E+00 0. -1.
         22    1    1    0    0    0  0.27672257111E+01  0.11516708251E+02  0.26832557436E+02  0.29330500263E+02  0.00000000000E+00 0.  1.
</event>
<event>
 5    1  0.1680526E-003  0.9118800E+02  0.7818608E-02  0.1130116E+00
         25   -1    0    0    0    0  0.00000000000E+00  0.00000000000E+00  0.99999998245E-14  0.12500000000E+03  0.12500000000E+03 0.  0.
        -13    1    3    3    0    0 -0.27549870701E+02 -0.17729253566E+01  0.35914365346E+02  0.45298912152E+02  0.10566000000E+00 0.  1.
         23    2    1    0    0    0 -0.22503279504E+02 -0.16932914842E+02 -0.10928175376E+02  0.94791620193E+02  0.89849346399E+02 0.  0.
         13    1    3    3    0    0  0.50465911961E+01 -0.15159989486E+02 -0.46842540722E+02  0.49492708041E+02  0.10566000000E+00 0. -1.
         22    1    1    0    0    0  0.22503279504E+02  0.16932914842E+02  0.10928175376E+02  0.30208379807E+02  0.00000000000E+00 0. -1.
</event>
<event>
 5    1  0.1680526E-003  0.9118800E+02  0.7818608E-02  0.1130116E+00
         25   -1    0    0    0    0  0.00000000000E+00  0.00000000000E+00  0.99999998245E-14  0.12500000000E+03  0.12500000000E+03 0.  0.
        -13    1    3    3    0    0  0.13015093383E+02 -0.39400198415E+02 -0.24468967111E+02  0.48171670165E+02  0.10566000000E+00 0.  1.
         23    2    1    0    0    0 -0.14307381644E+02 -0.25811070021E+02  0.96547346378E+01  0.93949615042E+02  0.88670196574E+02 0.  0.
         13    1    3    3    0    0 -0.27322475026E+02  0.13589128394E+02  0.34123701749E+02  0.45777944877E+02  0.10566000000E+00 0. -1.
         22    1    1    0    0    0  0.14307381644E+02  0.25811070021E+02 -0.96547346378E+01  0.31050384958E+02  0.00000000000E+00 0.  1.
</event>
<event>
 5    1  0.1680526E-003  0.9118800E+02  0.7818608E-02  0.1130116E+00
         25   -1    0    0    0    0  0.00000000000E+00  0.00000000000E+00  0.99999998245E-14  0.12500000000E+03  0.12500000000E+03 0.  0.
        -13    1    3    3    0    0 -0.10887559871E+02 -0.37006821260E+02 -0.54296548554E+01  0.38955565656E+02  0.10566000000E+00 0.  1.
         23    2    1    0    0    0 -0.74870853283E+01  0.17169710870E+02  0.18854204346E+02  0.98423009208E+02  0.94766831233E+02 0.  0.
         13    1    3    3    0    0  0.34004745424E+01  0.54176532130E+02  0.24283859201E+02  0.59467443551E+02  0.10566000000E+00 0. -1.
         22    1    1    0    0    0  0.74870853283E+01 -0.17169710870E+02 -0.18854204346E+02  0.26576990792E+02  0.00000000000E+00 0. -1.
</event>
<event>
 5    1  0.1680526E-003  0.9118800E+02  0.7818608E-02  0.1130116E+00
         25   -1    0    0    0    0  0.00000000000E+00  0.00000000000E+00  0.99999998245E-14  0.12500000000E+03  0.12500000000E+03 0.  0.
        -13    1    3    3    0    0  0.89144164541E+01 -0.56616434955E+02  0.14769670861E+02  0.59186500733E+02  0.10566000000E+00 0. -1.
         23    2    1    0    0    0  0.15361467213E+01 -0.22443846787E+02  0.20441257602E+02  0.94603766390E+02  0.89587619666E+02 0.  0.
         13    1    3    3    0    0 -0.73782697329E+01  0.34172588168E+02  0.56715867418E+01  0.35417265656E+02  0.10566000000E+00 0.  1.
         22    1    1    0    0    0 -0.15361467213E+01  0.22443846787E+02 -0.20441257602E+02  0.30396233610E+02  0.00000000000E+00 0. -1.
</event>
<event>
 5    1  0.1680526E-003  0.9118800E+02  0.7818608E-02  0.1130116E+00
         25   -1    0    0    0    0  0.00000000000E+00  0.00000000000E+00  0.99999998245E-14  0.12500000000E+03  0.12500000000E+03 0.  0.
        -13    1    3    3    0    0  0.19672121880E+02  0.25460799198E+02 -0.82816461064E+01  0.33224110242E+02  0.10566000000E+00 0.  1.
         23    2    1    0    0    0 -0.12055872916E+02 -0.22974406910E+02  0.14301151158E+02  0.95374160450E+02  0.90656164227E+02 0.  0.
         13    1    3    3    0    0 -0.31727994796E+02 -0.48435206108E+02  0.22582797265E+02  0.62150050208E+02  0.10566000000E+00 0. -1.
         22    1    1    0    0    0  0.12055872916E+02  0.22974406910E+02 -0.14301151158E+02  0.29625839550E+02  0.00000000000E+00 0. -1.
</event>
<event>
 5    1  0.1680526E-003  0.9118800E+02  0.7818608E-02  0.1130116E+00
         25   -1    0    0    0    0  0.00000000000E+00  0.00000000000E+00  0.99999998245E-14  0.12500000000E+03  0.12500000000E+03 0.  0.
        -13    1    3    3    0    0 -0.35546227375E+02 -0.27536325396E+02 -0.21959752280E+02  0.50040237621E+02  0.10566000000E+00 0. -1.
         23    2    1    0    0    0  0.80158211013E+01 -0.24813070008E+02 -0.16775380516E+02  0.93994271133E+02  0.88733126752E+02 0.  0.
         13    1    3    3    0    0  0.43562048476E+02  0.27232553883E+01  0.51843717645E+01  0.43954033512E+02  0.10566000000E+00 0.  1.
         22    1    1    0    0    0 -0.80158211013E+01  0.24813070008E+02  0.16775380516E+02  0.31005728867E+02  0.00000000000E+00 0. -1.
</event>
<event>
 5    1  0.1680526E-003  0.9118800E+02  0.7818608E-02  0.1130116E+00
         25   -1    0    0    0    0  0.00000000000E+00  0.00000000000E+00  0.99999998245E-14  0.12500000000E+03  0.12500000000E+03 0.  0.
        -13    1    3    3    0    0 -0.36511035609E+02  0.31627813707E+01 -0.60438222353E+01  0.37142938205E+02  0.10566000000E+00 0.  1.
         23    2    1    0    0    0  0.37793316479E+01 -0.99203261891E+01  0.30259701104E+02  0.92932169853E+02  0.87224093365E+02 0.  0.
         13    1    3    3    0    0  0.40290367257E+02 -0.13083107560E+02  0.36303523339E+02  0.55789231649E+02  0.10566000000E+00 0. -1.
         22    1    1    0    0    0 -0.37793316479E+01  0.99203261891E+01 -0.30259701104E+02  0.32067830147E+02  0.00000000000E+00 0. -1.
</event>
<event>
 5    1  0.1680526E-003  0.9118800E+02  0.7818608E-02  0.1130116E+00
         25   -1    0    0    0    0  0.00000000000E+00  0.00000000000E+00  0.99999998245E-14  0.12500000000E+03  0.12500000000E+03 0.  0.
        -13    1    3    3    0    0 -0.37710012843E+02 -0.18905876508E+02 -0.21478807010E+02  0.47337380048E+02  0.10566000000E+00 0.  1.
         23    2    1    0    0    0 -0.21906930287E+02  0.20078249691E+02  0.14546263951E+01  0.95248266551E+02  0.90482410654E+02 0.  0.
         13    1    3    3    0    0  0.15803082556E+02  0.38984126198E+02  0.22933433405E+02  0.47910886503E+02  0.10566000000E+00 0. -1.
         22    1    1    0    0    0  0.21906930287E+02 -0.20078249691E+02 -0.14546263951E+01  0.29751733449E+02  0.00000000000E+00 0. -1.
</event>
<event>
 5    1  0.1680526E-003  0.9118800E+02  0.7818608E-02  0.1130116E+00
         25   -1    0    0    0    0  0.00000000000E+00  0.00000000000E+00  0.99999998245E-14  0.12500000000E+03  0.12500000000E+03 0.  0.
        -13    1    3    3    0    0  0.10379828791E+02 -0.40126871194E+02 -0.41441353945E+02  0.58611463199E+02  0.10566000000E+00 0.  1.
         23    2    1    0    0    0 -0.15696515436E+00 -0.71262995190E+01 -0.28548733277E+02  0.95574858461E+02  0.90932472831E+02 0.  0.
         13    1    3    3    0    0 -0.10536793945E+02  0.33000571675E+02  0.12892620668E+02  0.36963395261E+02  0.10566000000E+00 0. -1.
         22    1    1    0    0    0  0.15696515436E+00  0.71262995190E+01  0.28548733277E+02  0.29425141539E+02  0.00000000000E+00 0.  1.
</event>
<event>
 5    1  0.1680526E-003  0.9118800E+02  0.7818608E-02  0.1130116E+00
         25   -1    0    0    0    0  0.00000000000E+00  0.00000000000E+00  0.99999998245E-14  0.12500000000E+03  0.12500000000E+03 0.  0.
        -13    1    3    3    0    0  0.21341893223E+02 -0.54613851754E+02 -0.35708173963E+01  0.58744455999E+02  0.10566000000E+00 0. -1.
         23    2    1    0    0    0  0.29772098884E+01 -0.26988875916E+02  0.11908540950E+02  0.95350774892E+02  0.90623913638E+02 0.  0.
         13    1    3    3    0    0 -0.18364683334E+02  0.27624975838E+02  0.15479358346E+02  0.36606318893E+02  0.10566000000E+00 0.  1.
         22    1    1    0    0    0 -0.29772098884E+01  0.26988875916E+02 -0.11908540950E+02  0.29649225108E+02  0.00000000000E+00 0. -1.
</event>
<event>
 5    1  0.1680526E-003  0.9118800E+02  0.7818608E-02  0.1130116E+00
         25   -1    0    0    0    0  0.00000000000E+00  0.00000000000E+00  0.99999998245E-14  0.12500000000E+03  0.12500000000E+03 0.  0.
        -13    1    3    3    0    0 -0.68494376181E+01  0.29981213187E+02 -0.30434036890E+02  0.43266958586E+02  0.10566000000E+00 0. -1.
         23    2    1    0    0    0  0.30276805058E+02  0.10344073509E+02 -0.43420899972E+01  0.92711634808E+02  0.86907472072E+02 0.  0.
         13    1    3    3    0    0  0.37126242676E+02 -0.19637139678E+02  0.26091946893E+02  0.49444676221E+02  0.10566000000E+00 0.  1.
         22    1    1    0    0    0 -0.30276805058E+02 -0.10344073509E+02  0.43420899972E+01  0.32288365192E+02  0.00000000000E+00 0. -1.
</event>
<event>
 5    1  0.1680526E-003  0.9118800E+02  0.7818608E-02  0.1130116E+00
         25   -1    0    0    0    0  0.00000000000E+00  0.00000000000E+00  0.99999998245E-14  0.12500000000E+03  0.12500000000E+03 0.  0.
        -13    1    3    3    0    0  0.42620925032E+02 -0.24059515317E+01  0.32103992543E+01  0.42809457843E+02  0.10566000000E+00 0. -1.
         23    2    1    0    0    0 -0.44820166082E+01 -0.28111376034E+02  0.94937147918E+00  0.96517738123E+02  0.92219491057E+02 0.  0.
         13    1    3    3    0    0 -0.47102941641E+02 -0.25705424502E+02 -0.22610277751E+01  0.53708280280E+02  0.10566000000E+00 0.  1.
         22    1    1    0    0    0  0.44820166082E+01  0.28111376034E+02 -0.94937147918E+00  0.28482261877E+02  0.00000000000E+00 0.  1.
</event>
<event>
 5    1  0.1680526E-003  0.9118800E+02  0.7818608E-02  0.1130116E+00
         25   -1    0    0    0    0  0.00000000000E+00  0.00000000000E+00  0.99999998245E-14  0.12500000000E+03  0.12500000000E+03 0.  0.
        -13    1    3    3    0    0 -0.37035585907E+02  0.13426683180E+02  0.43789560487E+02  0.58902013687E+02  0.10566000000E+00 0. -1.
         23    2    1    0    0    0 -0.65514726917E+01  0.16343090937E+02  0.23494058863E+02  0.95640347113E+02  0.91022452056E+02 0.  0.
         13    1    3    3    0    0  0.30484113215E+02  0.29164077562E+01 -0.20295501624E+02  0.36738333426E+02  0.10566000000E+00 0.  1.
         22    1    1    0    0    0  0.65514726917E+01 -0.16343090937E+02 -0.23494058863E+02  0.29359652887E+02  0.00000000000E+00 0. -1.
</event>
<event>
 5    1  0.1680526E-003  0.9118800E+02  0.7818608E-02  0.1130116E+00
         25   -1    0    0    0    0  0.00000000000E+00  0.00000000000E+00  0.99999998245E-14  0.12500000000E+03  0.12500000000E+03 0.  0.
        -13    1    3    3    0    0 -0.23894158687E+02  0.14328442634E+02  0.50668837208E+02  0.57823674353E+02  0.10566000000E+00 0.  1.
         23    2    1    0    0    0 -0.21455575116E+02 -0.62708604423E+01  0.19098443091E+02  0.95599048948E+02  0.90965720120E+02 0.  0.
         13    1    3    3    0    0  0.24385835710E+01 -0.20599303076E+02 -0.31570394117E+02  0.37775374595E+02  0.10566000000E+00 0. -1.
         22    1    1    0    0    0  0.21455575116E+02  0.62708604423E+01 -0.19098443091E+02  0.29400951052E+02  0.00000000000E+00 0.  1.
</event>
<event>
 5    1  0.1680526E-003  0.9118800E+02  0.7818608E-02  0.1130116E+00
         25   -1    0    0    0    0  0.00000000000E+00  0.00000000000E+00  0.99999998245E-14  0.12500000000E+03  0.12500000000E+03 0.  0.
        -13    1    3    3    0    0 -0.13809017658E+02  0.50578818465E+01 -0.35701574704E+02  0.38611976611E+02  0.10566000000E+00 0.  1.
         23    2    1    0    0    0  0.29922294324E+02  0.25492372952E+01 -0.24306216353E+00  0.94968326926E+02  0.90094848529E+02 0.  0.
         13    1    3    3    0    0  0.43731311982E+02 -0.25086445513E+01  0.35458512541E+02  0.56356350315E+02  0.10566000000E+00 0. -1.
         22    1    1    0    0    0 -0.29922294324E+02 -0.25492372952E+01  0.24306216353E+00  0.30031673074E+02  0.00000000000E+00 0. -1.
</event>
<event>
 5    1  0.1680526E-003  0.9118800E+02  0.7818608E-02  0.1130116E+00
         25   -1    0    0    0    0  0.00000000000E+00  0.00000000000E+00  0.99999998245E-14  0.12500000000E+03  0.12500000000E+03 0.  0.
        -13    1    3    3    0    0  0.29269730085E+02 -0.20818245551E+02  0.14284373762E+02  0.38654507432E+02  0.10566000000E+00 0. -1.
         23    2    1    0    0    0 -0.15914860674E+01  0.31067570958E+01 -0.28330841692E+02  0.96454924093E+02  0.92134309697E+02 0.  0.
         13    1    3    3    0    0 -0.30861216152E+02  0.23925002646E+02 -0.42615215454E+02  0.57800416661E+02  0.10566000000E+00 0.  1.
         22    1    1    0    0    0  0.15914860674E+01 -0.31067570958E+01  0.28330841692E+02  0.28545075907E+02  0.00000000000E+00 0.  1.
</event>
<event>
 5    1  0.1680526E-003  0.9118800E+02  0.7818608E-02  0.1130116E+00
         25   -1    0    0    0    0  0.00000000000E+00  0.00000000000E+00  0.99999998245E-14  0.12500000000E+03  0.12500000000E+03 0.  0.
        -13    1    3    3    0    0  0.23664928112E+02  0.27607993419E+02  0.11824911021E+02  0.38237021431E+02  0.10566000000E+00 0.  1.
         23    2    1    0    0    0 -0.18445427170E+02 -0.10644798237E+02 -0.12716711132E+02  0.10019555977E+03  0.97076721942E+02 0.  0.
         13    1    3    3    0    0 -0.42110355282E+02 -0.38252791656E+02 -0.24541622153E+02  0.61958538342E+02  0.10566000000E+00 0. -1.
         22    1    1    0    0    0  0.18445427170E+02  0.10644798237E+02  0.12716711132E+02  0.24804440228E+02  0.00000000000E+00 0. -1.
</event>
<event>
 5    1  0.1680526E-003  0.9118800E+02  0.7818608E-02  0.1130116E+00
         25   -1    0    0    0    0  0.00000000000E+00  0.00000000000E+00  0.99999998245E-14  0.12500000000E+03  0.12500000000E+03 0.  0.
        -13    1    3    3    0    0  0.27582294469E+02 -0.23285761619E+02 -0.48366866853E+02  0.60352088908E+02  0.10566000000E+00 0.  1.
         23    2    1    0    0    0  0.22278303522E+02 -0.10473911324E+02 -0.15800018365E+02  0.95748227291E+02  0.91170482191E+02 0.  0.
         13    1    3    3    0    0 -0.53039909461E+01  0.12811850295E+02  0.32566848489E+02  0.35396138383E+02  0.10566000000E+00 0. -1.
         22    1    1    0    0    0 -0.22278303522E+02  0.10473911324E+02  0.15800018365E+02  0.29251772709E+02  0.00000000000E+00 0.  1.
</event>
<event>
 5    1  0.1680526E-003  0.9118800E+02  0.7818608E-02  0.1130116E+00
         25   -1    0    0    0    0  0.00000000000E+00  0.00000000000E+00  0.99999998245E-14  0.12500000000E+03  0.12500000000E+03 0.  0.
        -13    1    3    3    0    0  0.23981872081E+02 -0.47148188259E+02 -0.17060628743E+02  0.55580194870E+02  0.10566000000E+00 0.  1.
         23    2    1    0    0    0  0.12023979582E+01 -0.15589708517E+02 -0.25199944221E+02  0.95343264488E+02  0.90613553743E+02 0.  0.
         13    1    3    3    0    0 -0.22779474123E+02  0.31558479742E+02 -0.81393154778E+01  0.39763069618E+02  0.10566000000E+00 0. -1.
         22    1    1    0    0    0 -0.12023979582E+01  0.15589708517E+02  0.25199944221E+02  0.29656735512E+02  0.00000000000E+00 0.  1.
</event>
<event>
 5    1  0.1680526E-003  0.9118800E+02  0.7818608E-02  0.1130116E+00
         25   -1    0    0    0    0  0.00000000000E+00  0.00000000000E+00  0.99999998245E-14  0.12500000000E+03  0.12500000000E+03 0.  0.
        -13    1    3    3    0    0 -0.11718275956E+02 -0.46666151111E+01 -0.36563682147E+02  0.38678279488E+02  0.10566000000E+00 0.  1.
         23    2    1    0    0    0  0.92500322645E+01 -0.18808225848E+02  0.17065071309E+02  0.97971697885E+02  0.94169657911E+02 0.  0.
         13    1    3    3    0    0  0.20968308221E+02 -0.14141610737E+02  0.53628753456E+02  0.59293418397E+02  0.10566000000E+00 0. -1.
         22    1    1    0    0    0 -0.92500322645E+01  0.18808225848E+02 -0.17065071309E+02  0.27028302115E+02  0.00000000000E+00 0. -1.
</event>
<event>
 5    1  0.1680526E-003  0.9118800E+02  0.7818608E-02  0.1130116E+00
         25   -1    0    0    0    0  0.00000000000E+00  0.00000000000E+00  0.99999998245E-14  0.12500000000E+03  0.12500000000E+03 0.  0.
        -13    1    3    3    0    0  0.38633720162E+02  0.23293163153E+02  0.27403571897E+02  0.52783545732E+02  0.10566000000E+00 0. -1.
         23    2    1    0    0    0  0.22830581001E+01  0.28774282285E+02  0.53779512302E+01  0.95638562114E+02  0.91020000705E+02 0.  0.
         13    1    3    3    0    0 -0.36350662062E+02  0.54811191321E+01 -0.22025620667E+02  0.42855016382E+02  0.10566000000E+00 0.  1.
         22    1    1    0    0    0 -0.22830581001E+01 -0.28774282285E+02 -0.53779512302E+01  0.29361437886E+02  0.00000000000E+00 0. -1.
</event>
<event>
 5    1  0.1680526E-003  0.9118800E+02  0.7818608E-02  0.1130116E+00
         25   -1    0    0    0    0  0.00000000000E+00  0.00000000000E+00  0.99999998245E-14  0.12500000000E+03  0.12500000000E+03 0.  0.
        -13    1    3    3    0    0 -0.39844839480E+02  0.19154342703E+02 -0.11774405813E+02  0.45750933038E+02  0.10566000000E+00 0. -1.
         23    2    1    0    0    0 -0.14813708131E+02 -0.22338764840E+02 -0.14940774195E+02  0.94312981626E+02  0.89180969979E+02 0.  0.
         13    1    3    3    0    0  0.25031131350E+02 -0.41493107543E+02 -0.31663683818E+01  0.48562048587E+02  0.10566000000E+00 0.  1.
         22    1    1    0    0    0  0.14813708131E+02  0.22338764840E+02  0.14940774195E+02  0.30687018374E+02  0.00000000000E+00 0. -1.
</event>
<event>
 5    1  0.1680526E-003  0.9118800E+02  0.7818608E-02  0.1130116E+00
         25   -1    0    0    0    0  0.00000000000E+00  0.00000000000E+00  0.99999998245E-14  0.12500000000E+03  0.12500000000E+03 0.  0.
        -13    1    3    3    0    0  0.29049175125E+02 -0.41985683077E+02  0.13935270858E+02  0.52923105510E+02  0.10566000000E+00 0. -1.
         23    2    1    0    0    0  0.11947627792E+02 -0.17813833009E+02 -0.18380125091E+02  0.96752744298E+02  0.92537484699E+02 0.  0.
         13    1    3    3    0    0 -0.17101547333E+02  0.24171850069E+02 -0.32315395949E+02  0.43829638788E+02  0.10566000000E+00 0.  1.
         22    1    1    0    0    0 -0.11947627792E+02  0.17813833009E+02  0.18380125091E+02  0.28247255702E+02  0.00000000000E+00 0.  1.
</event>
<event>
 5    1  0.1680526E-003  0.9118800E+02  0.7818608E-02  0.1130116E+00
         25   -1    0    0    0    0  0.00000000000E+00  0.00000000000E+00  0.99999998245E-14  0.12500000000E+03  0.12500000000E+03 0.  0.
        -13    1    3    3    0    0 -0.72907139516E+01 -0.26983055636E+02 -0.50766366042E+02  0.57952350138E+02  0.10566000000E+00 0. -1.
         23    2    1    0    0    0 -0.17778730351E+02 -0.39714747468E+01 -0.25117383776E+02  0.93971966992E+02  0.88701700931E+02 0.  0.
         13    1    3    3    0    0 -0.10488016400E+02  0.23011580889E+02  0.25648982266E+02  0.36019616854E+02  0.10566000000E+00 0.  1.
         22    1    1    0    0    0  0.17778730351E+02  0.39714747468E+01  0.25117383776E+02  0.31028033008E+02  0.00000000000E+00 0. -1.
</event>
<event>
 5    1  0.1680526E-003  0.9118800E+02  0.7818608E-02  0.1130116E+00
         25   -1    0    0    0    0  0.00000000000E+00  0.00000000000E+00  0.99999998245E-14  0.12500000000E+03  0.12500000000E+03 0.  0.
        -13    1    3    3    0    0  0.22585226787E+02 -0.13576049471E+02  0.15453634360E+02  0.30548773580E+02  0.10566000000E+00 0.  1.
         23    2    1    0    0    0 -0.20200049708E+02  0.25136328195E+02 -0.61714697759E+01  0.92167637268E+02  0.86121479998E+02 0.  0.
         13    1    3    3    0    0 -0.42785276495E+02  0.38712377666E+02 -0.21625104136E+02  0.61618863688E+02  0.10566000000E+00 0. -1.
         22    1    1    0    0    0  0.20200049708E+02 -0.25136328195E+02  0.61714697759E+01  0.32832362732E+02  0.00000000000E+00 0. -1.
</event>
<event>
 5    1  0.1680526E-003  0.9118800E+02  0.7818608E-02  0.1130116E+00
         25   -1    0    0    0    0  0.00000000000E+00  0.00000000000E+00  0.99999998245E-14  0.12500000000E+03  0.12500000000E+03 0.  0.
        -13    1    3    3    0    0  0.21170238306E+02 -0.15581082279E+02 -0.20422611291E+02  0.33287284823E+02  0.10566000000E+00 0.  1.
         23    2    1    0    0    0 -0.20807290948E+02  0.17511024492E+02  0.11418164253E+02  0.95505020592E+02  0.90836419722E+02 0.  0.
         13    1    3    3    0    0 -0.41977529255E+02  0.33092106771E+02  0.31840775544E+02  0.62217735769E+02  0.10566000000E+00 0. -1.
         22    1    1    0    0    0  0.20807290948E+02 -0.17511024492E+02 -0.11418164253E+02  0.29494979408E+02  0.00000000000E+00 0. -1.
</event>
<event>
 5    1  0.1680526E-003  0.9118800E+02  0.7818608E-02  0.1130116E+00
         25   -1    0    0    0    0  0.00000000000E+00  0.00000000000E+00  0.99999998245E-14  0.12500000000E+03  0.12500000000E+03 0.  0.
        -13    1    3    3    0    0 -0.27733415206E+02  0.27115369335E+02  0.37751577208E+02  0.54125579155E+02  0.10566000000E+00 0. -1.
         23    2    1    0    0    0 -0.22954396004E+00  0.28693404444E+02  0.68989774905E+01  0.95487967887E+02  0.90812950463E+02 0.  0.
         13    1    3    3    0    0  0.27503871246E+02  0.15780351087E+01 -0.30852599717E+02  0.41362388732E+02  0.10566000000E+00 0.  1.
         22    1    1    0    0    0  0.22954396004E+00 -0.28693404444E+02 -0.68989774905E+01  0.29512032113E+02  0.00000000000E+00 0.  1.
</event>
<event>
 5    1  0.1680526E-003  0.9118800E+02  0.7818608E-02  0.1130116E+00
         25   -1    0    0    0    0  0.00000000000E+00  0.00000000000E+00  0.99999998245E-14  0.12500000000E+03  0.12500000000E+03 0.  0.
        -13    1    3    3    0    0 -0.95922688337E+01 -0.13687265875E+00  0.33290207128E+02  0.34645048855E+02  0.10566000000E+00 0.  1.
         23    2    1    0    0    0  0.13327222641E+02 -0.14887404600E+02 -0.21382205177E+02  0.95734860717E+02  0.91152154002E+02 0.  0.
         13    1    3    3    0    0  0.22919491475E+02 -0.14750531941E+02 -0.54672412305E+02  0.61089811862E+02  0.10566000000E+00 0. -1.
         22    1    1    0    0    0 -0.13327222641E+02  0.14887404600E+02  0.21382205177E+02  0.29265139283E+02  0.00000000000E+00 0. -1.
</event>
<event>
 5    1  0.1680526E-003  0.9118800E+02  0.7818608E-02  0.1130116E+00
         25   -1    0    0    0    0  0.00000000000E+00  0.00000000000E+00  0.99999998245E-14  0.12500000000E+03  0.12500000000E+03 0.  0.
        -13    1    3    3    0    0 -0.25774136914E+01  0.15912138367E+02  0.53175143020E+02  0.55564792882E+02  0.10566000000E+00 0.  1.
         23    2    1    0    0    0 -0.57798988735E+01  0.25319327192E+02  0.15007556720E+02  0.95004961758E+02  0.90145662344E+02 0.  0.
         13    1    3    3    0    0 -0.32024851820E+01  0.94071888257E+01 -0.38167586300E+02  0.39440168876E+02  0.10566000000E+00 0. -1.
         22    1    1    0    0    0  0.57798988735E+01 -0.25319327192E+02 -0.15007556720E+02  0.29995038242E+02  0.00000000000E+00 0.  1.
</event>
<event>
 5    1  0.1680526E-003  0.9118800E+02  0.7818608E-02  0.1130116E+00
         25   -1    0    0    0    0  0.00000000000E+00  0.00000000000E+00  0.99999998245E-14  0.12500000000E+03  0.12500000000E+03 0.  0.
        -13    1    3    3    0    0  0.15865694395E+02 -0.18139548208E+02 -0.40161361602E+02  0.46837053682E+02  0.10566000000E+00 0.  1.
         23    2    1    0    0    0 -0.61099580838E+00  0.22423484767E+02 -0.19621249295E+02  0.95197661017E+02  0.90412472890E+02 0.  0.
         13    1    3    3    0    0 -0.16476690203E+02  0.40563032975E+02  0.20540112307E+02  0.48360607335E+02  0.10566000000E+00 0. -1.
         22    1    1    0    0    0  0.61099580838E+00 -0.22423484767E+02  0.19621249295E+02  0.29802338983E+02  0.00000000000E+00 0. -1.
</event>
<event>
 5    1  0.1680526E-003  0.9118800E+02  0.7818608E-02  0.1130116E+00
         25   -1    0    0    0    0  0.00000000000E+00  0.00000000000E+00  0.99999998245E-14  0.12500000000E+03  0.12500000000E+03 0.  0.
        -13    1    3    3    0    0 -0.97874979848E+01  0.27899667746E+02 -0.28273835716E+02  0.40909748561E+02  0.10566000000E+00 0. -1.
         23    2    1    0    0    0  0.73310995043E+01 -0.22886243053E+02 -0.16690743799E+02  0.95740709688E+02  0.91160174539E+02 0.  0.
         13    1    3    3    0    0  0.17118597489E+02 -0.50785910799E+02  0.11583091918E+02  0.54830961127E+02  0.10566000000E+00 0.  1.
         22    1    1    0    0    0 -0.73310995043E+01  0.22886243053E+02  0.16690743799E+02  0.29259290312E+02  0.00000000000E+00 0.  1.
</event>
<event>
 5    1  0.1680526E-003  0.9118800E+02  0.7818608E-02  0.1130116E+00
         25   -1    0    0    0    0  0.00000000000E+00  0.00000000000E+00  0.99999998245E-14  0.12500000000E+03  0.12500000000E+03 0.  0.
        -13    1    3    3    0    0 -0.24306079541E+01 -0.13031510046E+00 -0.45159469487E+02  0.45225144394E+02  0.10566000000E+00 0.  1.
         23    2    1    0    0    0  0.12938503546E+02  0.21312894262E+02  0.27475967312E+01  0.99916267749E+02  0.96716425374E+02 0.  0.
         13    1    3    3    0    0  0.15369111500E+02  0.21443209363E+02  0.47907066219E+02  0.54691123355E+02  0.10566000000E+00 0. -1.
         22    1    1    0    0    0 -0.12938503546E+02 -0.21312894262E+02 -0.27475967312E+01  0.25083732251E+02  0.00000000000E+00 0. -1.
</event>
<event>
 5    1  0.1680526E-003  0.9118800E+02  0.7818608E-02  0.1130116E+00
         25   -1    0    0    0    0  0.00000000000E+00  0.00000000000E+00  0.99999998245E-14  0.12500000000E+03  0.12500000000E+03 0.  0.
        -13    1    3    3    0    0 -0.38714950290E+00 -0.40827409874E+02 -0.38309583133E+02  0.55988057705E+02  0.10566000000E+00 0. -1.
         23    2    1    0    0    0  0.14570115369E+02 -0.83068354780E+01 -0.26419244041E+02  0.93706738213E+02  0.88327145054E+02 0.  0.
         13    1    3    3    0    0  0.14957264872E+02  0.32520574396E+02  0.11890339092E+02  0.37718680508E+02  0.10566000000E+00 0.  1.
         22    1    1    0    0    0 -0.14570115369E+02  0.83068354780E+01  0.26419244041E+02  0.31293261787E+02  0.00000000000E+00 0. -1.
</event>
<event>
 5    1  0.1680526E-003  0.9118800E+02  0.7818608E-02  0.1130116E+00
         25   -1    0    0    0    0  0.00000000000E+00  0.00000000000E+00  0.99999998245E-14  0.12500000000E+03  0.12500000000E+03 0.  0.
        -13    1    3    3    0    0 -0.39084546219E+02 -0.17337414840E+02 -0.17268734485E+02  0.46112992326E+02  0.10566000000E+00 0. -1.
         23    2    1    0    0    0  0.71492087379E+01 -0.27648747144E+02 -0.12836353950E+02  0.93689676032E+02  0.88302995465E+02 0.  0.
         13    1    3    3    0    0  0.46233754957E+02 -0.10311332305E+02  0.44323805353E+01  0.47576683707E+02  0.10566000000E+00 0.  1.
         22    1    1    0    0    0 -0.71492087379E+01  0.27648747144E+02  0.12836353950E+02  0.31310323968E+02  0.00000000000E+00 0. -1.
</event>
<event>
 5    1  0.1680526E-003  0.9118800E+02  0.7818608E-02  0.1130116E+00
         25   -1    0    0    0    0  0.00000000000E+00  0.00000000000E+00  0.99999998245E-14  0.12500000000E+03  0.12500000000E+03 0.  0.
        -13    1    3    3    0    0  0.43723405348E+02 -0.26149581037E+01  0.43714586436E+00  0.43803840490E+02  0.10566000000E+00 0.  1.
         23    2    1    0    0    0 -0.13691347353E+02 -0.14877775314E+02  0.85045928059E+01  0.10306534045E+03  0.10070419611E+03 0.  0.
         13    1    3    3    0    0 -0.57414752701E+02 -0.12262817211E+02  0.80674469416E+01  0.59261499963E+02  0.10566000000E+00 0. -1.
         22    1    1    0    0    0  0.13691347353E+02  0.14877775314E+02 -0.85045928059E+01  0.21934659547E+02  0.00000000000E+00 0. -1.
</event>
<event>
 5    1  0.1680526E-003  0.9118800E+02  0.7818608E-02  0.1130116E+00
         25   -1    0    0    0    0  0.00000000000E+00  0.00000000000E+00  0.99999998245E-14  0.12500000000E+03  0.12500000000E+03 0.  0.
        -13    1    3    3    0    0 -0.36405470798E+02 -0.28407587677E+02  0.33020302533E+02  0.56768837270E+02  0.10566000000E+00 0.  1.
         23    2    1    0    0    0 -0.32699582818E+02 -0.65333517217E+01  0.70654979749E+01  0.90913805392E+02  0.84281975226E+02 0.  0.
         13    1    3    3    0    0  0.37058879792E+01  0.21874235955E+02 -0.25954804558E+02  0.34144968122E+02  0.10566000000E+00 0. -1.
         22    1    1    0    0    0  0.32699582818E+02  0.65333517217E+01 -0.70654979749E+01  0.34086194608E+02  0.00000000000E+00 0.  1.
</event>
<event>
 5    1  0.1680526E-003  0.9118800E+02  0.7818608E-02  0.1130116E+00
         25   -1    0    0    0    0  0.00000000000E+00  0.00000000000E+00  0.99999998245E-14  0.12500000000E+03  0.12500000000E+03 0.  0.
        -13    1    3    3    0    0  0.25998300203E+02 -0.80881764701E+01 -0.55128071560E+02  0.61485328738E+02  0.10566000000E+00 0.  1.
         23    2    1    0    0    0  0.18438137941E+02  0.79620985458E+00 -0.24021610050E+02  0.94707482273E+02  0.89732215888E+02 0.  0.
         13    1    3    3    0    0 -0.75601622621E+01  0.88843863247E+01  0.31106461510E+02  0.33222153535E+02  0.10566000000E+00 0. -1.
         22    1    1    0    0    0 -0.18438137941E+02 -0.79620985458E+00  0.24021610050E+02  0.30292517727E+02  0.00000000000E+00 0.  1.
</event>
<event>
 5    1  0.1680526E-003  0.9118800E+02  0.7818608E-02  0.1130116E+00
         25   -1    0    0    0    0  0.00000000000E+00  0.00000000000E+00  0.99999998245E-14  0.12500000000E+03  0.12500000000E+03 0.  0.
        -13    1    3    3    0    0  0.45681093144E+02  0.31583788426E+01 -0.31916368845E+02  0.55815798767E+02  0.10566000000E+00 0.  1.
         23    2    1    0    0    0  0.25661814221E+02  0.14548413849E+02  0.39763600954E+00  0.95498420906E+02  0.90827337440E+02 0.  0.
         13    1    3    3    0    0 -0.20019278922E+02  0.11390035006E+02  0.32314004855E+02  0.39682622139E+02  0.10566000000E+00 0. -1.
         22    1    1    0    0    0 -0.25661814221E+02 -0.14548413849E+02 -0.39763600954E+00  0.29501579094E+02  0.00000000000E+00 0.  1.
</event>
<event>
 5    1  0.1680526E-003  0.9118800E+02  0.7818608E-02  0.1130116E+00
         25   -1    0    0    0    0  0.00000000000E+00  0.00000000000E+00  0.99999998245E-14  0.12500000000E+03  0.12500000000E+03 0.  0.
        -13    1    3    3    0    0 -0.25233828572E+01 -0.39081606532E+02  0.15606832327E+02  0.42158318390E+02  0.10566000000E+00 0.  1.
         23    2    1    0    0    0 -0.23736971132E+02 -0.71876966472E-02 -0.15703946883E+02  0.96538485672E+02  0.92247609280E+02 0.  0.
         13    1    3    3    0    0 -0.21213588274E+02  0.39074418835E+02 -0.31310779210E+02  0.54380167282E+02  0.10566000000E+00 0. -1.
         22    1    1    0    0    0  0.23736971132E+02  0.71876966472E-02  0.15703946883E+02  0.28461514328E+02  0.00000000000E+00 0. -1.
</event>
<event>
 5    1  0.1680526E-003  0.9118800E+02  0.7818608E-02  0.1130116E+00
         25   -1    0    0    0    0  0.00000000000E+00  0.00000000000E+00  0.99999998245E-14  0.12500000000E+03  0.12500000000E+03 0.  0.
        -13    1    3    3    0    0  0.33470196412E+02 -0.30804671672E+02 -0.29930508593E+02  0.54452073912E+02  0.10566000000E+00 0.  1.
         23    2    1    0    0    0  0.26856725619E+02  0.23546381162E+01 -0.26260541916E+01  0.97912656234E+02  0.94091253890E+02 0.  0.
         13    1    3    3    0    0 -0.66134707924E+01  0.33159309789E+02  0.27304454401E+02  0.43460582322E+02  0.10566000000E+00 0. -1.
         22    1    1    0    0    0 -0.26856725619E+02 -0.23546381162E+01  0.26260541916E+01  0.27087343766E+02  0.00000000000E+00 0.  1.
</event>
<event>
 5    1  0.1680526E-003  0.9118800E+02  0.7818608E-02  0.1130116E+00
         25   -1    0    0    0    0  0.00000000000E+00  0.00000000000E+00  0.99999998245E-14  0.12500000000E+03  0.12500000000E+03 0.  0.
        -13    1    3    3    0    0  0.38662653197E+02 -0.11823013563E+02 -0.90151402963E+00  0.40440181670E+02  0.10566000000E+00 0. -1.
         23    2    1    0    0    0 -0.97944619753E+01 -0.17355831255E+01 -0.26879282904E+02  0.96339232676E+02  0.91977215489E+02 0.  0.
         13    1    3    3    0    0 -0.48457115172E+02  0.10087430438E+02 -0.25977768874E+02  0.55899051006E+02  0.10566000000E+00 0.  1.
         22    1    1    0    0    0  0.97944619753E+01  0.17355831255E+01  0.26879282904E+02  0.28660767324E+02  0.00000000000E+00 0.  1.
</event>
<event>
 5    1  0.1680526E-003  0.9118800E+02  0.7818608E-02  0.1130116E+00
         25   -1    0    0    0    0  0.00000000000E+00  0.00000000000E+00  0.99999998245E-14  0.12500000000E+03  0.12500000000E+03 0.  0.
        -13    1    3    3    0    0 -0.12328937422E+02 -0.41808783928E+02 -0.84528288774E+01  0.44400885031E+02  0.10566000000E+00 0.  1.
         23    2    1    0    0    0  0.23794502794E+02  0.12336404078E+01 -0.46692924088E+01  0.10072032695E+03  0.97750098400E+02 0.  0.
         13    1    3    3    0    0  0.36123440216E+02  0.43042424335E+02  0.37835364686E+01  0.56319441918E+02  0.10566000000E+00 0. -1.
         22    1    1    0    0    0 -0.23794502794E+02 -0.12336404078E+01  0.46692924088E+01  0.24279673051E+02  0.00000000000E+00 0. -1.
</event>
<event>
 5    1  0.1680526E-003  0.9118800E+02  0.7818608E-02  0.1130116E+00
         25   -1    0    0    0    0  0.00000000000E+00  0.00000000000E+00  0.99999998245E-14  0.12500000000E+03  0.12500000000E+03 0.  0.
        -13    1    3    3    0    0  0.22838221770E+02  0.15699122652E+02  0.23695738594E+02  0.36462940326E+02  0.10566000000E+00 0. -1.
         23    2    1    0    0    0 -0.20235425854E+02  0.12571523587E+02 -0.16945043992E+02  0.95765599362E+02  0.91194297192E+02 0.  0.
         13    1    3    3    0    0 -0.43073647624E+02 -0.31275990647E+01 -0.40640782586E+02  0.59302659036E+02  0.10566000000E+00 0.  1.
         22    1    1    0    0    0  0.20235425854E+02 -0.12571523587E+02  0.16945043992E+02  0.29234400638E+02  0.00000000000E+00 0.  1.
</event>
<event>
 5    1  0.1680526E-003  0.9118800E+02  0.7818608E-02  0.1130116E+00
         25   -1    0    0    0    0  0.00000000000E+00  0.00000000000E+00  0.99999998245E-14  0.12500000000E+03  0.12500000000E+03 0.  0.
        -13    1    3    3    0    0 -0.34096193559E+02 -0.82640085738E+01 -0.18569574125E+02  0.39694892620E+02  0.10566000000E+00 0.  1.
         23    2    1    0    0    0  0.22192541944E+02 -0.12732462361E+02 -0.12613701295E+02  0.96474047324E+02  0.92160250819E+02 0.  0.
         13    1    3    3    0    0  0.56288735502E+02 -0.44684537876E+01  0.59558728298E+01  0.56779154704E+02  0.10566000000E+00 0. -1.
         22    1    1    0    0    0 -0.22192541944E+02  0.12732462361E+02  0.12613701295E+02  0.28525952676E+02  0.00000000000E+00 0. -1.
</event>
<event>
 5    1  0.1680526E-003  0.9118800E+02  0.7818608E-02  0.1130116E+00
         25   -1    0    0    0    0  0.00000000000E+00  0.00000000000E+00  0.99999998245E-14  0.12500000000E+03  0.12500000000E+03 0.  0.
        -13    1    3    3    0    0 -0.59806526422E+01  0.32418058585E+02  0.10550630675E+02  0.34612507856E+02  0.10566000000E+00 0.  1.
         23    2    1    0    0    0  0.19832590657E+02 -0.19534982412E+02 -0.88599136242E+01  0.95786214565E+02  0.91222550070E+02 0.  0.
         13    1    3    3    0    0  0.25813243299E+02 -0.51953040997E+02 -0.19410544299E+02  0.61173706709E+02  0.10566000000E+00 0. -1.
         22    1    1    0    0    0 -0.19832590657E+02  0.19534982412E+02  0.88599136242E+01  0.29213785435E+02  0.00000000000E+00 0. -1.
</event>
<event>
 5    1  0.1680526E-003  0.9118800E+02  0.7818608E-02  0.1130116E+00
         25   -1    0    0    0    0  0.00000000000E+00  0.00000000000E+00  0.99999998245E-14  0.12500000000E+03  0.12500000000E+03 0.  0.
        -13    1    3    3    0    0 -0.61326797871E+01 -0.34400804746E+02 -0.15286394119E+02  0.38140662524E+02  0.10566000000E+00 0. -1.
         23    2    1    0    0    0 -0.18806011567E+02  0.18181062341E+02  0.88726282479E+01  0.97378620039E+02  0.93379093001E+02 0.  0.
         13    1    3    3    0    0 -0.12673331780E+02  0.52581867087E+02  0.24159022367E+02  0.59237957515E+02  0.10566000000E+00 0.  1.
         22    1    1    0    0    0  0.18806011567E+02 -0.18181062341E+02 -0.88726282479E+01  0.27621379961E+02  0.00000000000E+00 0.  1.
</event>
<event>
 5    1  0.1680526E-003  0.9118800E+02  0.7818608E-02  0.1130116E+00
         25   -1    0    0    0    0  0.00000000000E+00  0.00000000000E+00  0.99999998245E-14  0.12500000000E+03  0.12500000000E+03 0.  0.
        -13    1    3    3    0    0  0.26737729266E+01  0.34575533993E+02 -0.58624559847E+01  0.35170956296E+02  0.10566000000E+00 0. -1.
         23    2    1    0    0    0  0.12621702912E+02 -0.18665405970E+02  0.19706972921E+02  0.95065579242E+02  0.90229678102E+02 0.  0.
         13    1    3    3    0    0  0.99479299849E+01 -0.53240939963E+02  0.25569428906E+02  0.59894622946E+02  0.10566000000E+00 0.  1.
         22    1    1    0    0    0 -0.12621702912E+02  0.18665405970E+02 -0.19706972921E+02  0.29934420758E+02  0.00000000000E+00 0.  1.
</event>
<event>
 5    1  0.1680526E-003  0.9118800E+02  0.7818608E-02  0.1130116E+00
         25   -1    0    0    0    0  0.00000000000E+00  0.00000000000E+00  0.99999998245E-14  0.12500000000E+03  0.12500000000E+03 0.  0.
        -13    1    3    3    0    0  0.37649879480E+02  0.37294360548E+02  0.19425916459E+02  0.56442538461E+02  0.10566000000E+00 0.  1.
         23    2    1    0    0    0  0.22321932314E+02  0.14757388245E+02 -0.98904891727E+01  0.96471576523E+02  0.92156899528E+02 0.  0.
         13    1    3    3    0    0 -0.15327947167E+02 -0.22536972303E+02 -0.29316405632E+02  0.40029038062E+02  0.10566000000E+00 0. -1.
         22    1    1    0    0    0 -0.22321932314E+02 -0.14757388245E+02  0.98904891727E+01  0.28528423477E+02  0.00000000000E+00 0. -1.
</event>
<event>
 5    1  0.1680526E-003  0.9118800E+02  0.7818608E-02  0.1130116E+00
         25   -1    0    0    0    0  0.00000000000E+00  0.00000000000E+00  0.99999998245E-14  0.12500000000E+03  0.12500000000E+03 0.  0.
        -13    1    3    3    0    0 -0.46951430331E+02  0.69530776194E+01 -0.30241315450E+02  0.56279040705E+02  0.10566000000E+00 0.  1.
         23    2    1    0    0    0 -0.15490243065E+02 -0.14939625829E+02 -0.19181436868E+02  0.96171757417E+02  0.91749328903E+02 0.  0.
         13    1    3    3    0    0  0.31461187265E+02 -0.21892703448E+02  0.11059878582E+02  0.39892716712E+02  0.10566000000E+00 0. -1.
         22    1    1    0    0    0  0.15490243065E+02  0.14939625829E+02  0.19181436868E+02  0.28828242583E+02  0.00000000000E+00 0.  1.
</event>
<event>
 5    1  0.1680526E-003  0.9118800E+02  0.7818608E-02  0.1130116E+00
         25   -1    0    0    0    0  0.00000000000E+00  0.00000000000E+00  0.99999998245E-14  0.12500000000E+03  0.12500000000E+03 0.  0.
        -13    1    3    3    0    0 -0.56827732225E+01  0.46945175400E+02 -0.32160990012E+02  0.57188144291E+02  0.10566000000E+00 0. -1.
         23    2    1    0    0    0 -0.20151632396E+02  0.16990439434E+02 -0.12527874518E+02  0.95815912549E+02  0.91263235409E+02 0.  0.
         13    1    3    3    0    0 -0.14468859174E+02 -0.29954735966E+02  0.19633115494E+02  0.38627768258E+02  0.10566000000E+00 0.  1.
         22    1    1    0    0    0  0.20151632396E+02 -0.16990439434E+02  0.12527874518E+02  0.29184087451E+02  0.00000000000E+00 0. -1.
</event>
<event>
 5    1  0.1680526E-003  0.9118800E+02  0.7818608E-02  0.1130116E+00
         25   -1    0    0    0    0  0.00000000000E+00  0.00000000000E+00  0.99999998245E-14  0.12500000000E+03  0.12500000000E+03 0.  0.
        -13    1    3    3    0    0  0.54077459007E+01 -0.51985568062E+02  0.47405874948E+01  0.52480733001E+02  0.10566000000E+00 0.  1.
         23    2    1    0    0    0  0.76432022561E+01 -0.12932794584E+02  0.24466327346E+02  0.96289777251E+02  0.91909979398E+02 0.  0.
         13    1    3    3    0    0  0.22354563555E+01  0.39052773478E+02  0.19725739851E+02  0.43809044251E+02  0.10566000000E+00 0. -1.
         22    1    1    0    0    0 -0.76432022561E+01  0.12932794584E+02 -0.24466327346E+02  0.28710222749E+02  0.00000000000E+00 0.  1.
</event>
<event>
 5    1  0.1680526E-003  0.9118800E+02  0.7818608E-02  0.1130116E+00
         25   -1    0    0    0    0  0.00000000000E+00  0.00000000000E+00  0.99999998245E-14  0.12500000000E+03  0.12500000000E+03 0.  0.
        -13    1    3    3    0    0  0.34876745534E+02 -0.14320206886E+02  0.13806281459E+02  0.40150719496E+02  0.10566000000E+00 0.  1.
         23    2    1    0    0    0 -0.56806861025E+00 -0.37608317912E+01 -0.28444646351E+02  0.96302187126E+02  0.91926855605E+02 0.  0.
         13    1    3    3    0    0 -0.35444814144E+02  0.10559375095E+02 -0.42250927810E+02  0.56151467630E+02  0.10566000000E+00 0. -1.
         22    1    1    0    0    0  0.56806861025E+00  0.37608317912E+01  0.28444646351E+02  0.28697812874E+02  0.00000000000E+00 0. -1.
</event>
<event>
 5    1  0.1680526E-003  0.9118800E+02  0.7818608E-02  0.1130116E+00
         25   -1    0    0    0    0  0.00000000000E+00  0.00000000000E+00  0.99999998245E-14  0.12500000000E+03  0.12500000000E+03 0.  0.
        -13    1    3    3    0    0 -0.82823435605E+01  0.34311072992E+02 -0.43824448491E+02  0.56271132868E+02  0.10566000000E+00 0.  1.
         23    2    1    0    0    0 -0.20438715441E+02  0.48029171694E+01 -0.16184855200E+02  0.98490404755E+02  0.94855686118E+02 0.  0.
         13    1    3    3    0    0 -0.12156371880E+02 -0.29508155822E+02  0.27639593292E+02  0.42219271887E+02  0.10566000000E+00 0. -1.
         22    1    1    0    0    0  0.20438715441E+02 -0.48029171694E+01  0.16184855200E+02  0.26509595245E+02  0.00000000000E+00 0.  1.
</event>
<event>
 5    1  0.1680526E-003  0.9118800E+02  0.7818608E-02  0.1130116E+00
         25   -1    0    0    0    0  0.00000000000E+00  0.00000000000E+00  0.99999998245E-14  0.12500000000E+03  0.12500000000E+03 0.  0.
        -13    1    3    3    0    0  0.30517224236E+01 -0.11150188491E+02  0.30962076086E+02  0.33049977803E+02  0.10566000000E+00 0. -1.
         23    2    1    0    0    0 -0.92165846853E+01  0.16995142134E+02 -0.22888834047E+02  0.95038708081E+02  0.90192444364E+02 0.  0.
         13    1    3    3    0    0 -0.12268307109E+02  0.28145330625E+02 -0.53850910133E+02  0.61988730279E+02  0.10566000000E+00 0.  1.
         22    1    1    0    0    0  0.92165846853E+01 -0.16995142134E+02  0.22888834047E+02  0.29961291919E+02  0.00000000000E+00 0.  1.
</event>
<event>
 5    1  0.1680526E-003  0.9118800E+02  0.7818608E-02  0.1130116E+00
         25   -1    0    0    0    0  0.00000000000E+00  0.00000000000E+00  0.99999998245E-14  0.12500000000E+03  0.12500000000E+03 0.  0.
        -13    1    3    3    0    0 -0.44518210028E+02 -0.31108413017E+02  0.23310450678E+02  0.59101545322E+02  0.10566000000E+00 0.  1.
         23    2    1    0    0    0 -0.16615736524E+02 -0.68497261043E+01  0.22656441761E+02  0.96080874820E+02  0.91625426083E+02 0.  0.
         13    1    3    3    0    0  0.27902473504E+02  0.24258686913E+02 -0.65400891746E+00  0.36979329498E+02  0.10566000000E+00 0. -1.
         22    1    1    0    0    0  0.16615736524E+02  0.68497261043E+01 -0.22656441761E+02  0.28919125180E+02  0.00000000000E+00 0.  1.
</event>
<event>
 5    1  0.1680526E-003  0.9118800E+02  0.7818608E-02  0.1130116E+00
         25   -1    0    0    0    0  0.00000000000E+00  0.00000000000E+00  0.99999998245E-14  0.12500000000E+03  0.12500000000E+03 0.  0.
        -13    1    3    3    0    0  0.42115503781E+02 -0.16532823750E+02  0.28057047407E+02  0.53237759091E+02  0.10566000000E+00 0.  1.
         23    2    1    0    0    0  0.62971913357E+01  0.46939811331E+01  0.29071799019E+02  0.94885923959E+02  0.89980447819E+02 0.  0.
         13    1    3    3    0    0 -0.35818312445E+02  0.21226804884E+02  0.10147516126E+01  0.41648164868E+02  0.10566000000E+00 0. -1.
         22    1    1    0    0    0 -0.62971913357E+01 -0.46939811331E+01 -0.29071799019E+02  0.30114076041E+02  0.00000000000E+00 0.  1.
</event>
<event>
 5    1  0.1680526E-003  0.9118800E+02  0.7818608E-02  0.1130116E+00
         25   -1    0    0    0    0  0.00000000000E+00  0.00000000000E+00  0.99999998245E-14  0.12500000000E+03  0.12500000000E+03 0.  0.
        -13    1    3    3    0    0  0.52404659572E+02 -0.83909105167E+01  0.66148393978E+00  0.53076402000E+02  0.10566000000E+00 0. -1.
         23    2    1    0    0    0  0.48636701730E+01  0.97805385252E+01  0.15451565665E+02  0.10607739175E+03  0.10437599311E+03 0.  0.
         13    1    3    3    0    0 -0.47540989399E+02  0.18171449042E+02  0.14790081725E+02  0.53000989753E+02  0.10566000000E+00 0.  1.
         22    1    1    0    0    0 -0.48636701730E+01 -0.97805385252E+01 -0.15451565665E+02  0.18922608247E+02  0.00000000000E+00 0.  1.
</event>
<event>
 5    1  0.1680526E-003  0.9118800E+02  0.7818608E-02  0.1130116E+00
         25   -1    0    0    0    0  0.00000000000E+00  0.00000000000E+00  0.99999998245E-14  0.12500000000E+03  0.12500000000E+03 0.  0.
        -13    1    3    3    0    0  0.13735447355E+02  0.49740867454E+02  0.86487904814E+01  0.52322358031E+02  0.10566000000E+00 0. -1.
         23    2    1    0    0    0 -0.10730059914E+02  0.11845454032E+02  0.20543715453E+02  0.98971300232E+02  0.95487303124E+02 0.  0.
         13    1    3    3    0    0 -0.24465507269E+02 -0.37895413422E+02  0.11894924972E+02  0.46648942201E+02  0.10566000000E+00 0.  1.
         22    1    1    0    0    0  0.10730059914E+02 -0.11845454032E+02 -0.20543715453E+02  0.26028699768E+02  0.00000000000E+00 0. -1.
</event>
<event>
 5    1  0.1680526E-003  0.9118800E+02  0.7818608E-02  0.1130116E+00
         25   -1    0    0    0    0  0.00000000000E+00  0.00000000000E+00  0.99999998245E-14  0.12500000000E+03  0.12500000000E+03 0.  0.
        -13    1    3    3    0    0 -0.13325728358E+02 -0.28890354079E+02  0.49309279529E+02  0.58682568168E+02  0.10566000000E+00 0.  1.
         23    2    1    0    0    0 -0.42371190919E+01 -0.24854431198E+02  0.12410381238E+02  0.96898158586E+02  0.92733702862E+02 0.  0.
         13    1    3    3    0    0  0.90886092664E+01  0.40359228814E+01 -0.36898898291E+02  0.38215590418E+02  0.10566000000E+00 0. -1.
         22    1    1    0    0    0  0.42371190919E+01  0.24854431198E+02 -0.12410381238E+02  0.28101841414E+02  0.00000000000E+00 0.  1.
</event>
<event>
 5    1  0.1680526E-003  0.9118800E+02  0.7818608E-02  0.1130116E+00
         25   -1    0    0    0    0  0.00000000000E+00  0.00000000000E+00  0.99999998245E-14  0.12500000000E+03  0.12500000000E+03 0.  0.
        -13    1    3    3    0    0  0.43626432372E+02  0.67228554751E+01  0.26492406987E+02  0.51481270179E+02  0.10566000000E+00 0. -1.
         23    2    1    0    0    0  0.15638327988E+02  0.22560959887E+02 -0.56769776479E+01  0.96968191487E+02  0.92828055414E+02 0.  0.
         13    1    3    3    0    0 -0.27988104384E+02  0.15838104411E+02 -0.32169384634E+02  0.45486921309E+02  0.10566000000E+00 0.  1.
         22    1    1    0    0    0 -0.15638327988E+02 -0.22560959887E+02  0.56769776479E+01  0.28031808513E+02  0.00000000000E+00 0. -1.
</event>
<event>
 5    1  0.1680526E-003  0.9118800E+02  0.7818608E-02  0.1130116E+00
         25   -1    0    0    0    0  0.00000000000E+00  0.00000000000E+00  0.99999998245E-14  0.12500000000E+03  0.12500000000E+03 0.  0.
        -13    1    3    3    0    0  0.30261806229E+02 -0.53495343090E+01  0.12198118390E+02  0.33063570434E+02  0.10566000000E+00 0.  1.
         23    2    1    0    0    0 -0.22898818124E+02 -0.68098433645E+01 -0.18782858940E+02  0.94610435540E+02  0.89596924529E+02 0.  0.
         13    1    3    3    0    0 -0.53160624352E+02 -0.14603090555E+01 -0.30980977330E+02  0.61546865106E+02  0.10566000000E+00 0. -1.
         22    1    1    0    0    0  0.22898818124E+02  0.68098433645E+01  0.18782858940E+02  0.30389564460E+02  0.00000000000E+00 0. -1.
</event>
<event>
 5    1  0.1680526E-003  0.9118800E+02  0.7818608E-02  0.1130116E+00
         25   -1    0    0    0    0  0.00000000000E+00  0.00000000000E+00  0.99999998245E-14  0.12500000000E+03  0.12500000000E+03 0.  0.
        -13    1    3    3    0    0  0.29178513592E+02 -0.43764402050E+02  0.16857855232E+02  0.55235015971E+02  0.10566000000E+00 0.  1.
         23    2    1    0    0    0  0.26500341435E+02 -0.46988968651E+01  0.14416339229E+02  0.94468400555E+02  0.89398546625E+02 0.  0.
         13    1    3    3    0    0 -0.26781721570E+01  0.39065505185E+02 -0.24415160034E+01  0.39233384584E+02  0.10566000000E+00 0. -1.
         22    1    1    0    0    0 -0.26500341435E+02  0.46988968651E+01 -0.14416339229E+02  0.30531599445E+02  0.00000000000E+00 0.  1.
</event>
<event>
 5    1  0.1680526E-003  0.9118800E+02  0.7818608E-02  0.1130116E+00
         25   -1    0    0    0    0  0.00000000000E+00  0.00000000000E+00  0.99999998245E-14  0.12500000000E+03  0.12500000000E+03 0.  0.
        -13    1    3    3    0    0  0.54903351792E+01  0.48514136878E+02  0.35644837133E+02  0.60451061493E+02  0.10566000000E+00 0. -1.
         23    2    1    0    0    0 -0.22016005687E+01  0.27309382278E+02  0.73570042794E+01  0.96631444918E+02  0.92373487698E+02 0.  0.
         13    1    3    3    0    0 -0.76919357479E+01 -0.21204754599E+02 -0.28287832854E+02  0.36180383425E+02  0.10566000000E+00 0.  1.
         22    1    1    0    0    0  0.22016005687E+01 -0.27309382278E+02 -0.73570042794E+01  0.28368555082E+02  0.00000000000E+00 0. -1.
</event>
<event>
 5    1  0.1680526E-003  0.9118800E+02  0.7818608E-02  0.1130116E+00
         25   -1    0    0    0    0  0.00000000000E+00  0.00000000000E+00  0.99999998245E-14  0.12500000000E+03  0.12500000000E+03 0.  0.
        -13    1    3    3    0    0  0.56044285084E+01 -0.54918621817E+02  0.11094506847E+02  0.56307760454E+02  0.10566000000E+00 0. -1.
         23    2    1    0    0    0 -0.11709980555E+02 -0.25284347937E+02 -0.85493711429E+01  0.95853582687E+02  0.91314816278E+02 0.  0.
         13    1    3    3    0    0 -0.17314409063E+02  0.29634273879E+02 -0.19643877990E+02  0.39545822233E+02  0.10566000000E+00 0.  1.
         22    1    1    0    0    0  0.11709980555E+02  0.25284347937E+02  0.85493711429E+01  0.29146417313E+02  0.00000000000E+00 0. -1.
</event>
<event>
 5    1  0.1680526E-003  0.9118800E+02  0.7818608E-02  0.1130116E+00
         25   -1    0    0    0    0  0.00000000000E+00  0.00000000000E+00  0.99999998245E-14  0.12500000000E+03  0.12500000000E+03 0.  0.
        -13    1    3    3    0    0 -0.29816158674E+02 -0.36710331039E+01 -0.18282045480E+02  0.35167089062E+02  0.10566000000E+00 0.  1.
         23    2    1    0    0    0  0.15307890222E+02  0.19574954946E+02  0.15101937640E+02  0.95921160878E+02  0.91407276623E+02 0.  0.
         13    1    3    3    0    0  0.45124048897E+02  0.23245988050E+02  0.33383983120E+02  0.60754071816E+02  0.10566000000E+00 0. -1.
         22    1    1    0    0    0 -0.15307890222E+02 -0.19574954946E+02 -0.15101937640E+02  0.29078839122E+02  0.00000000000E+00 0. -1.
</event>
<event>
 5    1  0.1680526E-003  0.9118800E+02  0.7818608E-02  0.1130116E+00
         25   -1    0    0    0    0  0.00000000000E+00  0.00000000000E+00  0.99999998245E-14  0.12500000000E+03  0.12500000000E+03 0.  0.
        -13    1    3    3    0    0  0.45216728150E+02 -0.54925300513E+01  0.40307556857E+02  0.60822945463E+02  0.10566000000E+00 0. -1.
         23    2    1    0    0    0  0.14082782933E+02 -0.84441702976E+01  0.23513112238E+02  0.96320822287E+02  0.91952191773E+02 0.  0.
         13    1    3    3    0    0 -0.31133945217E+02 -0.29516402463E+01 -0.16794444619E+02  0.35497876824E+02  0.10566000000E+00 0.  1.
         22    1    1    0    0    0 -0.14082782933E+02  0.84441702976E+01 -0.23513112238E+02  0.28679177713E+02  0.00000000000E+00 0. -1.
</event>
<event>
 5    1  0.1680526E-003  0.9118800E+02  0.7818608E-02  0.1130116E+00
         25   -1    0    0    0    0  0.00000000000E+00  0.00000000000E+00  0.99999998245E-14  0.12500000000E+03  0.12500000000E+03 0.  0.
        -13    1    3    3    0    0  0.41047828302E+02  0.47093964862E+01 -0.21099550884E+02  0.46392939497E+02  0.10566000000E+00 0. -1.
         23    2    1    0    0    0  0.21934490410E+02  0.14655716446E+02  0.19391156222E+02  0.92259675724E+02  0.86254964674E+02 0.  0.
         13    1    3    3    0    0 -0.19113337892E+02  0.99463199597E+01  0.40490707106E+02  0.45866736227E+02  0.10566000000E+00 0.  1.
         22    1    1    0    0    0 -0.21934490410E+02 -0.14655716446E+02 -0.19391156222E+02  0.32740324276E+02  0.00000000000E+00 0. -1.
</event>
<event>
 5    1  0.1680526E-003  0.9118800E+02  0.7818608E-02  0.1130116E+00
         25   -1    0    0    0    0  0.00000000000E+00  0.00000000000E+00  0.99999998245E-14  0.12500000000E+03  0.12500000000E+03 0.  0.
        -13    1    3    3    0    0  0.13795589360E+02 -0.40926562861E+01  0.89541757041E+01  0.16948644425E+02  0.10566000000E+00 0.  1.
         23    2    1    0    0    0  0.14500989813E+02  0.29388754431E+02 -0.38126317821E+02  0.74724820207E+02  0.55282954442E+02 0.  0.
         13    1    3    3    0    0  0.70540045369E+00  0.33481410717E+02 -0.47080493526E+02  0.57776175783E+02  0.10566000000E+00 0. -1.
         22    1    1    0    0    0 -0.14500989813E+02 -0.29388754431E+02  0.38126317821E+02  0.50275179793E+02  0.00000000000E+00 0. -1.
</event>
<event>
 5    1  0.1680526E-003  0.9118800E+02  0.7818608E-02  0.1130116E+00
         25   -1    0    0    0    0  0.00000000000E+00  0.00000000000E+00  0.99999998245E-14  0.12500000000E+03  0.12500000000E+03 0.  0.
        -13    1    3    3    0    0  0.57179032046E+02  0.27331189720E+00 -0.77203871151E+01  0.57698630368E+02  0.10566000000E+00 0.  1.
         23    2    1    0    0    0  0.22701973163E+02 -0.12000188362E+02 -0.15351638842E+02  0.95082498076E+02  0.90253113625E+02 0.  0.
         13    1    3    3    0    0 -0.34477058883E+02 -0.12273500259E+02 -0.76312517273E+01  0.37383867708E+02  0.10566000000E+00 0. -1.
         22    1    1    0    0    0 -0.22701973163E+02  0.12000188362E+02  0.15351638842E+02  0.29917501924E+02  0.00000000000E+00 0.  1.
</event>
<event>
 5    1  0.1680526E-003  0.9118800E+02  0.7818608E-02  0.1130116E+00
         25   -1    0    0    0    0  0.00000000000E+00  0.00000000000E+00  0.99999998245E-14  0.12500000000E+03  0.12500000000E+03 0.  0.
        -13    1    3    3    0    0  0.56704120357E+01  0.96229300375E+01  0.18727849215E+02  0.21805913313E+02  0.10566000000E+00 0.  1.
         23    2    1    0    0    0  0.36719977096E+02 -0.27657442417E+02 -0.96707079025E+01  0.78023267138E+02  0.62296202008E+02 0.  0.
         13    1    3    3    0    0  0.31049565061E+02 -0.37280372455E+02 -0.28398557117E+02  0.56217353826E+02  0.10566000000E+00 0. -1.
         22    1    1    0    0    0 -0.36719977096E+02  0.27657442417E+02  0.96707079025E+01  0.46976732862E+02  0.00000000000E+00 0. -1.
</event>
<event>
 5    1  0.1680526E-003  0.9118800E+02  0.7818608E-02  0.1130116E+00
         25   -1    0    0    0    0  0.00000000000E+00  0.00000000000E+00  0.99999998245E-14  0.12500000000E+03  0.12500000000E+03 0.  0.
        -13    1    3    3    0    0 -0.47933470818E+02 -0.48747615550E+00 -0.29568281298E+02  0.56321840174E+02  0.10566000000E+00 0. -1.
         23    2    1    0    0    0 -0.15310030453E+02  0.16840709501E+02 -0.20524029004E+02  0.94352939855E+02  0.89236959628E+02 0.  0.
         13    1    3    3    0    0  0.32623440364E+02  0.17328185656E+02  0.90442522940E+01  0.38031099681E+02  0.10566000000E+00 0.  1.
         22    1    1    0    0    0  0.15310030453E+02 -0.16840709501E+02  0.20524029004E+02  0.30647060145E+02  0.00000000000E+00 0. -1.
</event>
<event>
 5    1  0.1680526E-003  0.9118800E+02  0.7818608E-02  0.1130116E+00
         25   -1    0    0    0    0  0.00000000000E+00  0.00000000000E+00  0.99999998245E-14  0.12500000000E+03  0.12500000000E+03 0.  0.
        -13    1    3    3    0    0 -0.17136612283E+02  0.32068617973E+02 -0.92813710080E+01  0.37526187537E+02  0.10566000000E+00 0.  1.
         23    2    1    0    0    0  0.24214240247E+02  0.71077905266E-01  0.16376559383E+02  0.95767720239E+02  0.91197204232E+02 0.  0.
         13    1    3    3    0    0  0.41350852531E+02 -0.31997540068E+02  0.25657930391E+02  0.58241532701E+02  0.10566000000E+00 0. -1.
         22    1    1    0    0    0 -0.24214240247E+02 -0.71077905266E-01 -0.16376559383E+02  0.29232279761E+02  0.00000000000E+00 0. -1.
</event>
<event>
 5    1  0.1680526E-003  0.9118800E+02  0.7818608E-02  0.1130116E+00
         25   -1    0    0    0    0  0.00000000000E+00  0.00000000000E+00  0.99999998245E-14  0.12500000000E+03  0.12500000000E+03 0.  0.
        -13    1    3    3    0    0 -0.20454195675E+02 -0.28555767306E+02  0.11147404367E+02  0.36852160795E+02  0.10566000000E+00 0.  1.
         23    2    1    0    0    0 -0.38997252223E+01  0.18480371267E+02 -0.21445077829E+02  0.96423377700E+02  0.92091500286E+02 0.  0.
         13    1    3    3    0    0  0.16554470452E+02  0.47036138573E+02 -0.32592482196E+02  0.59571216905E+02  0.10566000000E+00 0. -1.
         22    1    1    0    0    0  0.38997252223E+01 -0.18480371267E+02  0.21445077829E+02  0.28576622300E+02  0.00000000000E+00 0. -1.
</event>
<event>
 5    1  0.1680526E-003  0.9118800E+02  0.7818608E-02  0.1130116E+00
         25   -1    0    0    0    0  0.00000000000E+00  0.00000000000E+00  0.99999998245E-14  0.12500000000E+03  0.12500000000E+03 0.  0.
        -13    1    3    3    0    0 -0.18798923920E+02 -0.30562962353E+02 -0.21195610915E+02  0.41674444141E+02  0.10566000000E+00 0.  1.
         23    2    1    0    0    0 -0.74005620874E+01 -0.86021597228E+01  0.26923821063E+02  0.95782580337E+02  0.91217570042E+02 0.  0.
         13    1    3    3    0    0  0.11398361833E+02  0.21960802630E+02  0.48119431979E+02  0.54108136196E+02  0.10566000000E+00 0. -1.
         22    1    1    0    0    0  0.74005620874E+01  0.86021597228E+01 -0.26923821063E+02  0.29217419663E+02  0.00000000000E+00 0. -1.
</event>
<event>
 5    1  0.1680526E-003  0.9118800E+02  0.7818608E-02  0.1130116E+00
         25   -1    0    0    0    0  0.00000000000E+00  0.00000000000E+00  0.99999998245E-14  0.12500000000E+03  0.12500000000E+03 0.  0.
        -13    1    3    3    0    0 -0.47671301524E+02  0.11519985041E+02 -0.71540146314E+01  0.49562628398E+02  0.10566000000E+00 0. -1.
         23    2    1    0    0    0 -0.14079195552E+02  0.81984507859E+01  0.24327693965E+02  0.95720740509E+02  0.91132788432E+02 0.  0.
         13    1    3    3    0    0  0.33592105972E+02 -0.33215342551E+01  0.31481708596E+02  0.46158112111E+02  0.10566000000E+00 0.  1.
         22    1    1    0    0    0  0.14079195552E+02 -0.81984507859E+01 -0.24327693965E+02  0.29279259491E+02  0.00000000000E+00 0.  1.
</event>
<event>
 5    1  0.1680526E-003  0.9118800E+02  0.7818608E-02  0.1130116E+00
         25   -1    0    0    0    0  0.00000000000E+00  0.00000000000E+00  0.99999998245E-14  0.12500000000E+03  0.12500000000E+03 0.  0.
        -13    1    3    3    0    0  0.90392682928E+01 -0.49569717938E+02 -0.44717916788E+01  0.50585308071E+02  0.10566000000E+00 0. -1.
         23    2    1    0    0    0  0.15493588133E+02 -0.11298459079E+02  0.20651326243E+02  0.96818734479E+02  0.92626581604E+02 0.  0.
         13    1    3    3    0    0  0.64543198398E+01  0.38271258859E+02  0.25123117922E+02  0.46233426408E+02  0.10566000000E+00 0.  1.
         22    1    1    0    0    0 -0.15493588133E+02  0.11298459079E+02 -0.20651326243E+02  0.28181265521E+02  0.00000000000E+00 0. -1.
</event>
<event>
 5    1  0.1680526E-003  0.9118800E+02  0.7818608E-02  0.1130116E+00
         25   -1    0    0    0    0  0.00000000000E+00  0.00000000000E+00  0.99999998245E-14  0.12500000000E+03  0.12500000000E+03 0.  0.
        -13    1    3    3    0    0 -0.25659499873E+02 -0.16473376869E+02  0.29001480525E+02  0.42081814551E+02  0.10566000000E+00 0.  1.
         23    2    1    0    0    0  0.20394566916E+02 -0.19579687803E+02 -0.24671943580E+00  0.96726984515E+02  0.92502681738E+02 0.  0.
         13    1    3    3    0    0  0.46054066789E+02 -0.31063109338E+01 -0.29248199961E+02  0.54645169964E+02  0.10566000000E+00 0. -1.
         22    1    1    0    0    0 -0.20394566916E+02  0.19579687803E+02  0.24671943580E+00  0.28273015485E+02  0.00000000000E+00 0. -1.
</event>
<event>
 5    1  0.1680526E-003  0.9118800E+02  0.7818608E-02  0.1130116E+00
         25   -1    0    0    0    0  0.00000000000E+00  0.00000000000E+00  0.99999998245E-14  0.12500000000E+03  0.12500000000E+03 0.  0.
        -13    1    3    3    0    0 -0.12003992230E+02 -0.30538875373E+02  0.12098392699E+02  0.34972861028E+02  0.10566000000E+00 0. -1.
         23    2    1    0    0    0 -0.32891565617E+01  0.23753661103E+02 -0.15448222553E+02  0.96474528107E+02  0.92160902919E+02 0.  0.
         13    1    3    3    0    0  0.87148356681E+01  0.54292536476E+02 -0.27546615252E+02  0.61501667080E+02  0.10566000000E+00 0.  1.
         22    1    1    0    0    0  0.32891565617E+01 -0.23753661103E+02  0.15448222553E+02  0.28525471893E+02  0.00000000000E+00 0.  1.
</event>
<event>
 5    1  0.1680526E-003  0.9118800E+02  0.7818608E-02  0.1130116E+00
         25   -1    0    0    0    0  0.00000000000E+00  0.00000000000E+00  0.99999998245E-14  0.12500000000E+03  0.12500000000E+03 0.  0.
        -13    1    3    3    0    0  0.14551013317E+02  0.36395864871E+02  0.83963072640E+01  0.40086158559E+02  0.10566000000E+00 0.  1.
         23    2    1    0    0    0  0.11255062057E+02 -0.19058104909E+02  0.18011439998E+02  0.96464062037E+02  0.92146706448E+02 0.  0.
         13    1    3    3    0    0 -0.32959512604E+01 -0.55453969780E+02  0.96151327337E+01  0.56377903478E+02  0.10566000000E+00 0. -1.
         22    1    1    0    0    0 -0.11255062057E+02  0.19058104909E+02 -0.18011439998E+02  0.28535937963E+02  0.00000000000E+00 0. -1.
</event>
<event>
 5    1  0.1680526E-003  0.9118800E+02  0.7818608E-02  0.1130116E+00
         25   -1    0    0    0    0  0.00000000000E+00  0.00000000000E+00  0.99999998245E-14  0.12500000000E+03  0.12500000000E+03 0.  0.
        -13    1    3    3    0    0  0.64239177369E+01  0.24800788658E+02  0.31949412705E+02  0.40952679685E+02  0.10566000000E+00 0. -1.
         23    2    1    0    0    0  0.67022637611E+01 -0.26013545453E+02  0.12622394274E+02  0.95319202777E+02  0.90580354903E+02 0.  0.
         13    1    3    3    0    0  0.27834602420E+00 -0.50814334111E+02 -0.19327018431E+02  0.54366523092E+02  0.10566000000E+00 0.  1.
         22    1    1    0    0    0 -0.67022637611E+01  0.26013545453E+02 -0.12622394274E+02  0.29680797223E+02  0.00000000000E+00 0.  1.
</event>
<event>
 5    1  0.1680526E-003  0.9118800E+02  0.7818608E-02  0.1130116E+00
         25   -1    0    0    0    0  0.00000000000E+00  0.00000000000E+00  0.99999998245E-14  0.12500000000E+03  0.12500000000E+03 0.  0.
        -13    1    3    3    0    0 -0.89432931862E+01  0.59572124928E+02  0.19863199520E+01  0.60272524358E+02  0.10566000000E+00 0.  1.
         23    2    1    0    0    0 -0.11414137732E+02  0.24511579175E+02 -0.79840920989E+01  0.96806990575E+02  0.92610731795E+02 0.  0.
         13    1    3    3    0    0 -0.24708445459E+01 -0.35060545753E+02 -0.99704120510E+01  0.36534466217E+02  0.10566000000E+00 0. -1.
         22    1    1    0    0    0  0.11414137732E+02 -0.24511579175E+02  0.79840920989E+01  0.28193009425E+02  0.00000000000E+00 0.  1.
</event>
<event>
 5    1  0.1680526E-003  0.9118800E+02  0.7818608E-02  0.1130116E+00
         25   -1    0    0    0    0  0.00000000000E+00  0.00000000000E+00  0.99999998245E-14  0.12500000000E+03  0.12500000000E+03 0.  0.
        -13    1    3    3    0    0 -0.21509247038E+02  0.10935211215E+02  0.24419060565E+02  0.34329699028E+02  0.10566000000E+00 0. -1.
         23    2    1    0    0    0 -0.40923328018E+01 -0.19986859623E+02 -0.23448491004E+02  0.93918599200E+02  0.88626462188E+02 0.  0.
         13    1    3    3    0    0  0.17416914236E+02 -0.30922070838E+02 -0.47867551569E+02  0.59588900171E+02  0.10566000000E+00 0.  1.
         22    1    1    0    0    0  0.40923328018E+01  0.19986859623E+02  0.23448491004E+02  0.31081400800E+02  0.00000000000E+00 0.  1.
</event>
<event>
 5    1  0.1680526E-003  0.9118800E+02  0.7818608E-02  0.1130116E+00
         25   -1    0    0    0    0  0.00000000000E+00  0.00000000000E+00  0.99999998245E-14  0.12500000000E+03  0.12500000000E+03 0.  0.
        -13    1    3    3    0    0 -0.72552500095E+01 -0.13554370508E+02  0.36187973387E+02  0.39318445982E+02  0.10566000000E+00 0.  1.
         23    2    1    0    0    0 -0.18352848984E+02  0.15204665921E+02 -0.13363657421E+02  0.97676086092E+02  0.93776444392E+02 0.  0.
         13    1    3    3    0    0 -0.11097598975E+02  0.28759036429E+02 -0.49551630808E+02  0.58357640109E+02  0.10566000000E+00 0. -1.
         22    1    1    0    0    0  0.18352848984E+02 -0.15204665921E+02  0.13363657421E+02  0.27323913908E+02  0.00000000000E+00 0. -1.
</event>
<event>
 5    1  0.1680526E-003  0.9118800E+02  0.7818608E-02  0.1130116E+00
         25   -1    0    0    0    0  0.00000000000E+00  0.00000000000E+00  0.99999998245E-14  0.12500000000E+03  0.12500000000E+03 0.  0.
        -13    1    3    3    0    0  0.42458926894E+02  0.21340326748E+02  0.33578065594E+02  0.58186490458E+02  0.10566000000E+00 0.  1.
         23    2    1    0    0    0  0.32216228004E+02  0.19147577267E+01  0.82900435533E+01  0.91679188694E+02  0.85409584787E+02 0.  0.
         13    1    3    3    0    0 -0.10242698890E+02 -0.19425569021E+02 -0.25288022041E+02  0.33492698236E+02  0.10566000000E+00 0. -1.
         22    1    1    0    0    0 -0.32216228004E+02 -0.19147577267E+01 -0.82900435533E+01  0.33320811306E+02  0.00000000000E+00 0.  1.
</event>
<event>
 5    1  0.1680526E-003  0.9118800E+02  0.7818608E-02  0.1130116E+00
         25   -1    0    0    0    0  0.00000000000E+00  0.00000000000E+00  0.99999998245E-14  0.12500000000E+03  0.12500000000E+03 0.  0.
        -13    1    3    3    0    0 -0.67144839864E+01 -0.13940700348E+02 -0.33320762131E+02  0.36738423679E+02  0.10566000000E+00 0. -1.
         23    2    1    0    0    0 -0.12042158795E+02  0.23895832025E+02  0.11706168523E+02  0.95792830365E+02  0.91231615086E+02 0.  0.
         13    1    3    3    0    0 -0.53276748087E+01  0.37836532373E+02  0.45026930654E+02  0.59054406686E+02  0.10566000000E+00 0.  1.
         22    1    1    0    0    0  0.12042158795E+02 -0.23895832025E+02 -0.11706168523E+02  0.29207169635E+02  0.00000000000E+00 0.  1.
</event>
<event>
 5    1  0.1680526E-003  0.9118800E+02  0.7818608E-02  0.1130116E+00
         25   -1    0    0    0    0  0.00000000000E+00  0.00000000000E+00  0.99999998245E-14  0.12500000000E+03  0.12500000000E+03 0.  0.
        -13    1    3    3    0    0  0.43360057922E+02  0.14479237007E+02  0.39372103488E+02  0.60331721543E+02  0.10566000000E+00 0.  1.
         23    2    1    0    0    0  0.24656511162E+02  0.12782809611E+02  0.94426868684E+01  0.95665581657E+02  0.91057099747E+02 0.  0.
         13    1    3    3    0    0 -0.18703546760E+02 -0.16964273962E+01 -0.29929416620E+02  0.35333860114E+02  0.10566000000E+00 0. -1.
         22    1    1    0    0    0 -0.24656511162E+02 -0.12782809611E+02 -0.94426868684E+01  0.29334418343E+02  0.00000000000E+00 0.  1.
</event>
<event>
 5    1  0.1680526E-003  0.9118800E+02  0.7818608E-02  0.1130116E+00
         25   -1    0    0    0    0  0.00000000000E+00  0.00000000000E+00  0.99999998245E-14  0.12500000000E+03  0.12500000000E+03 0.  0.
        -13    1    3    3    0    0 -0.51646553600E+02 -0.13743088049E+02 -0.94888570152E+01  0.54279724938E+02  0.10566000000E+00 0. -1.
         23    2    1    0    0    0 -0.22515085186E+02  0.13632593383E+02 -0.15112433388E+02  0.94649344222E+02  0.89651191043E+02 0.  0.
         13    1    3    3    0    0  0.29131468414E+02  0.27375681432E+02 -0.56235763729E+01  0.40369619283E+02  0.10566000000E+00 0.  1.
         22    1    1    0    0    0  0.22515085186E+02 -0.13632593383E+02  0.15112433388E+02  0.30350655778E+02  0.00000000000E+00 0. -1.
</event>
<event>
 5    1  0.1680526E-003  0.9118800E+02  0.7818608E-02  0.1130116E+00
         25   -1    0    0    0    0  0.00000000000E+00  0.00000000000E+00  0.99999998245E-14  0.12500000000E+03  0.12500000000E+03 0.  0.
        -13    1    3    3    0    0 -0.29769826769E+02 -0.43510615619E+02 -0.19825583567E+02  0.56324783046E+02  0.10566000000E+00 0. -1.
         23    2    1    0    0    0 -0.57435918716E+01 -0.27400617754E+02  0.73926860355E+01  0.96044266411E+02  0.91575469437E+02 0.  0.
         13    1    3    3    0    0  0.24026234898E+02  0.16109997865E+02  0.27218269602E+02  0.39719483365E+02  0.10566000000E+00 0.  1.
         22    1    1    0    0    0  0.57435918716E+01  0.27400617754E+02 -0.73926860355E+01  0.28955733589E+02  0.00000000000E+00 0. -1.
</event>
<event>
 5    1  0.1680526E-003  0.9118800E+02  0.7818608E-02  0.1130116E+00
         25   -1    0    0    0    0  0.00000000000E+00  0.00000000000E+00  0.99999998245E-14  0.12500000000E+03  0.12500000000E+03 0.  0.
        -13    1    3    3    0    0 -0.98227062005E+01  0.13720122808E+02  0.50745881871E+02  0.53477874096E+02  0.10566000000E+00 0.  1.
         23    2    1    0    0    0  0.17274255156E+02 -0.34505707705E+01  0.23907882024E+02  0.95303314113E+02  0.90558426047E+02 0.  0.
         13    1    3    3    0    0  0.27096961356E+02 -0.17170693579E+02 -0.26837999847E+02  0.41825440016E+02  0.10566000000E+00 0. -1.
         22    1    1    0    0    0 -0.17274255156E+02  0.34505707705E+01 -0.23907882024E+02  0.29696685887E+02  0.00000000000E+00 0.  1.
</event>
<event>
 5    1  0.1680526E-003  0.9118800E+02  0.7818608E-02  0.1130116E+00
         25   -1    0    0    0    0  0.00000000000E+00  0.00000000000E+00  0.99999998245E-14  0.12500000000E+03  0.12500000000E+03 0.  0.
        -13    1    3    3    0    0 -0.47385014078E+01 -0.62223388245E+01  0.61250368614E+02  0.61747791178E+02  0.10566000000E+00 0. -1.
         23    2    1    0    0    0  0.23067035110E+01 -0.80405714082E+01  0.28443801867E+02  0.95351702675E+02  0.90625193344E+02 0.  0.
         13    1    3    3    0    0  0.70452049188E+01 -0.18182325837E+01 -0.32806566747E+02  0.33603911496E+02  0.10566000000E+00 0.  1.
         22    1    1    0    0    0 -0.23067035110E+01  0.80405714082E+01 -0.28443801867E+02  0.29648297325E+02  0.00000000000E+00 0. -1.
</event>
<event>
 5    1  0.1680526E-003  0.9118800E+02  0.7818608E-02  0.1130116E+00
         25   -1    0    0    0    0  0.00000000000E+00  0.00000000000E+00  0.99999998245E-14  0.12500000000E+03  0.12500000000E+03 0.  0.
        -13    1    3    3    0    0  0.60142828311E+02 -0.11099352133E+02 -0.75049432684E+01  0.61617292642E+02  0.10566000000E+00 0. -1.
         23    2    1    0    0    0  0.24379063026E+02 -0.74122458776E+01 -0.99301108295E+01  0.97652473530E+02  0.93744964571E+02 0.  0.
         13    1    3    3    0    0 -0.35763765285E+02  0.36871062558E+01 -0.24251675611E+01  0.36035180888E+02  0.10566000000E+00 0.  1.
         22    1    1    0    0    0 -0.24379063026E+02  0.74122458776E+01  0.99301108295E+01  0.27347526470E+02  0.00000000000E+00 0. -1.
</event>
<event>
 5    1  0.1680526E-003  0.9118800E+02  0.7818608E-02  0.1130116E+00
         25   -1    0    0    0    0  0.00000000000E+00  0.00000000000E+00  0.99999998245E-14  0.12500000000E+03  0.12500000000E+03 0.  0.
        -13    1    3    3    0    0  0.17322850923E+02 -0.19008837316E+02 -0.25925214818E+02  0.36517735248E+02  0.10566000000E+00 0.  1.
         23    2    1    0    0    0  0.50636886873E+01  0.30612147164E+02  0.30950568415E+00  0.93970332085E+02  0.88699396961E+02 0.  0.
         13    1    3    3    0    0 -0.12259162236E+02  0.49620984480E+02  0.26234720502E+02  0.57452596838E+02  0.10566000000E+00 0. -1.
         22    1    1    0    0    0 -0.50636886873E+01 -0.30612147164E+02 -0.30950568415E+00  0.31029667915E+02  0.00000000000E+00 0. -1.
</event>
<event>
 5    1  0.1680526E-003  0.9118800E+02  0.7818608E-02  0.1130116E+00
         25   -1    0    0    0    0  0.00000000000E+00  0.00000000000E+00  0.99999998245E-14  0.12500000000E+03  0.12500000000E+03 0.  0.
        -13    1    3    3    0    0  0.48349886337E+02  0.10049225599E+02 -0.28100844577E+02  0.56818721157E+02  0.10566000000E+00 0. -1.
         23    2    1    0    0    0  0.27100180649E+02  0.87130674190E+01  0.49225446662E+01  0.96111095884E+02  0.91666645902E+02 0.  0.
         13    1    3    3    0    0 -0.21249705688E+02 -0.13361581800E+01  0.33023389243E+02  0.39292374727E+02  0.10566000000E+00 0.  1.
         22    1    1    0    0    0 -0.27100180649E+02 -0.87130674190E+01 -0.49225446662E+01  0.28888904116E+02  0.00000000000E+00 0. -1.
</event>
<event>
 5    1  0.1680526E-003  0.9118800E+02  0.7818608E-02  0.1130116E+00
         25   -1    0    0    0    0  0.00000000000E+00  0.00000000000E+00  0.99999998245E-14  0.12500000000E+03  0.12500000000E+03 0.  0.
        -13    1    3    3    0    0  0.22915089001E+02 -0.74692604728E+01 -0.48779676080E+02  0.54409182299E+02  0.10566000000E+00 0.  1.
         23    2    1    0    0    0 -0.10602880527E+02 -0.95607584814E-01 -0.29229715550E+02  0.93906488017E+02  0.88609378760E+02 0.  0.
         13    1    3    3    0    0 -0.33517969529E+02  0.73736528880E+01  0.19549960530E+02  0.39497305718E+02  0.10566000000E+00 0. -1.
         22    1    1    0    0    0  0.10602880527E+02  0.95607584814E-01  0.29229715550E+02  0.31093511983E+02  0.00000000000E+00 0. -1.
</event>
<event>
 5    1  0.1680526E-003  0.9118800E+02  0.7818608E-02  0.1130116E+00
         25   -1    0    0    0    0  0.00000000000E+00  0.00000000000E+00  0.99999998245E-14  0.12500000000E+03  0.12500000000E+03 0.  0.
        -13    1    3    3    0    0  0.32070797202E+02 -0.11499855767E+02 -0.22610092643E+02  0.40890220948E+02  0.10566000000E+00 0.  1.
         23    2    1    0    0    0 -0.12221908246E+01 -0.18897536187E+02  0.21306391599E+02  0.96494334821E+02  0.92187763316E+02 0.  0.
         13    1    3    3    0    0 -0.33292988026E+02 -0.73976804199E+01  0.43916484242E+02  0.55604113872E+02  0.10566000000E+00 0. -1.
         22    1    1    0    0    0  0.12221908246E+01  0.18897536187E+02 -0.21306391599E+02  0.28505665179E+02  0.00000000000E+00 0. -1.
</event>
<event>
 5    1  0.1680526E-003  0.9118800E+02  0.7818608E-02  0.1130116E+00
         25   -1    0    0    0    0  0.00000000000E+00  0.00000000000E+00  0.99999998245E-14  0.12500000000E+03  0.12500000000E+03 0.  0.
        -13    1    3    3    0    0 -0.34363875294E+02 -0.18233138050E+02  0.32301726557E+02  0.50564176558E+02  0.10566000000E+00 0. -1.
         23    2    1    0    0    0  0.81958584413E+01 -0.13868896626E+02  0.26842938064E+02  0.93694062654E+02  0.88309204863E+02 0.  0.
         13    1    3    3    0    0  0.42559733735E+02  0.43642414244E+01 -0.54587884936E+01  0.43129886096E+02  0.10566000000E+00 0.  1.
         22    1    1    0    0    0 -0.81958584413E+01  0.13868896626E+02 -0.26842938064E+02  0.31305937346E+02  0.00000000000E+00 0. -1.
</event>
<event>
 5    1  0.1680526E-003  0.9118800E+02  0.7818608E-02  0.1130116E+00
         25   -1    0    0    0    0  0.00000000000E+00  0.00000000000E+00  0.99999998245E-14  0.12500000000E+03  0.12500000000E+03 0.  0.
        -13    1    3    3    0    0  0.12157395756E+02  0.68742570295E+01  0.37455335996E+02  0.39974629954E+02  0.10566000000E+00 0.  1.
         23    2    1    0    0    0 -0.25216261605E+02 -0.15089093392E+02  0.27871252405E+01  0.95482062135E+02  0.90804821093E+02 0.  0.
         13    1    3    3    0    0 -0.37373657361E+02 -0.21963350422E+02 -0.34668210756E+02  0.55507432181E+02  0.10566000000E+00 0. -1.
         22    1    1    0    0    0  0.25216261605E+02  0.15089093392E+02 -0.27871252405E+01  0.29517937865E+02  0.00000000000E+00 0. -1.
</event>
<event>
 5    1  0.1680526E-003  0.9118800E+02  0.7818608E-02  0.1130116E+00
         25   -1    0    0    0    0  0.00000000000E+00  0.00000000000E+00  0.99999998245E-14  0.12500000000E+03  0.12500000000E+03 0.  0.
        -13    1    3    3    0    0  0.13075812292E+02 -0.19016498589E+02  0.56752735697E+01  0.23766025747E+02  0.10566000000E+00 0.  1.
         23    2    1    0    0    0 -0.33696323392E+02  0.31267822213E+01 -0.24085849393E+02  0.83462702083E+02  0.72392510116E+02 0.  0.
         13    1    3    3    0    0 -0.46772135685E+02  0.22143280811E+02 -0.29761122962E+02  0.59696676336E+02  0.10566000000E+00 0. -1.
         22    1    1    0    0    0  0.33696323392E+02 -0.31267822213E+01  0.24085849393E+02  0.41537297917E+02  0.00000000000E+00 0. -1.
</event>
<event>
 5    1  0.1680526E-003  0.9118800E+02  0.7818608E-02  0.1130116E+00
         25   -1    0    0    0    0  0.00000000000E+00  0.00000000000E+00  0.99999998245E-14  0.12500000000E+03  0.12500000000E+03 0.  0.
        -13    1    3    3    0    0 -0.42130023751E+01  0.42169590878E+02  0.64636145172E+01  0.42869724288E+02  0.10566000000E+00 0. -1.
         23    2    1    0    0    0  0.15493346634E+02  0.48750471440E+00 -0.22764259063E+02  0.97459249439E+02  0.93486963582E+02 0.  0.
         13    1    3    3    0    0  0.19706349009E+02 -0.41682086164E+02 -0.29227873580E+02  0.54589525152E+02  0.10566000000E+00 0.  1.
         22    1    1    0    0    0 -0.15493346634E+02 -0.48750471440E+00  0.22764259063E+02  0.27540750561E+02  0.00000000000E+00 0.  1.
</event>
<event>
 5    1  0.1680526E-003  0.9118800E+02  0.7818608E-02  0.1130116E+00
         25   -1    0    0    0    0  0.00000000000E+00  0.00000000000E+00  0.99999998245E-14  0.12500000000E+03  0.12500000000E+03 0.  0.
        -13    1    3    3    0    0 -0.43392919717E+01  0.20130901496E+02 -0.51574203242E+02  0.55533703766E+02  0.10566000000E+00 0.  1.
         23    2    1    0    0    0 -0.19795195154E+02 -0.15488582172E+01 -0.23721349381E+02  0.94065373294E+02  0.88833233216E+02 0.  0.
         13    1    3    3    0    0 -0.15455903182E+02 -0.21679759714E+02  0.27852853861E+02  0.38531669528E+02  0.10566000000E+00 0. -1.
         22    1    1    0    0    0  0.19795195154E+02  0.15488582172E+01  0.23721349381E+02  0.30934626706E+02  0.00000000000E+00 0.  1.
</event>
<event>
 5    1  0.1680526E-003  0.9118800E+02  0.7818608E-02  0.1130116E+00
         25   -1    0    0    0    0  0.00000000000E+00  0.00000000000E+00  0.99999998245E-14  0.12500000000E+03  0.12500000000E+03 0.  0.
        -13    1    3    3    0    0 -0.32237078636E+02 -0.13478540784E+02  0.22638749514E+02  0.41634414181E+02  0.10566000000E+00 0.  1.
         23    2    1    0    0    0  0.20460559489E+02 -0.34397233908E+00  0.20571690920E+02  0.95983672202E+02  0.91492721298E+02 0.  0.
         13    1    3    3    0    0  0.52697638125E+02  0.13134568445E+02 -0.20670585938E+01  0.54349258021E+02  0.10566000000E+00 0. -1.
         22    1    1    0    0    0 -0.20460559489E+02  0.34397233908E+00 -0.20571690920E+02  0.29016327798E+02  0.00000000000E+00 0. -1.
</event>
<event>
 5    1  0.1680526E-003  0.9118800E+02  0.7818608E-02  0.1130116E+00
         25   -1    0    0    0    0  0.00000000000E+00  0.00000000000E+00  0.99999998245E-14  0.12500000000E+03  0.12500000000E+03 0.  0.
        -13    1    3    3    0    0  0.15497713091E+02  0.52992197986E+02 -0.96175768103E+01  0.56043385927E+02  0.10566000000E+00 0. -1.
         23    2    1    0    0    0  0.14378375149E+02  0.10217467096E+02 -0.18166950330E+02  0.99678617927E+02  0.96408788405E+02 0.  0.
         13    1    3    3    0    0 -0.11193379416E+01 -0.42774730890E+02 -0.85493735198E+01  0.43635232001E+02  0.10566000000E+00 0.  1.
         22    1    1    0    0    0 -0.14378375149E+02 -0.10217467096E+02  0.18166950330E+02  0.25321382073E+02  0.00000000000E+00 0. -1.
</event>
<event>
 5    1  0.1680526E-003  0.9118800E+02  0.7818608E-02  0.1130116E+00
         25   -1    0    0    0    0  0.00000000000E+00  0.00000000000E+00  0.99999998245E-14  0.12500000000E+03  0.12500000000E+03 0.  0.
        -13    1    3    3    0    0  0.95370889845E+01  0.52801964031E+02  0.26575307380E+02  0.59877054021E+02  0.10566000000E+00 0.  1.
         23    2    1    0    0    0  0.19700338409E+01  0.22076220469E+02  0.25042275766E+02  0.91558168126E+02  0.85232282801E+02 0.  0.
         13    1    3    3    0    0 -0.75670551435E+01 -0.30725743562E+02 -0.15330316140E+01  0.31681114105E+02  0.10566000000E+00 0. -1.
         22    1    1    0    0    0 -0.19700338409E+01 -0.22076220469E+02 -0.25042275766E+02  0.33441831874E+02  0.00000000000E+00 0.  1.
</event>
<event>
 5    1  0.1680526E-003  0.9118800E+02  0.7818608E-02  0.1130116E+00
         25   -1    0    0    0    0  0.00000000000E+00  0.00000000000E+00  0.99999998245E-14  0.12500000000E+03  0.12500000000E+03 0.  0.
        -13    1    3    3    0    0  0.12930958245E+02 -0.12349071726E+02 -0.46019433521E+02  0.49371132043E+02  0.10566000000E+00 0.  1.
         23    2    1    0    0    0  0.25784442981E+02  0.12754394911E+02 -0.11320226497E+02  0.94086255203E+02  0.88862611940E+02 0.  0.
         13    1    3    3    0    0  0.12853484737E+02  0.25103466637E+02  0.34699207024E+02  0.44715123160E+02  0.10566000000E+00 0. -1.
         22    1    1    0    0    0 -0.25784442981E+02 -0.12754394911E+02  0.11320226497E+02  0.30913744797E+02  0.00000000000E+00 0.  1.
</event>
<event>
 5    1  0.1680526E-003  0.9118800E+02  0.7818608E-02  0.1130116E+00
         25   -1    0    0    0    0  0.00000000000E+00  0.00000000000E+00  0.99999998245E-14  0.12500000000E+03  0.12500000000E+03 0.  0.
        -13    1    3    3    0    0 -0.46454160028E+02 -0.41508197591E+01 -0.36794052257E+02  0.59405654058E+02  0.10566000000E+00 0. -1.
         23    2    1    0    0    0 -0.26415537540E+02 -0.79889108496E+00 -0.35940004661E+01  0.98329122814E+02  0.94642911533E+02 0.  0.
         13    1    3    3    0    0  0.20038622487E+02  0.33519286741E+01  0.33200051791E+02  0.38923468756E+02  0.10566000000E+00 0.  1.
         22    1    1    0    0    0  0.26415537540E+02  0.79889108496E+00  0.35940004661E+01  0.26670877186E+02  0.00000000000E+00 0. -1.
</event>
<event>
 5    1  0.1680526E-003  0.9118800E+02  0.7818608E-02  0.1130116E+00
         25   -1    0    0    0    0  0.00000000000E+00  0.00000000000E+00  0.99999998245E-14  0.12500000000E+03  0.12500000000E+03 0.  0.
        -13    1    3    3    0    0 -0.59420437567E+01  0.16514007404E+02 -0.51033940138E+02  0.53967532226E+02  0.10566000000E+00 0.  1.
         23    2    1    0    0    0  0.20074574451E+02  0.39944104295E+01 -0.19354261243E+02  0.96830312704E+02  0.92642205155E+02 0.  0.
         13    1    3    3    0    0  0.26016618208E+02 -0.12519596974E+02  0.31679678895E+02  0.42862780478E+02  0.10566000000E+00 0. -1.
         22    1    1    0    0    0 -0.20074574451E+02 -0.39944104295E+01  0.19354261243E+02  0.28169687296E+02  0.00000000000E+00 0.  1.
</event>
<event>
 5    1  0.1680526E-003  0.9118800E+02  0.7818608E-02  0.1130116E+00
         25   -1    0    0    0    0  0.00000000000E+00  0.00000000000E+00  0.99999998245E-14  0.12500000000E+03  0.12500000000E+03 0.  0.
        -13    1    3    3    0    0 -0.27884154112E+02 -0.20873853504E+02 -0.19547736748E+02  0.39942070385E+02  0.10566000000E+00 0.  1.
         23    2    1    0    0    0  0.12865512873E+02  0.19669860868E+02 -0.13879194707E+02  0.97704269679E+02  0.93814004390E+02 0.  0.
         13    1    3    3    0    0  0.40749666984E+02  0.40543714371E+02  0.56685420411E+01  0.57762199294E+02  0.10566000000E+00 0. -1.
         22    1    1    0    0    0 -0.12865512873E+02 -0.19669860868E+02  0.13879194707E+02  0.27295730321E+02  0.00000000000E+00 0. -1.
</event>
<event>
 5    1  0.1680526E-003  0.9118800E+02  0.7818608E-02  0.1130116E+00
         25   -1    0    0    0    0  0.00000000000E+00  0.00000000000E+00  0.99999998245E-14  0.12500000000E+03  0.12500000000E+03 0.  0.
        -13    1    3    3    0    0  0.13779542882E+02 -0.31143522921E+02 -0.70662988931E-01  0.34055997699E+02  0.10566000000E+00 0. -1.
         23    2    1    0    0    0 -0.18834776776E+02  0.20644058989E+02 -0.83947649484E+01  0.95821273738E+02  0.91270578143E+02 0.  0.
         13    1    3    3    0    0 -0.32614319657E+02  0.51787581910E+02 -0.83241019594E+01  0.61765276040E+02  0.10566000000E+00 0.  1.
         22    1    1    0    0    0  0.18834776776E+02 -0.20644058989E+02  0.83947649484E+01  0.29178726262E+02  0.00000000000E+00 0.  1.
</event>
<event>
 5    1  0.1680526E-003  0.9118800E+02  0.7818608E-02  0.1130116E+00
         25   -1    0    0    0    0  0.00000000000E+00  0.00000000000E+00  0.99999998245E-14  0.12500000000E+03  0.12500000000E+03 0.  0.
        -13    1    3    3    0    0  0.32098630501E+02 -0.95585093320E-01 -0.16264444119E+02  0.35984364981E+02  0.10566000000E+00 0.  1.
         23    2    1    0    0    0 -0.10866259972E+02 -0.13303895936E+02  0.23427185140E+02  0.95950004192E+02  0.91446711521E+02 0.  0.
         13    1    3    3    0    0 -0.42964890474E+02 -0.13208310842E+02  0.39691629259E+02  0.59965639211E+02  0.10566000000E+00 0. -1.
         22    1    1    0    0    0  0.10866259972E+02  0.13303895936E+02 -0.23427185140E+02  0.29049995808E+02  0.00000000000E+00 0. -1.
</event>
<event>
 5    1  0.1680526E-003  0.9118800E+02  0.7818608E-02  0.1130116E+00
         25   -1    0    0    0    0  0.00000000000E+00  0.00000000000E+00  0.99999998245E-14  0.12500000000E+03  0.12500000000E+03 0.  0.
        -13    1    3    3    0    0  0.46843856934E+02 -0.31698133149E+01 -0.12901652029E+02  0.48691461654E+02  0.10566000000E+00 0. -1.
         23    2    1    0    0    0  0.14999287399E+02  0.27272222690E+02 -0.64145222994E+01  0.93221094272E+02  0.87637170014E+02 0.  0.
         13    1    3    3    0    0 -0.31844569534E+02  0.30442036005E+02  0.64871297299E+01  0.44529632618E+02  0.10566000000E+00 0.  1.
         22    1    1    0    0    0 -0.14999287399E+02 -0.27272222690E+02  0.64145222994E+01  0.31778905728E+02  0.00000000000E+00 0.  1.
</event>
<event>
 5    1  0.1680526E-003  0.9118800E+02  0.7818608E-02  0.1130116E+00
         25   -1    0    0    0    0  0.00000000000E+00  0.00000000000E+00  0.99999998245E-14  0.12500000000E+03  0.12500000000E+03 0.  0.
        -13    1    3    3    0    0  0.22697262757E+02 -0.21029825682E+02  0.16265691571E+02  0.34957162230E+02  0.10566000000E+00 0. -1.
         23    2    1    0    0    0 -0.13498478345E+02  0.25877861544E+02  0.31233020185E+01  0.95646505298E+02  0.91030908621E+02 0.  0.
         13    1    3    3    0    0 -0.36195741102E+02  0.46907687226E+02 -0.13142389553E+02  0.60689343068E+02  0.10566000000E+00 0.  1.
         22    1    1    0    0    0  0.13498478345E+02 -0.25877861544E+02 -0.31233020185E+01  0.29353494702E+02  0.00000000000E+00 0.  1.
</event>
<event>
 5    1  0.1680526E-003  0.9118800E+02  0.7818608E-02  0.1130116E+00
         25   -1    0    0    0    0  0.00000000000E+00  0.00000000000E+00  0.99999998245E-14  0.12500000000E+03  0.12500000000E+03 0.  0.
        -13    1    3    3    0    0  0.37644055239E+02  0.25749475372E+02  0.41107344385E+02  0.61399798886E+02  0.10566000000E+00 0.  1.
         23    2    1    0    0    0  0.22116570469E+02  0.51132898588E+01  0.18799732939E+02  0.95525971075E+02  0.90865245109E+02 0.  0.
         13    1    3    3    0    0 -0.15527484769E+02 -0.20636185513E+02 -0.22307611446E+02  0.34126172189E+02  0.10566000000E+00 0. -1.
         22    1    1    0    0    0 -0.22116570469E+02 -0.51132898588E+01 -0.18799732939E+02  0.29474028925E+02  0.00000000000E+00 0.  1.
</event>
<event>
 5    1  0.1680526E-003  0.9118800E+02  0.7818608E-02  0.1130116E+00
         25   -1    0    0    0    0  0.00000000000E+00  0.00000000000E+00  0.99999998245E-14  0.12500000000E+03  0.12500000000E+03 0.  0.
        -13    1    3    3    0    0 -0.54516401202E+02  0.49279105146E+01  0.70958611766E-01  0.54738820787E+02  0.10566000000E+00 0.  1.
         23    2    1    0    0    0 -0.17654695332E+02  0.70082041697E+01  0.20596966189E+02  0.96981466684E+02  0.92845929750E+02 0.  0.
         13    1    3    3    0    0  0.36861705869E+02  0.20802936552E+01  0.20526007577E+02  0.42242645897E+02  0.10566000000E+00 0. -1.
         22    1    1    0    0    0  0.17654695332E+02 -0.70082041697E+01 -0.20596966189E+02  0.28018533316E+02  0.00000000000E+00 0.  1.
</event>
<event>
 5    1  0.1680526E-003  0.9118800E+02  0.7818608E-02  0.1130116E+00
         25   -1    0    0    0    0  0.00000000000E+00  0.00000000000E+00  0.99999998245E-14  0.12500000000E+03  0.12500000000E+03 0.  0.
        -13    1    3    3    0    0  0.23588685213E+01  0.35597125380E+02  0.10557021818E+02  0.37204589364E+02  0.10566000000E+00 0.  1.
         23    2    1    0    0    0 -0.30267241006E+02 -0.89664749748E+01  0.12105864303E-01  0.93432553189E+02  0.87938264125E+02 0.  0.
         13    1    3    3    0    0 -0.32626109527E+02 -0.44563600355E+02 -0.10544915953E+02  0.56227963826E+02  0.10566000000E+00 0. -1.
         22    1    1    0    0    0  0.30267241006E+02  0.89664749748E+01 -0.12105864303E-01  0.31567446811E+02  0.00000000000E+00 0. -1.
</event>
<event>
 5    1  0.1680526E-003  0.9118800E+02  0.7818608E-02  0.1130116E+00
         25   -1    0    0    0    0  0.00000000000E+00  0.00000000000E+00  0.99999998245E-14  0.12500000000E+03  0.12500000000E+03 0.  0.
        -13    1    3    3    0    0  0.28501388317E+02  0.28571308995E+02 -0.15568184394E+02  0.43255385365E+02  0.10566000000E+00 0. -1.
         23    2    1    0    0    0 -0.11598355714E+01 -0.61292632361E+01 -0.32471719749E+02  0.91934524503E+02  0.85782463976E+02 0.  0.
         13    1    3    3    0    0 -0.29661223888E+02 -0.34700572231E+02 -0.16903535355E+02  0.48679139139E+02  0.10566000000E+00 0.  1.
         22    1    1    0    0    0  0.11598355714E+01  0.61292632361E+01  0.32471719749E+02  0.33065475497E+02  0.00000000000E+00 0.  1.
</event>
<event>
 5    1  0.1680526E-003  0.9118800E+02  0.7818608E-02  0.1130116E+00
         25   -1    0    0    0    0  0.00000000000E+00  0.00000000000E+00  0.99999998245E-14  0.12500000000E+03  0.12500000000E+03 0.  0.
        -13    1    3    3    0    0 -0.52649652409E+02 -0.35396883266E+01  0.90506832767E+01  0.53539156924E+02  0.10566000000E+00 0.  1.
         23    2    1    0    0    0 -0.26516508447E+02  0.13730140509E+02 -0.13593665143E+02  0.92191011740E+02  0.86155399918E+02 0.  0.
         13    1    3    3    0    0  0.26133143963E+02  0.17269828836E+02 -0.22644348420E+02  0.38651854817E+02  0.10566000000E+00 0. -1.
         22    1    1    0    0    0  0.26516508447E+02 -0.13730140509E+02  0.13593665143E+02  0.32808988260E+02  0.00000000000E+00 0.  1.
</event>
<event>
 5    1  0.1680526E-003  0.9118800E+02  0.7818608E-02  0.1130116E+00
         25   -1    0    0    0    0  0.00000000000E+00  0.00000000000E+00  0.99999998245E-14  0.12500000000E+03  0.12500000000E+03 0.  0.
        -13    1    3    3    0    0 -0.11863101833E+02 -0.40531851660E+02  0.35350465585E+01  0.42380088512E+02  0.10566000000E+00 0.  1.
         23    2    1    0    0    0 -0.13376488966E+02  0.45697324944E+01 -0.25360847764E+02  0.95965787225E+02  0.91468283062E+02 0.  0.
         13    1    3    3    0    0 -0.15133871327E+01  0.45101584154E+02 -0.28895894323E+02  0.53585698713E+02  0.10566000000E+00 0. -1.
         22    1    1    0    0    0  0.13376488966E+02 -0.45697324944E+01  0.25360847764E+02  0.29034212775E+02  0.00000000000E+00 0. -1.
</event>
<event>
 5    1  0.1680526E-003  0.9118800E+02  0.7818608E-02  0.1130116E+00
         25   -1    0    0    0    0  0.00000000000E+00  0.00000000000E+00  0.99999998245E-14  0.12500000000E+03  0.12500000000E+03 0.  0.
        -13    1    3    3    0    0 -0.19743677057E+02 -0.25170371066E+02  0.15741494884E+02  0.35653417628E+02  0.10566000000E+00 0.  1.
         23    2    1    0    0    0  0.25930106649E+02  0.62959473741E+01  0.20543064384E+02  0.91324684435E+02  0.84889169561E+02 0.  0.
         13    1    3    3    0    0  0.45673783705E+02  0.31466318440E+02  0.48015694994E+01  0.55671266807E+02  0.10566000000E+00 0. -1.
         22    1    1    0    0    0 -0.25930106649E+02 -0.62959473741E+01 -0.20543064384E+02  0.33675315565E+02  0.00000000000E+00 0. -1.
</event>
<event>
 5    1  0.1680526E-003  0.9118800E+02  0.7818608E-02  0.1130116E+00
         25   -1    0    0    0    0  0.00000000000E+00  0.00000000000E+00  0.99999998245E-14  0.12500000000E+03  0.12500000000E+03 0.  0.
        -13    1    3    3    0    0 -0.14215835410E+02  0.21347615456E+02  0.22573281984E+02  0.34166868245E+02  0.10566000000E+00 0. -1.
         23    2    1    0    0    0  0.16979021238E+02 -0.99100236363E+01 -0.21019683784E+02  0.96219401726E+02  0.91814216935E+02 0.  0.
         13    1    3    3    0    0  0.31194856648E+02 -0.31257639092E+02 -0.43592965768E+02  0.62052533481E+02  0.10566000000E+00 0.  1.
         22    1    1    0    0    0 -0.16979021238E+02  0.99100236363E+01  0.21019683784E+02  0.28780598274E+02  0.00000000000E+00 0.  1.
</event>
<event>
 5    1  0.1680526E-003  0.9118800E+02  0.7818608E-02  0.1130116E+00
         25   -1    0    0    0    0  0.00000000000E+00  0.00000000000E+00  0.99999998245E-14  0.12500000000E+03  0.12500000000E+03 0.  0.
        -13    1    3    3    0    0 -0.27512327860E+02  0.79856345131E+01 -0.49031200508E+02  0.56787043682E+02  0.10566000000E+00 0. -1.
         23    2    1    0    0    0 -0.16618544937E+02 -0.14538330333E+02 -0.19042824471E+02  0.95842355230E+02  0.91299445823E+02 0.  0.
         13    1    3    3    0    0  0.10893782923E+02 -0.22523964846E+02  0.29988376037E+02  0.39055311548E+02  0.10566000000E+00 0.  1.
         22    1    1    0    0    0  0.16618544937E+02  0.14538330333E+02  0.19042824471E+02  0.29157644770E+02  0.00000000000E+00 0. -1.
</event>
<event>
 5    1  0.1680526E-003  0.9118800E+02  0.7818608E-02  0.1130116E+00
         25   -1    0    0    0    0  0.00000000000E+00  0.00000000000E+00  0.99999998245E-14  0.12500000000E+03  0.12500000000E+03 0.  0.
        -13    1    3    3    0    0 -0.48659591553E+02  0.14714026893E+02  0.18326798458E+02  0.54038330315E+02  0.10566000000E+00 0.  1.
         23    2    1    0    0    0 -0.31215663422E+02  0.84827377241E+00 -0.11892249339E+02  0.91584991312E+02  0.85271612087E+02 0.  0.
         13    1    3    3    0    0  0.17443928131E+02 -0.13865753120E+02 -0.30219047797E+02  0.37546660997E+02  0.10566000000E+00 0. -1.
         22    1    1    0    0    0  0.31215663422E+02 -0.84827377241E+00  0.11892249339E+02  0.33415008688E+02  0.00000000000E+00 0.  1.
</event>
<event>
 5    1  0.1680526E-003  0.9118800E+02  0.7818608E-02  0.1130116E+00
         25   -1    0    0    0    0  0.00000000000E+00  0.00000000000E+00  0.99999998245E-14  0.12500000000E+03  0.12500000000E+03 0.  0.
        -13    1    3    3    0    0 -0.22749425403E+02 -0.12724931462E+02 -0.19141175935E+02  0.32339697233E+02  0.10566000000E+00 0. -1.
         23    2    1    0    0    0  0.15309192624E+02  0.83753814089E+01  0.25122178321E+02  0.94411730416E+02  0.89319273418E+02 0.  0.
         13    1    3    3    0    0  0.38058618028E+02  0.21100312871E+02  0.44263354256E+02  0.62072033183E+02  0.10566000000E+00 0.  1.
         22    1    1    0    0    0 -0.15309192624E+02 -0.83753814089E+01 -0.25122178321E+02  0.30588269584E+02  0.00000000000E+00 0.  1.
</event>
<event>
 5    1  0.1680526E-003  0.9118800E+02  0.7818608E-02  0.1130116E+00
         25   -1    0    0    0    0  0.00000000000E+00  0.00000000000E+00  0.99999998245E-14  0.12500000000E+03  0.12500000000E+03 0.  0.
        -13    1    3    3    0    0  0.47325668484E+02  0.30531402107E+02  0.49142159921E+01  0.56533583779E+02  0.10566000000E+00 0. -1.
         23    2    1    0    0    0  0.25425846672E+02  0.53866943931E+00  0.15584247051E+02  0.95173290495E+02  0.90378773081E+02 0.  0.
         13    1    3    3    0    0 -0.21899821812E+02 -0.29992732667E+02  0.10670031059E+02  0.38639706716E+02  0.10566000000E+00 0.  1.
         22    1    1    0    0    0 -0.25425846672E+02 -0.53866943931E+00 -0.15584247051E+02  0.29826709505E+02  0.00000000000E+00 0. -1.
</event>
<event>
 5    1  0.1680526E-003  0.9118800E+02  0.7818608E-02  0.1130116E+00
         25   -1    0    0    0    0  0.00000000000E+00  0.00000000000E+00  0.99999998245E-14  0.12500000000E+03  0.12500000000E+03 0.  0.
        -13    1    3    3    0    0  0.27969131344E+02  0.16577403971E+02  0.26114539630E+02  0.41702073985E+02  0.10566000000E+00 0.  1.
         23    2    1    0    0    0 -0.23924296899E+02  0.25204895389E+01  0.15143599215E+02  0.96573719083E+02  0.92295339919E+02 0.  0.
         13    1    3    3    0    0 -0.51893428242E+02 -0.14056914432E+02 -0.10970940415E+02  0.54871645098E+02  0.10566000000E+00 0. -1.
         22    1    1    0    0    0  0.23924296899E+02 -0.25204895389E+01 -0.15143599215E+02  0.28426280917E+02  0.00000000000E+00 0. -1.
</event>
<event>
 5    1  0.1680526E-003  0.9118800E+02  0.7818608E-02  0.1130116E+00
         25   -1    0    0    0    0  0.00000000000E+00  0.00000000000E+00  0.99999998245E-14  0.12500000000E+03  0.12500000000E+03 0.  0.
        -13    1    3    3    0    0 -0.20571325436E+02  0.51589101810E+02  0.94271950658E+01  0.56333808913E+02  0.10566000000E+00 0.  1.
         23    2    1    0    0    0 -0.10963424426E+02  0.12835798837E+02  0.21143878019E+02  0.97944169120E+02  0.94133109372E+02 0.  0.
         13    1    3    3    0    0  0.96079010096E+01 -0.38753302973E+02  0.11716682953E+02  0.41610360207E+02  0.10566000000E+00 0. -1.
         22    1    1    0    0    0  0.10963424426E+02 -0.12835798837E+02 -0.21143878019E+02  0.27055830880E+02  0.00000000000E+00 0.  1.
</event>
<event>
 5    1  0.1680526E-003  0.9118800E+02  0.7818608E-02  0.1130116E+00
         25   -1    0    0    0    0  0.00000000000E+00  0.00000000000E+00  0.99999998245E-14  0.12500000000E+03  0.12500000000E+03 0.  0.
        -13    1    3    3    0    0  0.52223673188E+02  0.19211152646E+02 -0.82607285690E+01  0.56255055131E+02  0.10566000000E+00 0.  1.
         23    2    1    0    0    0  0.19121270841E+02  0.19331909581E+01 -0.21766683868E+02  0.95962976178E+02  0.91464441421E+02 0.  0.
         13    1    3    3    0    0 -0.33102402347E+02 -0.17277961688E+02 -0.13505955299E+02  0.39707921047E+02  0.10566000000E+00 0. -1.
         22    1    1    0    0    0 -0.19121270841E+02 -0.19331909581E+01  0.21766683868E+02  0.29037023822E+02  0.00000000000E+00 0.  1.
</event>
<event>
 5    1  0.1680526E-003  0.9118800E+02  0.7818608E-02  0.1130116E+00
         25   -1    0    0    0    0  0.00000000000E+00  0.00000000000E+00  0.99999998245E-14  0.12500000000E+03  0.12500000000E+03 0.  0.
        -13    1    3    3    0    0 -0.12348174292E+02  0.58972742813E+02 -0.16433895720E+00  0.60251970711E+02  0.10566000000E+00 0. -1.
         23    2    1    0    0    0 -0.16820850143E+02  0.28935303079E+02  0.53156342138E+01  0.91111230018E+02  0.84574272120E+02 0.  0.
         13    1    3    3    0    0 -0.44726758502E+01 -0.30037439734E+02  0.54799731710E+01  0.30859259308E+02  0.10566000000E+00 0.  1.
         22    1    1    0    0    0  0.16820850143E+02 -0.28935303079E+02 -0.53156342138E+01  0.33888769982E+02  0.00000000000E+00 0. -1.
</event>
<event>
 5    1  0.1680526E-003  0.9118800E+02  0.7818608E-02  0.1130116E+00
         25   -1    0    0    0    0  0.00000000000E+00  0.00000000000E+00  0.99999998245E-14  0.12500000000E+03  0.12500000000E+03 0.  0.
        -13    1    3    3    0    0  0.16969218361E+02  0.54862800781E+01 -0.46519096361E+02  0.49820589430E+02  0.10566000000E+00 0. -1.
         23    2    1    0    0    0 -0.18201282607E+01  0.10243844051E+02  0.10605037373E+02  0.11014348542E+03  0.10913693854E+03 0.  0.
         13    1    3    3    0    0 -0.18789346621E+02  0.47575639730E+01  0.57124133735E+02  0.60322895988E+02  0.10566000000E+00 0.  1.
         22    1    1    0    0    0  0.18201282607E+01 -0.10243844051E+02 -0.10605037373E+02  0.14856514582E+02  0.00000000000E+00 0.  1.
</event>
<event>
 5    1  0.1680526E-003  0.9118800E+02  0.7818608E-02  0.1130116E+00
         25   -1    0    0    0    0  0.00000000000E+00  0.00000000000E+00  0.99999998245E-14  0.12500000000E+03  0.12500000000E+03 0.  0.
        -13    1    3    3    0    0  0.20835741705E+02  0.15634497113E+02 -0.20997083840E+02  0.33458247506E+02  0.10566000000E+00 0. -1.
         23    2    1    0    0    0 -0.46060755940E+01 -0.26573805039E+02  0.14674154471E+02  0.94296354352E+02  0.89157661410E+02 0.  0.
         13    1    3    3    0    0 -0.25441817299E+02 -0.42208302152E+02  0.35671238310E+02  0.60838106846E+02  0.10566000000E+00 0.  1.
         22    1    1    0    0    0  0.46060755940E+01  0.26573805039E+02 -0.14674154471E+02  0.30703645648E+02  0.00000000000E+00 0.  1.
</event>
<event>
 5    1  0.1680526E-003  0.9118800E+02  0.7818608E-02  0.1130116E+00
         25   -1    0    0    0    0  0.00000000000E+00  0.00000000000E+00  0.99999998245E-14  0.12500000000E+03  0.12500000000E+03 0.  0.
        -13    1    3    3    0    0 -0.12720996202E+02  0.31874897669E+02 -0.78363212120E+01  0.35203010382E+02  0.10566000000E+00 0.  1.
         23    2    1    0    0    0 -0.57834493220E-01 -0.19844658029E+02  0.21289618993E+02  0.95895676026E+02  0.91372419287E+02 0.  0.
         13    1    3    3    0    0  0.12663161709E+02 -0.51719555698E+02  0.29125940205E+02  0.60692665644E+02  0.10566000000E+00 0. -1.
         22    1    1    0    0    0  0.57834493220E-01  0.19844658029E+02 -0.21289618993E+02  0.29104323974E+02  0.00000000000E+00 0. -1.
</event>
<event>
 5    1  0.1680526E-003  0.9118800E+02  0.7818608E-02  0.1130116E+00
         25   -1    0    0    0    0  0.00000000000E+00  0.00000000000E+00  0.99999998245E-14  0.12500000000E+03  0.12500000000E+03 0.  0.
        -13    1    3    3    0    0  0.18223256283E+02 -0.27416544544E+02 -0.20401184816E+02  0.38729491221E+02  0.10566000000E+00 0. -1.
         23    2    1    0    0    0  0.67847999901E+01 -0.55026483890E+01  0.29400713982E+02  0.94328928404E+02  0.89203318890E+02 0.  0.
         13    1    3    3    0    0 -0.11438456293E+02  0.21913896155E+02  0.49801898798E+02  0.55599437183E+02  0.10566000000E+00 0.  1.
         22    1    1    0    0    0 -0.67847999901E+01  0.55026483890E+01 -0.29400713982E+02  0.30671071596E+02  0.00000000000E+00 0.  1.
</event>
<event>
 5    1  0.1680526E-003  0.9118800E+02  0.7818608E-02  0.1130116E+00
         25   -1    0    0    0    0  0.00000000000E+00  0.00000000000E+00  0.99999998245E-14  0.12500000000E+03  0.12500000000E+03 0.  0.
        -13    1    3    3    0    0  0.16554176053E+02  0.23001960797E+02 -0.29103254125E+02  0.40621933853E+02  0.10566000000E+00 0.  1.
         23    2    1    0    0    0 -0.28759072107E+02  0.58848965951E+01 -0.34251230238E+01  0.95445851321E+02  0.90754960362E+02 0.  0.
         13    1    3    3    0    0 -0.45313248160E+02 -0.17117064202E+02  0.25678131101E+02  0.54823917468E+02  0.10566000000E+00 0. -1.
         22    1    1    0    0    0  0.28759072107E+02 -0.58848965951E+01  0.34251230238E+01  0.29554148679E+02  0.00000000000E+00 0. -1.
</event>
<event>
 5    1  0.1680526E-003  0.9118800E+02  0.7818608E-02  0.1130116E+00
         25   -1    0    0    0    0  0.00000000000E+00  0.00000000000E+00  0.99999998245E-14  0.12500000000E+03  0.12500000000E+03 0.  0.
        -13    1    3    3    0    0  0.37811598223E+02  0.19813392581E+01 -0.36557800958E+02  0.52631992555E+02  0.10566000000E+00 0.  1.
         23    2    1    0    0    0  0.29299751244E+02 -0.24616627197E+01  0.49037303974E+01  0.95190911149E+02  0.90403140362E+02 0.  0.
         13    1    3    3    0    0 -0.85118469790E+01 -0.44430019779E+01  0.41461531355E+02  0.42558918594E+02  0.10566000000E+00 0. -1.
         22    1    1    0    0    0 -0.29299751244E+02  0.24616627197E+01 -0.49037303974E+01  0.29809088851E+02  0.00000000000E+00 0.  1.
</event>
<event>
 5    1  0.1680526E-003  0.9118800E+02  0.7818608E-02  0.1130116E+00
         25   -1    0    0    0    0  0.00000000000E+00  0.00000000000E+00  0.99999998245E-14  0.12500000000E+03  0.12500000000E+03 0.  0.
        -13    1    3    3    0    0  0.35649112883E+02 -0.70441773612E+01  0.27683148222E+02  0.45682026483E+02  0.10566000000E+00 0. -1.
         23    2    1    0    0    0  0.20819601046E+02 -0.45975244314E+01 -0.20054080773E+02  0.95729551178E+02  0.91144872562E+02 0.  0.
         13    1    3    3    0    0 -0.14829511837E+02  0.24466529298E+01 -0.47737228995E+02  0.50047524694E+02  0.10566000000E+00 0.  1.
         22    1    1    0    0    0 -0.20819601046E+02  0.45975244314E+01  0.20054080773E+02  0.29270448822E+02  0.00000000000E+00 0.  1.
</event>
<event>
 5    1  0.1680526E-003  0.9118800E+02  0.7818608E-02  0.1130116E+00
         25   -1    0    0    0    0  0.00000000000E+00  0.00000000000E+00  0.99999998245E-14  0.12500000000E+03  0.12500000000E+03 0.  0.
        -13    1    3    3    0    0  0.21891289800E+02  0.67951296381E+01  0.27946609540E+02  0.36144522472E+02  0.10566000000E+00 0. -1.
         23    2    1    0    0    0  0.31463144678E+01 -0.23845058667E+02 -0.18354499058E+02  0.94744855756E+02  0.89784263315E+02 0.  0.
         13    1    3    3    0    0 -0.18744975332E+02 -0.30640188305E+02 -0.46301108598E+02  0.58600333284E+02  0.10566000000E+00 0.  1.
         22    1    1    0    0    0 -0.31463144678E+01  0.23845058667E+02  0.18354499058E+02  0.30255144244E+02  0.00000000000E+00 0.  1.
</event>
<event>
 5    1  0.1680526E-003  0.9118800E+02  0.7818608E-02  0.1130116E+00
         25   -1    0    0    0    0  0.00000000000E+00  0.00000000000E+00  0.99999998245E-14  0.12500000000E+03  0.12500000000E+03 0.  0.
        -13    1    3    3    0    0 -0.33688909676E+02 -0.39346675549E+02 -0.30763529660E+02  0.60245410058E+02  0.10566000000E+00 0. -1.
         23    2    1    0    0    0 -0.22075237281E+02 -0.11510842714E+02 -0.57042955571E+01  0.99458766890E+02  0.96123315186E+02 0.  0.
         13    1    3    3    0    0  0.11613672395E+02  0.27835832835E+02  0.25059234103E+02  0.39213356831E+02  0.10566000000E+00 0.  1.
         22    1    1    0    0    0  0.22075237281E+02  0.11510842714E+02  0.57042955571E+01  0.25541233110E+02  0.00000000000E+00 0. -1.
</event>
<event>
 5    1  0.1680526E-003  0.9118800E+02  0.7818608E-02  0.1130116E+00
         25   -1    0    0    0    0  0.00000000000E+00  0.00000000000E+00  0.99999998245E-14  0.12500000000E+03  0.12500000000E+03 0.  0.
        -13    1    3    3    0    0  0.90861697552E+01 -0.31757824123E+02 -0.39293502808E+02  0.51333306935E+02  0.10566000000E+00 0. -1.
         23    2    1    0    0    0 -0.10482717153E+02  0.59853518077E+01 -0.26738398651E+02  0.95663099046E+02  0.91053691641E+02 0.  0.
         13    1    3    3    0    0 -0.19568886908E+02  0.37743175931E+02  0.12555104157E+02  0.44329792111E+02  0.10566000000E+00 0.  1.
         22    1    1    0    0    0  0.10482717153E+02 -0.59853518077E+01  0.26738398651E+02  0.29336900954E+02  0.00000000000E+00 0. -1.
</event>
<event>
 5    1  0.1680526E-003  0.9118800E+02  0.7818608E-02  0.1130116E+00
         25   -1    0    0    0    0  0.00000000000E+00  0.00000000000E+00  0.99999998245E-14  0.12500000000E+03  0.12500000000E+03 0.  0.
        -13    1    3    3    0    0 -0.10491314408E+02  0.26469112587E+02 -0.24892685389E+02  0.37819816883E+02  0.10566000000E+00 0. -1.
         23    2    1    0    0    0 -0.16954164689E+02 -0.67299154354E+01  0.22494370190E+02  0.96039127217E+02  0.91568454199E+02 0.  0.
         13    1    3    3    0    0 -0.64628502807E+01 -0.33199028022E+02  0.47387055579E+02  0.58219310335E+02  0.10566000000E+00 0.  1.
         22    1    1    0    0    0  0.16954164689E+02  0.67299154354E+01 -0.22494370190E+02  0.28960872783E+02  0.00000000000E+00 0.  1.
</event>
<event>
 5    1  0.1680526E-003  0.9118800E+02  0.7818608E-02  0.1130116E+00
         25   -1    0    0    0    0  0.00000000000E+00  0.00000000000E+00  0.99999998245E-14  0.12500000000E+03  0.12500000000E+03 0.  0.
        -13    1    3    3    0    0  0.43443549089E+02  0.35788451683E+01 -0.11390048069E+02  0.45054349948E+02  0.10566000000E+00 0.  1.
         23    2    1    0    0    0  0.61296772041E+01 -0.26466770286E+02  0.79126506023E+01  0.96703835745E+02  0.92471395233E+02 0.  0.
         13    1    3    3    0    0 -0.37313871885E+02 -0.30045615454E+02  0.19302698672E+02  0.51649485797E+02  0.10566000000E+00 0. -1.
         22    1    1    0    0    0 -0.61296772041E+01  0.26466770286E+02 -0.79126506023E+01  0.28296164255E+02  0.00000000000E+00 0. -1.
</event>
<event>
 5    1  0.1680526E-003  0.9118800E+02  0.7818608E-02  0.1130116E+00
         25   -1    0    0    0    0  0.00000000000E+00  0.00000000000E+00  0.99999998245E-14  0.12500000000E+03  0.12500000000E+03 0.  0.
        -13    1    3    3    0    0 -0.36810232324E+02  0.29444492260E+01 -0.12992913152E+02  0.39147029787E+02  0.10566000000E+00 0.  1.
         23    2    1    0    0    0  0.75493178011E+01  0.27403070879E+02  0.10122222642E+02  0.94827497882E+02  0.89899246217E+02 0.  0.
         13    1    3    3    0    0  0.44359550125E+02  0.24458621653E+02  0.23115135794E+02  0.55680468095E+02  0.10566000000E+00 0. -1.
         22    1    1    0    0    0 -0.75493178011E+01 -0.27403070879E+02 -0.10122222642E+02  0.30172502118E+02  0.00000000000E+00 0. -1.
</event>
<event>
 5    1  0.1680526E-003  0.9118800E+02  0.7818608E-02  0.1130116E+00
         25   -1    0    0    0    0  0.00000000000E+00  0.00000000000E+00  0.99999998245E-14  0.12500000000E+03  0.12500000000E+03 0.  0.
        -13    1    3    3    0    0 -0.32136395932E+02 -0.19303110473E+00  0.27684522072E+02  0.42417321119E+02  0.10566000000E+00 0. -1.
         23    2    1    0    0    0 -0.18560636895E+02  0.46481740253E+01 -0.22982831095E+02  0.95094928710E+02  0.90270328334E+02 0.  0.
         13    1    3    3    0    0  0.13575759037E+02  0.48412051301E+01 -0.50667353167E+02  0.52677607591E+02  0.10566000000E+00 0.  1.
         22    1    1    0    0    0  0.18560636895E+02 -0.46481740253E+01  0.22982831095E+02  0.29905071290E+02  0.00000000000E+00 0.  1.
</event>
<event>
 5    1  0.1680526E-003  0.9118800E+02  0.7818608E-02  0.1130116E+00
         25   -1    0    0    0    0  0.00000000000E+00  0.00000000000E+00  0.99999998245E-14  0.12500000000E+03  0.12500000000E+03 0.  0.
        -13    1    3    3    0    0  0.12656368454E+02 -0.46976795334E+02  0.10157555896E+02  0.49701006711E+02  0.10566000000E+00 0.  1.
         23    2    1    0    0    0 -0.22249833140E+02 -0.19086527037E+02 -0.68243275292E+00  0.95677375569E+02  0.91073288577E+02 0.  0.
         13    1    3    3    0    0 -0.34906201594E+02  0.27890268297E+02 -0.10839988649E+02  0.45976368858E+02  0.10566000000E+00 0. -1.
         22    1    1    0    0    0  0.22249833140E+02  0.19086527037E+02  0.68243275292E+00  0.29322624431E+02  0.00000000000E+00 0.  1.
</event>
<event>
 5    1  0.1680526E-003  0.9118800E+02  0.7818608E-02  0.1130116E+00
         25   -1    0    0    0    0  0.00000000000E+00  0.00000000000E+00  0.99999998245E-14  0.12500000000E+03  0.12500000000E+03 0.  0.
        -13    1    3    3    0    0 -0.28708855742E+02 -0.83056119149E+01  0.32984983794E+02  0.44510694302E+02  0.10566000000E+00 0. -1.
         23    2    1    0    0    0 -0.18266363386E+02  0.26299678734E+02  0.70722208152E+00  0.92971367561E+02  0.87280249141E+02 0.  0.
         13    1    3    3    0    0  0.10442492356E+02  0.34605290649E+02 -0.32277761713E+02  0.48460673259E+02  0.10566000000E+00 0.  1.
         22    1    1    0    0    0  0.18266363386E+02 -0.26299678734E+02 -0.70722208152E+00  0.32028632439E+02  0.00000000000E+00 0.  1.
</event>
<event>
 5    1  0.1680526E-003  0.9118800E+02  0.7818608E-02  0.1130116E+00
         25   -1    0    0    0    0  0.00000000000E+00  0.00000000000E+00  0.99999998245E-14  0.12500000000E+03  0.12500000000E+03 0.  0.
        -13    1    3    3    0    0 -0.75178063455E+01  0.45351283961E+02  0.72901750678E+01  0.46544754653E+02  0.10566000000E+00 0.  1.
         23    2    1    0    0    0  0.24408827923E+02  0.10674824110E+02 -0.96984868331E+01  0.96648573278E+02  0.92396662924E+02 0.  0.
         13    1    3    3    0    0  0.31926634268E+02 -0.34676459851E+02 -0.16988661901E+02  0.50103818624E+02  0.10566000000E+00 0. -1.
         22    1    1    0    0    0 -0.24408827923E+02 -0.10674824110E+02  0.96984868331E+01  0.28351426722E+02  0.00000000000E+00 0. -1.
</event>
<event>
 5    1  0.1680526E-003  0.9118800E+02  0.7818608E-02  0.1130116E+00
         25   -1    0    0    0    0  0.00000000000E+00  0.00000000000E+00  0.99999998245E-14  0.12500000000E+03  0.12500000000E+03 0.  0.
        -13    1    3    3    0    0  0.34793885363E+02  0.23428294890E+02 -0.46030224482E+02  0.62275935882E+02  0.10566000000E+00 0.  1.
         23    2    1    0    0    0  0.18656377420E+02  0.14695685299E+02 -0.21094744412E+02  0.93235053492E+02  0.87657078283E+02 0.  0.
         13    1    3    3    0    0 -0.16137507943E+02 -0.87326095904E+01  0.24935480070E+02  0.30959117610E+02  0.10566000000E+00 0. -1.
         22    1    1    0    0    0 -0.18656377420E+02 -0.14695685299E+02  0.21094744412E+02  0.31764946508E+02  0.00000000000E+00 0.  1.
</event>
<event>
 5    1  0.1680526E-003  0.9118800E+02  0.7818608E-02  0.1130116E+00
         25   -1    0    0    0    0  0.00000000000E+00  0.00000000000E+00  0.99999998245E-14  0.12500000000E+03  0.12500000000E+03 0.  0.
        -13    1    3    3    0    0 -0.56114370532E+02 -0.89712864224E+01  0.15867865477E+02  0.59000905748E+02  0.10566000000E+00 0.  1.
         23    2    1    0    0    0 -0.28891761771E+02  0.83689760107E+01  0.10586195177E+00  0.94920357973E+02  0.90028270523E+02 0.  0.
         13    1    3    3    0    0  0.27222608761E+02  0.17340262433E+02 -0.15762003525E+02  0.35919452225E+02  0.10566000000E+00 0. -1.
         22    1    1    0    0    0  0.28891761771E+02 -0.83689760107E+01 -0.10586195177E+00  0.30079642027E+02  0.00000000000E+00 0.  1.
</event>
<event>
 5    1  0.1680526E-003  0.9118800E+02  0.7818608E-02  0.1130116E+00
         25   -1    0    0    0    0  0.00000000000E+00  0.00000000000E+00  0.99999998245E-14  0.12500000000E+03  0.12500000000E+03 0.  0.
        -13    1    3    3    0    0  0.25338783041E+02  0.24230845315E+02  0.14509820685E+02  0.37943824940E+02  0.10566000000E+00 0. -1.
         23    2    1    0    0    0 -0.28086641758E+02  0.30341953064E+01  0.68741201496E+01  0.95925624440E+02  0.91413380366E+02 0.  0.
         13    1    3    3    0    0 -0.53425424799E+02 -0.21196650009E+02 -0.76357005355E+01  0.57981799500E+02  0.10566000000E+00 0.  1.
         22    1    1    0    0    0  0.28086641758E+02 -0.30341953064E+01 -0.68741201496E+01  0.29074375560E+02  0.00000000000E+00 0.  1.
</event>
<event>
 5    1  0.1680526E-003  0.9118800E+02  0.7818608E-02  0.1130116E+00
         25   -1    0    0    0    0  0.00000000000E+00  0.00000000000E+00  0.99999998245E-14  0.12500000000E+03  0.12500000000E+03 0.  0.
        -13    1    3    3    0    0  0.36224808044E+02 -0.41188104646E+02 -0.25330160070E+02  0.60417918331E+02  0.10566000000E+00 0.  1.
         23    2    1    0    0    0  0.24125320865E+02 -0.10304141652E+02 -0.10817360427E+02  0.96623570897E+02  0.92362831942E+02 0.  0.
         13    1    3    3    0    0 -0.12099487179E+02  0.30883962994E+02  0.14512799644E+02  0.36205652567E+02  0.10566000000E+00 0. -1.
         22    1    1    0    0    0 -0.24125320865E+02  0.10304141652E+02  0.10817360427E+02  0.28376429103E+02  0.00000000000E+00 0.  1.
</event>
<event>
 5    1  0.1680526E-003  0.9118800E+02  0.7818608E-02  0.1130116E+00
         25   -1    0    0    0    0  0.00000000000E+00  0.00000000000E+00  0.99999998245E-14  0.12500000000E+03  0.12500000000E+03 0.  0.
        -13    1    3    3    0    0 -0.18695096880E+02 -0.18806137896E+02 -0.30197397046E+02  0.40187951208E+02  0.10566000000E+00 0.  1.
         23    2    1    0    0    0  0.47676616970E+01  0.24578959836E+02  0.32070022945E+01  0.99758353294E+02  0.96512114906E+02 0.  0.
         13    1    3    3    0    0  0.23462758577E+02  0.43385097733E+02  0.33404399340E+02  0.59570402086E+02  0.10566000000E+00 0. -1.
         22    1    1    0    0    0 -0.47676616970E+01 -0.24578959836E+02 -0.32070022945E+01  0.25241646706E+02  0.00000000000E+00 0. -1.
</event>
<event>
 5    1  0.1680526E-003  0.9118800E+02  0.7818608E-02  0.1130116E+00
         25   -1    0    0    0    0  0.00000000000E+00  0.00000000000E+00  0.99999998245E-14  0.12500000000E+03  0.12500000000E+03 0.  0.
        -13    1    3    3    0    0 -0.42417638431E+01  0.57296286759E+02  0.99579594402E+01  0.58309768968E+02  0.10566000000E+00 0.  1.
         23    2    1    0    0    0  0.11783389396E+02  0.23338248245E+02  0.12651012419E+02  0.95955719805E+02  0.91454523952E+02 0.  0.
         13    1    3    3    0    0  0.16025153239E+02 -0.33958038514E+02  0.26930529787E+01  0.37645950837E+02  0.10566000000E+00 0. -1.
         22    1    1    0    0    0 -0.11783389396E+02 -0.23338248245E+02 -0.12651012419E+02  0.29044280195E+02  0.00000000000E+00 0.  1.
</event>
<event>
 5    1  0.1680526E-003  0.9118800E+02  0.7818608E-02  0.1130116E+00
         25   -1    0    0    0    0  0.00000000000E+00  0.00000000000E+00  0.99999998245E-14  0.12500000000E+03  0.12500000000E+03 0.  0.
        -13    1    3    3    0    0  0.13915668219E+02 -0.19609142397E+02 -0.51586949993E+02  0.56915629322E+02  0.10566000000E+00 0. -1.
         23    2    1    0    0    0 -0.68472225975E+01 -0.21189485763E+02 -0.18310582645E+02  0.96170220240E+02  0.91747234618E+02 0.  0.
         13    1    3    3    0    0 -0.20762890817E+02 -0.15803433659E+01  0.33276367348E+02  0.39254590918E+02  0.10566000000E+00 0.  1.
         22    1    1    0    0    0  0.68472225975E+01  0.21189485763E+02  0.18310582645E+02  0.28829779760E+02  0.00000000000E+00 0. -1.
</event>
<event>
 5    1  0.1680526E-003  0.9118800E+02  0.7818608E-02  0.1130116E+00
         25   -1    0    0    0    0  0.00000000000E+00  0.00000000000E+00  0.99999998245E-14  0.12500000000E+03  0.12500000000E+03 0.  0.
        -13    1    3    3    0    0 -0.36032895447E+02 -0.85947615755E+01  0.47587313779E+02  0.60305912460E+02  0.10566000000E+00 0. -1.
         23    2    1    0    0    0 -0.16973148850E+02  0.73947331596E+01  0.24864715397E+02  0.93999614000E+02  0.88740653029E+02 0.  0.
         13    1    3    3    0    0  0.19059746597E+02  0.15989494735E+02 -0.22722598382E+02  0.33693701540E+02  0.10566000000E+00 0.  1.
         22    1    1    0    0    0  0.16973148850E+02 -0.73947331596E+01 -0.24864715397E+02  0.31000386000E+02  0.00000000000E+00 0. -1.
</event>
<event>
 5    1  0.1680526E-003  0.9118800E+02  0.7818608E-02  0.1130116E+00
         25   -1    0    0    0    0  0.00000000000E+00  0.00000000000E+00  0.99999998245E-14  0.12500000000E+03  0.12500000000E+03 0.  0.
        -13    1    3    3    0    0 -0.31672835914E+02 -0.35163107492E+02  0.29375188035E+01  0.47415744686E+02  0.10566000000E+00 0.  1.
         23    2    1    0    0    0 -0.25716100331E+02  0.12484240255E+02  0.68856614407E+01  0.95596149836E+02  0.90961736236E+02 0.  0.
         13    1    3    3    0    0  0.59567355830E+01  0.47647347747E+02  0.39481426372E+01  0.48180405151E+02  0.10566000000E+00 0. -1.
         22    1    1    0    0    0  0.25716100331E+02 -0.12484240255E+02 -0.68856614407E+01  0.29403850164E+02  0.00000000000E+00 0. -1.
</event>
<event>
 5    1  0.1680526E-003  0.9118800E+02  0.7818608E-02  0.1130116E+00
         25   -1    0    0    0    0  0.00000000000E+00  0.00000000000E+00  0.99999998245E-14  0.12500000000E+03  0.12500000000E+03 0.  0.
        -13    1    3    3    0    0 -0.20980217427E+02  0.14776767021E+02  0.41026242427E+02  0.48390971251E+02  0.10566000000E+00 0.  1.
         23    2    1    0    0    0  0.19851123911E+02  0.47549716352E+01  0.23312878500E+02  0.94013435496E+02  0.88760119840E+02 0.  0.
         13    1    3    3    0    0  0.40831341338E+02 -0.10021795386E+02 -0.17713363926E+02  0.45622464246E+02  0.10566000000E+00 0. -1.
         22    1    1    0    0    0 -0.19851123911E+02 -0.47549716352E+01 -0.23312878500E+02  0.30986564504E+02  0.00000000000E+00 0.  1.
</event>
<event>
 5    1  0.1680526E-003  0.9118800E+02  0.7818608E-02  0.1130116E+00
         25   -1    0    0    0    0  0.00000000000E+00  0.00000000000E+00  0.99999998245E-14  0.12500000000E+03  0.12500000000E+03 0.  0.
        -13    1    3    3    0    0  0.26072061193E+02  0.58362630412E+01 -0.24191378041E+02  0.36042312311E+02  0.10566000000E+00 0. -1.
         23    2    1    0    0    0 -0.22301425166E+02  0.12154123248E+02  0.12120913574E+02  0.96857632967E+02  0.92679060427E+02 0.  0.
         13    1    3    3    0    0 -0.48373486359E+02  0.63178602068E+01  0.36312291616E+02  0.60815320656E+02  0.10566000000E+00 0.  1.
         22    1    1    0    0    0  0.22301425166E+02 -0.12154123248E+02 -0.12120913574E+02  0.28142367033E+02  0.00000000000E+00 0.  1.
</event>
<event>
 5    1  0.1680526E-003  0.9118800E+02  0.7818608E-02  0.1130116E+00
         25   -1    0    0    0    0  0.00000000000E+00  0.00000000000E+00  0.99999998245E-14  0.12500000000E+03  0.12500000000E+03 0.  0.
        -13    1    3    3    0    0  0.38234576022E+02  0.18378228730E+02  0.15898930925E+02  0.45303744475E+02  0.10566000000E+00 0.  1.
         23    2    1    0    0    0  0.19752170971E+02 -0.22596458567E+02 -0.44747724650E+01  0.94655778368E+02  0.89660161678E+02 0.  0.
         13    1    3    3    0    0 -0.18482405051E+02 -0.40974687297E+02 -0.20373703390E+02  0.49352033893E+02  0.10566000000E+00 0. -1.
         22    1    1    0    0    0 -0.19752170971E+02  0.22596458567E+02  0.44747724650E+01  0.30344221632E+02  0.00000000000E+00 0. -1.
</event>
<event>
 5    1  0.1680526E-003  0.9118800E+02  0.7818608E-02  0.1130116E+00
         25   -1    0    0    0    0  0.00000000000E+00  0.00000000000E+00  0.99999998245E-14  0.12500000000E+03  0.12500000000E+03 0.  0.
        -13    1    3    3    0    0  0.23865907584E+02 -0.57933345560E+01  0.25527864410E+02  0.35423541543E+02  0.10566000000E+00 0.  1.
         23    2    1    0    0    0 -0.22482033643E+02  0.21107000808E+02  0.15739967582E+01  0.94122422607E+02  0.88913472837E+02 0.  0.
         13    1    3    3    0    0 -0.46347941228E+02  0.26900335364E+02 -0.23953867651E+02  0.58698881064E+02  0.10566000000E+00 0. -1.
         22    1    1    0    0    0  0.22482033643E+02 -0.21107000808E+02 -0.15739967582E+01  0.30877577393E+02  0.00000000000E+00 0. -1.
</event>
<event>
 5    1  0.1680526E-003  0.9118800E+02  0.7818608E-02  0.1130116E+00
         25   -1    0    0    0    0  0.00000000000E+00  0.00000000000E+00  0.99999998245E-14  0.12500000000E+03  0.12500000000E+03 0.  0.
        -13    1    3    3    0    0 -0.15141793086E+02 -0.23806409150E+02 -0.46599573762E+02  0.54475227887E+02  0.10566000000E+00 0. -1.
         23    2    1    0    0    0 -0.23964756435E+02 -0.20247542431E+02 -0.10332975101E+02  0.91969061474E+02  0.85832775608E+02 0.  0.
         13    1    3    3    0    0 -0.88229633487E+01  0.35588667195E+01  0.36266598662E+02  0.37493833588E+02  0.10566000000E+00 0.  1.
         22    1    1    0    0    0  0.23964756435E+02  0.20247542431E+02  0.10332975101E+02  0.33030938526E+02  0.00000000000E+00 0. -1.
</event>
<event>
 5    1  0.1680526E-003  0.9118800E+02  0.7818608E-02  0.1130116E+00
         25   -1    0    0    0    0  0.00000000000E+00  0.00000000000E+00  0.99999998245E-14  0.12500000000E+03  0.12500000000E+03 0.  0.
        -13    1    3    3    0    0  0.31732610908E+02 -0.14424508428E+02  0.40293361010E+02  0.53278430382E+02  0.10566000000E+00 0. -1.
         23    2    1    0    0    0  0.21276428763E+02  0.15034149822E+02  0.91933796131E+01  0.97373376781E+02  0.93372073958E+02 0.  0.
         13    1    3    3    0    0 -0.10456182145E+02  0.29458658250E+02 -0.31099981397E+02  0.44094946399E+02  0.10566000000E+00 0.  1.
         22    1    1    0    0    0 -0.21276428763E+02 -0.15034149822E+02 -0.91933796131E+01  0.27626623219E+02  0.00000000000E+00 0.  1.
</event>
<event>
 5    1  0.1680526E-003  0.9118800E+02  0.7818608E-02  0.1130116E+00
         25   -1    0    0    0    0  0.00000000000E+00  0.00000000000E+00  0.99999998245E-14  0.12500000000E+03  0.12500000000E+03 0.  0.
        -13    1    3    3    0    0 -0.25907568365E+01  0.26629950234E+02 -0.35616798135E+02  0.44546983555E+02  0.10566000000E+00 0. -1.
         23    2    1    0    0    0 -0.45074335883E+01  0.25874906595E+02  0.14696966328E+02  0.94903013970E+02  0.90004185972E+02 0.  0.
         13    1    3    3    0    0 -0.19166767518E+01 -0.75504363876E+00  0.50313764463E+02  0.50356030415E+02  0.10566000000E+00 0.  1.
         22    1    1    0    0    0  0.45074335883E+01 -0.25874906595E+02 -0.14696966328E+02  0.30096986030E+02  0.00000000000E+00 0.  1.
</event>
<event>
 5    1  0.1680526E-003  0.9118800E+02  0.7818608E-02  0.1130116E+00
         25   -1    0    0    0    0  0.00000000000E+00  0.00000000000E+00  0.99999998245E-14  0.12500000000E+03  0.12500000000E+03 0.  0.
        -13    1    3    3    0    0  0.21061435593E+02 -0.10873618850E+02  0.46375779120E+02  0.52082086260E+02  0.10566000000E+00 0.  1.
         23    2    1    0    0    0  0.10569771758E+02  0.20117268982E+02  0.25255757086E+02  0.91025335141E+02  0.84447224852E+02 0.  0.
         13    1    3    3    0    0 -0.10491663835E+02  0.30990887832E+02 -0.21120022034E+02  0.38943248881E+02  0.10566000000E+00 0. -1.
         22    1    1    0    0    0 -0.10569771758E+02 -0.20117268982E+02 -0.25255757086E+02  0.33974664859E+02  0.00000000000E+00 0.  1.
</event>
<event>
 5    1  0.1680526E-003  0.9118800E+02  0.7818608E-02  0.1130116E+00
         25   -1    0    0    0    0  0.00000000000E+00  0.00000000000E+00  0.99999998245E-14  0.12500000000E+03  0.12500000000E+03 0.  0.
        -13    1    3    3    0    0 -0.24605341823E+01 -0.60389692948E+02  0.71514014362E+01  0.60861506302E+02  0.10566000000E+00 0. -1.
         23    2    1    0    0    0 -0.97537107119E+01 -0.45334813598E+02  0.12164254048E+01  0.78611856177E+02  0.63466243344E+02 0.  0.
         13    1    3    3    0    0 -0.72931765297E+01  0.15054879350E+02 -0.59349760315E+01  0.17750349874E+02  0.10566000000E+00 0.  1.
         22    1    1    0    0    0  0.97537107119E+01  0.45334813598E+02 -0.12164254048E+01  0.46388143823E+02  0.00000000000E+00 0. -1.
</event>
<event>
 5    1  0.1680526E-003  0.9118800E+02  0.7818608E-02  0.1130116E+00
         25   -1    0    0    0    0  0.00000000000E+00  0.00000000000E+00  0.99999998245E-14  0.12500000000E+03  0.12500000000E+03 0.  0.
        -13    1    3    3    0    0  0.11906436292E+02 -0.36437532142E+02 -0.16357171615E+02  0.41677634303E+02  0.10566000000E+00 0.  1.
         23    2    1    0    0    0 -0.21952334675E+02  0.93721007878E+01 -0.10436180971E+02  0.98948989576E+02  0.95458092345E+02 0.  0.
         13    1    3    3    0    0 -0.33858770967E+02  0.45809632930E+02  0.59209906444E+01  0.57271355273E+02  0.10566000000E+00 0. -1.
         22    1    1    0    0    0  0.21952334675E+02 -0.93721007878E+01  0.10436180971E+02  0.26051010424E+02  0.00000000000E+00 0. -1.
</event>
<event>
 5    1  0.1680526E-003  0.9118800E+02  0.7818608E-02  0.1130116E+00
         25   -1    0    0    0    0  0.00000000000E+00  0.00000000000E+00  0.99999998245E-14  0.12500000000E+03  0.12500000000E+03 0.  0.
        -13    1    3    3    0    0  0.14779602167E+02  0.29808149023E+02  0.59818356900E+01  0.33804672911E+02  0.10566000000E+00 0. -1.
         23    2    1    0    0    0 -0.17738446725E+02 -0.22945012841E+02  0.88487767831E+00  0.95984329837E+02  0.91493619774E+02 0.  0.
         13    1    3    3    0    0 -0.32518048892E+02 -0.52753161864E+02 -0.50969580117E+01  0.62179656926E+02  0.10566000000E+00 0.  1.
         22    1    1    0    0    0  0.17738446725E+02  0.22945012841E+02 -0.88487767831E+00  0.29015670163E+02  0.00000000000E+00 0.  1.
</event>
<event>
 5    1  0.1680526E-003  0.9118800E+02  0.7818608E-02  0.1130116E+00
         25   -1    0    0    0    0  0.00000000000E+00  0.00000000000E+00  0.99999998245E-14  0.12500000000E+03  0.12500000000E+03 0.  0.
        -13    1    3    3    0    0 -0.85357374547E+00  0.34570594959E+02 -0.17944621148E+02  0.38959918072E+02  0.10566000000E+00 0. -1.
         23    2    1    0    0    0  0.11317809249E+02 -0.20982111186E+02 -0.16787945073E+02  0.95842206946E+02  0.91299242803E+02 0.  0.
         13    1    3    3    0    0  0.12171382995E+02 -0.55552706145E+02  0.11566760757E+01  0.56882288874E+02  0.10566000000E+00 0.  1.
         22    1    1    0    0    0 -0.11317809249E+02  0.20982111186E+02  0.16787945073E+02  0.29157793054E+02  0.00000000000E+00 0.  1.
</event>
<event>
 5    1  0.1680526E-003  0.9118800E+02  0.7818608E-02  0.1130116E+00
         25   -1    0    0    0    0  0.00000000000E+00  0.00000000000E+00  0.99999998245E-14  0.12500000000E+03  0.12500000000E+03 0.  0.
        -13    1    3    3    0    0 -0.36060857823E+02 -0.37343096304E+02  0.28815033877E+02  0.59373475979E+02  0.10566000000E+00 0. -1.
         23    2    1    0    0    0 -0.23438883743E+02 -0.49908377015E+01  0.14875661032E+02  0.96794060498E+02  0.92593277966E+02 0.  0.
         13    1    3    3    0    0  0.12621974080E+02  0.32352258602E+02 -0.13939372846E+02  0.37420584519E+02  0.10566000000E+00 0.  1.
         22    1    1    0    0    0  0.23438883743E+02  0.49908377015E+01 -0.14875661032E+02  0.28205939502E+02  0.00000000000E+00 0. -1.
</event>
<event>
 5    1  0.1680526E-003  0.9118800E+02  0.7818608E-02  0.1130116E+00
         25   -1    0    0    0    0  0.00000000000E+00  0.00000000000E+00  0.99999998245E-14  0.12500000000E+03  0.12500000000E+03 0.  0.
        -13    1    3    3    0    0 -0.21563089928E+02  0.87163467115E+01  0.34242917760E+02  0.41394807983E+02  0.10566000000E+00 0.  1.
         23    2    1    0    0    0 -0.84356783552E+01 -0.26399690096E+02 -0.62621694696E+01  0.96586639182E+02  0.92312836570E+02 0.  0.
         13    1    3    3    0    0  0.13127411572E+02 -0.35116036808E+02 -0.40505087229E+02  0.55191831199E+02  0.10566000000E+00 0. -1.
         22    1    1    0    0    0  0.84356783552E+01  0.26399690096E+02  0.62621694696E+01  0.28413360818E+02  0.00000000000E+00 0. -1.
</event>
<event>
 5    1  0.1680526E-003  0.9118800E+02  0.7818608E-02  0.1130116E+00
         25   -1    0    0    0    0  0.00000000000E+00  0.00000000000E+00  0.99999998245E-14  0.12500000000E+03  0.12500000000E+03 0.  0.
        -13    1    3    3    0    0 -0.43146850403E+01 -0.46005796111E+02 -0.36830935336E+02  0.59090428536E+02  0.10566000000E+00 0. -1.
         23    2    1    0    0    0 -0.33158056934E+01 -0.27477701944E+02 -0.36821915467E+01  0.97079090164E+02  0.92977268947E+02 0.  0.
         13    1    3    3    0    0  0.99887934687E+00  0.18528094167E+02  0.33148743789E+02  0.37988661628E+02  0.10566000000E+00 0.  1.
         22    1    1    0    0    0  0.33158056934E+01  0.27477701944E+02  0.36821915467E+01  0.27920909836E+02  0.00000000000E+00 0. -1.
</event>
<event>
 5    1  0.1680526E-003  0.9118800E+02  0.7818608E-02  0.1130116E+00
         25   -1    0    0    0    0  0.00000000000E+00  0.00000000000E+00  0.99999998245E-14  0.12500000000E+03  0.12500000000E+03 0.  0.
        -13    1    3    3    0    0  0.53765049216E+02  0.19322234302E+02 -0.17998508562E+02  0.59899805760E+02  0.10566000000E+00 0.  1.
         23    2    1    0    0    0  0.17899052789E+02  0.16701294171E+02 -0.15662948473E+02  0.95937356063E+02  0.91429420953E+02 0.  0.
         13    1    3    3    0    0 -0.35865996427E+02 -0.26209401316E+01  0.23355600887E+01  0.36037550303E+02  0.10566000000E+00 0. -1.
         22    1    1    0    0    0 -0.17899052789E+02 -0.16701294171E+02  0.15662948473E+02  0.29062643937E+02  0.00000000000E+00 0.  1.
</event>
<event>
 5    1  0.1680526E-003  0.9118800E+02  0.7818608E-02  0.1130116E+00
         25   -1    0    0    0    0  0.00000000000E+00  0.00000000000E+00  0.99999998245E-14  0.12500000000E+03  0.12500000000E+03 0.  0.
        -13    1    3    3    0    0 -0.43623566150E+01  0.53050374174E+02  0.27864365002E+02  0.60081664060E+02  0.10566000000E+00 0.  1.
         23    2    1    0    0    0  0.65769557313E+01  0.28654639369E+02  0.51741419347E+01  0.95148426359E+02  0.90344377743E+02 0.  0.
         13    1    3    3    0    0  0.10939312346E+02 -0.24395734805E+02 -0.22690223067E+02  0.35066762299E+02  0.10566000000E+00 0. -1.
         22    1    1    0    0    0 -0.65769557313E+01 -0.28654639369E+02 -0.51741419347E+01  0.29851573641E+02  0.00000000000E+00 0.  1.
</event>
<event>
 5    1  0.1680526E-003  0.9118800E+02  0.7818608E-02  0.1130116E+00
         25   -1    0    0    0    0  0.00000000000E+00  0.00000000000E+00  0.99999998245E-14  0.12500000000E+03  0.12500000000E+03 0.  0.
        -13    1    3    3    0    0 -0.22308093511E+02 -0.36666157157E+02  0.17039266394E+02  0.46177980467E+02  0.10566000000E+00 0.  1.
         23    2    1    0    0    0 -0.24497190426E+02  0.56377280761E+01 -0.11603700256E+02  0.97313501914E+02  0.93291883240E+02 0.  0.
         13    1    3    3    0    0 -0.21890969156E+01  0.42303885233E+02 -0.28642966650E+02  0.51135521447E+02  0.10566000000E+00 0. -1.
         22    1    1    0    0    0  0.24497190426E+02 -0.56377280761E+01  0.11603700256E+02  0.27686498086E+02  0.00000000000E+00 0. -1.
</event>
<event>
 5    1  0.1680526E-003  0.9118800E+02  0.7818608E-02  0.1130116E+00
         25   -1    0    0    0    0  0.00000000000E+00  0.00000000000E+00  0.99999998245E-14  0.12500000000E+03  0.12500000000E+03 0.  0.
        -13    1    3    3    0    0  0.21315455415E+02  0.37336434314E+02  0.32852933862E+02  0.54108080674E+02  0.10566000000E+00 0.  1.
         23    2    1    0    0    0  0.16423492322E+02  0.19608325284E+02 -0.74084530834E+01  0.98371017714E+02  0.94698228223E+02 0.  0.
         13    1    3    3    0    0 -0.48919630934E+01 -0.17728109030E+02 -0.40261386945E+02  0.44262937041E+02  0.10566000000E+00 0. -1.
         22    1    1    0    0    0 -0.16423492322E+02 -0.19608325284E+02  0.74084530834E+01  0.26628982286E+02  0.00000000000E+00 0.  1.
</event>
<event>
 5    1  0.1680526E-003  0.9118800E+02  0.7818608E-02  0.1130116E+00
         25   -1    0    0    0    0  0.00000000000E+00  0.00000000000E+00  0.99999998245E-14  0.12500000000E+03  0.12500000000E+03 0.  0.
        -13    1    3    3    0    0  0.27350110795E+02  0.35205025998E+01  0.22603697660E+02  0.35656146889E+02  0.10566000000E+00 0.  1.
         23    2    1    0    0    0 -0.19077676323E+02  0.11322621914E+01 -0.19005936078E+02  0.98046978690E+02  0.94269532047E+02 0.  0.
         13    1    3    3    0    0 -0.46427787118E+02 -0.23882404084E+01 -0.41609633738E+02  0.62390831800E+02  0.10566000000E+00 0. -1.
         22    1    1    0    0    0  0.19077676323E+02 -0.11322621914E+01  0.19005936078E+02  0.26953021310E+02  0.00000000000E+00 0. -1.
</event>
<event>
 5    1  0.1680526E-003  0.9118800E+02  0.7818608E-02  0.1130116E+00
         25   -1    0    0    0    0  0.00000000000E+00  0.00000000000E+00  0.99999998245E-14  0.12500000000E+03  0.12500000000E+03 0.  0.
        -13    1    3    3    0    0 -0.67016174754E+01 -0.33128313844E+02  0.29169968432E+02  0.44646333302E+02  0.10566000000E+00 0.  1.
         23    2    1    0    0    0 -0.29836770764E+02  0.49260869762E+01  0.13802238188E+02  0.91758444658E+02  0.85525500084E+02 0.  0.
         13    1    3    3    0    0 -0.23135153289E+02  0.38054400821E+02 -0.15367730244E+02  0.47112111356E+02  0.10566000000E+00 0. -1.
         22    1    1    0    0    0  0.29836770764E+02 -0.49260869762E+01 -0.13802238188E+02  0.33241555342E+02  0.00000000000E+00 0. -1.
</event>
<event>
 5    1  0.1680526E-003  0.9118800E+02  0.7818608E-02  0.1130116E+00
         25   -1    0    0    0    0  0.00000000000E+00  0.00000000000E+00  0.99999998245E-14  0.12500000000E+03  0.12500000000E+03 0.  0.
        -13    1    3    3    0    0 -0.29203135535E+02 -0.34350438736E+02 -0.27401924739E+02  0.52760329888E+02  0.10566000000E+00 0. -1.
         23    2    1    0    0    0  0.29524027823E+01 -0.47840317798E+01 -0.27994250367E+02  0.96446861891E+02  0.92123370936E+02 0.  0.
         13    1    3    3    0    0  0.32155538318E+02  0.29566406956E+02 -0.59232562851E+00  0.43686532003E+02  0.10566000000E+00 0.  1.
         22    1    1    0    0    0 -0.29524027823E+01  0.47840317798E+01  0.27994250367E+02  0.28553138109E+02  0.00000000000E+00 0.  1.
</event>
<event>
 5    1  0.1680526E-003  0.9118800E+02  0.7818608E-02  0.1130116E+00
         25   -1    0    0    0    0  0.00000000000E+00  0.00000000000E+00  0.99999998245E-14  0.12500000000E+03  0.12500000000E+03 0.  0.
        -13    1    3    3    0    0 -0.69056839458E+01 -0.46203692416E+02 -0.29959276890E+02  0.55498099963E+02  0.10566000000E+00 0.  1.
         23    2    1    0    0    0 -0.22914046070E+02 -0.14381403317E+02 -0.11737582113E+02  0.95510186461E+02  0.90843528198E+02 0.  0.
         13    1    3    3    0    0 -0.16008362124E+02  0.31822289099E+02  0.18221694777E+02  0.40012086499E+02  0.10566000000E+00 0. -1.
         22    1    1    0    0    0  0.22914046070E+02  0.14381403317E+02  0.11737582113E+02  0.29489813539E+02  0.00000000000E+00 0.  1.
</event>
<event>
 5    1  0.1680526E-003  0.9118800E+02  0.7818608E-02  0.1130116E+00
         25   -1    0    0    0    0  0.00000000000E+00  0.00000000000E+00  0.99999998245E-14  0.12500000000E+03  0.12500000000E+03 0.  0.
        -13    1    3    3    0    0 -0.39869883111E+02  0.13696150878E+02  0.81634826331E+01  0.42940024929E+02  0.10566000000E+00 0.  1.
         23    2    1    0    0    0  0.12045562706E+02  0.16938195699E+02  0.19856681994E+02  0.96254811286E+02  0.91862412452E+02 0.  0.
         13    1    3    3    0    0  0.51915445817E+02  0.32420448208E+01  0.11693199361E+02  0.53314786357E+02  0.10566000000E+00 0. -1.
         22    1    1    0    0    0 -0.12045562706E+02 -0.16938195699E+02 -0.19856681994E+02  0.28745188714E+02  0.00000000000E+00 0. -1.
</event>
<event>
 5    1  0.1680526E-003  0.9118800E+02  0.7818608E-02  0.1130116E+00
         25   -1    0    0    0    0  0.00000000000E+00  0.00000000000E+00  0.99999998245E-14  0.12500000000E+03  0.12500000000E+03 0.  0.
        -13    1    3    3    0    0 -0.12910617397E+02  0.23303386829E+02 -0.32553852280E+02  0.42065381748E+02  0.10566000000E+00 0.  1.
         23    2    1    0    0    0  0.56650120506E+01 -0.24203625846E+02 -0.14765057466E+02  0.96087809014E+02  0.91634885570E+02 0.  0.
         13    1    3    3    0    0  0.18575629448E+02 -0.47507012675E+02  0.17788794814E+02  0.54022427266E+02  0.10566000000E+00 0. -1.
         22    1    1    0    0    0 -0.56650120506E+01  0.24203625846E+02  0.14765057466E+02  0.28912190986E+02  0.00000000000E+00 0. -1.
</event>
<event>
 5    1  0.1680526E-003  0.9118800E+02  0.7818608E-02  0.1130116E+00
         25   -1    0    0    0    0  0.00000000000E+00  0.00000000000E+00  0.99999998245E-14  0.12500000000E+03  0.12500000000E+03 0.  0.
        -13    1    3    3    0    0 -0.13490459669E+01  0.53930637442E+02 -0.21377012713E+02  0.58028625837E+02  0.10566000000E+00 0. -1.
         23    2    1    0    0    0  0.14747306108E+02  0.20158497427E+02 -0.26007850478E+01  0.99888008067E+02  0.96679894584E+02 0.  0.
         13    1    3    3    0    0  0.16096352075E+02 -0.33772140015E+02  0.18776227665E+02  0.41859382230E+02  0.10566000000E+00 0.  1.
         22    1    1    0    0    0 -0.14747306108E+02 -0.20158497427E+02  0.26007850478E+01  0.25111991933E+02  0.00000000000E+00 0. -1.
</event>
<event>
 5    1  0.1680526E-003  0.9118800E+02  0.7818608E-02  0.1130116E+00
         25   -1    0    0    0    0  0.00000000000E+00  0.00000000000E+00  0.99999998245E-14  0.12500000000E+03  0.12500000000E+03 0.  0.
        -13    1    3    3    0    0  0.40316029871E+02  0.63553859711E+01 -0.25074480150E+02  0.47901084687E+02  0.10566000000E+00 0.  1.
         23    2    1    0    0    0  0.24195523074E+02 -0.81602137417E+01  0.16362336002E+02  0.94672809814E+02  0.89683902978E+02 0.  0.
         13    1    3    3    0    0 -0.16120506797E+02 -0.14515599713E+02  0.41436816153E+02  0.46771725126E+02  0.10566000000E+00 0. -1.
         22    1    1    0    0    0 -0.24195523074E+02  0.81602137417E+01 -0.16362336002E+02  0.30327190186E+02  0.00000000000E+00 0.  1.
</event>
<event>
 5    1  0.1680526E-003  0.9118800E+02  0.7818608E-02  0.1130116E+00
         25   -1    0    0    0    0  0.00000000000E+00  0.00000000000E+00  0.99999998245E-14  0.12500000000E+03  0.12500000000E+03 0.  0.
        -13    1    3    3    0    0  0.43960398326E+02 -0.97550137474E+01  0.41376177567E+02  0.61152891578E+02  0.10566000000E+00 0.  1.
         23    2    1    0    0    0  0.22718946365E+02  0.31706594174E+01  0.14044353645E+02  0.98103021091E+02  0.94343814174E+02 0.  0.
         13    1    3    3    0    0 -0.21241451961E+02  0.12925673165E+02 -0.27331823922E+02  0.36950129514E+02  0.10566000000E+00 0. -1.
         22    1    1    0    0    0 -0.22718946365E+02 -0.31706594174E+01 -0.14044353645E+02  0.26896978909E+02  0.00000000000E+00 0.  1.
</event>
<event>
 5    1  0.1680526E-003  0.9118800E+02  0.7818608E-02  0.1130116E+00
         25   -1    0    0    0    0  0.00000000000E+00  0.00000000000E+00  0.99999998245E-14  0.12500000000E+03  0.12500000000E+03 0.  0.
        -13    1    3    3    0    0  0.24470205007E+02 -0.31373173844E+02 -0.64010954881E+01  0.40299530489E+02  0.10566000000E+00 0.  1.
         23    2    1    0    0    0 -0.73648139397E+01  0.81209190617E+01 -0.27618354134E+02  0.95285301687E+02  0.90533559643E+02 0.  0.
         13    1    3    3    0    0 -0.31835018947E+02  0.39494092905E+02 -0.21217258646E+02  0.54985771198E+02  0.10566000000E+00 0. -1.
         22    1    1    0    0    0  0.73648139397E+01 -0.81209190617E+01  0.27618354134E+02  0.29714698313E+02  0.00000000000E+00 0.  1.
</event>
<event>
 5    1  0.1680526E-003  0.9118800E+02  0.7818608E-02  0.1130116E+00
         25   -1    0    0    0    0  0.00000000000E+00  0.00000000000E+00  0.99999998245E-14  0.12500000000E+03  0.12500000000E+03 0.  0.
        -13    1    3    3    0    0  0.32240273354E+02  0.30159403031E+02 -0.14615923364E+02  0.46504421262E+02  0.10566000000E+00 0. -1.
         23    2    1    0    0    0 -0.10540745624E+02  0.45359860880E+01 -0.25045227637E+02  0.97451026961E+02  0.93475968785E+02 0.  0.
         13    1    3    3    0    0 -0.42781018978E+02 -0.25623416943E+02 -0.10429304273E+02  0.50946605699E+02  0.10566000000E+00 0.  1.
         22    1    1    0    0    0  0.10540745624E+02 -0.45359860880E+01  0.25045227637E+02  0.27548973039E+02  0.00000000000E+00 0. -1.
</event>
<event>
 5    1  0.1680526E-003  0.9118800E+02  0.7818608E-02  0.1130116E+00
         25   -1    0    0    0    0  0.00000000000E+00  0.00000000000E+00  0.99999998245E-14  0.12500000000E+03  0.12500000000E+03 0.  0.
        -13    1    3    3    0    0  0.33597370890E+02 -0.15464547109E+02 -0.12413385093E+02  0.39013316208E+02  0.10566000000E+00 0. -1.
         23    2    1    0    0    0 -0.22353048310E+02 -0.85389781650E+01 -0.17106195381E+02  0.95585805514E+02  0.90947519914E+02 0.  0.
         13    1    3    3    0    0 -0.55950419200E+02  0.69255689444E+01 -0.46928102880E+01  0.56572489306E+02  0.10566000000E+00 0.  1.
         22    1    1    0    0    0  0.22353048310E+02  0.85389781650E+01  0.17106195381E+02  0.29414194486E+02  0.00000000000E+00 0.  1.
</event>
<event>
 5    1  0.1680526E-003  0.9118800E+02  0.7818608E-02  0.1130116E+00
         25   -1    0    0    0    0  0.00000000000E+00  0.00000000000E+00  0.99999998245E-14  0.12500000000E+03  0.12500000000E+03 0.  0.
        -13    1    3    3    0    0 -0.53573511955E+02 -0.29685840712E+02 -0.17622931202E+01  0.61273870149E+02  0.10566000000E+00 0. -1.
         23    2    1    0    0    0 -0.32188464100E+02 -0.12458050455E+02  0.63437423661E+01  0.89906648643E+02  0.82774767657E+02 0.  0.
         13    1    3    3    0    0  0.21385047855E+02  0.17227790258E+02  0.81060354863E+01  0.28632778493E+02  0.10566000000E+00 0.  1.
         22    1    1    0    0    0  0.32188464100E+02  0.12458050455E+02 -0.63437423661E+01  0.35093351357E+02  0.00000000000E+00 0. -1.
</event>
<event>
 5    1  0.1680526E-003  0.9118800E+02  0.7818608E-02  0.1130116E+00
         25   -1    0    0    0    0  0.00000000000E+00  0.00000000000E+00  0.99999998245E-14  0.12500000000E+03  0.12500000000E+03 0.  0.
        -13    1    3    3    0    0  0.42547945028E-01 -0.16313801987E+02  0.29884334111E+02  0.34047415979E+02  0.10566000000E+00 0.  1.
         23    2    1    0    0    0 -0.60117907925E+01  0.25845951737E+01 -0.28524036683E+02  0.95734962336E+02  0.91152293356E+02 0.  0.
         13    1    3    3    0    0 -0.60543387375E+01  0.18898397160E+02 -0.58408370794E+02  0.61687546357E+02  0.10566000000E+00 0. -1.
         22    1    1    0    0    0  0.60117907925E+01 -0.25845951737E+01  0.28524036683E+02  0.29265037664E+02  0.00000000000E+00 0. -1.
</event>
<event>
 5    1  0.1680526E-003  0.9118800E+02  0.7818608E-02  0.1130116E+00
         25   -1    0    0    0    0  0.00000000000E+00  0.00000000000E+00  0.99999998245E-14  0.12500000000E+03  0.12500000000E+03 0.  0.
        -13    1    3    3    0    0  0.32282933480E+02 -0.46403970474E+01 -0.40774904418E+02  0.52214222901E+02  0.10566000000E+00 0.  1.
         23    2    1    0    0    0  0.25998103712E+02 -0.95578967591E+01  0.33895995157E+01  0.97094011898E+02  0.92997327781E+02 0.  0.
         13    1    3    3    0    0 -0.62848297684E+01 -0.49174997117E+01  0.44164503934E+02  0.44879788997E+02  0.10566000000E+00 0. -1.
         22    1    1    0    0    0 -0.25998103712E+02  0.95578967591E+01 -0.33895995157E+01  0.27905988102E+02  0.00000000000E+00 0. -1.
</event>
<event>
 5    1  0.1680526E-003  0.9118800E+02  0.7818608E-02  0.1130116E+00
         25   -1    0    0    0    0  0.00000000000E+00  0.00000000000E+00  0.99999998245E-14  0.12500000000E+03  0.12500000000E+03 0.  0.
        -13    1    3    3    0    0  0.43091097926E+02  0.26940024356E+02 -0.95079109095E+00  0.50828366101E+02  0.10566000000E+00 0. -1.
         23    2    1    0    0    0 -0.22827085722E+01  0.28044018317E+02 -0.50991654746E+01  0.96404909331E+02  0.92066428913E+02 0.  0.
         13    1    3    3    0    0 -0.45373806498E+02  0.11039939610E+01 -0.41483743836E+01  0.45576543230E+02  0.10566000000E+00 0.  1.
         22    1    1    0    0    0  0.22827085722E+01 -0.28044018317E+02  0.50991654746E+01  0.28595090669E+02  0.00000000000E+00 0. -1.
</event>
<event>
 5    1  0.1680526E-003  0.9118800E+02  0.7818608E-02  0.1130116E+00
         25   -1    0    0    0    0  0.00000000000E+00  0.00000000000E+00  0.99999998245E-14  0.12500000000E+03  0.12500000000E+03 0.  0.
        -13    1    3    3    0    0  0.24239955388E+02 -0.22725835233E+02 -0.90123879864E+01  0.34427798731E+02  0.10566000000E+00 0. -1.
         23    2    1    0    0    0 -0.18088612544E+02  0.21914131812E+02 -0.12384788458E+00  0.96584468769E+02  0.92309897585E+02 0.  0.
         13    1    3    3    0    0 -0.42328567932E+02  0.44639967045E+02  0.88885401018E+01  0.62156670037E+02  0.10566000000E+00 0.  1.
         22    1    1    0    0    0  0.18088612544E+02 -0.21914131812E+02  0.12384788458E+00  0.28415531231E+02  0.00000000000E+00 0.  1.
</event>
<event>
 5    1  0.1680526E-003  0.9118800E+02  0.7818608E-02  0.1130116E+00
         25   -1    0    0    0    0  0.00000000000E+00  0.00000000000E+00  0.99999998245E-14  0.12500000000E+03  0.12500000000E+03 0.  0.
        -13    1    3    3    0    0 -0.56374581880E+01 -0.12128534691E+02  0.32888694379E+02  0.35504361289E+02  0.10566000000E+00 0. -1.
         23    2    1    0    0    0  0.13932856751E+02 -0.73133400235E+01 -0.24249250570E+02  0.96092637742E+02  0.91641472246E+02 0.  0.
         13    1    3    3    0    0  0.19570314939E+02  0.48151946678E+01 -0.57137944949E+02  0.60588276452E+02  0.10566000000E+00 0.  1.
         22    1    1    0    0    0 -0.13932856751E+02  0.73133400235E+01  0.24249250570E+02  0.28907362258E+02  0.00000000000E+00 0.  1.
</event>
<event>
 5    1  0.1680526E-003  0.9118800E+02  0.7818608E-02  0.1130116E+00
         25   -1    0    0    0    0  0.00000000000E+00  0.00000000000E+00  0.99999998245E-14  0.12500000000E+03  0.12500000000E+03 0.  0.
        -13    1    3    3    0    0 -0.32358160193E+02 -0.41998268276E+01 -0.11226078805E+02  0.34506884615E+02  0.10566000000E+00 0. -1.
         23    2    1    0    0    0  0.24235339680E+02 -0.14157067992E+01  0.14486021734E+02  0.96729861323E+02  0.92506569122E+02 0.  0.
         13    1    3    3    0    0  0.56593499873E+02  0.27841200284E+01  0.25712100539E+02  0.62222976708E+02  0.10566000000E+00 0.  1.
         22    1    1    0    0    0 -0.24235339680E+02  0.14157067992E+01 -0.14486021734E+02  0.28270138677E+02  0.00000000000E+00 0.  1.
</event>
<event>
 5    1  0.1680526E-003  0.9118800E+02  0.7818608E-02  0.1130116E+00
         25   -1    0    0    0    0  0.00000000000E+00  0.00000000000E+00  0.99999998245E-14  0.12500000000E+03  0.12500000000E+03 0.  0.
        -13    1    3    3    0    0  0.18987652124E+01  0.56028887554E+02 -0.31640690212E+01  0.56150369960E+02  0.10566000000E+00 0. -1.
         23    2    1    0    0    0 -0.70884051896E+01  0.18459675240E+02  0.16270177637E+02  0.99392895938E+02  0.96037617549E+02 0.  0.
         13    1    3    3    0    0 -0.89871704020E+01 -0.37569212314E+02  0.19434246658E+02  0.43242525978E+02  0.10566000000E+00 0.  1.
         22    1    1    0    0    0  0.70884051896E+01 -0.18459675240E+02 -0.16270177637E+02  0.25607104062E+02  0.00000000000E+00 0. -1.
</event>
<event>
 5    1  0.1680526E-003  0.9118800E+02  0.7818608E-02  0.1130116E+00
         25   -1    0    0    0    0  0.00000000000E+00  0.00000000000E+00  0.99999998245E-14  0.12500000000E+03  0.12500000000E+03 0.  0.
        -13    1    3    3    0    0 -0.21228787201E+02  0.48940074713E+02 -0.16881282440E+02  0.55953383989E+02  0.10566000000E+00 0. -1.
         23    2    1    0    0    0  0.27268541361E+01  0.27692762729E+02  0.74774014699E+01  0.96186177383E+02  0.91768972675E+02 0.  0.
         13    1    3    3    0    0  0.23955641337E+02 -0.21247311984E+02  0.24358683910E+02  0.40232793394E+02  0.10566000000E+00 0.  1.
         22    1    1    0    0    0 -0.27268541361E+01 -0.27692762729E+02 -0.74774014699E+01  0.28813822617E+02  0.00000000000E+00 0. -1.
</event>
<event>
 5    1  0.1680526E-003  0.9118800E+02  0.7818608E-02  0.1130116E+00
         25   -1    0    0    0    0  0.00000000000E+00  0.00000000000E+00  0.99999998245E-14  0.12500000000E+03  0.12500000000E+03 0.  0.
        -13    1    3    3    0    0  0.19530282149E+02  0.31802008019E+02  0.10857829196E+02  0.38867766256E+02  0.10566000000E+00 0.  1.
         23    2    1    0    0    0 -0.17553214231E+02  0.32976726392E+01 -0.22467581432E+02  0.96298393946E+02  0.91921697582E+02 0.  0.
         13    1    3    3    0    0 -0.37083496380E+02 -0.28504335380E+02 -0.33325410628E+02  0.57430627689E+02  0.10566000000E+00 0. -1.
         22    1    1    0    0    0  0.17553214231E+02 -0.32976726392E+01  0.22467581432E+02  0.28701606054E+02  0.00000000000E+00 0. -1.
</event>
<event>
 5    1  0.1680526E-003  0.9118800E+02  0.7818608E-02  0.1130116E+00
         25   -1    0    0    0    0  0.00000000000E+00  0.00000000000E+00  0.99999998245E-14  0.12500000000E+03  0.12500000000E+03 0.  0.
        -13    1    3    3    0    0  0.11732441423E+02 -0.30343953711E+02 -0.13547091760E+02  0.35241177162E+02  0.10566000000E+00 0. -1.
         23    2    1    0    0    0 -0.77161764282E+01  0.26160525184E+02  0.37897417590E+01  0.97463213710E+02  0.93492263998E+02 0.  0.
         13    1    3    3    0    0 -0.19448617851E+02  0.56504478896E+02  0.17336833519E+02  0.62222036548E+02  0.10566000000E+00 0.  1.
         22    1    1    0    0    0  0.77161764282E+01 -0.26160525184E+02 -0.37897417590E+01  0.27536786290E+02  0.00000000000E+00 0.  1.
</event>
<event>
 5    1  0.1680526E-003  0.9118800E+02  0.7818608E-02  0.1130116E+00
         25   -1    0    0    0    0  0.00000000000E+00  0.00000000000E+00  0.99999998245E-14  0.12500000000E+03  0.12500000000E+03 0.  0.
        -13    1    3    3    0    0  0.19024258619E+02  0.21584161218E+02  0.46823525860E+02  0.54956820955E+02  0.10566000000E+00 0.  1.
         23    2    1    0    0    0  0.25809695029E+02  0.99912780989E+01  0.77731967872E+01  0.96253024788E+02  0.91859981477E+02 0.  0.
         13    1    3    3    0    0  0.67854364100E+01 -0.11592883120E+02 -0.39050329072E+02  0.41296203833E+02  0.10566000000E+00 0. -1.
         22    1    1    0    0    0 -0.25809695029E+02 -0.99912780989E+01 -0.77731967872E+01  0.28746975212E+02  0.00000000000E+00 0.  1.
</event>
<event>
 5    1  0.1680526E-003  0.9118800E+02  0.7818608E-02  0.1130116E+00
         25   -1    0    0    0    0  0.00000000000E+00  0.00000000000E+00  0.99999998245E-14  0.12500000000E+03  0.12500000000E+03 0.  0.
        -13    1    3    3    0    0  0.18328096791E+02 -0.27961193588E+02 -0.48729176028E+02  0.59095610998E+02  0.10566000000E+00 0.  1.
         23    2    1    0    0    0  0.19684634337E+01 -0.24127791760E+02 -0.15719058069E+02  0.96136286274E+02  0.91700990008E+02 0.  0.
         13    1    3    3    0    0 -0.16359633358E+02  0.38334018280E+01  0.33010117959E+02  0.37040675276E+02  0.10566000000E+00 0. -1.
         22    1    1    0    0    0 -0.19684634337E+01  0.24127791760E+02  0.15719058069E+02  0.28863713726E+02  0.00000000000E+00 0.  1.
</event>
<event>
 5    1  0.1680526E-003  0.9118800E+02  0.7818608E-02  0.1130116E+00
         25   -1    0    0    0    0  0.00000000000E+00  0.00000000000E+00  0.99999998245E-14  0.12500000000E+03  0.12500000000E+03 0.  0.
        -13    1    3    3    0    0 -0.49683107819E+01 -0.49416061989E+02 -0.44235261006E+01  0.49861909728E+02  0.10566000000E+00 0.  1.
         23    2    1    0    0    0  0.23110215155E+02 -0.15940666495E+02  0.89132976064E+01  0.95544376308E+02  0.90890560990E+02 0.  0.
         13    1    3    3    0    0  0.28078525937E+02  0.33475395494E+02  0.13336823707E+02  0.45682466581E+02  0.10566000000E+00 0. -1.
         22    1    1    0    0    0 -0.23110215155E+02  0.15940666495E+02 -0.89132976064E+01  0.29455623692E+02  0.00000000000E+00 0. -1.
</event>
<event>
 5    1  0.1680526E-003  0.9118800E+02  0.7818608E-02  0.1130116E+00
         25   -1    0    0    0    0  0.00000000000E+00  0.00000000000E+00  0.99999998245E-14  0.12500000000E+03  0.12500000000E+03 0.  0.
        -13    1    3    3    0    0 -0.23500369857E+02 -0.22962831562E+02  0.43930999259E+02  0.54858936161E+02  0.10566000000E+00 0.  1.
         23    2    1    0    0    0  0.90301424180E+01 -0.35772801320E+01  0.26935697381E+02  0.96366589469E+02  0.92014386740E+02 0.  0.
         13    1    3    3    0    0  0.32530512275E+02  0.19385551430E+02 -0.16995301878E+02  0.41507653308E+02  0.10566000000E+00 0. -1.
         22    1    1    0    0    0 -0.90301424180E+01  0.35772801320E+01 -0.26935697381E+02  0.28633410531E+02  0.00000000000E+00 0.  1.
</event>
<event>
 5    1  0.1680526E-003  0.9118800E+02  0.7818608E-02  0.1130116E+00
         25   -1    0    0    0    0  0.00000000000E+00  0.00000000000E+00  0.99999998245E-14  0.12500000000E+03  0.12500000000E+03 0.  0.
        -13    1    3    3    0    0  0.31357594337E+02  0.22516262551E+02 -0.33510237633E+02  0.51119741707E+02  0.10566000000E+00 0.  1.
         23    2    1    0    0    0  0.22340141162E+02  0.16620580074E+02  0.95930046193E+01  0.95549171034E+02  0.90897154843E+02 0.  0.
         13    1    3    3    0    0 -0.90174531752E+01 -0.58956824775E+01  0.43103242252E+02  0.44429429327E+02  0.10566000000E+00 0. -1.
         22    1    1    0    0    0 -0.22340141162E+02 -0.16620580074E+02 -0.95930046193E+01  0.29450828966E+02  0.00000000000E+00 0. -1.
</event>
<event>
 5    1  0.1680526E-003  0.9118800E+02  0.7818608E-02  0.1130116E+00
         25   -1    0    0    0    0  0.00000000000E+00  0.00000000000E+00  0.99999998245E-14  0.12500000000E+03  0.12500000000E+03 0.  0.
        -13    1    3    3    0    0  0.48907400312E+01  0.60421271043E+01 -0.37180044435E+02  0.37984121764E+02  0.10566000000E+00 0.  1.
         23    2    1    0    0    0 -0.10365012575E+02 -0.25123865568E+02  0.95538273515E+01  0.96191707378E+02  0.91776504861E+02 0.  0.
         13    1    3    3    0    0 -0.15255752606E+02 -0.31165992672E+02  0.46733871786E+02  0.58207585614E+02  0.10566000000E+00 0. -1.
         22    1    1    0    0    0  0.10365012575E+02  0.25123865568E+02 -0.95538273515E+01  0.28808292622E+02  0.00000000000E+00 0. -1.
</event>
<event>
 5    1  0.1680526E-003  0.9118800E+02  0.7818608E-02  0.1130116E+00
         25   -1    0    0    0    0  0.00000000000E+00  0.00000000000E+00  0.99999998245E-14  0.12500000000E+03  0.12500000000E+03 0.  0.
        -13    1    3    3    0    0  0.19295013982E+01  0.10916251154E+01  0.58131556560E+02  0.58173908698E+02  0.10566000000E+00 0.  1.
         23    2    1    0    0    0 -0.15371337644E+02 -0.73216327935E+00  0.23866971383E+02  0.96601999947E+02  0.92333634104E+02 0.  0.
         13    1    3    3    0    0 -0.17300839042E+02 -0.18237883948E+01 -0.34264585177E+02  0.38428091249E+02  0.10566000000E+00 0. -1.
         22    1    1    0    0    0  0.15371337644E+02  0.73216327935E+00 -0.23866971383E+02  0.28398000053E+02  0.00000000000E+00 0.  1.
</event>
<event>
 5    1  0.1680526E-003  0.9118800E+02  0.7818608E-02  0.1130116E+00
         25   -1    0    0    0    0  0.00000000000E+00  0.00000000000E+00  0.99999998245E-14  0.12500000000E+03  0.12500000000E+03 0.  0.
        -13    1    3    3    0    0 -0.61479443819E+01 -0.20470368848E+02 -0.25812113859E+02  0.33512827497E+02  0.10566000000E+00 0. -1.
         23    2    1    0    0    0 -0.14853198548E+01  0.16752673043E+02  0.23890294760E+02  0.95783490748E+02  0.91218817614E+02 0.  0.
         13    1    3    3    0    0  0.46626245271E+01  0.37223041891E+02  0.49702408619E+02  0.62270663251E+02  0.10566000000E+00 0.  1.
         22    1    1    0    0    0  0.14853198548E+01 -0.16752673043E+02 -0.23890294760E+02  0.29216509252E+02  0.00000000000E+00 0.  1.
</event>
<event>
 5    1  0.1680526E-003  0.9118800E+02  0.7818608E-02  0.1130116E+00
         25   -1    0    0    0    0  0.00000000000E+00  0.00000000000E+00  0.99999998245E-14  0.12500000000E+03  0.12500000000E+03 0.  0.
        -13    1    3    3    0    0  0.19118526434E+02 -0.15779835294E+02 -0.42210123828E+02  0.48951271408E+02  0.10566000000E+00 0.  1.
         23    2    1    0    0    0 -0.47073478542E+01 -0.29044615566E+02 -0.48899717857E+01  0.95172820428E+02  0.90378122944E+02 0.  0.
         13    1    3    3    0    0 -0.23825874288E+02 -0.13264780272E+02  0.37320152042E+02  0.46221549019E+02  0.10566000000E+00 0. -1.
         22    1    1    0    0    0  0.47073478542E+01  0.29044615566E+02  0.48899717857E+01  0.29827179572E+02  0.00000000000E+00 0.  1.
</event>
<event>
 5    1  0.1680526E-003  0.9118800E+02  0.7818608E-02  0.1130116E+00
         25   -1    0    0    0    0  0.00000000000E+00  0.00000000000E+00  0.99999998245E-14  0.12500000000E+03  0.12500000000E+03 0.  0.
        -13    1    3    3    0    0 -0.10543607507E+02  0.28600567531E+02  0.11563111191E+02  0.32601791773E+02  0.10566000000E+00 0.  1.
         23    2    1    0    0    0 -0.51500634849E+01 -0.28038588843E+02 -0.11851591877E+02  0.94126939766E+02  0.88919823108E+02 0.  0.
         13    1    3    3    0    0  0.53935440219E+01 -0.56639156373E+02 -0.23414703068E+02  0.61525147993E+02  0.10566000000E+00 0. -1.
         22    1    1    0    0    0  0.51500634849E+01  0.28038588843E+02  0.11851591877E+02  0.30873060234E+02  0.00000000000E+00 0. -1.
</event>
<event>
 5    1  0.1680526E-003  0.9118800E+02  0.7818608E-02  0.1130116E+00
         25   -1    0    0    0    0  0.00000000000E+00  0.00000000000E+00  0.99999998245E-14  0.12500000000E+03  0.12500000000E+03 0.  0.
        -13    1    3    3    0    0 -0.10359807344E+02 -0.14795269064E+02  0.43246663028E+02  0.46866945943E+02  0.10566000000E+00 0. -1.
         23    2    1    0    0    0  0.24615187817E+01  0.23355006096E+02  0.23793012502E+02  0.91569133598E+02  0.85248363031E+02 0.  0.
         13    1    3    3    0    0  0.12821326126E+02  0.38150275160E+02 -0.19453650526E+02  0.44702187656E+02  0.10566000000E+00 0.  1.
         22    1    1    0    0    0 -0.24615187817E+01 -0.23355006096E+02 -0.23793012502E+02  0.33430866402E+02  0.00000000000E+00 0. -1.
</event>
<event>
 5    1  0.1680526E-003  0.9118800E+02  0.7818608E-02  0.1130116E+00
         25   -1    0    0    0    0  0.00000000000E+00  0.00000000000E+00  0.99999998245E-14  0.12500000000E+03  0.12500000000E+03 0.  0.
        -13    1    3    3    0    0  0.28720620714E+02  0.13611717353E+02  0.33464742400E+02  0.46152497781E+02  0.10566000000E+00 0.  1.
         23    2    1    0    0    0  0.14131170025E+02 -0.25569713137E+02  0.98545900376E+01  0.94167985129E+02  0.88977504361E+02 0.  0.
         13    1    3    3    0    0 -0.14589450689E+02 -0.39181430490E+02 -0.23610152362E+02  0.48015487348E+02  0.10566000000E+00 0. -1.
         22    1    1    0    0    0 -0.14131170025E+02  0.25569713137E+02 -0.98545900376E+01  0.30832014871E+02  0.00000000000E+00 0. -1.
</event>
<event>
 5    1  0.1680526E-003  0.9118800E+02  0.7818608E-02  0.1130116E+00
         25   -1    0    0    0    0  0.00000000000E+00  0.00000000000E+00  0.99999998245E-14  0.12500000000E+03  0.12500000000E+03 0.  0.
        -13    1    3    3    0    0 -0.48604845709E+02 -0.28976757254E+02 -0.13294934353E+02  0.58127875678E+02  0.10566000000E+00 0. -1.
         23    2    1    0    0    0 -0.20028249987E+02 -0.43166052275E+01 -0.19889507370E+02  0.96445554083E+02  0.92121596386E+02 0.  0.
         13    1    3    3    0    0  0.28576595723E+02  0.24660152026E+02 -0.65945730170E+01  0.38317678405E+02  0.10566000000E+00 0.  1.
         22    1    1    0    0    0  0.20028249987E+02  0.43166052275E+01  0.19889507370E+02  0.28554445917E+02  0.00000000000E+00 0. -1.
</event>
<event>
 5    1  0.1680526E-003  0.9118800E+02  0.7818608E-02  0.1130116E+00
         25   -1    0    0    0    0  0.00000000000E+00  0.00000000000E+00  0.99999998245E-14  0.12500000000E+03  0.12500000000E+03 0.  0.
        -13    1    3    3    0    0  0.89081843940E+00 -0.22698256128E+02  0.31752012904E+02  0.39041079342E+02  0.10566000000E+00 0. -1.
         23    2    1    0    0    0 -0.89362543282E+01 -0.11397318158E+02 -0.24109233747E+02  0.96875088365E+02  0.92702600239E+02 0.  0.
         13    1    3    3    0    0 -0.98270727676E+01  0.11300937970E+02 -0.55861246651E+02  0.57834009022E+02  0.10566000000E+00 0.  1.
         22    1    1    0    0    0  0.89362543282E+01  0.11397318158E+02  0.24109233747E+02  0.28124911635E+02  0.00000000000E+00 0. -1.
</event>
<event>
 5    1  0.1680526E-003  0.9118800E+02  0.7818608E-02  0.1130116E+00
         25   -1    0    0    0    0  0.00000000000E+00  0.00000000000E+00  0.99999998245E-14  0.12500000000E+03  0.12500000000E+03 0.  0.
        -13    1    3    3    0    0 -0.30209797897E+01  0.27804998713E+02  0.25360505932E+02  0.37754611606E+02  0.10566000000E+00 0.  1.
         23    2    1    0    0    0  0.24115024297E+02 -0.16457595278E+02 -0.59181615009E+00  0.95798337624E+02  0.91239160485E+02 0.  0.
         13    1    3    3    0    0  0.27136004086E+02 -0.44262593991E+02 -0.25952322082E+02  0.58043726018E+02  0.10566000000E+00 0. -1.
         22    1    1    0    0    0 -0.24115024297E+02  0.16457595278E+02  0.59181615009E+00  0.29201662376E+02  0.00000000000E+00 0.  1.
</event>
<event>
 5    1  0.1680526E-003  0.9118800E+02  0.7818608E-02  0.1130116E+00
         25   -1    0    0    0    0  0.00000000000E+00  0.00000000000E+00  0.99999998245E-14  0.12500000000E+03  0.12500000000E+03 0.  0.
        -13    1    3    3    0    0  0.56357297919E+01  0.50740038677E+02  0.19410038703E+02  0.54617522296E+02  0.10566000000E+00 0. -1.
         23    2    1    0    0    0  0.12477889716E+02  0.18768048674E+02 -0.11575668860E+02  0.99663593539E+02  0.96389306382E+02 0.  0.
         13    1    3    3    0    0  0.68421599238E+01 -0.31971990003E+02 -0.30985707564E+02  0.45046071243E+02  0.10566000000E+00 0.  1.
         22    1    1    0    0    0 -0.12477889716E+02 -0.18768048674E+02  0.11575668860E+02  0.25336406461E+02  0.00000000000E+00 0. -1.
</event>
<event>
 5    1  0.1680526E-003  0.9118800E+02  0.7818608E-02  0.1130116E+00
         25   -1    0    0    0    0  0.00000000000E+00  0.00000000000E+00  0.99999998245E-14  0.12500000000E+03  0.12500000000E+03 0.  0.
        -13    1    3    3    0    0  0.56116545757E+00 -0.24618168271E+02 -0.25948512503E+02  0.35772972770E+02  0.10566000000E+00 0. -1.
         23    2    1    0    0    0  0.46957333301E+01  0.68645405708E+01  0.26577872700E+02  0.97151209254E+02  0.93074176406E+02 0.  0.
         13    1    3    3    0    0  0.41345678726E+01  0.31482708842E+02  0.52526385202E+02  0.61378236484E+02  0.10566000000E+00 0.  1.
         22    1    1    0    0    0 -0.46957333301E+01 -0.68645405708E+01 -0.26577872700E+02  0.27848790746E+02  0.00000000000E+00 0.  1.
</event>
<event>
 5    1  0.1680526E-003  0.9118800E+02  0.7818608E-02  0.1130116E+00
         25   -1    0    0    0    0  0.00000000000E+00  0.00000000000E+00  0.99999998245E-14  0.12500000000E+03  0.12500000000E+03 0.  0.
        -13    1    3    3    0    0 -0.19657114405E+01  0.55433698560E+01 -0.52334340064E+02  0.52663908750E+02  0.10566000000E+00 0. -1.
         23    2    1    0    0    0 -0.24202487460E+02  0.64977857417E+01 -0.16017074447E+02  0.95258979631E+02  0.90497209392E+02 0.  0.
         13    1    3    3    0    0 -0.22236776019E+02  0.95441588570E+00  0.36317265617E+02  0.42595070881E+02  0.10566000000E+00 0.  1.
         22    1    1    0    0    0  0.24202487460E+02 -0.64977857417E+01  0.16017074447E+02  0.29741020369E+02  0.00000000000E+00 0. -1.
</event>
<event>
 5    1  0.1680526E-003  0.9118800E+02  0.7818608E-02  0.1130116E+00
         25   -1    0    0    0    0  0.00000000000E+00  0.00000000000E+00  0.99999998245E-14  0.12500000000E+03  0.12500000000E+03 0.  0.
        -13    1    3    3    0    0 -0.16131022203E+01  0.75285782937E+01 -0.40299858229E+02  0.41028908433E+02  0.10566000000E+00 0.  1.
         23    2    1    0    0    0  0.16249393542E+02 -0.23551843527E+02  0.18080501302E+01  0.96329437235E+02  0.91963902205E+02 0.  0.
         13    1    3    3    0    0  0.17862495762E+02 -0.31080421821E+02  0.42107908359E+02  0.55300528802E+02  0.10566000000E+00 0. -1.
         22    1    1    0    0    0 -0.16249393542E+02  0.23551843527E+02 -0.18080501302E+01  0.28670562765E+02  0.00000000000E+00 0. -1.
</event>
<event>
 5    1  0.1680526E-003  0.9118800E+02  0.7818608E-02  0.1130116E+00
         25   -1    0    0    0    0  0.00000000000E+00  0.00000000000E+00  0.99999998245E-14  0.12500000000E+03  0.12500000000E+03 0.  0.
        -13    1    3    3    0    0 -0.24714856936E+02 -0.49164352064E+02  0.80555618892E+01  0.55613495742E+02  0.10566000000E+00 0.  1.
         23    2    1    0    0    0 -0.22875755430E+02 -0.99934442076E+01  0.15622647141E+02  0.95551125365E+02  0.90899842361E+02 0.  0.
         13    1    3    3    0    0  0.18391015061E+01  0.39170907857E+02  0.75670852514E+01  0.39937629623E+02  0.10566000000E+00 0. -1.
         22    1    1    0    0    0  0.22875755430E+02  0.99934442076E+01 -0.15622647141E+02  0.29448874635E+02  0.00000000000E+00 0.  1.
</event>
<event>
 5    1  0.1680526E-003  0.9118800E+02  0.7818608E-02  0.1130116E+00
         25   -1    0    0    0    0  0.00000000000E+00  0.00000000000E+00  0.99999998245E-14  0.12500000000E+03  0.12500000000E+03 0.  0.
        -13    1    3    3    0    0  0.32043800584E+01  0.18509511605E+02 -0.40178090637E+02  0.44352679769E+02  0.10566000000E+00 0.  1.
         23    2    1    0    0    0 -0.33560193552E+01 -0.25352900236E+02 -0.14987055898E+02  0.95358065840E+02  0.90633969680E+02 0.  0.
         13    1    3    3    0    0 -0.65603994135E+01 -0.43862411841E+02  0.25191034739E+02  0.51005386071E+02  0.10566000000E+00 0. -1.
         22    1    1    0    0    0  0.33560193552E+01  0.25352900236E+02  0.14987055898E+02  0.29641934160E+02  0.00000000000E+00 0.  1.
</event>
<event>
 5    1  0.1680526E-003  0.9118800E+02  0.7818608E-02  0.1130116E+00
         25   -1    0    0    0    0  0.00000000000E+00  0.00000000000E+00  0.99999998245E-14  0.12500000000E+03  0.12500000000E+03 0.  0.
        -13    1    3    3    0    0 -0.24760188283E+02  0.28598163273E+01  0.34955213600E+02  0.42931615333E+02  0.10566000000E+00 0. -1.
         23    2    1    0    0    0  0.89921673703E+00 -0.27571970402E+02 -0.21239251655E+01  0.97331729351E+02  0.93316302636E+02 0.  0.
         13    1    3    3    0    0  0.25659405020E+02 -0.30431786730E+02 -0.37079138765E+02  0.54400114018E+02  0.10566000000E+00 0.  1.
         22    1    1    0    0    0 -0.89921673703E+00  0.27571970402E+02  0.21239251655E+01  0.27668270649E+02  0.00000000000E+00 0.  1.
</event>
<event>
 5    1  0.1680526E-003  0.9118800E+02  0.7818608E-02  0.1130116E+00
         25   -1    0    0    0    0  0.00000000000E+00  0.00000000000E+00  0.99999998245E-14  0.12500000000E+03  0.12500000000E+03 0.  0.
        -13    1    3    3    0    0  0.30925332501E+02  0.57738884602E+01 -0.17994482812E+02  0.36242606887E+02  0.10566000000E+00 0. -1.
         23    2    1    0    0    0 -0.27602330071E+02  0.12746004147E+01 -0.10590928907E+02  0.95408092210E+02  0.90702938500E+02 0.  0.
         13    1    3    3    0    0 -0.58527662572E+02 -0.44992880456E+01  0.74035539056E+01  0.59165485323E+02  0.10566000000E+00 0.  1.
         22    1    1    0    0    0  0.27602330071E+02 -0.12746004147E+01  0.10590928907E+02  0.29591907790E+02  0.00000000000E+00 0.  1.
</event>
<event>
 5    1  0.1680526E-003  0.9118800E+02  0.7818608E-02  0.1130116E+00
         25   -1    0    0    0    0  0.00000000000E+00  0.00000000000E+00  0.99999998245E-14  0.12500000000E+03  0.12500000000E+03 0.  0.
        -13    1    3    3    0    0 -0.47844651481E+02  0.20333871606E+02 -0.21335084175E+02  0.56194074337E+02  0.10566000000E+00 0. -1.
         23    2    1    0    0    0 -0.24205923282E+02  0.14168896723E+02  0.93667573943E+01  0.95429398039E+02  0.90732295847E+02 0.  0.
         13    1    3    3    0    0  0.23638728199E+02 -0.61649748838E+01  0.30701841569E+02  0.39235323701E+02  0.10566000000E+00 0.  1.
         22    1    1    0    0    0  0.24205923282E+02 -0.14168896723E+02 -0.93667573943E+01  0.29570601961E+02  0.00000000000E+00 0. -1.
</event>
<event>
 5    1  0.1680526E-003  0.9118800E+02  0.7818608E-02  0.1130116E+00
         25   -1    0    0    0    0  0.00000000000E+00  0.00000000000E+00  0.99999998245E-14  0.12500000000E+03  0.12500000000E+03 0.  0.
        -13    1    3    3    0    0  0.11514158581E+01  0.27666574537E+02 -0.48926612680E+02  0.56219122170E+02  0.10566000000E+00 0. -1.
         23    2    1    0    0    0  0.73418740260E+01  0.25802955521E+02 -0.89439513494E+01  0.96721211243E+02  0.92494879916E+02 0.  0.
         13    1    3    3    0    0  0.61904581679E+01 -0.18636190164E+01  0.39982661331E+02  0.40502089073E+02  0.10566000000E+00 0.  1.
         22    1    1    0    0    0 -0.73418740260E+01 -0.25802955521E+02  0.89439513494E+01  0.28278788757E+02  0.00000000000E+00 0. -1.
</event>
<event>
 5    1  0.1680526E-003  0.9118800E+02  0.7818608E-02  0.1130116E+00
         25   -1    0    0    0    0  0.00000000000E+00  0.00000000000E+00  0.99999998245E-14  0.12500000000E+03  0.12500000000E+03 0.  0.
        -13    1    3    3    0    0 -0.18214401163E+02 -0.10720548282E+02 -0.25823081910E+02  0.33369706151E+02  0.10566000000E+00 0. -1.
         23    2    1    0    0    0  0.20560721330E+02  0.59387699237E+01  0.20029821051E+02  0.95687784438E+02  0.91087573848E+02 0.  0.
         13    1    3    3    0    0  0.38775122493E+02  0.16659318206E+02  0.45852902961E+02  0.62318078287E+02  0.10566000000E+00 0.  1.
         22    1    1    0    0    0 -0.20560721330E+02 -0.59387699237E+01 -0.20029821051E+02  0.29312215562E+02  0.00000000000E+00 0.  1.
</event>
<event>
 5    1  0.1680526E-003  0.9118800E+02  0.7818608E-02  0.1130116E+00
         25   -1    0    0    0    0  0.00000000000E+00  0.00000000000E+00  0.99999998245E-14  0.12500000000E+03  0.12500000000E+03 0.  0.
        -13    1    3    3    0    0  0.30002328178E+01  0.26167993353E+02  0.56175776379E+02  0.62044292960E+02  0.10566000000E+00 0.  1.
         23    2    1    0    0    0  0.62422204208E+01  0.91282633954E+01  0.20851109580E+02  0.10139789672E+03  0.98612748571E+02 0.  0.
         13    1    3    3    0    0  0.32419876029E+01 -0.17039729958E+02 -0.35324666799E+02  0.39353603763E+02  0.10566000000E+00 0. -1.
         22    1    1    0    0    0 -0.62422204208E+01 -0.91282633954E+01 -0.20851109580E+02  0.23602103277E+02  0.00000000000E+00 0.  1.
</event>
<event>
 5    1  0.1680526E-003  0.9118800E+02  0.7818608E-02  0.1130116E+00
         25   -1    0    0    0    0  0.00000000000E+00  0.00000000000E+00  0.99999998245E-14  0.12500000000E+03  0.12500000000E+03 0.  0.
        -13    1    3    3    0    0  0.24297609488E+02 -0.34148252018E+01  0.56796311282E+02  0.61869758342E+02  0.10566000000E+00 0.  1.
         23    2    1    0    0    0  0.12332248507E+02 -0.76645106448E+01  0.25298922169E+02  0.95830417562E+02  0.91283100246E+02 0.  0.
         13    1    3    3    0    0 -0.11965360981E+02 -0.42496854431E+01 -0.31497389112E+02  0.33960659221E+02  0.10566000000E+00 0. -1.
         22    1    1    0    0    0 -0.12332248507E+02  0.76645106448E+01 -0.25298922169E+02  0.29169582438E+02  0.00000000000E+00 0.  1.
</event>
<event>
 5    1  0.1680526E-003  0.9118800E+02  0.7818608E-02  0.1130116E+00
         25   -1    0    0    0    0  0.00000000000E+00  0.00000000000E+00  0.99999998245E-14  0.12500000000E+03  0.12500000000E+03 0.  0.
        -13    1    3    3    0    0  0.36097787488E+02  0.21624213343E+02 -0.43290572306E+02  0.60371696008E+02  0.10566000000E+00 0. -1.
         23    2    1    0    0    0  0.18541019266E+02 -0.16040658902E+01 -0.20206640175E+02  0.97529093027E+02  0.93580303786E+02 0.  0.
         13    1    3    3    0    0 -0.17556768222E+02 -0.23228279233E+02  0.23083932131E+02  0.37157397019E+02  0.10566000000E+00 0.  1.
         22    1    1    0    0    0 -0.18541019266E+02  0.16040658902E+01  0.20206640175E+02  0.27470906973E+02  0.00000000000E+00 0. -1.
</event>
<event>
 5    1  0.1680526E-003  0.9118800E+02  0.7818608E-02  0.1130116E+00
         25   -1    0    0    0    0  0.00000000000E+00  0.00000000000E+00  0.99999998245E-14  0.12500000000E+03  0.12500000000E+03 0.  0.
        -13    1    3    3    0    0  0.41218981531E+01  0.34389166424E+02  0.41648457209E+02  0.54168348356E+02  0.10566000000E+00 0. -1.
         23    2    1    0    0    0  0.35965744632E+01  0.28583694863E+02  0.32299683739E-01  0.96190904159E+02  0.91775410867E+02 0.  0.
         13    1    3    3    0    0 -0.52532368985E+00 -0.58054715606E+01 -0.41616157525E+02  0.42022555803E+02  0.10566000000E+00 0.  1.
         22    1    1    0    0    0 -0.35965744632E+01 -0.28583694863E+02 -0.32299683739E-01  0.28809095841E+02  0.00000000000E+00 0. -1.
</event>
<event>
 5    1  0.1680526E-003  0.9118800E+02  0.7818608E-02  0.1130116E+00
         25   -1    0    0    0    0  0.00000000000E+00  0.00000000000E+00  0.99999998245E-14  0.12500000000E+03  0.12500000000E+03 0.  0.
        -13    1    3    3    0    0  0.16433368203E+02 -0.53259623677E+02  0.12966785552E+02  0.57225796598E+02  0.10566000000E+00 0. -1.
         23    2    1    0    0    0  0.37396918322E+01 -0.30185746242E+02  0.24468572637E+02  0.85963150510E+02  0.76588430115E+02 0.  0.
         13    1    3    3    0    0 -0.12693676370E+02  0.23073877435E+02  0.11501787085E+02  0.28737353912E+02  0.10566000000E+00 0.  1.
         22    1    1    0    0    0 -0.37396918322E+01  0.30185746242E+02 -0.24468572637E+02  0.39036849490E+02  0.00000000000E+00 0. -1.
</event>
<event>
 5    1  0.1680526E-003  0.9118800E+02  0.7818608E-02  0.1130116E+00
         25   -1    0    0    0    0  0.00000000000E+00  0.00000000000E+00  0.99999998245E-14  0.12500000000E+03  0.12500000000E+03 0.  0.
        -13    1    3    3    0    0  0.22869853263E+02 -0.31838961173E+02 -0.10515545188E+02  0.40587405577E+02  0.10566000000E+00 0.  1.
         23    2    1    0    0    0 -0.46588909208E+01  0.18063695137E+02  0.13022918432E+02  0.10224920329E+03  0.99686011163E+02 0.  0.
         13    1    3    3    0    0 -0.27528744184E+02  0.49902656310E+02  0.23538463620E+02  0.61661797709E+02  0.10566000000E+00 0. -1.
         22    1    1    0    0    0  0.46588909208E+01 -0.18063695137E+02 -0.13022918432E+02  0.22750796713E+02  0.00000000000E+00 0. -1.
</event>
<event>
 5    1  0.1680526E-003  0.9118800E+02  0.7818608E-02  0.1130116E+00
         25   -1    0    0    0    0  0.00000000000E+00  0.00000000000E+00  0.99999998245E-14  0.12500000000E+03  0.12500000000E+03 0.  0.
        -13    1    3    3    0    0 -0.60066978571E+02  0.14757333914E+02 -0.78372782476E+01  0.62347854119E+02  0.10566000000E+00 0. -1.
         23    2    1    0    0    0 -0.28477086003E+02  0.38562533190E+01 -0.32283896158E+01  0.96082226635E+02  0.91627270279E+02 0.  0.
         13    1    3    3    0    0  0.31589892568E+02 -0.10901080595E+02  0.46088886319E+01  0.33734372516E+02  0.10566000000E+00 0.  1.
         22    1    1    0    0    0  0.28477086003E+02 -0.38562533190E+01  0.32283896158E+01  0.28917773365E+02  0.00000000000E+00 0. -1.
</event>
<event>
 5    1  0.1680526E-003  0.9118800E+02  0.7818608E-02  0.1130116E+00
         25   -1    0    0    0    0  0.00000000000E+00  0.00000000000E+00  0.99999998245E-14  0.12500000000E+03  0.12500000000E+03 0.  0.
        -13    1    3    3    0    0  0.18763976792E+02  0.23200774158E+01 -0.34868232811E+02  0.39664523288E+02  0.10566000000E+00 0.  1.
         23    2    1    0    0    0  0.18967785264E+02 -0.23841649816E+02  0.11114833934E+02  0.92569448399E+02  0.86702722562E+02 0.  0.
         13    1    3    3    0    0  0.20380847237E+00 -0.26161727232E+02  0.45983066745E+02  0.52904925111E+02  0.10566000000E+00 0. -1.
         22    1    1    0    0    0 -0.18967785264E+02  0.23841649816E+02 -0.11114833934E+02  0.32430551601E+02  0.00000000000E+00 0. -1.
</event>
<event>
 5    1  0.1680526E-003  0.9118800E+02  0.7818608E-02  0.1130116E+00
         25   -1    0    0    0    0  0.00000000000E+00  0.00000000000E+00  0.99999998245E-14  0.12500000000E+03  0.12500000000E+03 0.  0.
        -13    1    3    3    0    0 -0.19884650695E+02 -0.28491263996E+02 -0.12504338287E+02  0.36925886549E+02  0.10566000000E+00 0. -1.
         23    2    1    0    0    0 -0.31983422362E+01  0.17910044511E+02  0.21508276294E+02  0.96829003628E+02  0.92640438832E+02 0.  0.
         13    1    3    3    0    0  0.16686308459E+02  0.46401308508E+02  0.34012614581E+02  0.59903117080E+02  0.10566000000E+00 0.  1.
         22    1    1    0    0    0  0.31983422362E+01 -0.17910044511E+02 -0.21508276294E+02  0.28170996372E+02  0.00000000000E+00 0. -1.
</event>
<event>
 5    1  0.1680526E-003  0.9118800E+02  0.7818608E-02  0.1130116E+00
         25   -1    0    0    0    0  0.00000000000E+00  0.00000000000E+00  0.99999998245E-14  0.12500000000E+03  0.12500000000E+03 0.  0.
        -13    1    3    3    0    0 -0.73109098321E+01  0.32594832975E+02  0.10034080883E+02  0.34879313102E+02  0.10566000000E+00 0. -1.
         23    2    1    0    0    0  0.81491644031E+00 -0.27227645287E+02  0.11886563432E+02  0.95279650962E+02  0.90525757332E+02 0.  0.
         13    1    3    3    0    0  0.81258262724E+01 -0.59822478262E+02  0.18524825495E+01  0.60400337861E+02  0.10566000000E+00 0.  1.
         22    1    1    0    0    0 -0.81491644031E+00  0.27227645287E+02 -0.11886563432E+02  0.29720349038E+02  0.00000000000E+00 0.  1.
</event>
<event>
 5    1  0.1680526E-003  0.9118800E+02  0.7818608E-02  0.1130116E+00
         25   -1    0    0    0    0  0.00000000000E+00  0.00000000000E+00  0.99999998245E-14  0.12500000000E+03  0.12500000000E+03 0.  0.
        -13    1    3    3    0    0  0.32919997378E+01  0.73468003184E+01  0.44432342658E+02  0.45155918497E+02  0.10566000000E+00 0. -1.
         23    2    1    0    0    0  0.20435357068E+01  0.27696934049E+02 -0.32730177324E+01  0.97035579052E+02  0.92918753559E+02 0.  0.
         13    1    3    3    0    0 -0.12484640310E+01  0.20350133730E+02 -0.47705360390E+02  0.51879660555E+02  0.10566000000E+00 0.  1.
         22    1    1    0    0    0 -0.20435357068E+01 -0.27696934049E+02  0.32730177324E+01  0.27964420948E+02  0.00000000000E+00 0.  1.
</event>
<event>
 5    1  0.1680526E-003  0.9118800E+02  0.7818608E-02  0.1130116E+00
         25   -1    0    0    0    0  0.00000000000E+00  0.00000000000E+00  0.99999998245E-14  0.12500000000E+03  0.12500000000E+03 0.  0.
        -13    1    3    3    0    0 -0.19192906629E+02  0.32572439843E+02  0.46426436681E+01  0.38090639355E+02  0.10566000000E+00 0. -1.
         23    2    1    0    0    0 -0.12237761877E+02 -0.25481793022E+02  0.28646212657E+01  0.96587139420E+02  0.92313513934E+02 0.  0.
         13    1    3    3    0    0  0.69551447523E+01 -0.58054232865E+02 -0.17780224024E+01  0.58496500064E+02  0.10566000000E+00 0.  1.
         22    1    1    0    0    0  0.12237761877E+02  0.25481793022E+02 -0.28646212657E+01  0.28412860580E+02  0.00000000000E+00 0.  1.
</event>
<event>
 5    1  0.1680526E-003  0.9118800E+02  0.7818608E-02  0.1130116E+00
         25   -1    0    0    0    0  0.00000000000E+00  0.00000000000E+00  0.99999998245E-14  0.12500000000E+03  0.12500000000E+03 0.  0.
        -13    1    3    3    0    0 -0.21411118933E+02 -0.26433430121E+02 -0.35643286026E+02  0.49270855936E+02  0.10566000000E+00 0.  1.
         23    2    1    0    0    0 -0.17238886846E+02 -0.18955036039E+02  0.11305866749E+02  0.96994728463E+02  0.92863782583E+02 0.  0.
         13    1    3    3    0    0  0.41722320866E+01  0.74783940819E+01  0.46949152775E+02  0.47723872526E+02  0.10566000000E+00 0. -1.
         22    1    1    0    0    0  0.17238886846E+02  0.18955036039E+02 -0.11305866749E+02  0.28005271537E+02  0.00000000000E+00 0. -1.
</event>
<event>
 5    1  0.1680526E-003  0.9118800E+02  0.7818608E-02  0.1130116E+00
         25   -1    0    0    0    0  0.00000000000E+00  0.00000000000E+00  0.99999998245E-14  0.12500000000E+03  0.12500000000E+03 0.  0.
        -13    1    3    3    0    0 -0.37575521665E+02  0.44558886145E+02  0.18085364552E+01  0.58315487917E+02  0.10566000000E+00 0. -1.
         23    2    1    0    0    0 -0.84061637275E+01  0.21966941480E+02 -0.13063413330E+02  0.98095300142E+02  0.94333583816E+02 0.  0.
         13    1    3    3    0    0  0.29169357937E+02 -0.22591944666E+02 -0.14871949785E+02  0.39779812225E+02  0.10566000000E+00 0.  1.
         22    1    1    0    0    0  0.84061637275E+01 -0.21966941480E+02  0.13063413330E+02  0.26904699858E+02  0.00000000000E+00 0. -1.
</event>
<event>
 5    1  0.1680526E-003  0.9118800E+02  0.7818608E-02  0.1130116E+00
         25   -1    0    0    0    0  0.00000000000E+00  0.00000000000E+00  0.99999998245E-14  0.12500000000E+03  0.12500000000E+03 0.  0.
        -13    1    3    3    0    0  0.48544551710E+02  0.18498893669E+02 -0.27519197670E+02  0.58788604101E+02  0.10566000000E+00 0.  1.
         23    2    1    0    0    0  0.21972781870E+02 -0.62608384091E+01 -0.16747580160E+02  0.96671874719E+02  0.92428181200E+02 0.  0.
         13    1    3    3    0    0 -0.26571769839E+02 -0.24759732078E+02  0.10771617510E+02  0.37883270619E+02  0.10566000000E+00 0. -1.
         22    1    1    0    0    0 -0.21972781870E+02  0.62608384091E+01  0.16747580160E+02  0.28328125281E+02  0.00000000000E+00 0.  1.
</event>
<event>
 5    1  0.1680526E-003  0.9118800E+02  0.7818608E-02  0.1130116E+00
         25   -1    0    0    0    0  0.00000000000E+00  0.00000000000E+00  0.99999998245E-14  0.12500000000E+03  0.12500000000E+03 0.  0.
        -13    1    3    3    0    0 -0.37815169335E+02 -0.17508815955E+02 -0.22723954583E+02  0.47465091846E+02  0.10566000000E+00 0.  1.
         23    2    1    0    0    0 -0.17732258016E+01  0.18863252353E+02 -0.17964364775E+02  0.98890901570E+02  0.95381997214E+02 0.  0.
         13    1    3    3    0    0  0.36041943533E+02  0.36372068308E+02  0.47595898082E+01  0.51425809724E+02  0.10566000000E+00 0. -1.
         22    1    1    0    0    0  0.17732258016E+01 -0.18863252353E+02  0.17964364775E+02  0.26109098430E+02  0.00000000000E+00 0.  1.
</event>
<event>
 5    1  0.1680526E-003  0.9118800E+02  0.7818608E-02  0.1130116E+00
         25   -1    0    0    0    0  0.00000000000E+00  0.00000000000E+00  0.99999998245E-14  0.12500000000E+03  0.12500000000E+03 0.  0.
        -13    1    3    3    0    0  0.15120080721E+02 -0.37153556114E+02  0.41147039519E+02  0.57463846009E+02  0.10566000000E+00 0. -1.
         23    2    1    0    0    0 -0.58261765086E+01 -0.81657054461E+01  0.27473566560E+02  0.95752437065E+02  0.91176253851E+02 0.  0.
         13    1    3    3    0    0 -0.20946257230E+02  0.28987850668E+02 -0.13673472959E+02  0.38288591056E+02  0.10566000000E+00 0.  1.
         22    1    1    0    0    0  0.58261765086E+01  0.81657054461E+01 -0.27473566560E+02  0.29247562935E+02  0.00000000000E+00 0. -1.
</event>
<event>
 5    1  0.1680526E-003  0.9118800E+02  0.7818608E-02  0.1130116E+00
         25   -1    0    0    0    0  0.00000000000E+00  0.00000000000E+00  0.99999998245E-14  0.12500000000E+03  0.12500000000E+03 0.  0.
        -13    1    3    3    0    0 -0.29768952067E+02 -0.28312300230E+02 -0.62796028221E+01  0.41559853551E+02  0.10566000000E+00 0. -1.
         23    2    1    0    0    0 -0.54794059576E+01  0.55162225360E+01  0.28275673871E+02  0.95674817416E+02  0.91069777391E+02 0.  0.
         13    1    3    3    0    0  0.24289546110E+02  0.33828522766E+02  0.34555276693E+02  0.54114963865E+02  0.10566000000E+00 0.  1.
         22    1    1    0    0    0  0.54794059576E+01 -0.55162225360E+01 -0.28275673871E+02  0.29325182584E+02  0.00000000000E+00 0.  1.
</event>
<event>
 5    1  0.1680526E-003  0.9118800E+02  0.7818608E-02  0.1130116E+00
         25   -1    0    0    0    0  0.00000000000E+00  0.00000000000E+00  0.99999998245E-14  0.12500000000E+03  0.12500000000E+03 0.  0.
        -13    1    3    3    0    0 -0.32104023594E+01 -0.26746125247E+02  0.19695283016E+02  0.33370304706E+02  0.10566000000E+00 0. -1.
         23    2    1    0    0    0 -0.69035521007E+01  0.14075161845E+02 -0.25927695320E+02  0.94701244297E+02  0.89723525756E+02 0.  0.
         13    1    3    3    0    0 -0.36931497413E+01  0.40821287092E+02 -0.45622978336E+02  0.61330939591E+02  0.10566000000E+00 0.  1.
         22    1    1    0    0    0  0.69035521007E+01 -0.14075161845E+02  0.25927695320E+02  0.30298755703E+02  0.00000000000E+00 0.  1.
</event>
<event>
 5    1  0.1680526E-003  0.9118800E+02  0.7818608E-02  0.1130116E+00
         25   -1    0    0    0    0  0.00000000000E+00  0.00000000000E+00  0.99999998245E-14  0.12500000000E+03  0.12500000000E+03 0.  0.
        -13    1    3    3    0    0  0.27277749159E+02  0.10818217636E+02 -0.40302009634E+02  0.49853511176E+02  0.10566000000E+00 0. -1.
         23    2    1    0    0    0 -0.15259208497E+02  0.64864099690E+01 -0.24457549863E+02  0.95451925553E+02  0.90763326229E+02 0.  0.
         13    1    3    3    0    0 -0.42536957655E+02 -0.43318076666E+01  0.15844459771E+02  0.45598414377E+02  0.10566000000E+00 0.  1.
         22    1    1    0    0    0  0.15259208497E+02 -0.64864099690E+01  0.24457549863E+02  0.29548074447E+02  0.00000000000E+00 0. -1.
</event>
<event>
 5    1  0.1680526E-003  0.9118800E+02  0.7818608E-02  0.1130116E+00
         25   -1    0    0    0    0  0.00000000000E+00  0.00000000000E+00  0.99999998245E-14  0.12500000000E+03  0.12500000000E+03 0.  0.
        -13    1    3    3    0    0 -0.23683013620E+02 -0.39618306737E+02  0.34474136511E+02  0.57610525211E+02  0.10566000000E+00 0.  1.
         23    2    1    0    0    0 -0.25442848659E+02 -0.10092295597E+02  0.10504010943E+02  0.95682305271E+02  0.91080054446E+02 0.  0.
         13    1    3    3    0    0 -0.17598350389E+01  0.29526011140E+02 -0.23970125568E+02  0.38071780060E+02  0.10566000000E+00 0. -1.
         22    1    1    0    0    0  0.25442848659E+02  0.10092295597E+02 -0.10504010943E+02  0.29317694729E+02  0.00000000000E+00 0.  1.
</event>
<event>
 5    1  0.1680526E-003  0.9118800E+02  0.7818608E-02  0.1130116E+00
         25   -1    0    0    0    0  0.00000000000E+00  0.00000000000E+00  0.99999998245E-14  0.12500000000E+03  0.12500000000E+03 0.  0.
        -13    1    3    3    0    0 -0.28903237145E+02 -0.11408202437E+02  0.19169875611E+02  0.36510813402E+02  0.10566000000E+00 0. -1.
         23    2    1    0    0    0  0.57467585467E+01 -0.30444160373E+02 -0.16622308551E+02  0.89840744089E+02  0.82675183836E+02 0.  0.
         13    1    3    3    0    0  0.34649995692E+02 -0.19035957936E+02 -0.35792184162E+02  0.53329930687E+02  0.10566000000E+00 0.  1.
         22    1    1    0    0    0 -0.57467585467E+01  0.30444160373E+02  0.16622308551E+02  0.35159255911E+02  0.00000000000E+00 0.  1.
</event>
<event>
 5    1  0.1680526E-003  0.9118800E+02  0.7818608E-02  0.1130116E+00
         25   -1    0    0    0    0  0.00000000000E+00  0.00000000000E+00  0.99999998245E-14  0.12500000000E+03  0.12500000000E+03 0.  0.
        -13    1    3    3    0    0 -0.31570263054E+02 -0.28269266930E+02 -0.20769510538E+02  0.47193396721E+02  0.10566000000E+00 0.  1.
         23    2    1    0    0    0  0.95758020855E+01 -0.37056677753E+01 -0.27556980860E+02  0.95592260315E+02  0.90956391083E+02 0.  0.
         13    1    3    3    0    0  0.41146065139E+02  0.24563599154E+02 -0.67874703218E+01  0.48398863595E+02  0.10566000000E+00 0. -1.
         22    1    1    0    0    0 -0.95758020855E+01  0.37056677753E+01  0.27556980860E+02  0.29407739685E+02  0.00000000000E+00 0.  1.
</event>
<event>
 5    1  0.1680526E-003  0.9118800E+02  0.7818608E-02  0.1130116E+00
         25   -1    0    0    0    0  0.00000000000E+00  0.00000000000E+00  0.99999998245E-14  0.12500000000E+03  0.12500000000E+03 0.  0.
        -13    1    3    3    0    0  0.58315277561E+01  0.41363012983E+02  0.30767246530E+02  0.51880055726E+02  0.10566000000E+00 0.  1.
         23    2    1    0    0    0  0.26489449721E+02  0.90946728145E+01  0.12367220969E+02  0.94383792289E+02  0.89280166175E+02 0.  0.
         13    1    3    3    0    0  0.20657921965E+02 -0.32268340169E+02 -0.18400025561E+02  0.42503736563E+02  0.10566000000E+00 0. -1.
         22    1    1    0    0    0 -0.26489449721E+02 -0.90946728145E+01 -0.12367220969E+02  0.30616207711E+02  0.00000000000E+00 0. -1.
</event>
