<event>
 4    1  0.1988088E-002  0.9118800E+02  0.7818608E-02  0.1130116E+00
         25   -1    0    0    0    0  0.00000000000E+00  0.00000000000E+00  0.99999998245E-14  0.12500000000E+03  0.12500000000E+03 0.  0.
        -11    1    1    0    0    0 -0.26108390801E+02 -0.68923471831E+01 -0.10903536584E+02  0.29121120003E+02  0.51100000000E-03 0. -1.
         11    1    1    0    0    0 -0.29718549376E+02 -0.11452430414E+02 -0.10197306117E+02  0.33441521970E+02  0.51100000000E-03 0.  1.
         22    1    1    0    0    0  0.55826940177E+02  0.18344777597E+02  0.21100842701E+02  0.62437358027E+02  0.00000000000E+00 0. -1.
</event>
<event>
 4    1  0.1988088E-002  0.9118800E+02  0.7818608E-02  0.1130116E+00
         25   -1    0    0    0    0  0.00000000000E+00  0.00000000000E+00  0.99999998245E-14  0.12500000000E+03  0.12500000000E+03 0.  0.
        -11    1    1    0    0    0  0.94455119714E+00  0.11292026032E+02 -0.16609563029E+02  0.20106705676E+02  0.51100000000E-03 0. -1.
         11    1    1    0    0    0  0.36450503751E+02 -0.28007296154E+02  0.37120051125E+02  0.59084228499E+02  0.51100000000E-03 0.  1.
         22    1    1    0    0    0 -0.37395054948E+02  0.16715270123E+02 -0.20510488095E+02  0.45809065825E+02  0.00000000000E+00 0.  1.
</event>
<event>
 4    1  0.1988088E-002  0.9118800E+02  0.7818608E-02  0.1130116E+00
         25   -1    0    0    0    0  0.00000000000E+00  0.00000000000E+00  0.99999998245E-14  0.12500000000E+03  0.12500000000E+03 0.  0.
        -11    1    1    0    0    0 -0.90729648451E+01 -0.22579374651E+02 -0.16053951221E+02  0.29152636257E+02  0.51100000000E-03 0.  1.
         11    1    1    0    0    0 -0.12531621000E+02 -0.24710500720E+02 -0.18595207371E+02  0.33368130127E+02  0.51100000000E-03 0. -1.
         22    1    1    0    0    0  0.21604585845E+02  0.47289875371E+02  0.34649158592E+02  0.62479233616E+02  0.00000000000E+00 0.  1.
</event>
<event>
 4    1  0.1988088E-002  0.9118800E+02  0.7818608E-02  0.1130116E+00
         25   -1    0    0    0    0  0.00000000000E+00  0.00000000000E+00  0.99999998245E-14  0.12500000000E+03  0.12500000000E+03 0.  0.
        -11    1    1    0    0    0  0.17187489362E+02  0.17582579557E+02  0.47041339156E+01  0.25033692708E+02  0.51100000000E-03 0. -1.
         11    1    1    0    0    0 -0.23109454458E+02  0.37520915838E+02  0.21747162431E+01  0.44120238005E+02  0.51100000000E-03 0.  1.
         22    1    1    0    0    0  0.59219650963E+01 -0.55103495395E+02 -0.68788501587E+01  0.55846069287E+02  0.00000000000E+00 0.  1.
</event>
<event>
 4    1  0.1988088E-002  0.9118800E+02  0.7818608E-02  0.1130116E+00
         25   -1    0    0    0    0  0.00000000000E+00  0.00000000000E+00  0.99999998245E-14  0.12500000000E+03  0.12500000000E+03 0.  0.
        -11    1    1    0    0    0  0.20294429592E+02 -0.35882983710E+02 -0.17718591231E+02  0.44870935670E+02  0.51100000000E-03 0. -1.
         11    1    1    0    0    0  0.65063900910E+01 -0.15164802284E+02 -0.63098332854E+01  0.17666871163E+02  0.51100000000E-03 0.  1.
         22    1    1    0    0    0 -0.26800819683E+02  0.51047785994E+02  0.24028424517E+02  0.62462193168E+02  0.00000000000E+00 0.  1.
</event>
<event>
 4    1  0.1988088E-002  0.9118800E+02  0.7818608E-02  0.1130116E+00
         25   -1    0    0    0    0  0.00000000000E+00  0.00000000000E+00  0.99999998245E-14  0.12500000000E+03  0.12500000000E+03 0.  0.
        -11    1    1    0    0    0  0.26660618024E+02  0.36707561370E+01 -0.32439538170E+02  0.42149574624E+02  0.51100000000E-03 0. -1.
         11    1    1    0    0    0  0.14808149863E+02  0.17284114042E+02 -0.48542269783E+01  0.23271987891E+02  0.51100000000E-03 0.  1.
         22    1    1    0    0    0 -0.41468767887E+02 -0.20954870179E+02  0.37293765148E+02  0.59578437485E+02  0.00000000000E+00 0. -1.
</event>
<event>
 4    1  0.1988088E-002  0.9118800E+02  0.7818608E-02  0.1130116E+00
         25   -1    0    0    0    0  0.00000000000E+00  0.00000000000E+00  0.99999998245E-14  0.12500000000E+03  0.12500000000E+03 0.  0.
        -11    1    1    0    0    0  0.10124565528E+02  0.13380725410E+02 -0.22403187329E+02  0.27990238341E+02  0.51100000000E-03 0.  1.
         11    1    1    0    0    0  0.12478430656E+02  0.16496592228E+02 -0.27623809817E+02  0.34509761747E+02  0.51100000000E-03 0. -1.
         22    1    1    0    0    0 -0.22602996184E+02 -0.29877317637E+02  0.50026997145E+02  0.62499999913E+02  0.00000000000E+00 0. -1.
</event>
<event>
 4    1  0.1988088E-002  0.9118800E+02  0.7818608E-02  0.1130116E+00
         25   -1    0    0    0    0  0.00000000000E+00  0.00000000000E+00  0.99999998245E-14  0.12500000000E+03  0.12500000000E+03 0.  0.
        -11    1    1    0    0    0 -0.26872258881E+02  0.29965205850E+02  0.31961780720E+02  0.51396374250E+02  0.51100000000E-03 0. -1.
         11    1    1    0    0    0 -0.58194990383E+01  0.64140653714E+01  0.69488151340E+01  0.11103730710E+02  0.51100000000E-03 0.  1.
         22    1    1    0    0    0  0.32691757919E+02 -0.36379271221E+02 -0.38910595854E+02  0.62499895041E+02  0.00000000000E+00 0. -1.
</event>
<event>
 4    1  0.1988088E-002  0.9118800E+02  0.7818608E-02  0.1130116E+00
         25   -1    0    0    0    0  0.00000000000E+00  0.00000000000E+00  0.99999998245E-14  0.12500000000E+03  0.12500000000E+03 0.  0.
        -11    1    1    0    0    0 -0.23653552604E+02  0.45370272548E+01  0.37100827238E+02  0.44232867295E+02  0.51100000000E-03 0. -1.
         11    1    1    0    0    0 -0.97797441596E+01  0.18690092995E+01  0.15315078029E+02  0.18267134611E+02  0.51100000000E-03 0.  1.
         22    1    1    0    0    0  0.33433296764E+02 -0.64060365543E+01 -0.52415905267E+02  0.62499998094E+02  0.00000000000E+00 0. -1.
</event>
<event>
 4    1  0.1988088E-002  0.9118800E+02  0.7818608E-02  0.1130116E+00
         25   -1    0    0    0    0  0.00000000000E+00  0.00000000000E+00  0.99999998245E-14  0.12500000000E+03  0.12500000000E+03 0.  0.
        -11    1    1    0    0    0 -0.26780680926E+02 -0.37821291640E+01  0.34140778899E+02  0.43555736200E+02  0.51100000000E-03 0.  1.
         11    1    1    0    0    0 -0.11639298731E+02 -0.16489817089E+01  0.14855731620E+02  0.18944265038E+02  0.51100000000E-03 0. -1.
         22    1    1    0    0    0  0.38419979657E+02  0.54311108730E+01 -0.48996510518E+02  0.62499998761E+02  0.00000000000E+00 0.  1.
</event>
<event>
 4    1  0.1988088E-002  0.9118800E+02  0.7818608E-02  0.1130116E+00
         25   -1    0    0    0    0  0.00000000000E+00  0.00000000000E+00  0.99999998245E-14  0.12500000000E+03  0.12500000000E+03 0.  0.
        -11    1    1    0    0    0  0.35344642984E+02  0.33778051997E+02 -0.30711350287E+01  0.48986043471E+02  0.51100000000E-03 0.  1.
         11    1    1    0    0    0  0.10089450693E+02  0.88934534839E+01 -0.14050839088E+01  0.13522750874E+02  0.51100000000E-03 0. -1.
         22    1    1    0    0    0 -0.45434093676E+02 -0.42671505481E+02  0.44762189374E+01  0.62491205655E+02  0.00000000000E+00 0.  1.
</event>
<event>
 4    1  0.1988088E-002  0.9118800E+02  0.7818608E-02  0.1130116E+00
         25   -1    0    0    0    0  0.00000000000E+00  0.00000000000E+00  0.99999998245E-14  0.12500000000E+03  0.12500000000E+03 0.  0.
        -11    1    1    0    0    0  0.58057887384E+01  0.37656980507E+02  0.45331765371E+01  0.38370627484E+02  0.51100000000E-03 0. -1.
         11    1    1    0    0    0  0.46911551426E+01 -0.10773726204E+02 -0.39546320706E+02  0.41255200818E+02  0.51100000000E-03 0.  1.
         22    1    1    0    0    0 -0.10496943881E+02 -0.26883254302E+02  0.35013144169E+02  0.45374171698E+02  0.00000000000E+00 0.  1.
</event>
<event>
 4    1  0.1988088E-002  0.9118800E+02  0.7818608E-02  0.1130116E+00
         25   -1    0    0    0    0  0.00000000000E+00  0.00000000000E+00  0.99999998245E-14  0.12500000000E+03  0.12500000000E+03 0.  0.
        -11    1    1    0    0    0  0.42385666099E+02  0.73809052828E+01  0.76030552064E+01  0.43690146512E+02  0.51100000000E-03 0. -1.
         11    1    1    0    0    0  0.18771747458E+02 -0.48925015047E+01 -0.50653084883E+01  0.20049249959E+02  0.51100000000E-03 0.  1.
         22    1    1    0    0    0 -0.61157413557E+02 -0.24884037781E+01 -0.25377467181E+01  0.61260603529E+02  0.00000000000E+00 0. -1.
</event>
<event>
 4    1  0.1988088E-002  0.9118800E+02  0.7818608E-02  0.1130116E+00
         25   -1    0    0    0    0  0.00000000000E+00  0.00000000000E+00  0.99999998245E-14  0.12500000000E+03  0.12500000000E+03 0.  0.
        -11    1    1    0    0    0 -0.55400926421E+01  0.12028038520E+01  0.15646185102E+02  0.16641588629E+02  0.51100000000E-03 0. -1.
         11    1    1    0    0    0 -0.15244735260E+02  0.33408681974E+01  0.43121116642E+02  0.45858413123E+02  0.51100000000E-03 0.  1.
         22    1    1    0    0    0  0.20784827902E+02 -0.45436720494E+01 -0.58767301744E+02  0.62499998247E+02  0.00000000000E+00 0.  1.
</event>
<event>
 4    1  0.1988088E-002  0.9118800E+02  0.7818608E-02  0.1130116E+00
         25   -1    0    0    0    0  0.00000000000E+00  0.00000000000E+00  0.99999998245E-14  0.12500000000E+03  0.12500000000E+03 0.  0.
        -11    1    1    0    0    0 -0.34366552050E+02 -0.63148920195E+01  0.29498634239E+02  0.45728625425E+02  0.51100000000E-03 0.  1.
         11    1    1    0    0    0 -0.12604050399E+02 -0.23162971122E+01  0.10819042763E+02  0.16771374581E+02  0.51100000000E-03 0.  1.
         22    1    1    0    0    0  0.46970602449E+02  0.86311891316E+01 -0.40317677003E+02  0.62499999993E+02  0.00000000000E+00 0.  1.
</event>
<event>
 4    1  0.1988088E-002  0.9118800E+02  0.7818608E-02  0.1130116E+00
         25   -1    0    0    0    0  0.00000000000E+00  0.00000000000E+00  0.99999998245E-14  0.12500000000E+03  0.12500000000E+03 0.  0.
        -11    1    1    0    0    0 -0.40811527446E+01 -0.31560889588E+02  0.22194793507E+01  0.31900966258E+02  0.51100000000E-03 0. -1.
         11    1    1    0    0    0 -0.60041708409E+01 -0.30046278924E+02 -0.27523660610E+00  0.30641551855E+02  0.51100000000E-03 0.  1.
         22    1    1    0    0    0  0.10085323585E+02  0.61607168512E+02 -0.19442427446E+01  0.62457481887E+02  0.00000000000E+00 0.  1.
</event>
<event>
 4    1  0.1988088E-002  0.9118800E+02  0.7818608E-02  0.1130116E+00
         25   -1    0    0    0    0  0.00000000000E+00  0.00000000000E+00  0.99999998245E-14  0.12500000000E+03  0.12500000000E+03 0.  0.
        -11    1    1    0    0    0  0.18330548379E+01  0.10668331594E+02 -0.83849906657E+01  0.13692386854E+02  0.51100000000E-03 0. -1.
         11    1    1    0    0    0  0.65130325698E+01  0.38024734053E+02 -0.29897878967E+02  0.48807613751E+02  0.51100000000E-03 0.  1.
         22    1    1    0    0    0 -0.83460874077E+01 -0.48693065647E+02  0.38282869632E+02  0.62499999395E+02  0.00000000000E+00 0.  1.
</event>
<event>
 4    1  0.1988088E-002  0.9118800E+02  0.7818608E-02  0.1130116E+00
         25   -1    0    0    0    0  0.00000000000E+00  0.00000000000E+00  0.99999998245E-14  0.12500000000E+03  0.12500000000E+03 0.  0.
        -11    1    1    0    0    0  0.81601771050E+01 -0.60210097292E+01 -0.20513320115E+01  0.10346449238E+02  0.51100000000E-03 0. -1.
         11    1    1    0    0    0  0.12128432497E+02 -0.42207726193E+02 -0.30101182237E+02  0.53241639696E+02  0.51100000000E-03 0.  1.
         22    1    1    0    0    0 -0.20288609602E+02  0.48228735923E+02  0.32152514248E+02  0.61411911066E+02  0.00000000000E+00 0.  1.
</event>
<event>
 4    1  0.1988088E-002  0.9118800E+02  0.7818608E-02  0.1130116E+00
         25   -1    0    0    0    0  0.00000000000E+00  0.00000000000E+00  0.99999998245E-14  0.12500000000E+03  0.12500000000E+03 0.  0.
        -11    1    1    0    0    0 -0.10607340920E+02 -0.24492294962E+01 -0.96297805081E+01  0.14534341382E+02  0.51100000000E-03 0. -1.
         11    1    1    0    0    0 -0.21056197281E+02 -0.35323121571E+02 -0.26879562953E+02  0.49128375368E+02  0.51100000000E-03 0.  1.
         22    1    1    0    0    0  0.31663538201E+02  0.37772351067E+02  0.36509343461E+02  0.61337283250E+02  0.00000000000E+00 0.  1.
</event>
<event>
 4    1  0.1988088E-002  0.9118800E+02  0.7818608E-02  0.1130116E+00
         25   -1    0    0    0    0  0.00000000000E+00  0.00000000000E+00  0.99999998245E-14  0.12500000000E+03  0.12500000000E+03 0.  0.
        -11    1    1    0    0    0 -0.99133402612E+01 -0.43138804870E+02 -0.16557607588E+02  0.47258704701E+02  0.51100000000E-03 0. -1.
         11    1    1    0    0    0 -0.24812591313E+01 -0.14048333571E+02 -0.53838862165E+01  0.15247903267E+02  0.51100000000E-03 0.  1.
         22    1    1    0    0    0  0.12394599393E+02  0.57187138441E+02  0.21941493805E+02  0.62493392031E+02  0.00000000000E+00 0. -1.
</event>
<event>
 4    1  0.1988088E-002  0.9118800E+02  0.7818608E-02  0.1130116E+00
         25   -1    0    0    0    0  0.00000000000E+00  0.00000000000E+00  0.99999998245E-14  0.12500000000E+03  0.12500000000E+03 0.  0.
        -11    1    1    0    0    0 -0.30061308108E+02 -0.53336730939E+01 -0.49624503320E+02  0.58264239838E+02  0.51100000000E-03 0. -1.
         11    1    1    0    0    0 -0.68165026387E+00 -0.27035632260E+01 -0.37171612306E+01  0.46466320141E+01  0.51100000000E-03 0.  1.
         22    1    1    0    0    0  0.30742958372E+02  0.80372363199E+01  0.53341664551E+02  0.62089128148E+02  0.00000000000E+00 0. -1.
</event>
<event>
 4    1  0.1988088E-002  0.9118800E+02  0.7818608E-02  0.1130116E+00
         25   -1    0    0    0    0  0.00000000000E+00  0.00000000000E+00  0.99999998245E-14  0.12500000000E+03  0.12500000000E+03 0.  0.
        -11    1    1    0    0    0 -0.15053315636E+02 -0.29827988647E+01  0.13086621255E+02  0.20168268563E+02  0.51100000000E-03 0.  1.
         11    1    1    0    0    0 -0.29494143077E+02 -0.49898600831E+01  0.29986150665E+02  0.42355311490E+02  0.51100000000E-03 0. -1.
         22    1    1    0    0    0  0.44547458712E+02  0.79726589478E+01 -0.43072771920E+02  0.62476419946E+02  0.00000000000E+00 0. -1.
</event>
<event>
 4    1  0.1988088E-002  0.9118800E+02  0.7818608E-02  0.1130116E+00
         25   -1    0    0    0    0  0.00000000000E+00  0.00000000000E+00  0.99999998245E-14  0.12500000000E+03  0.12500000000E+03 0.  0.
        -11    1    1    0    0    0 -0.84449881409E+01 -0.15979991046E+02 -0.36632643491E+02  0.40848849530E+02  0.51100000000E-03 0.  1.
         11    1    1    0    0    0 -0.43621730891E+01 -0.84950414083E+01 -0.19431483646E+02  0.21651254918E+02  0.51100000000E-03 0. -1.
         22    1    1    0    0    0  0.12807161230E+02  0.24475032454E+02  0.56064127137E+02  0.62499895552E+02  0.00000000000E+00 0.  1.
</event>
<event>
 4    1  0.1988088E-002  0.9118800E+02  0.7818608E-02  0.1130116E+00
         25   -1    0    0    0    0  0.00000000000E+00  0.00000000000E+00  0.99999998245E-14  0.12500000000E+03  0.12500000000E+03 0.  0.
        -11    1    1    0    0    0  0.25378489553E+01 -0.13120552248E+02  0.46244228616E+02  0.48136454473E+02  0.51100000000E-03 0.  1.
         11    1    1    0    0    0  0.13054175857E+01 -0.17006600937E+01  0.14276207696E+02  0.14436289906E+02  0.51100000000E-03 0. -1.
         22    1    1    0    0    0 -0.38432665411E+01  0.14821212342E+02 -0.60520436312E+02  0.62427255621E+02  0.00000000000E+00 0.  1.
</event>
<event>
 4    1  0.1988088E-002  0.9118800E+02  0.7818608E-02  0.1130116E+00
         25   -1    0    0    0    0  0.00000000000E+00  0.00000000000E+00  0.99999998245E-14  0.12500000000E+03  0.12500000000E+03 0.  0.
        -11    1    1    0    0    0 -0.15310614203E+02 -0.86385974485E+01  0.21581697048E+02  0.27835407683E+02  0.51100000000E-03 0.  1.
         11    1    1    0    0    0 -0.14693054793E+02 -0.11855116438E+02  0.29170350556E+02  0.34746783977E+02  0.51100000000E-03 0. -1.
         22    1    1    0    0    0  0.30003668995E+02  0.20493713886E+02 -0.50752047604E+02  0.62417808341E+02  0.00000000000E+00 0. -1.
</event>
<event>
 4    1  0.1988088E-002  0.9118800E+02  0.7818608E-02  0.1130116E+00
         25   -1    0    0    0    0  0.00000000000E+00  0.00000000000E+00  0.99999998245E-14  0.12500000000E+03  0.12500000000E+03 0.  0.
        -11    1    1    0    0    0  0.54582962715E+01 -0.22034058774E+02 -0.43867061347E+02  0.49392426704E+02  0.51100000000E-03 0. -1.
         11    1    1    0    0    0  0.14094642657E+01 -0.58575166723E+01 -0.11640963442E+02  0.13107597843E+02  0.51100000000E-03 0.  1.
         22    1    1    0    0    0 -0.68677605371E+01  0.27891575446E+02  0.55508024789E+02  0.62499975453E+02  0.00000000000E+00 0.  1.
</event>
<event>
 4    1  0.1988088E-002  0.9118800E+02  0.7818608E-02  0.1130116E+00
         25   -1    0    0    0    0  0.00000000000E+00  0.00000000000E+00  0.99999998245E-14  0.12500000000E+03  0.12500000000E+03 0.  0.
        -11    1    1    0    0    0  0.63275774513E+01  0.12734746419E+01  0.34568322420E+01  0.73218620225E+01  0.51100000000E-03 0. -1.
         11    1    1    0    0    0  0.47684526300E+02  0.95928011906E+01  0.26053618364E+02  0.55178138001E+02  0.51100000000E-03 0.  1.
         22    1    1    0    0    0 -0.54012103751E+02 -0.10866275833E+02 -0.29510450606E+02  0.62499999977E+02  0.00000000000E+00 0.  1.
</event>
<event>
 4    1  0.1988088E-002  0.9118800E+02  0.7818608E-02  0.1130116E+00
         25   -1    0    0    0    0  0.00000000000E+00  0.00000000000E+00  0.99999998245E-14  0.12500000000E+03  0.12500000000E+03 0.  0.
        -11    1    1    0    0    0 -0.14041202783E+01  0.10582059966E+01  0.23188449855E+01  0.29100508612E+01  0.51100000000E-03 0. -1.
         11    1    1    0    0    0 -0.28692149687E+02  0.21704386988E+02  0.47504129255E+02  0.59589950199E+02  0.51100000000E-03 0.  1.
         22    1    1    0    0    0  0.30096269965E+02 -0.22762592985E+02 -0.49822974241E+02  0.62499998939E+02  0.00000000000E+00 0.  1.
</event>
<event>
 4    1  0.1988088E-002  0.9118800E+02  0.7818608E-02  0.1130116E+00
         25   -1    0    0    0    0  0.00000000000E+00  0.00000000000E+00  0.99999998245E-14  0.12500000000E+03  0.12500000000E+03 0.  0.
        -11    1    1    0    0    0 -0.84185078418E+00 -0.18271915898E+01 -0.78506583403E+00  0.21595533041E+01  0.51100000000E-03 0.  1.
         11    1    1    0    0    0 -0.19170111920E+02 -0.52103366460E+02 -0.23645555959E+02  0.60343734590E+02  0.51100000000E-03 0. -1.
         22    1    1    0    0    0  0.20011962704E+02  0.53930558049E+02  0.24430621793E+02  0.62496712105E+02  0.00000000000E+00 0. -1.
</event>
<event>
 4    1  0.1988088E-002  0.9118800E+02  0.7818608E-02  0.1130116E+00
         25   -1    0    0    0    0  0.00000000000E+00  0.00000000000E+00  0.99999998245E-14  0.12500000000E+03  0.12500000000E+03 0.  0.
        -11    1    1    0    0    0  0.14739445048E+02  0.18628305609E+02 -0.58342958347E+01  0.24460253849E+02  0.51100000000E-03 0.  1.
         11    1    1    0    0    0  0.22870531492E+02  0.29001481766E+02 -0.91036272268E+01  0.38039757942E+02  0.51100000000E-03 0. -1.
         22    1    1    0    0    0 -0.37609976539E+02 -0.47629787376E+02  0.14937923062E+02  0.62499988209E+02  0.00000000000E+00 0. -1.
</event>
<event>
 4    1  0.1988088E-002  0.9118800E+02  0.7818608E-02  0.1130116E+00
         25   -1    0    0    0    0  0.00000000000E+00  0.00000000000E+00  0.99999998245E-14  0.12500000000E+03  0.12500000000E+03 0.  0.
        -11    1    1    0    0    0 -0.77643743498E+01  0.26736215012E+02 -0.55591820457E+00  0.27846359681E+02  0.51100000000E-03 0. -1.
         11    1    1    0    0    0 -0.97428082539E+01  0.33246607930E+02 -0.78684906176E+00  0.34653692202E+02  0.51100000000E-03 0.  1.
         22    1    1    0    0    0  0.17507182604E+02 -0.59982822941E+02  0.13427672663E+01  0.62499948117E+02  0.00000000000E+00 0. -1.
</event>
<event>
 4    1  0.1988088E-002  0.9118800E+02  0.7818608E-02  0.1130116E+00
         25   -1    0    0    0    0  0.00000000000E+00  0.00000000000E+00  0.99999998245E-14  0.12500000000E+03  0.12500000000E+03 0.  0.
        -11    1    1    0    0    0 -0.20770890218E+02 -0.97119839233E+01 -0.56234919196E-02  0.22929294452E+02  0.51100000000E-03 0.  1.
         11    1    1    0    0    0 -0.35899399463E+02 -0.16643873705E+02 -0.26519085446E+00  0.39570895114E+02  0.51100000000E-03 0. -1.
         22    1    1    0    0    0  0.56670289681E+02  0.26355857628E+02  0.27081434638E+00  0.62499810434E+02  0.00000000000E+00 0. -1.
</event>
<event>
 4    1  0.1988088E-002  0.9118800E+02  0.7818608E-02  0.1130116E+00
         25   -1    0    0    0    0  0.00000000000E+00  0.00000000000E+00  0.99999998245E-14  0.12500000000E+03  0.12500000000E+03 0.  0.
        -11    1    1    0    0    0  0.30342238027E+01 -0.25556057937E+01 -0.18909866326E+00  0.39715731925E+01  0.51100000000E-03 0. -1.
         11    1    1    0    0    0  0.42544272564E+02 -0.40116434829E+02  0.27472917893E+01  0.58539653944E+02  0.51100000000E-03 0.  1.
         22    1    1    0    0    0 -0.45578496367E+02  0.42672040623E+02 -0.25581931260E+01  0.62488772864E+02  0.00000000000E+00 0.  1.
</event>
<event>
 4    1  0.1988088E-002  0.9118800E+02  0.7818608E-02  0.1130116E+00
         25   -1    0    0    0    0  0.00000000000E+00  0.00000000000E+00  0.99999998245E-14  0.12500000000E+03  0.12500000000E+03 0.  0.
        -11    1    1    0    0    0 -0.21198417126E+02  0.36930050393E+02  0.11474114700E+02  0.44100530826E+02  0.51100000000E-03 0.  1.
         11    1    1    0    0    0 -0.64881083015E+01  0.11148594266E+02  0.14698015057E+02  0.19555519689E+02  0.51100000000E-03 0. -1.
         22    1    1    0    0    0  0.27686525428E+02 -0.48078644659E+02 -0.26172129757E+02  0.61343949486E+02  0.00000000000E+00 0.  1.
</event>
<event>
 4    1  0.1988088E-002  0.9118800E+02  0.7818608E-02  0.1130116E+00
         25   -1    0    0    0    0  0.00000000000E+00  0.00000000000E+00  0.99999998245E-14  0.12500000000E+03  0.12500000000E+03 0.  0.
        -11    1    1    0    0    0 -0.24691538824E+02  0.34868457454E+02  0.35326013578E+02  0.55438331958E+02  0.51100000000E-03 0. -1.
         11    1    1    0    0    0 -0.31773636549E+01  0.44750633694E+01  0.44438351453E+01  0.70618342529E+01  0.51100000000E-03 0.  1.
         22    1    1    0    0    0  0.27868902479E+02 -0.39343520824E+02 -0.39769848723E+02  0.62499833789E+02  0.00000000000E+00 0. -1.
</event>
<event>
 4    1  0.1988088E-002  0.9118800E+02  0.7818608E-02  0.1130116E+00
         25   -1    0    0    0    0  0.00000000000E+00  0.00000000000E+00  0.99999998245E-14  0.12500000000E+03  0.12500000000E+03 0.  0.
        -11    1    1    0    0    0 -0.33874449522E+02  0.37649007115E+02 -0.13245302809E+02  0.52348487217E+02  0.51100000000E-03 0.  1.
         11    1    1    0    0    0 -0.65917174859E+01  0.72876236776E+01 -0.25482301939E+01  0.10151535631E+02  0.51100000000E-03 0. -1.
         22    1    1    0    0    0  0.40466167008E+02 -0.44936630793E+02  0.15793533003E+02  0.62499977152E+02  0.00000000000E+00 0.  1.
</event>
<event>
 4    1  0.1988088E-002  0.9118800E+02  0.7818608E-02  0.1130116E+00
         25   -1    0    0    0    0  0.00000000000E+00  0.00000000000E+00  0.99999998245E-14  0.12500000000E+03  0.12500000000E+03 0.  0.
        -11    1    1    0    0    0  0.12944652316E+02  0.35893705584E+02  0.33074496631E+02  0.50495984511E+02  0.51100000000E-03 0.  1.
         11    1    1    0    0    0  0.30713601494E+01  0.85418393034E+01  0.78549466356E+01  0.12004018442E+02  0.51100000000E-03 0. -1.
         22    1    1    0    0    0 -0.16016012466E+02 -0.44435544887E+02 -0.40929443266E+02  0.62499997047E+02  0.00000000000E+00 0.  1.
</event>
<event>
 4    1  0.1988088E-002  0.9118800E+02  0.7818608E-02  0.1130116E+00
         25   -1    0    0    0    0  0.00000000000E+00  0.00000000000E+00  0.99999998245E-14  0.12500000000E+03  0.12500000000E+03 0.  0.
        -11    1    1    0    0    0  0.52093704071E+00  0.26787283817E+02  0.20062281952E+02  0.33471257925E+02  0.51100000000E-03 0.  1.
         11    1    1    0    0    0  0.11701646925E+00  0.22865776450E+02  0.17886865437E+02  0.29030972787E+02  0.51100000000E-03 0. -1.
         22    1    1    0    0    0 -0.63795350996E+00 -0.49653060266E+02 -0.37949147389E+02  0.62497769289E+02  0.00000000000E+00 0.  1.
</event>
<event>
 4    1  0.1988088E-002  0.9118800E+02  0.7818608E-02  0.1130116E+00
         25   -1    0    0    0    0  0.00000000000E+00  0.00000000000E+00  0.99999998245E-14  0.12500000000E+03  0.12500000000E+03 0.  0.
        -11    1    1    0    0    0  0.90495751244E+01  0.41566867544E+02 -0.36318984475E+02  0.55935390594E+02  0.51100000000E-03 0. -1.
         11    1    1    0    0    0  0.10636669444E+01  0.48783272804E+01 -0.42619987500E+01  0.65646095108E+01  0.51100000000E-03 0.  1.
         22    1    1    0    0    0 -0.10113242069E+02 -0.46445194824E+02  0.40580983225E+02  0.62499999895E+02  0.00000000000E+00 0. -1.
</event>
<event>
 4    1  0.1988088E-002  0.9118800E+02  0.7818608E-02  0.1130116E+00
         25   -1    0    0    0    0  0.00000000000E+00  0.00000000000E+00  0.99999998245E-14  0.12500000000E+03  0.12500000000E+03 0.  0.
        -11    1    1    0    0    0 -0.16403921374E+02 -0.12484271581E+02 -0.18735942373E+02  0.27856439295E+02  0.51100000000E-03 0.  1.
         11    1    1    0    0    0 -0.20399480286E+02 -0.15526608856E+02 -0.23301543304E+02  0.34643560717E+02  0.51100000000E-03 0.  1.
         22    1    1    0    0    0  0.36803401659E+02  0.28010880437E+02  0.42037485677E+02  0.62499999989E+02  0.00000000000E+00 0.  1.
</event>
<event>
 4    1  0.1988088E-002  0.9118800E+02  0.7818608E-02  0.1130116E+00
         25   -1    0    0    0    0  0.00000000000E+00  0.00000000000E+00  0.99999998245E-14  0.12500000000E+03  0.12500000000E+03 0.  0.
        -11    1    1    0    0    0 -0.33498566170E+00  0.79895077212E+01 -0.75267084967E+01  0.10981611452E+02  0.51100000000E-03 0.  1.
         11    1    1    0    0    0 -0.12003937217E+02  0.46012053824E+02 -0.20683214425E+02  0.51855558671E+02  0.51100000000E-03 0. -1.
         22    1    1    0    0    0  0.12338922878E+02 -0.54001561545E+02  0.28209922922E+02  0.62162829878E+02  0.00000000000E+00 0. -1.
</event>
<event>
 4    1  0.1988088E-002  0.9118800E+02  0.7818608E-02  0.1130116E+00
         25   -1    0    0    0    0  0.00000000000E+00  0.00000000000E+00  0.99999998245E-14  0.12500000000E+03  0.12500000000E+03 0.  0.
        -11    1    1    0    0    0  0.15325139593E+02 -0.18671532693E+02 -0.47726009127E+01  0.24622423853E+02  0.51100000000E-03 0. -1.
         11    1    1    0    0    0  0.23555114396E+02 -0.28771872173E+02 -0.72146012300E+01  0.37877625502E+02  0.51100000000E-03 0.  1.
         22    1    1    0    0    0 -0.38880253989E+02  0.47443404865E+02  0.11987202143E+02  0.62499950645E+02  0.00000000000E+00 0.  1.
</event>
<event>
 4    1  0.1988088E-002  0.9118800E+02  0.7818608E-02  0.1130116E+00
         25   -1    0    0    0    0  0.00000000000E+00  0.00000000000E+00  0.99999998245E-14  0.12500000000E+03  0.12500000000E+03 0.  0.
        -11    1    1    0    0    0 -0.46801625440E+02  0.16480236193E+02 -0.14370268170E+02  0.51657477061E+02  0.51100000000E-03 0. -1.
         11    1    1    0    0    0 -0.98234880673E+01  0.34607604428E+01 -0.30137230580E+01  0.10842523119E+02  0.51100000000E-03 0.  1.
         22    1    1    0    0    0  0.56625113507E+02 -0.19940996635E+02  0.17383991228E+02  0.62499999820E+02  0.00000000000E+00 0. -1.
</event>
<event>
 4    1  0.1988088E-002  0.9118800E+02  0.7818608E-02  0.1130116E+00
         25   -1    0    0    0    0  0.00000000000E+00  0.00000000000E+00  0.99999998245E-14  0.12500000000E+03  0.12500000000E+03 0.  0.
        -11    1    1    0    0    0  0.10700627489E+02  0.32719065463E+02 -0.51738244438E+02  0.62144079454E+02  0.51100000000E-03 0.  1.
         11    1    1    0    0    0  0.79423567684E-01  0.21318676090E+00 -0.27503231130E+00  0.35693098984E+00  0.51100000000E-03 0. -1.
         22    1    1    0    0    0 -0.10780051057E+02 -0.32932252224E+02  0.52013276749E+02  0.62498989556E+02  0.00000000000E+00 0.  1.
</event>
<event>
 4    1  0.1988088E-002  0.9118800E+02  0.7818608E-02  0.1130116E+00
         25   -1    0    0    0    0  0.00000000000E+00  0.00000000000E+00  0.99999998245E-14  0.12500000000E+03  0.12500000000E+03 0.  0.
        -11    1    1    0    0    0 -0.48011670751E+02 -0.21217332229E+01  0.28795422751E+02  0.56024982390E+02  0.51100000000E-03 0.  1.
         11    1    1    0    0    0 -0.55490895159E+01 -0.24489246766E+00  0.33276848200E+01  0.64750176292E+01  0.51100000000E-03 0.  1.
         22    1    1    0    0    0  0.53560760267E+02  0.23666256905E+01 -0.32123107571E+02  0.62499999980E+02  0.00000000000E+00 0.  1.
</event>
<event>
 4    1  0.1988088E-002  0.9118800E+02  0.7818608E-02  0.1130116E+00
         25   -1    0    0    0    0  0.00000000000E+00  0.00000000000E+00  0.99999998245E-14  0.12500000000E+03  0.12500000000E+03 0.  0.
        -11    1    1    0    0    0 -0.12070486205E+02 -0.88930488797E+00 -0.96701987526E+01  0.15491941279E+02  0.51100000000E-03 0.  1.
         11    1    1    0    0    0 -0.36623679324E+02 -0.27020908769E+01 -0.29345568761E+02  0.47008058762E+02  0.51100000000E-03 0.  1.
         22    1    1    0    0    0  0.48694165530E+02  0.35913957649E+01  0.39015767514E+02  0.62499999959E+02  0.00000000000E+00 0.  1.
</event>
<event>
 4    1  0.1988088E-002  0.9118800E+02  0.7818608E-02  0.1130116E+00
         25   -1    0    0    0    0  0.00000000000E+00  0.00000000000E+00  0.99999998245E-14  0.12500000000E+03  0.12500000000E+03 0.  0.
        -11    1    1    0    0    0 -0.14128273081E+02 -0.83567710676E+01  0.34895119744E+01  0.16781549899E+02  0.51100000000E-03 0.  1.
         11    1    1    0    0    0 -0.38491829791E+02 -0.22761951487E+02  0.95104831156E+01  0.45718450165E+02  0.51100000000E-03 0. -1.
         22    1    1    0    0    0  0.52620102872E+02  0.31118722555E+02 -0.12999995090E+02  0.62499999936E+02  0.00000000000E+00 0.  1.
</event>
<event>
 4    1  0.1988088E-002  0.9118800E+02  0.7818608E-02  0.1130116E+00
         25   -1    0    0    0    0  0.00000000000E+00  0.00000000000E+00  0.99999998245E-14  0.12500000000E+03  0.12500000000E+03 0.  0.
        -11    1    1    0    0    0  0.21949624798E+02  0.15352387071E+02  0.12237389056E+02  0.29448862605E+02  0.51100000000E-03 0. -1.
         11    1    1    0    0    0  0.25299952265E+02  0.15634590794E+02  0.14445524312E+02  0.33063593072E+02  0.51100000000E-03 0.  1.
         22    1    1    0    0    0 -0.47249577063E+02 -0.30986977864E+02 -0.26682913368E+02  0.62487544324E+02  0.00000000000E+00 0.  1.
</event>
<event>
 4    1  0.1988088E-002  0.9118800E+02  0.7818608E-02  0.1130116E+00
         25   -1    0    0    0    0  0.00000000000E+00  0.00000000000E+00  0.99999998245E-14  0.12500000000E+03  0.12500000000E+03 0.  0.
        -11    1    1    0    0    0  0.25338338828E+01  0.23283852420E+02 -0.39159558263E+01  0.23746427268E+02  0.51100000000E-03 0.  1.
         11    1    1    0    0    0  0.27922460226E+01  0.37561102989E+02 -0.92256434477E+01  0.38778158709E+02  0.51100000000E-03 0. -1.
         22    1    1    0    0    0 -0.53260799054E+01 -0.60844955409E+02  0.13141599274E+02  0.62475414023E+02  0.00000000000E+00 0. -1.
</event>
<event>
 4    1  0.1988088E-002  0.9118800E+02  0.7818608E-02  0.1130116E+00
         25   -1    0    0    0    0  0.00000000000E+00  0.00000000000E+00  0.99999998245E-14  0.12500000000E+03  0.12500000000E+03 0.  0.
        -11    1    1    0    0    0  0.52525368752E+00 -0.16204137713E+00  0.58652204928E+00  0.80383905079E+00  0.51100000000E-03 0. -1.
         11    1    1    0    0    0  0.40294474421E+02 -0.12327109506E+02  0.45064554619E+02  0.61696161800E+02  0.51100000000E-03 0.  1.
         22    1    1    0    0    0 -0.40819728108E+02  0.12489150883E+02 -0.45651076669E+02  0.62499999149E+02  0.00000000000E+00 0.  1.
</event>
<event>
 4    1  0.1988088E-002  0.9118800E+02  0.7818608E-02  0.1130116E+00
         25   -1    0    0    0    0  0.00000000000E+00  0.00000000000E+00  0.99999998245E-14  0.12500000000E+03  0.12500000000E+03 0.  0.
        -11    1    1    0    0    0  0.19571791259E+02  0.15254225569E+02 -0.12256659249E+01  0.24844489691E+02  0.51100000000E-03 0.  1.
         11    1    1    0    0    0  0.29664569290E+02  0.23119388247E+02 -0.18559831103E+01  0.37655510323E+02  0.51100000000E-03 0. -1.
         22    1    1    0    0    0 -0.49236360549E+02 -0.38373613816E+02  0.30816490352E+01  0.62499999986E+02  0.00000000000E+00 0. -1.
</event>
<event>
 4    1  0.1988088E-002  0.9118800E+02  0.7818608E-02  0.1130116E+00
         25   -1    0    0    0    0  0.00000000000E+00  0.00000000000E+00  0.99999998245E-14  0.12500000000E+03  0.12500000000E+03 0.  0.
        -11    1    1    0    0    0 -0.12671853891E+01 -0.90478085458E+00  0.78222754619E+00  0.17424888523E+01  0.51100000000E-03 0.  1.
         11    1    1    0    0    0 -0.44205759472E+02 -0.31510315522E+02  0.27284171930E+02  0.60757511412E+02  0.51100000000E-03 0.  1.
         22    1    1    0    0    0  0.45472944861E+02  0.32415096377E+02 -0.28066399476E+02  0.62499999736E+02  0.00000000000E+00 0.  1.
</event>
<event>
 4    1  0.1988088E-002  0.9118800E+02  0.7818608E-02  0.1130116E+00
         25   -1    0    0    0    0  0.00000000000E+00  0.00000000000E+00  0.99999998245E-14  0.12500000000E+03  0.12500000000E+03 0.  0.
        -11    1    1    0    0    0  0.22399152586E+01  0.72745135885E+01  0.22524931726E+01  0.79378519808E+01  0.51100000000E-03 0. -1.
         11    1    1    0    0    0  0.15314282024E+02  0.49890807785E+02  0.15919213974E+02  0.54562270015E+02  0.51100000000E-03 0.  1.
         22    1    1    0    0    0 -0.17554197283E+02 -0.57165321373E+02 -0.18171707147E+02  0.62499878005E+02  0.00000000000E+00 0.  1.
</event>
<event>
 4    1  0.1988088E-002  0.9118800E+02  0.7818608E-02  0.1130116E+00
         25   -1    0    0    0    0  0.00000000000E+00  0.00000000000E+00  0.99999998245E-14  0.12500000000E+03  0.12500000000E+03 0.  0.
        -11    1    1    0    0    0 -0.42981261643E+02 -0.86660457930E+01  0.28328872272E+02  0.52201668619E+02  0.51100000000E-03 0.  1.
         11    1    1    0    0    0 -0.84767058994E+01 -0.17203843684E+01  0.55894020419E+01  0.10298333881E+02  0.51100000000E-03 0. -1.
         22    1    1    0    0    0  0.51457967542E+02  0.10386430161E+02 -0.33918274314E+02  0.62499997500E+02  0.00000000000E+00 0.  1.
</event>
<event>
 4    1  0.1988088E-002  0.9118800E+02  0.7818608E-02  0.1130116E+00
         25   -1    0    0    0    0  0.00000000000E+00  0.00000000000E+00  0.99999998245E-14  0.12500000000E+03  0.12500000000E+03 0.  0.
        -11    1    1    0    0    0 -0.24643956369E+01 -0.69889595969E+01 -0.80972234776E-01  0.74111644743E+01  0.51100000000E-03 0. -1.
         11    1    1    0    0    0 -0.18323216447E+02 -0.51948778716E+02 -0.60326694298E+00  0.55088835551E+02  0.51100000000E-03 0. -1.
         22    1    1    0    0    0  0.20787612084E+02  0.58937738313E+02  0.68423917776E+00  0.62499999975E+02  0.00000000000E+00 0. -1.
</event>
<event>
 4    1  0.1988088E-002  0.9118800E+02  0.7818608E-02  0.1130116E+00
         25   -1    0    0    0    0  0.00000000000E+00  0.00000000000E+00  0.99999998245E-14  0.12500000000E+03  0.12500000000E+03 0.  0.
        -11    1    1    0    0    0 -0.86137415447E+01 -0.12996305650E+02  0.69599992770E+01  0.17074603777E+02  0.51100000000E-03 0. -1.
         11    1    1    0    0    0 -0.15557812455E+02 -0.42060526291E+02 -0.14940490488E+02  0.47268929081E+02  0.51100000000E-03 0.  1.
         22    1    1    0    0    0  0.24171553999E+02  0.55056831941E+02  0.79804912108E+01  0.60656467141E+02  0.00000000000E+00 0.  1.
</event>
<event>
 4    1  0.1988088E-002  0.9118800E+02  0.7818608E-02  0.1130116E+00
         25   -1    0    0    0    0  0.00000000000E+00  0.00000000000E+00  0.99999998245E-14  0.12500000000E+03  0.12500000000E+03 0.  0.
        -11    1    1    0    0    0  0.59656834250E+00 -0.47055035831E+00  0.26546402693E+01  0.27612364345E+01  0.51100000000E-03 0.  1.
         11    1    1    0    0    0  0.95147997902E+01 -0.11541674049E+02  0.57838369096E+02  0.59741263753E+02  0.51100000000E-03 0. -1.
         22    1    1    0    0    0 -0.10111368133E+02  0.12012224407E+02 -0.60493009365E+02  0.62497499812E+02  0.00000000000E+00 0. -1.
</event>
<event>
 4    1  0.1988088E-002  0.9118800E+02  0.7818608E-02  0.1130116E+00
         25   -1    0    0    0    0  0.00000000000E+00  0.00000000000E+00  0.99999998245E-14  0.12500000000E+03  0.12500000000E+03 0.  0.
        -11    1    1    0    0    0  0.89618711210E+01 -0.13330277434E+02  0.38279039739E+02  0.41512604279E+02  0.51100000000E-03 0. -1.
         11    1    1    0    0    0  0.41421161339E+01 -0.67390788269E+01  0.19440968130E+02  0.20988652925E+02  0.51100000000E-03 0.  1.
         22    1    1    0    0    0 -0.13103987255E+02  0.20069356261E+02 -0.57720007869E+02  0.62498742796E+02  0.00000000000E+00 0. -1.
</event>
<event>
 4    1  0.1988088E-002  0.9118800E+02  0.7818608E-02  0.1130116E+00
         25   -1    0    0    0    0  0.00000000000E+00  0.00000000000E+00  0.99999998245E-14  0.12500000000E+03  0.12500000000E+03 0.  0.
        -11    1    1    0    0    0  0.45997829046E+02 -0.19824762847E+02 -0.17329667371E+02  0.53001310081E+02  0.51100000000E-03 0. -1.
         11    1    1    0    0    0  0.82433170090E+01 -0.35556096077E+01 -0.31033015853E+01  0.94986902246E+01  0.51100000000E-03 0.  1.
         22    1    1    0    0    0 -0.54241146055E+02  0.23380372455E+02  0.20432968956E+02  0.62499999694E+02  0.00000000000E+00 0. -1.
</event>
<event>
 4    1  0.1988088E-002  0.9118800E+02  0.7818608E-02  0.1130116E+00
         25   -1    0    0    0    0  0.00000000000E+00  0.00000000000E+00  0.99999998245E-14  0.12500000000E+03  0.12500000000E+03 0.  0.
        -11    1    1    0    0    0 -0.76622236235E+00  0.26427707641E+01  0.35869134688E+01  0.45207612759E+01  0.51100000000E-03 0.  1.
         11    1    1    0    0    0 -0.97782413100E+01  0.33939548005E+02  0.45979184242E+02  0.57979240300E+02  0.51100000000E-03 0.  1.
         22    1    1    0    0    0  0.10544463672E+02 -0.36582318769E+02 -0.49566097711E+02  0.62499998424E+02  0.00000000000E+00 0.  1.
</event>
<event>
 4    1  0.1988088E-002  0.9118800E+02  0.7818608E-02  0.1130116E+00
         25   -1    0    0    0    0  0.00000000000E+00  0.00000000000E+00  0.99999998245E-14  0.12500000000E+03  0.12500000000E+03 0.  0.
        -11    1    1    0    0    0 -0.28497455353E+02 -0.17987413378E+02 -0.72149444859E+01  0.34463131399E+02  0.51100000000E-03 0. -1.
         11    1    1    0    0    0 -0.24010769115E+02 -0.12654741120E+02 -0.71503432883E+01  0.28067542032E+02  0.51100000000E-03 0.  1.
         22    1    1    0    0    0  0.52508224468E+02  0.30642154499E+02  0.14365287774E+02  0.62469326569E+02  0.00000000000E+00 0. -1.
</event>
<event>
 4    1  0.1988088E-002  0.9118800E+02  0.7818608E-02  0.1130116E+00
         25   -1    0    0    0    0  0.00000000000E+00  0.00000000000E+00  0.99999998245E-14  0.12500000000E+03  0.12500000000E+03 0.  0.
        -11    1    1    0    0    0 -0.59271981429E+01 -0.21472882087E+01 -0.39655839649E+01  0.74477097768E+01  0.51100000000E-03 0. -1.
         11    1    1    0    0    0 -0.43010764970E+02 -0.19776335372E+02 -0.28120393573E+02  0.55061655252E+02  0.51100000000E-03 0.  1.
         22    1    1    0    0    0  0.48937963113E+02  0.21923623581E+02  0.32085977538E+02  0.62490634972E+02  0.00000000000E+00 0.  1.
</event>
<event>
 4    1  0.1988088E-002  0.9118800E+02  0.7818608E-02  0.1130116E+00
         25   -1    0    0    0    0  0.00000000000E+00  0.00000000000E+00  0.99999998245E-14  0.12500000000E+03  0.12500000000E+03 0.  0.
        -11    1    1    0    0    0 -0.10044773880E+02 -0.12556459867E+02 -0.12068965800E+02  0.20105275488E+02  0.51100000000E-03 0. -1.
         11    1    1    0    0    0 -0.22071337892E+02 -0.25446373612E+02 -0.25748079248E+02  0.42398413550E+02  0.51100000000E-03 0.  1.
         22    1    1    0    0    0  0.32116111772E+02  0.38002833479E+02  0.37817045048E+02  0.62496310962E+02  0.00000000000E+00 0.  1.
</event>
<event>
 4    1  0.1988088E-002  0.9118800E+02  0.7818608E-02  0.1130116E+00
         25   -1    0    0    0    0  0.00000000000E+00  0.00000000000E+00  0.99999998245E-14  0.12500000000E+03  0.12500000000E+03 0.  0.
        -11    1    1    0    0    0  0.50200898386E+01 -0.41412256225E+01  0.25609775920E+01  0.69935440323E+01  0.51100000000E-03 0. -1.
         11    1    1    0    0    0  0.41769023161E+02 -0.26952504224E+02  0.24761762027E+02  0.55535877041E+02  0.51100000000E-03 0.  1.
         22    1    1    0    0    0 -0.46789113000E+02  0.31093729847E+02 -0.27322739619E+02  0.62470578926E+02  0.00000000000E+00 0.  1.
</event>
<event>
 4    1  0.1988088E-002  0.9118800E+02  0.7818608E-02  0.1130116E+00
         25   -1    0    0    0    0  0.00000000000E+00  0.00000000000E+00  0.99999998245E-14  0.12500000000E+03  0.12500000000E+03 0.  0.
        -11    1    1    0    0    0 -0.53380263555E+02  0.92410358762E+01  0.24200038572E+02  0.59333726904E+02  0.51100000000E-03 0.  1.
         11    1    1    0    0    0  0.39408749776E+01  0.68429616519E+01  0.87572142042E+00  0.79450303980E+01  0.51100000000E-03 0. -1.
         22    1    1    0    0    0  0.49439388577E+02 -0.16083997528E+02 -0.25075759992E+02  0.57721242698E+02  0.00000000000E+00 0.  1.
</event>
<event>
 4    1  0.1988088E-002  0.9118800E+02  0.7818608E-02  0.1130116E+00
         25   -1    0    0    0    0  0.00000000000E+00  0.00000000000E+00  0.99999998245E-14  0.12500000000E+03  0.12500000000E+03 0.  0.
        -11    1    1    0    0    0  0.50473833628E+02 -0.15314389312E+02  0.33212998507E+02  0.62331706789E+02  0.51100000000E-03 0. -1.
         11    1    1    0    0    0  0.13571416369E+00 -0.42630268160E-01  0.89932261668E-01  0.16829660365E+00  0.51100000000E-03 0.  1.
         22    1    1    0    0    0 -0.50609547792E+02  0.15357019580E+02 -0.33302930769E+02  0.62499996607E+02  0.00000000000E+00 0. -1.
</event>
<event>
 4    1  0.1988088E-002  0.9118800E+02  0.7818608E-02  0.1130116E+00
         25   -1    0    0    0    0  0.00000000000E+00  0.00000000000E+00  0.99999998245E-14  0.12500000000E+03  0.12500000000E+03 0.  0.
        -11    1    1    0    0    0  0.32425747539E+01  0.18684805448E+01 -0.50778505982E+01  0.63079376614E+01  0.51100000000E-03 0.  1.
         11    1    1    0    0    0  0.28898857758E+02  0.16668767768E+02 -0.45216768197E+02  0.56192062829E+02  0.51100000000E-03 0. -1.
         22    1    1    0    0    0 -0.32141432512E+02 -0.18537248313E+02  0.50294618795E+02  0.62499999509E+02  0.00000000000E+00 0. -1.
</event>
<event>
 4    1  0.1988088E-002  0.9118800E+02  0.7818608E-02  0.1130116E+00
         25   -1    0    0    0    0  0.00000000000E+00  0.00000000000E+00  0.99999998245E-14  0.12500000000E+03  0.12500000000E+03 0.  0.
        -11    1    1    0    0    0  0.94260382108E+01  0.17478335173E+02  0.59362645598E-01  0.19858144953E+02  0.51100000000E-03 0.  1.
         11    1    1    0    0    0  0.43140983147E+02  0.90222578377E+01 -0.10613289173E+02  0.45334175527E+02  0.51100000000E-03 0. -1.
         22    1    1    0    0    0 -0.52567021358E+02 -0.26500593011E+02  0.10553926527E+02  0.59807679520E+02  0.00000000000E+00 0. -1.
</event>
<event>
 4    1  0.1988088E-002  0.9118800E+02  0.7818608E-02  0.1130116E+00
         25   -1    0    0    0    0  0.00000000000E+00  0.00000000000E+00  0.99999998245E-14  0.12500000000E+03  0.12500000000E+03 0.  0.
        -11    1    1    0    0    0 -0.25013146645E+02  0.46628357295E+02  0.18134546278E+02  0.55934988853E+02  0.51100000000E-03 0. -1.
         11    1    1    0    0    0 -0.55146865528E+01  0.40521491760E+01  0.92616463835E+00  0.69057557095E+01  0.51100000000E-03 0.  1.
         22    1    1    0    0    0  0.30527833197E+02 -0.50680506471E+02 -0.19060710916E+02  0.62159255437E+02  0.00000000000E+00 0. -1.
</event>
<event>
 4    1  0.1988088E-002  0.9118800E+02  0.7818608E-02  0.1130116E+00
         25   -1    0    0    0    0  0.00000000000E+00  0.00000000000E+00  0.99999998245E-14  0.12500000000E+03  0.12500000000E+03 0.  0.
        -11    1    1    0    0    0  0.54958745291E+01 -0.27608505369E+01  0.53982731017E+01  0.81834152570E+01  0.51100000000E-03 0. -1.
         11    1    1    0    0    0  0.39064624245E+02 -0.36023965073E+02  0.13436068863E+02  0.54811484871E+02  0.51100000000E-03 0.  1.
         22    1    1    0    0    0 -0.44560498774E+02  0.38784815610E+02 -0.18834341965E+02  0.62005099872E+02  0.00000000000E+00 0.  1.
</event>
<event>
 4    1  0.1988088E-002  0.9118800E+02  0.7818608E-02  0.1130116E+00
         25   -1    0    0    0    0  0.00000000000E+00  0.00000000000E+00  0.99999998245E-14  0.12500000000E+03  0.12500000000E+03 0.  0.
        -11    1    1    0    0    0 -0.33214821545E+02 -0.15501567623E+02 -0.11821165159E+02  0.38513152494E+02  0.51100000000E-03 0.  1.
         11    1    1    0    0    0 -0.20687042856E+02 -0.96543100739E+01 -0.73627038640E+01  0.23986847512E+02  0.51100000000E-03 0.  1.
         22    1    1    0    0    0  0.53901864401E+02  0.25155877697E+02  0.19183869023E+02  0.62499999994E+02  0.00000000000E+00 0.  1.
</event>
<event>
 4    1  0.1988088E-002  0.9118800E+02  0.7818608E-02  0.1130116E+00
         25   -1    0    0    0    0  0.00000000000E+00  0.00000000000E+00  0.99999998245E-14  0.12500000000E+03  0.12500000000E+03 0.  0.
        -11    1    1    0    0    0 -0.40772721669E+01 -0.51217872898E+01 -0.69338871982E+01  0.95360183149E+01  0.51100000000E-03 0.  1.
         11    1    1    0    0    0 -0.22832564793E+02 -0.28297895393E+02 -0.38510918185E+02  0.52964022868E+02  0.51100000000E-03 0. -1.
         22    1    1    0    0    0  0.26909836960E+02  0.33419682683E+02  0.45444805383E+02  0.62499958817E+02  0.00000000000E+00 0. -1.
</event>
<event>
 4    1  0.1988088E-002  0.9118800E+02  0.7818608E-02  0.1130116E+00
         25   -1    0    0    0    0  0.00000000000E+00  0.00000000000E+00  0.99999998245E-14  0.12500000000E+03  0.12500000000E+03 0.  0.
        -11    1    1    0    0    0  0.39549967584E+02 -0.27855933374E+02  0.25551026601E+01  0.48442558870E+02  0.51100000000E-03 0. -1.
         11    1    1    0    0    0  0.11477478091E+02 -0.80825809070E+01  0.74231683978E+00  0.14057441161E+02  0.51100000000E-03 0.  1.
         22    1    1    0    0    0 -0.51027445674E+02  0.35938514281E+02 -0.32974194998E+01  0.62499999969E+02  0.00000000000E+00 0. -1.
</event>
<event>
 4    1  0.1988088E-002  0.9118800E+02  0.7818608E-02  0.1130116E+00
         25   -1    0    0    0    0  0.00000000000E+00  0.00000000000E+00  0.99999998245E-14  0.12500000000E+03  0.12500000000E+03 0.  0.
        -11    1    1    0    0    0 -0.45999854684E+01 -0.34258996170E+01  0.33495317946E+01  0.66419890093E+01  0.51100000000E-03 0.  1.
         11    1    1    0    0    0 -0.38688371323E+02 -0.28811544018E+02  0.28164201573E+02  0.55858011018E+02  0.51100000000E-03 0. -1.
         22    1    1    0    0    0  0.43288356792E+02  0.32237443635E+02 -0.31513733367E+02  0.62499999973E+02  0.00000000000E+00 0. -1.
</event>
<event>
 4    1  0.1988088E-002  0.9118800E+02  0.7818608E-02  0.1130116E+00
         25   -1    0    0    0    0  0.00000000000E+00  0.00000000000E+00  0.99999998245E-14  0.12500000000E+03  0.12500000000E+03 0.  0.
        -11    1    1    0    0    0  0.26106022067E+01  0.21809164397E+01  0.24366280949E+01  0.41843514591E+01  0.51100000000E-03 0. -1.
         11    1    1    0    0    0  0.37236734057E+02  0.30366723826E+02  0.33046253382E+02  0.58316096766E+02  0.51100000000E-03 0.  1.
         22    1    1    0    0    0 -0.39847336263E+02 -0.32547640266E+02 -0.35482881477E+02  0.62499551775E+02  0.00000000000E+00 0.  1.
</event>
<event>
 4    1  0.1988088E-002  0.9118800E+02  0.7818608E-02  0.1130116E+00
         25   -1    0    0    0    0  0.00000000000E+00  0.00000000000E+00  0.99999998245E-14  0.12500000000E+03  0.12500000000E+03 0.  0.
        -11    1    1    0    0    0  0.50484103830E+01 -0.50529331857E+01 -0.70704845046E+01  0.10050389672E+02  0.51100000000E-03 0.  1.
         11    1    1    0    0    0  0.25280948344E+02 -0.23448664897E+02 -0.39539009939E+02  0.52462363098E+02  0.51100000000E-03 0. -1.
         22    1    1    0    0    0 -0.30329358727E+02  0.28501598083E+02  0.46609494443E+02  0.62487247230E+02  0.00000000000E+00 0. -1.
</event>
<event>
 4    1  0.1988088E-002  0.9118800E+02  0.7818608E-02  0.1130116E+00
         25   -1    0    0    0    0  0.00000000000E+00  0.00000000000E+00  0.99999998245E-14  0.12500000000E+03  0.12500000000E+03 0.  0.
        -11    1    1    0    0    0 -0.25566155700E+02  0.11856678401E+02  0.25827362106E+02  0.38226453845E+02  0.51100000000E-03 0.  1.
         11    1    1    0    0    0 -0.16235302089E+02  0.75298048056E+01  0.16398842936E+02  0.24273546182E+02  0.51100000000E-03 0. -1.
         22    1    1    0    0    0  0.41801457789E+02 -0.19386483207E+02 -0.42226205042E+02  0.62499999973E+02  0.00000000000E+00 0.  1.
</event>
<event>
 4    1  0.1988088E-002  0.9118800E+02  0.7818608E-02  0.1130116E+00
         25   -1    0    0    0    0  0.00000000000E+00  0.00000000000E+00  0.99999998245E-14  0.12500000000E+03  0.12500000000E+03 0.  0.
        -11    1    1    0    0    0  0.27025120522E+01 -0.38812044304E+01 -0.11649729562E+02  0.12573126833E+02  0.51100000000E-03 0.  1.
         11    1    1    0    0    0  0.10723394679E+02 -0.15468679722E+02 -0.46243072761E+02  0.49926876774E+02  0.51100000000E-03 0. -1.
         22    1    1    0    0    0 -0.13425906731E+02  0.19349884152E+02  0.57892802323E+02  0.62499996393E+02  0.00000000000E+00 0. -1.
</event>
<event>
 4    1  0.1988088E-002  0.9118800E+02  0.7818608E-02  0.1130116E+00
         25   -1    0    0    0    0  0.00000000000E+00  0.00000000000E+00  0.99999998245E-14  0.12500000000E+03  0.12500000000E+03 0.  0.
        -11    1    1    0    0    0  0.68983564628E+01  0.10039522746E+02 -0.20386230039E+00  0.12182811620E+02  0.51100000000E-03 0. -1.
         11    1    1    0    0    0  0.28491812450E+02  0.41464699799E+02 -0.84542415101E+00  0.50317188399E+02  0.51100000000E-03 0.  1.
         22    1    1    0    0    0 -0.35390168912E+02 -0.51504222545E+02  0.10492864514E+01  0.62499999982E+02  0.00000000000E+00 0.  1.
</event>
<event>
 4    1  0.1988088E-002  0.9118800E+02  0.7818608E-02  0.1130116E+00
         25   -1    0    0    0    0  0.00000000000E+00  0.00000000000E+00  0.99999998245E-14  0.12500000000E+03  0.12500000000E+03 0.  0.
        -11    1    1    0    0    0 -0.15939496340E+01 -0.39306875797E+02  0.39368951067E+02  0.55655057891E+02  0.51100000000E-03 0.  1.
         11    1    1    0    0    0 -0.21688756436E+00 -0.48391237016E+01  0.48362477463E+01  0.68449580671E+01  0.51100000000E-03 0. -1.
         22    1    1    0    0    0  0.18108371984E+01  0.44145999499E+02 -0.44205198814E+02  0.62499984042E+02  0.00000000000E+00 0.  1.
</event>
<event>
 4    1  0.1988088E-002  0.9118800E+02  0.7818608E-02  0.1130116E+00
         25   -1    0    0    0    0  0.00000000000E+00  0.00000000000E+00  0.99999998245E-14  0.12500000000E+03  0.12500000000E+03 0.  0.
        -11    1    1    0    0    0 -0.15548151689E+01  0.42980134934E+01  0.53986476064E+01  0.70735964289E+01  0.51100000000E-03 0. -1.
         11    1    1    0    0    0 -0.91991589527E+01  0.33736455462E+02  0.43009832156E+02  0.55431206147E+02  0.51100000000E-03 0.  1.
         22    1    1    0    0    0  0.10753974122E+02 -0.38034468955E+02 -0.48408479763E+02  0.62495197424E+02  0.00000000000E+00 0.  1.
</event>
<event>
 4    1  0.1988088E-002  0.9118800E+02  0.7818608E-02  0.1130116E+00
         25   -1    0    0    0    0  0.00000000000E+00  0.00000000000E+00  0.99999998245E-14  0.12500000000E+03  0.12500000000E+03 0.  0.
        -11    1    1    0    0    0 -0.20013534714E+02 -0.66525000171E+01 -0.25926378390E+02  0.33421167318E+02  0.51100000000E-03 0. -1.
         11    1    1    0    0    0 -0.17346761777E+02 -0.58173121159E+01 -0.22601530141E+02  0.29078865683E+02  0.51100000000E-03 0.  1.
         22    1    1    0    0    0  0.37360296491E+02  0.12469812133E+02  0.48527908531E+02  0.62499966999E+02  0.00000000000E+00 0. -1.
</event>
<event>
 4    1  0.1988088E-002  0.9118800E+02  0.7818608E-02  0.1130116E+00
         25   -1    0    0    0    0  0.00000000000E+00  0.00000000000E+00  0.99999998245E-14  0.12500000000E+03  0.12500000000E+03 0.  0.
        -11    1    1    0    0    0  0.35582299264E+02  0.19436097804E+02 -0.83083263956E+01  0.41387077773E+02  0.51100000000E-03 0.  1.
         11    1    1    0    0    0  0.18151757678E+02  0.99149793495E+01 -0.42382027572E+01  0.21112922232E+02  0.51100000000E-03 0.  1.
         22    1    1    0    0    0 -0.53734056943E+02 -0.29351077154E+02  0.12546529153E+02  0.62499999995E+02  0.00000000000E+00 0.  1.
</event>
<event>
 4    1  0.1988088E-002  0.9118800E+02  0.7818608E-02  0.1130116E+00
         25   -1    0    0    0    0  0.00000000000E+00  0.00000000000E+00  0.99999998245E-14  0.12500000000E+03  0.12500000000E+03 0.  0.
        -11    1    1    0    0    0 -0.17530181094E+02  0.12580310781E+02  0.30596208795E+02  0.37439276989E+02  0.51100000000E-03 0. -1.
         11    1    1    0    0    0  0.84559556354E+01  0.29692387587E+02  0.53510135425E+01  0.31333279633E+02  0.51100000000E-03 0.  1.
         22    1    1    0    0    0  0.90742254589E+01 -0.42272698369E+02 -0.35947222338E+02  0.56227443378E+02  0.00000000000E+00 0.  1.
</event>
<event>
 4    1  0.1988088E-002  0.9118800E+02  0.7818608E-02  0.1130116E+00
         25   -1    0    0    0    0  0.00000000000E+00  0.00000000000E+00  0.99999998245E-14  0.12500000000E+03  0.12500000000E+03 0.  0.
        -11    1    1    0    0    0 -0.21867439476E+02  0.49002207105E+00 -0.43450848354E+02  0.48645670453E+02  0.51100000000E-03 0. -1.
         11    1    1    0    0    0 -0.59721241196E+01  0.27708866905E+00 -0.12499530717E+02  0.13855732136E+02  0.51100000000E-03 0.  1.
         22    1    1    0    0    0  0.27839563595E+02 -0.76711074009E+00  0.55950379071E+02  0.62498597411E+02  0.00000000000E+00 0. -1.
</event>
<event>
 4    1  0.1988088E-002  0.9118800E+02  0.7818608E-02  0.1130116E+00
         25   -1    0    0    0    0  0.00000000000E+00  0.00000000000E+00  0.99999998245E-14  0.12500000000E+03  0.12500000000E+03 0.  0.
        -11    1    1    0    0    0 -0.14707234079E+02 -0.36556194658E+02  0.12027118633E+02  0.41198418477E+02  0.51100000000E-03 0. -1.
         11    1    1    0    0    0 -0.76047963131E+01 -0.18899805543E+02  0.62226847167E+01  0.21301581676E+02  0.51100000000E-03 0.  1.
         22    1    1    0    0    0  0.22312030392E+02  0.55456000202E+02 -0.18249803350E+02  0.62499999847E+02  0.00000000000E+00 0.  1.
</event>
<event>
 4    1  0.1988088E-002  0.9118800E+02  0.7818608E-02  0.1130116E+00
         25   -1    0    0    0    0  0.00000000000E+00  0.00000000000E+00  0.99999998245E-14  0.12500000000E+03  0.12500000000E+03 0.  0.
        -11    1    1    0    0    0 -0.49967804346E+00  0.23924876232E+01 -0.10804265179E+01  0.26722643761E+01  0.51100000000E-03 0. -1.
         11    1    1    0    0    0 -0.11195088239E+02  0.53563404190E+02 -0.24186560009E+02  0.59827735662E+02  0.51100000000E-03 0. -1.
         22    1    1    0    0    0  0.11694766282E+02 -0.55955891813E+02  0.25266986527E+02  0.62499999962E+02  0.00000000000E+00 0. -1.
</event>
<event>
 4    1  0.1988088E-002  0.9118800E+02  0.7818608E-02  0.1130116E+00
         25   -1    0    0    0    0  0.00000000000E+00  0.00000000000E+00  0.99999998245E-14  0.12500000000E+03  0.12500000000E+03 0.  0.
        -11    1    1    0    0    0 -0.22703884540E+00 -0.51621602891E+01  0.14939440197E+00  0.51693098607E+01  0.51100000000E-03 0.  1.
         11    1    1    0    0    0  0.27453734681E+02 -0.30314843892E+02  0.41824567701E+02  0.58497792879E+02  0.51100000000E-03 0. -1.
         22    1    1    0    0    0 -0.27226695836E+02  0.35477004181E+02 -0.41973962103E+02  0.61332897260E+02  0.00000000000E+00 0. -1.
</event>
<event>
 4    1  0.1988088E-002  0.9118800E+02  0.7818608E-02  0.1130116E+00
         25   -1    0    0    0    0  0.00000000000E+00  0.00000000000E+00  0.99999998245E-14  0.12500000000E+03  0.12500000000E+03 0.  0.
        -11    1    1    0    0    0 -0.51760531796E+02  0.10316167029E+02 -0.27290007864E+02  0.59416500095E+02  0.51100000000E-03 0.  1.
         11    1    1    0    0    0 -0.34831813909E+01 -0.69424069951E+00  0.18974854435E+01  0.40267820925E+01  0.51100000000E-03 0. -1.
         22    1    1    0    0    0  0.55243713187E+02 -0.96219263298E+01  0.25392522421E+02  0.61556717813E+02  0.00000000000E+00 0.  1.
</event>
<event>
 4    1  0.1988088E-002  0.9118800E+02  0.7818608E-02  0.1130116E+00
         25   -1    0    0    0    0  0.00000000000E+00  0.00000000000E+00  0.99999998245E-14  0.12500000000E+03  0.12500000000E+03 0.  0.
        -11    1    1    0    0    0 -0.33256782452E+02  0.51958593068E+02 -0.16030180686E+01  0.61711252133E+02  0.51100000000E-03 0.  1.
         11    1    1    0    0    0 -0.43193021762E+00  0.65976421802E+00 -0.17532516688E-01  0.78877131448E+00  0.51100000000E-03 0. -1.
         22    1    1    0    0    0  0.33688712669E+02 -0.52618357286E+02  0.16205505853E+01  0.62499976552E+02  0.00000000000E+00 0.  1.
</event>
<event>
 4    1  0.1988088E-002  0.9118800E+02  0.7818608E-02  0.1130116E+00
         25   -1    0    0    0    0  0.00000000000E+00  0.00000000000E+00  0.99999998245E-14  0.12500000000E+03  0.12500000000E+03 0.  0.
        -11    1    1    0    0    0  0.12355246903E+02 -0.53380886779E+01 -0.84620674749E+01  0.15898235845E+02  0.51100000000E-03 0.  1.
         11    1    1    0    0    0  0.27170161104E+02 -0.97296534792E+01 -0.37052643016E+02  0.46965755248E+02  0.51100000000E-03 0. -1.
         22    1    1    0    0    0 -0.39525408007E+02  0.15067742157E+02  0.45514710491E+02  0.62136008907E+02  0.00000000000E+00 0. -1.
</event>
<event>
 4    1  0.1988088E-002  0.9118800E+02  0.7818608E-02  0.1130116E+00
         25   -1    0    0    0    0  0.00000000000E+00  0.00000000000E+00  0.99999998245E-14  0.12500000000E+03  0.12500000000E+03 0.  0.
        -11    1    1    0    0    0  0.49249552818E+01  0.40868678925E+02 -0.14856928124E+02  0.43763368416E+02  0.51100000000E-03 0. -1.
         11    1    1    0    0    0  0.93244001154E+01  0.90896536907E+01 -0.16142511717E+02  0.20739983764E+02  0.51100000000E-03 0.  1.
         22    1    1    0    0    0 -0.14249355397E+02 -0.49958332616E+02  0.30999439841E+02  0.60496647820E+02  0.00000000000E+00 0. -1.
</event>
<event>
 4    1  0.1988088E-002  0.9118800E+02  0.7818608E-02  0.1130116E+00
         25   -1    0    0    0    0  0.00000000000E+00  0.00000000000E+00  0.99999998245E-14  0.12500000000E+03  0.12500000000E+03 0.  0.
        -11    1    1    0    0    0  0.23936506352E+01  0.26094658840E+02 -0.17768922511E+02  0.31660628402E+02  0.51100000000E-03 0. -1.
         11    1    1    0    0    0  0.23305273937E+01  0.25417944849E+02 -0.17307904626E+02  0.30839371607E+02  0.51100000000E-03 0.  1.
         22    1    1    0    0    0 -0.47241780289E+01 -0.51512603690E+02  0.35076827137E+02  0.62499999991E+02  0.00000000000E+00 0. -1.
</event>
<event>
 4    1  0.1988088E-002  0.9118800E+02  0.7818608E-02  0.1130116E+00
         25   -1    0    0    0    0  0.00000000000E+00  0.00000000000E+00  0.99999998245E-14  0.12500000000E+03  0.12500000000E+03 0.  0.
        -11    1    1    0    0    0  0.30859420790E+02  0.21567353239E+02 -0.23360108252E+02  0.44307439951E+02  0.51100000000E-03 0. -1.
         11    1    1    0    0    0  0.12595696727E+02  0.90919771055E+01 -0.94699884462E+01  0.18193303855E+02  0.51100000000E-03 0.  1.
         22    1    1    0    0    0 -0.43455117517E+02 -0.30659330345E+02  0.32830096698E+02  0.62499256194E+02  0.00000000000E+00 0. -1.
</event>
<event>
 4    1  0.1988088E-002  0.9118800E+02  0.7818608E-02  0.1130116E+00
         25   -1    0    0    0    0  0.00000000000E+00  0.00000000000E+00  0.99999998245E-14  0.12500000000E+03  0.12500000000E+03 0.  0.
        -11    1    1    0    0    0  0.10073289754E+01 -0.27042277083E+01 -0.99680663251E+01  0.10377374701E+02  0.51100000000E-03 0. -1.
         11    1    1    0    0    0  0.46295281778E+01 -0.13025525692E+02 -0.50256495273E+02  0.52123048338E+02  0.51100000000E-03 0.  1.
         22    1    1    0    0    0 -0.56368571532E+01  0.15729753400E+02  0.60224561598E+02  0.62499576961E+02  0.00000000000E+00 0.  1.
</event>
<event>
 4    1  0.1988088E-002  0.9118800E+02  0.7818608E-02  0.1130116E+00
         25   -1    0    0    0    0  0.00000000000E+00  0.00000000000E+00  0.99999998245E-14  0.12500000000E+03  0.12500000000E+03 0.  0.
        -11    1    1    0    0    0 -0.10207701475E+02 -0.28316070447E+02 -0.69604383610E+01  0.30894088713E+02  0.51100000000E-03 0. -1.
         11    1    1    0    0    0 -0.10235425677E+02 -0.29012584509E+02 -0.72425417306E+01  0.31606145125E+02  0.51100000000E-03 0.  1.
         22    1    1    0    0    0  0.20443127152E+02  0.57328654956E+02  0.14202980092E+02  0.62499766162E+02  0.00000000000E+00 0.  1.
</event>
<event>
 4    1  0.1988088E-002  0.9118800E+02  0.7818608E-02  0.1130116E+00
         25   -1    0    0    0    0  0.00000000000E+00  0.00000000000E+00  0.99999998245E-14  0.12500000000E+03  0.12500000000E+03 0.  0.
        -11    1    1    0    0    0 -0.11374313599E+02 -0.17571269419E+02  0.20971996165E+02  0.29630206585E+02  0.51100000000E-03 0.  1.
         11    1    1    0    0    0 -0.12617858729E+02 -0.19491963739E+02  0.23265345688E+02  0.32869793421E+02  0.51100000000E-03 0.  1.
         22    1    1    0    0    0  0.23992172328E+02  0.37063233158E+02 -0.44237341852E+02  0.62499999995E+02  0.00000000000E+00 0.  1.
</event>
<event>
 4    1  0.1988088E-002  0.9118800E+02  0.7818608E-02  0.1130116E+00
         25   -1    0    0    0    0  0.00000000000E+00  0.00000000000E+00  0.99999998245E-14  0.12500000000E+03  0.12500000000E+03 0.  0.
        -11    1    1    0    0    0  0.62940646470E+01  0.43491000791E+01 -0.70251598743E+00  0.76826720776E+01  0.51100000000E-03 0.  1.
         11    1    1    0    0    0  0.44820073637E+02  0.31182347134E+02 -0.48749069931E+01  0.54817355756E+02  0.51100000000E-03 0. -1.
         22    1    1    0    0    0 -0.51114138284E+02 -0.35531447214E+02  0.55774229805E+01  0.62499972166E+02  0.00000000000E+00 0. -1.
</event>
<event>
 4    1  0.1988088E-002  0.9118800E+02  0.7818608E-02  0.1130116E+00
         25   -1    0    0    0    0  0.00000000000E+00  0.00000000000E+00  0.99999998245E-14  0.12500000000E+03  0.12500000000E+03 0.  0.
        -11    1    1    0    0    0 -0.40575302935E+02 -0.74740203794E+00 -0.20156878968E+02  0.45312399937E+02  0.51100000000E-03 0. -1.
         11    1    1    0    0    0 -0.15389614053E+02 -0.28533943107E+00 -0.76480036647E+01  0.17187600170E+02  0.51100000000E-03 0.  1.
         22    1    1    0    0    0  0.55964916988E+02  0.10327414690E+01  0.27804882633E+02  0.62499999893E+02  0.00000000000E+00 0. -1.
</event>
<event>
 4    1  0.1988088E-002  0.9118800E+02  0.7818608E-02  0.1130116E+00
         25   -1    0    0    0    0  0.00000000000E+00  0.00000000000E+00  0.99999998245E-14  0.12500000000E+03  0.12500000000E+03 0.  0.
        -11    1    1    0    0    0  0.17920628062E+02 -0.32536044964E+02 -0.47578030483E+02  0.60360683535E+02  0.51100000000E-03 0.  1.
         11    1    1    0    0    0  0.59824388416E+00 -0.11440718396E+01 -0.17060966897E+01  0.21395238477E+01  0.51100000000E-03 0. -1.
         22    1    1    0    0    0 -0.18518871946E+02  0.33680116803E+02  0.49284127172E+02  0.62499792617E+02  0.00000000000E+00 0.  1.
</event>
<event>
 4    1  0.1988088E-002  0.9118800E+02  0.7818608E-02  0.1130116E+00
         25   -1    0    0    0    0  0.00000000000E+00  0.00000000000E+00  0.99999998245E-14  0.12500000000E+03  0.12500000000E+03 0.  0.
        -11    1    1    0    0    0  0.43525985304E+01 -0.31352011920E+01 -0.47706739629E+02  0.48007370338E+02  0.51100000000E-03 0.  1.
         11    1    1    0    0    0  0.16719103371E+01 -0.18836984355E+01 -0.14285816733E+02  0.14506142283E+02  0.51100000000E-03 0. -1.
         22    1    1    0    0    0 -0.60245088675E+01  0.50188996275E+01  0.61992556362E+02  0.62486487378E+02  0.00000000000E+00 0.  1.
</event>
<event>
 4    1  0.1988088E-002  0.9118800E+02  0.7818608E-02  0.1130116E+00
         25   -1    0    0    0    0  0.00000000000E+00  0.00000000000E+00  0.99999998245E-14  0.12500000000E+03  0.12500000000E+03 0.  0.
        -11    1    1    0    0    0  0.16429930409E+02  0.17596629609E+02  0.23205009652E+02  0.33437351272E+02  0.51100000000E-03 0.  1.
         11    1    1    0    0    0 -0.30162404758E+02 -0.36654970941E+02 -0.40494663548E+02  0.62395314981E+02  0.51100000000E-03 0. -1.
         22    1    1    0    0    0  0.13732474349E+02  0.19058341332E+02  0.17289653895E+02  0.29167333747E+02  0.00000000000E+00 0. -1.
</event>
<event>
 4    1  0.1988088E-002  0.9118800E+02  0.7818608E-02  0.1130116E+00
         25   -1    0    0    0    0  0.00000000000E+00  0.00000000000E+00  0.99999998245E-14  0.12500000000E+03  0.12500000000E+03 0.  0.
        -11    1    1    0    0    0 -0.39998662201E+02  0.24364983133E+02 -0.13117004390E+02  0.48637446328E+02  0.51100000000E-03 0. -1.
         11    1    1    0    0    0 -0.83885448054E+01  0.79697081716E+01  0.13995500515E+02  0.18159239169E+02  0.51100000000E-03 0.  1.
         22    1    1    0    0    0  0.48387207006E+02 -0.32334691304E+02 -0.87849612440E+00  0.58203314502E+02  0.00000000000E+00 0. -1.
</event>
<event>
 4    1  0.1988088E-002  0.9118800E+02  0.7818608E-02  0.1130116E+00
         25   -1    0    0    0    0  0.00000000000E+00  0.00000000000E+00  0.99999998245E-14  0.12500000000E+03  0.12500000000E+03 0.  0.
        -11    1    1    0    0    0 -0.43079641254E+02 -0.27112128689E+02  0.33825548816E+01  0.51013377564E+02  0.51100000000E-03 0. -1.
         11    1    1    0    0    0 -0.97000645986E+01 -0.61056911733E+01  0.75616767140E+00  0.11486622991E+02  0.51100000000E-03 0.  1.
         22    1    1    0    0    0  0.52779705853E+02  0.33217819863E+02 -0.41387225530E+01  0.62499999446E+02  0.00000000000E+00 0. -1.
</event>
<event>
 4    1  0.1988088E-002  0.9118800E+02  0.7818608E-02  0.1130116E+00
         25   -1    0    0    0    0  0.00000000000E+00  0.00000000000E+00  0.99999998245E-14  0.12500000000E+03  0.12500000000E+03 0.  0.
        -11    1    1    0    0    0  0.20715146003E+02  0.66829908538E+01  0.18170185319E+02  0.28353752405E+02  0.51100000000E-03 0.  1.
         11    1    1    0    0    0  0.24950754897E+02  0.80437507225E+01  0.21879765498E+02  0.34146247732E+02  0.51100000000E-03 0. -1.
         22    1    1    0    0    0 -0.45665900900E+02 -0.14726741576E+02 -0.40049950817E+02  0.62499999863E+02  0.00000000000E+00 0. -1.
</event>
<event>
 4    1  0.1988088E-002  0.9118800E+02  0.7818608E-02  0.1130116E+00
         25   -1    0    0    0    0  0.00000000000E+00  0.00000000000E+00  0.99999998245E-14  0.12500000000E+03  0.12500000000E+03 0.  0.
        -11    1    1    0    0    0  0.60715274248E-01  0.47948669177E+02 -0.27202060465E+02  0.55127403857E+02  0.51100000000E-03 0.  1.
         11    1    1    0    0    0  0.41353035786E+01  0.57230781766E+01 -0.35182170074E+01  0.78887394858E+01  0.51100000000E-03 0. -1.
         22    1    1    0    0    0 -0.41960188528E+01 -0.53671747353E+02  0.30720277472E+02  0.61983856658E+02  0.00000000000E+00 0.  1.
</event>
<event>
 4    1  0.1988088E-002  0.9118800E+02  0.7818608E-02  0.1130116E+00
         25   -1    0    0    0    0  0.00000000000E+00  0.00000000000E+00  0.99999998245E-14  0.12500000000E+03  0.12500000000E+03 0.  0.
        -11    1    1    0    0    0 -0.65023209587E+00 -0.82451231322E+00  0.54848777162E+00  0.11846777747E+01  0.51100000000E-03 0. -1.
         11    1    1    0    0    0 -0.30793774059E+02 -0.42326231370E+02  0.31937445852E+02  0.61316937551E+02  0.51100000000E-03 0.  1.
         22    1    1    0    0    0  0.31444006155E+02  0.43150743683E+02 -0.32485933624E+02  0.62498384674E+02  0.00000000000E+00 0.  1.
</event>
<event>
 4    1  0.1988088E-002  0.9118800E+02  0.7818608E-02  0.1130116E+00
         25   -1    0    0    0    0  0.00000000000E+00  0.00000000000E+00  0.99999998245E-14  0.12500000000E+03  0.12500000000E+03 0.  0.
        -11    1    1    0    0    0  0.18675544724E+01  0.33027353265E+02  0.60893015618E+01  0.33635894773E+02  0.51100000000E-03 0.  1.
         11    1    1    0    0    0  0.16233729448E+01  0.28308153794E+02  0.53998394963E+01  0.28864254326E+02  0.51100000000E-03 0. -1.
         22    1    1    0    0    0 -0.34909274171E+01 -0.61335507059E+02 -0.11489141058E+02  0.62499850901E+02  0.00000000000E+00 0. -1.
</event>
<event>
 4    1  0.1988088E-002  0.9118800E+02  0.7818608E-02  0.1130116E+00
         25   -1    0    0    0    0  0.00000000000E+00  0.00000000000E+00  0.99999998245E-14  0.12500000000E+03  0.12500000000E+03 0.  0.
        -11    1    1    0    0    0  0.30224546187E+02  0.76356243739E+01  0.11909251974E+02  0.33371488349E+02  0.51100000000E-03 0.  1.
         11    1    1    0    0    0  0.27207281406E+02  0.33994235342E+01  0.99876381735E+01  0.29181246690E+02  0.51100000000E-03 0. -1.
         22    1    1    0    0    0 -0.57431827593E+02 -0.11035047908E+02 -0.21896890147E+02  0.62447264961E+02  0.00000000000E+00 0.  1.
</event>
<event>
 4    1  0.1988088E-002  0.9118800E+02  0.7818608E-02  0.1130116E+00
         25   -1    0    0    0    0  0.00000000000E+00  0.00000000000E+00  0.99999998245E-14  0.12500000000E+03  0.12500000000E+03 0.  0.
        -11    1    1    0    0    0 -0.46326723261E+02 -0.23340508422E+02  0.87977522547E+01  0.52615065014E+02  0.51100000000E-03 0. -1.
         11    1    1    0    0    0 -0.87189209525E+01 -0.43527759716E+01  0.16571795995E+01  0.98849626060E+01  0.51100000000E-03 0.  1.
         22    1    1    0    0    0  0.55045644213E+02  0.27693284394E+02 -0.10454931854E+02  0.62499972380E+02  0.00000000000E+00 0. -1.
</event>
<event>
 4    1  0.1988088E-002  0.9118800E+02  0.7818608E-02  0.1130116E+00
         25   -1    0    0    0    0  0.00000000000E+00  0.00000000000E+00  0.99999998245E-14  0.12500000000E+03  0.12500000000E+03 0.  0.
        -11    1    1    0    0    0 -0.86591811295E-01  0.65253715358E+00  0.22901451032E+01  0.23828696426E+01  0.51100000000E-03 0.  1.
         11    1    1    0    0    0 -0.10842329537E+01  0.21323380682E+02  0.56202562342E+02  0.60121461550E+02  0.51100000000E-03 0. -1.
         22    1    1    0    0    0  0.11708247650E+01 -0.21975917836E+02 -0.58492707445E+02  0.62495668807E+02  0.00000000000E+00 0. -1.
</event>
<event>
 4    1  0.1988088E-002  0.9118800E+02  0.7818608E-02  0.1130116E+00
         25   -1    0    0    0    0  0.00000000000E+00  0.00000000000E+00  0.99999998245E-14  0.12500000000E+03  0.12500000000E+03 0.  0.
        -11    1    1    0    0    0 -0.53022994013E+01 -0.67041428961E+01  0.10680782307E+01  0.86139829510E+01  0.51100000000E-03 0. -1.
         11    1    1    0    0    0 -0.34861514306E+02 -0.40347297591E+02  0.78059104035E+01  0.53890275933E+02  0.51100000000E-03 0.  1.
         22    1    1    0    0    0  0.40163813707E+02  0.47051440487E+02 -0.88739886342E+01  0.62495741116E+02  0.00000000000E+00 0.  1.
</event>
<event>
 4    1  0.1988088E-002  0.9118800E+02  0.7818608E-02  0.1130116E+00
         25   -1    0    0    0    0  0.00000000000E+00  0.00000000000E+00  0.99999998245E-14  0.12500000000E+03  0.12500000000E+03 0.  0.
        -11    1    1    0    0    0 -0.11636051683E+02 -0.22948140015E+02  0.10554730949E+02  0.27810378900E+02  0.51100000000E-03 0. -1.
         11    1    1    0    0    0 -0.14680467669E+02 -0.28521574226E+02  0.13205390522E+02  0.34689748722E+02  0.51100000000E-03 0.  1.
         22    1    1    0    0    0  0.26316519352E+02  0.51469714241E+02 -0.23760121471E+02  0.62499872377E+02  0.00000000000E+00 0. -1.
</event>
<event>
 4    1  0.1988088E-002  0.9118800E+02  0.7818608E-02  0.1130116E+00
         25   -1    0    0    0    0  0.00000000000E+00  0.00000000000E+00  0.99999998245E-14  0.12500000000E+03  0.12500000000E+03 0.  0.
        -11    1    1    0    0    0  0.15931520881E+02  0.85167134309E+01 -0.46519000598E+02  0.49903558813E+02  0.51100000000E-03 0.  1.
         11    1    1    0    0    0  0.51162411407E+01  0.11299646374E+02 -0.70190698713E+01  0.14252202416E+02  0.51100000000E-03 0. -1.
         22    1    1    0    0    0 -0.21047762022E+02 -0.19816359805E+02  0.53538070470E+02  0.60844238771E+02  0.00000000000E+00 0.  1.
</event>
<event>
 4    1  0.1988088E-002  0.9118800E+02  0.7818608E-02  0.1130116E+00
         25   -1    0    0    0    0  0.00000000000E+00  0.00000000000E+00  0.99999998245E-14  0.12500000000E+03  0.12500000000E+03 0.  0.
        -11    1    1    0    0    0  0.89887408381E+01  0.91780325257E+01  0.12058651283E+02  0.17619444200E+02  0.51100000000E-03 0. -1.
         11    1    1    0    0    0  0.27329518811E+02  0.21535520714E+02  0.28417920022E+02  0.44925042343E+02  0.51100000000E-03 0.  1.
         22    1    1    0    0    0 -0.36318259649E+02 -0.30713553239E+02 -0.40476571305E+02  0.62455513457E+02  0.00000000000E+00 0.  1.
</event>
<event>
 4    1  0.1988088E-002  0.9118800E+02  0.7818608E-02  0.1130116E+00
         25   -1    0    0    0    0  0.00000000000E+00  0.00000000000E+00  0.99999998245E-14  0.12500000000E+03  0.12500000000E+03 0.  0.
        -11    1    1    0    0    0  0.18244472430E+02 -0.34645491669E+02  0.82789837129E+01  0.40021399760E+02  0.51100000000E-03 0.  1.
         11    1    1    0    0    0  0.10328857465E+02 -0.19393950295E+02  0.47416287707E+01  0.22478737692E+02  0.51100000000E-03 0. -1.
         22    1    1    0    0    0 -0.28573329895E+02  0.54039441963E+02 -0.13020612484E+02  0.62499862547E+02  0.00000000000E+00 0.  1.
</event>
<event>
 4    1  0.1988088E-002  0.9118800E+02  0.7818608E-02  0.1130116E+00
         25   -1    0    0    0    0  0.00000000000E+00  0.00000000000E+00  0.99999998245E-14  0.12500000000E+03  0.12500000000E+03 0.  0.
        -11    1    1    0    0    0 -0.14511089295E+02 -0.40058536524E+02  0.42475692767E+02  0.60161802976E+02  0.51100000000E-03 0. -1.
         11    1    1    0    0    0 -0.56392554606E+00 -0.15575946894E+01  0.16501673899E+01  0.23381971503E+01  0.51100000000E-03 0.  1.
         22    1    1    0    0    0  0.15075014841E+02  0.41616131213E+02 -0.44125860157E+02  0.62499999874E+02  0.00000000000E+00 0. -1.
</event>
<event>
 4    1  0.1988088E-002  0.9118800E+02  0.7818608E-02  0.1130116E+00
         25   -1    0    0    0    0  0.00000000000E+00  0.00000000000E+00  0.99999998245E-14  0.12500000000E+03  0.12500000000E+03 0.  0.
        -11    1    1    0    0    0  0.15963507406E+02 -0.12431012368E+02  0.16256217445E+02  0.25954349213E+02  0.51100000000E-03 0.  1.
         11    1    1    0    0    0  0.22482673460E+02 -0.17495062163E+02  0.22891850230E+02  0.36545651085E+02  0.51100000000E-03 0. -1.
         22    1    1    0    0    0 -0.38446180866E+02  0.29926074531E+02 -0.39148067675E+02  0.62499999702E+02  0.00000000000E+00 0.  1.
</event>
<event>
 4    1  0.1988088E-002  0.9118800E+02  0.7818608E-02  0.1130116E+00
         25   -1    0    0    0    0  0.00000000000E+00  0.00000000000E+00  0.99999998245E-14  0.12500000000E+03  0.12500000000E+03 0.  0.
        -11    1    1    0    0    0  0.11729353771E+02  0.69609016475E+01 -0.13927377004E+02  0.19493684160E+02  0.51100000000E-03 0.  1.
         11    1    1    0    0    0  0.25848746307E+02  0.15363552565E+02 -0.30746495159E+02  0.43006318116E+02  0.51100000000E-03 0. -1.
         22    1    1    0    0    0 -0.37578100079E+02 -0.22324454213E+02  0.44673872163E+02  0.62499997724E+02  0.00000000000E+00 0. -1.
</event>
<event>
 4    1  0.1988088E-002  0.9118800E+02  0.7818608E-02  0.1130116E+00
         25   -1    0    0    0    0  0.00000000000E+00  0.00000000000E+00  0.99999998245E-14  0.12500000000E+03  0.12500000000E+03 0.  0.
        -11    1    1    0    0    0  0.36172908011E+01 -0.60287367395E+00  0.20872520733E+01  0.42195818377E+01  0.51100000000E-03 0. -1.
         11    1    1    0    0    0  0.49991257847E+02 -0.82610140298E+01  0.28796477914E+02  0.58280419992E+02  0.51100000000E-03 0.  1.
         22    1    1    0    0    0 -0.53608548648E+02  0.88638877037E+01 -0.30883729987E+02  0.62499998170E+02  0.00000000000E+00 0.  1.
</event>
<event>
 4    1  0.1988088E-002  0.9118800E+02  0.7818608E-02  0.1130116E+00
         25   -1    0    0    0    0  0.00000000000E+00  0.00000000000E+00  0.99999998245E-14  0.12500000000E+03  0.12500000000E+03 0.  0.
        -11    1    1    0    0    0  0.37805448080E+02 -0.41791642086E+02  0.12120697892E+01  0.56367210027E+02  0.51100000000E-03 0. -1.
         11    1    1    0    0    0  0.37177187119E+01 -0.48115288544E+01 -0.12839963171E+01  0.62145707125E+01  0.51100000000E-03 0.  1.
         22    1    1    0    0    0 -0.41523166792E+02  0.46603170941E+02  0.71926527925E-01  0.62418219260E+02  0.00000000000E+00 0. -1.
</event>
<event>
 4    1  0.1988088E-002  0.9118800E+02  0.7818608E-02  0.1130116E+00
         25   -1    0    0    0    0  0.00000000000E+00  0.00000000000E+00  0.99999998245E-14  0.12500000000E+03  0.12500000000E+03 0.  0.
        -11    1    1    0    0    0 -0.14706109022E+02  0.10770400251E+02 -0.23655028641E+02  0.29863548758E+02  0.51100000000E-03 0. -1.
         11    1    1    0    0    0 -0.16597871382E+02  0.10774701886E+02 -0.25958818091E+02  0.32641136195E+02  0.51100000000E-03 0.  1.
         22    1    1    0    0    0  0.31303980404E+02 -0.21545102137E+02  0.49613846733E+02  0.62495315047E+02  0.00000000000E+00 0.  1.
</event>
<event>
 4    1  0.1988088E-002  0.9118800E+02  0.7818608E-02  0.1130116E+00
         25   -1    0    0    0    0  0.00000000000E+00  0.00000000000E+00  0.99999998245E-14  0.12500000000E+03  0.12500000000E+03 0.  0.
        -11    1    1    0    0    0  0.42558858568E+02 -0.14932757634E+02  0.33974134083E+02  0.56466675837E+02  0.51100000000E-03 0. -1.
         11    1    1    0    0    0  0.47787868746E+01 -0.45472491216E+00  0.37384847252E+01  0.60843937283E+01  0.51100000000E-03 0.  1.
         22    1    1    0    0    0 -0.47337645442E+02  0.15387482546E+02 -0.37712618808E+02  0.62448930435E+02  0.00000000000E+00 0. -1.
</event>
<event>
 4    1  0.1988088E-002  0.9118800E+02  0.7818608E-02  0.1130116E+00
         25   -1    0    0    0    0  0.00000000000E+00  0.00000000000E+00  0.99999998245E-14  0.12500000000E+03  0.12500000000E+03 0.  0.
        -11    1    1    0    0    0  0.10715077254E+02  0.48846179089E+02  0.15391456793E+01  0.50031300821E+02  0.51100000000E-03 0.  1.
         11    1    1    0    0    0  0.26701608505E+01  0.12173564393E+02  0.37820856842E+00  0.12468699651E+02  0.51100000000E-03 0. -1.
         22    1    1    0    0    0 -0.13385238104E+02 -0.61019743482E+02 -0.19173542477E+01  0.62499999528E+02  0.00000000000E+00 0.  1.
</event>
<event>
 4    1  0.1988088E-002  0.9118800E+02  0.7818608E-02  0.1130116E+00
         25   -1    0    0    0    0  0.00000000000E+00  0.00000000000E+00  0.99999998245E-14  0.12500000000E+03  0.12500000000E+03 0.  0.
        -11    1    1    0    0    0 -0.72190907166E+01 -0.15346077327E+02  0.57751751620E+01  0.17915635866E+02  0.51100000000E-03 0.  1.
         11    1    1    0    0    0 -0.20208502141E+02 -0.33000140873E+02  0.22457635757E+02  0.44740789672E+02  0.51100000000E-03 0. -1.
         22    1    1    0    0    0  0.27427592857E+02  0.48346218200E+02 -0.28232810919E+02  0.62343574461E+02  0.00000000000E+00 0.  1.
</event>
<event>
 4    1  0.1988088E-002  0.9118800E+02  0.7818608E-02  0.1130116E+00
         25   -1    0    0    0    0  0.00000000000E+00  0.00000000000E+00  0.99999998245E-14  0.12500000000E+03  0.12500000000E+03 0.  0.
        -11    1    1    0    0    0  0.13528292959E+02  0.28377929760E+02 -0.44445510774E+02  0.54440105033E+02  0.51100000000E-03 0.  1.
         11    1    1    0    0    0  0.20358917421E+01  0.33793398766E+01 -0.70562691130E+01  0.80842889139E+01  0.51100000000E-03 0. -1.
         22    1    1    0    0    0 -0.15564184701E+02 -0.31757269636E+02  0.51501779887E+02  0.62475606053E+02  0.00000000000E+00 0.  1.
</event>
<event>
 4    1  0.1988088E-002  0.9118800E+02  0.7818608E-02  0.1130116E+00
         25   -1    0    0    0    0  0.00000000000E+00  0.00000000000E+00  0.99999998245E-14  0.12500000000E+03  0.12500000000E+03 0.  0.
        -11    1    1    0    0    0  0.27801421725E+02 -0.10782378853E+02  0.18249779599E+02  0.34960451933E+02  0.51100000000E-03 0. -1.
         11    1    1    0    0    0  0.21866087902E+02 -0.85830383067E+01  0.14374801576E+02  0.27539594538E+02  0.51100000000E-03 0.  1.
         22    1    1    0    0    0 -0.49667509627E+02  0.19365417160E+02 -0.32624581176E+02  0.62499953529E+02  0.00000000000E+00 0. -1.
</event>
<event>
 4    1  0.1988088E-002  0.9118800E+02  0.7818608E-02  0.1130116E+00
         25   -1    0    0    0    0  0.00000000000E+00  0.00000000000E+00  0.99999998245E-14  0.12500000000E+03  0.12500000000E+03 0.  0.
        -11    1    1    0    0    0 -0.49909919530E+02 -0.32207396674E+02  0.14945513610E+02  0.61250998729E+02  0.51100000000E-03 0.  1.
         11    1    1    0    0    0 -0.10188397482E+01 -0.65518012861E+00  0.30448393221E+00  0.12490020655E+01  0.51100000000E-03 0. -1.
         22    1    1    0    0    0  0.50928759278E+02  0.32862576802E+02 -0.15249997542E+02  0.62499999206E+02  0.00000000000E+00 0.  1.
</event>
<event>
 4    1  0.1988088E-002  0.9118800E+02  0.7818608E-02  0.1130116E+00
         25   -1    0    0    0    0  0.00000000000E+00  0.00000000000E+00  0.99999998245E-14  0.12500000000E+03  0.12500000000E+03 0.  0.
        -11    1    1    0    0    0  0.10497894349E+02 -0.40659754187E+02 -0.59070568431E+01  0.42406540971E+02  0.51100000000E-03 0.  1.
         11    1    1    0    0    0  0.49828347022E+01 -0.19263431905E+02 -0.27997629529E+01  0.20093459714E+02  0.51100000000E-03 0. -1.
         22    1    1    0    0    0 -0.15480729051E+02  0.59923186092E+02  0.87068197960E+01  0.62499999315E+02  0.00000000000E+00 0.  1.
</event>
<event>
 4    1  0.1988088E-002  0.9118800E+02  0.7818608E-02  0.1130116E+00
         25   -1    0    0    0    0  0.00000000000E+00  0.00000000000E+00  0.99999998245E-14  0.12500000000E+03  0.12500000000E+03 0.  0.
        -11    1    1    0    0    0 -0.87644950493E+00 -0.26528420040E+02 -0.15524991799E+02  0.30749806572E+02  0.51100000000E-03 0. -1.
         11    1    1    0    0    0 -0.59990870053E-01 -0.27990506536E+02 -0.15004185692E+02  0.31758426340E+02  0.51100000000E-03 0.  1.
         22    1    1    0    0    0  0.93644037499E+00  0.54518926576E+02  0.30529177491E+02  0.62491767089E+02  0.00000000000E+00 0. -1.
</event>
<event>
 4    1  0.1988088E-002  0.9118800E+02  0.7818608E-02  0.1130116E+00
         25   -1    0    0    0    0  0.00000000000E+00  0.00000000000E+00  0.99999998245E-14  0.12500000000E+03  0.12500000000E+03 0.  0.
        -11    1    1    0    0    0 -0.89170981938E+01  0.39594482356E+01  0.29868696431E+01  0.10203590596E+02  0.51100000000E-03 0.  1.
         11    1    1    0    0    0 -0.45677437350E+02  0.20652127570E+02  0.14899664129E+02  0.52296640882E+02  0.51100000000E-03 0. -1.
         22    1    1    0    0    0  0.54594535544E+02 -0.24611575806E+02 -0.17886533772E+02  0.62499768522E+02  0.00000000000E+00 0. -1.
</event>
<event>
 4    1  0.1988088E-002  0.9118800E+02  0.7818608E-02  0.1130116E+00
         25   -1    0    0    0    0  0.00000000000E+00  0.00000000000E+00  0.99999998245E-14  0.12500000000E+03  0.12500000000E+03 0.  0.
        -11    1    1    0    0    0  0.18508031995E+02 -0.17006464279E+02  0.14331438249E+01  0.25175801419E+02  0.51100000000E-03 0.  1.
         11    1    1    0    0    0  0.27437973125E+02 -0.25210176496E+02  0.21681358912E+01  0.37324203698E+02  0.51100000000E-03 0. -1.
         22    1    1    0    0    0 -0.45946005120E+02  0.42216640775E+02 -0.36012797161E+01  0.62499994883E+02  0.00000000000E+00 0. -1.
</event>
<event>
 4    1  0.1988088E-002  0.9118800E+02  0.7818608E-02  0.1130116E+00
         25   -1    0    0    0    0  0.00000000000E+00  0.00000000000E+00  0.99999998245E-14  0.12500000000E+03  0.12500000000E+03 0.  0.
        -11    1    1    0    0    0  0.12596895019E+02  0.26971791191E+02 -0.60801943374E+01  0.30383022358E+02  0.51100000000E-03 0. -1.
         11    1    1    0    0    0  0.13397070285E+02  0.28536822640E+02 -0.61392534530E+01  0.32117318876E+02  0.51100000000E-03 0.  1.
         22    1    1    0    0    0 -0.25993965303E+02 -0.55508613830E+02  0.12219447790E+02  0.62499658766E+02  0.00000000000E+00 0. -1.
</event>
<event>
 4    1  0.1988088E-002  0.9118800E+02  0.7818608E-02  0.1130116E+00
         25   -1    0    0    0    0  0.00000000000E+00  0.00000000000E+00  0.99999998245E-14  0.12500000000E+03  0.12500000000E+03 0.  0.
        -11    1    1    0    0    0  0.41028464864E+02  0.12399897929E+02  0.37319363767E+02  0.56831569659E+02  0.51100000000E-03 0. -1.
         11    1    1    0    0    0  0.41419030200E+01  0.13681247966E+01  0.36218132475E+01  0.56696258736E+01  0.51100000000E-03 0.  1.
         22    1    1    0    0    0 -0.45170367884E+02 -0.13768022726E+02 -0.40941177014E+02  0.62498804467E+02  0.00000000000E+00 0. -1.
</event>
<event>
 4    1  0.1988088E-002  0.9118800E+02  0.7818608E-02  0.1130116E+00
         25   -1    0    0    0    0  0.00000000000E+00  0.00000000000E+00  0.99999998245E-14  0.12500000000E+03  0.12500000000E+03 0.  0.
        -11    1    1    0    0    0 -0.31642804414E+02  0.85026891225E+01 -0.39955471817E+02  0.51672067134E+02  0.51100000000E-03 0.  1.
         11    1    1    0    0    0 -0.74892037183E+01  0.15988433878E+01 -0.76884318465E+01  0.10851564727E+02  0.51100000000E-03 0. -1.
         22    1    1    0    0    0  0.39132008132E+02 -0.10101532510E+02  0.47643903664E+02  0.62476368139E+02  0.00000000000E+00 0.  1.
</event>
<event>
 4    1  0.1988088E-002  0.9118800E+02  0.7818608E-02  0.1130116E+00
         25   -1    0    0    0    0  0.00000000000E+00  0.00000000000E+00  0.99999998245E-14  0.12500000000E+03  0.12500000000E+03 0.  0.
        -11    1    1    0    0    0  0.28891825917E+02  0.62974487030E+01  0.34761660449E+02  0.45637358627E+02  0.51100000000E-03 0.  1.
         11    1    1    0    0    0  0.10675559769E+02  0.23281056792E+01  0.12843715281E+02  0.16862641398E+02  0.51100000000E-03 0. -1.
         22    1    1    0    0    0 -0.39567385687E+02 -0.86255543822E+01 -0.47605375730E+02  0.62499999975E+02  0.00000000000E+00 0.  1.
</event>
<event>
 4    1  0.1988088E-002  0.9118800E+02  0.7818608E-02  0.1130116E+00
         25   -1    0    0    0    0  0.00000000000E+00  0.00000000000E+00  0.99999998245E-14  0.12500000000E+03  0.12500000000E+03 0.  0.
        -11    1    1    0    0    0 -0.88553367751E+01  0.11827144856E+02  0.72498500947E+01  0.16457784526E+02  0.51100000000E-03 0. -1.
         11    1    1    0    0    0 -0.41299411402E+02  0.17810507814E+02  0.13080383935E+02  0.46839641490E+02  0.51100000000E-03 0.  1.
         22    1    1    0    0    0  0.50154748177E+02 -0.29637652670E+02 -0.20330234030E+02  0.61702573984E+02  0.00000000000E+00 0.  1.
</event>
<event>
 4    1  0.1988088E-002  0.9118800E+02  0.7818608E-02  0.1130116E+00
         25   -1    0    0    0    0  0.00000000000E+00  0.00000000000E+00  0.99999998245E-14  0.12500000000E+03  0.12500000000E+03 0.  0.
        -11    1    1    0    0    0 -0.37290660713E+01  0.47073423360E+00 -0.20959287745E+01  0.43035383316E+01  0.51100000000E-03 0. -1.
         11    1    1    0    0    0 -0.50434890348E+02  0.63271068136E+01 -0.28339332398E+02  0.58196462144E+02  0.51100000000E-03 0.  1.
         22    1    1    0    0    0  0.54163956419E+02 -0.67978410472E+01  0.30435261173E+02  0.62499999524E+02  0.00000000000E+00 0.  1.
</event>
<event>
 4    1  0.1988088E-002  0.9118800E+02  0.7818608E-02  0.1130116E+00
         25   -1    0    0    0    0  0.00000000000E+00  0.00000000000E+00  0.99999998245E-14  0.12500000000E+03  0.12500000000E+03 0.  0.
        -11    1    1    0    0    0  0.15058837691E+02 -0.20996747874E+02 -0.53664482582E+02  0.59560966286E+02  0.51100000000E-03 0.  1.
         11    1    1    0    0    0  0.74347374134E+00 -0.10368330340E+01 -0.26476675631E+01  0.29390338089E+01  0.51100000000E-03 0. -1.
         22    1    1    0    0    0 -0.15802311432E+02  0.22033580908E+02  0.56312150145E+02  0.62499999905E+02  0.00000000000E+00 0.  1.
</event>
<event>
 4    1  0.1988088E-002  0.9118800E+02  0.7818608E-02  0.1130116E+00
         25   -1    0    0    0    0  0.00000000000E+00  0.00000000000E+00  0.99999998245E-14  0.12500000000E+03  0.12500000000E+03 0.  0.
        -11    1    1    0    0    0  0.23008481169E+02 -0.52087326606E+02  0.12140451457E+02  0.58222593214E+02  0.51100000000E-03 0.  1.
         11    1    1    0    0    0 -0.23419045574E+01 -0.30710405526E+01  0.41442440139E+01  0.56648535497E+01  0.51100000000E-03 0. -1.
         22    1    1    0    0    0 -0.20666576612E+02  0.55158367159E+02 -0.16284695471E+02  0.61112553236E+02  0.00000000000E+00 0.  1.
</event>
<event>
 4    1  0.1988088E-002  0.9118800E+02  0.7818608E-02  0.1130116E+00
         25   -1    0    0    0    0  0.00000000000E+00  0.00000000000E+00  0.99999998245E-14  0.12500000000E+03  0.12500000000E+03 0.  0.
        -11    1    1    0    0    0 -0.28253939374E+02 -0.51991076761E+02 -0.70912442498E+01  0.59595661740E+02  0.51100000000E-03 0.  1.
         11    1    1    0    0    0  0.60441083447E+00 -0.31479690255E+01  0.12671792172E+01  0.34468485421E+01  0.51100000000E-03 0. -1.
         22    1    1    0    0    0  0.27649528540E+02  0.55139045786E+02  0.58240650325E+01  0.61957489718E+02  0.00000000000E+00 0.  1.
</event>
<event>
 4    1  0.1988088E-002  0.9118800E+02  0.7818608E-02  0.1130116E+00
         25   -1    0    0    0    0  0.00000000000E+00  0.00000000000E+00  0.99999998245E-14  0.12500000000E+03  0.12500000000E+03 0.  0.
        -11    1    1    0    0    0  0.79407233643E+01 -0.73955881255E+01 -0.31934150770E+01  0.11311397411E+02  0.51100000000E-03 0. -1.
         11    1    1    0    0    0  0.35872914484E+02 -0.33491963482E+02 -0.14549800651E+02  0.51188615050E+02  0.51100000000E-03 0.  1.
         22    1    1    0    0    0 -0.43813637848E+02  0.40887551608E+02  0.17743215728E+02  0.62499987539E+02  0.00000000000E+00 0.  1.
</event>
<event>
 4    1  0.1988088E-002  0.9118800E+02  0.7818608E-02  0.1130116E+00
         25   -1    0    0    0    0  0.00000000000E+00  0.00000000000E+00  0.99999998245E-14  0.12500000000E+03  0.12500000000E+03 0.  0.
        -11    1    1    0    0    0 -0.38809712277E+02 -0.35096574762E+02 -0.10644857840E+02  0.53397343807E+02  0.51100000000E-03 0. -1.
         11    1    1    0    0    0 -0.65800023609E+01 -0.58566891372E+01 -0.23188572801E+01  0.91090250886E+01  0.51100000000E-03 0.  1.
         22    1    1    0    0    0  0.45389714637E+02  0.40953263899E+02  0.12963715120E+02  0.62493631104E+02  0.00000000000E+00 0. -1.
</event>
<event>
 4    1  0.1988088E-002  0.9118800E+02  0.7818608E-02  0.1130116E+00
         25   -1    0    0    0    0  0.00000000000E+00  0.00000000000E+00  0.99999998245E-14  0.12500000000E+03  0.12500000000E+03 0.  0.
        -11    1    1    0    0    0 -0.11367041560E+02  0.80970482317E+01  0.95473828965E+01  0.16909297570E+02  0.51100000000E-03 0.  1.
         11    1    1    0    0    0 -0.30362799748E+02  0.30480158413E+02  0.15843384350E+02  0.45847055449E+02  0.51100000000E-03 0. -1.
         22    1    1    0    0    0  0.41729841308E+02 -0.38577206645E+02 -0.25390767247E+02  0.62243646981E+02  0.00000000000E+00 0. -1.
</event>
<event>
 4    1  0.1988088E-002  0.9118800E+02  0.7818608E-02  0.1130116E+00
         25   -1    0    0    0    0  0.00000000000E+00  0.00000000000E+00  0.99999998245E-14  0.12500000000E+03  0.12500000000E+03 0.  0.
        -11    1    1    0    0    0 -0.41966890491E+01  0.25982140682E+01 -0.19487001850E+01  0.53066324529E+01  0.51100000000E-03 0. -1.
         11    1    1    0    0    0 -0.46881710445E+02  0.26296216120E+02 -0.19545460732E+02  0.57196248059E+02  0.51100000000E-03 0.  1.
         22    1    1    0    0    0  0.51078399494E+02 -0.28894430188E+02  0.21494160917E+02  0.62497119488E+02  0.00000000000E+00 0.  1.
</event>
<event>
 4    1  0.1988088E-002  0.9118800E+02  0.7818608E-02  0.1130116E+00
         25   -1    0    0    0    0  0.00000000000E+00  0.00000000000E+00  0.99999998245E-14  0.12500000000E+03  0.12500000000E+03 0.  0.
        -11    1    1    0    0    0 -0.86517931453E+01 -0.16501586489E+02 -0.33015481896E+02  0.37910129601E+02  0.51100000000E-03 0.  1.
         11    1    1    0    0    0 -0.55879229187E+01 -0.10730169898E+02 -0.21407958846E+02  0.24589878625E+02  0.51100000000E-03 0. -1.
         22    1    1    0    0    0  0.14239716064E+02  0.27231756387E+02  0.54423440742E+02  0.62499991774E+02  0.00000000000E+00 0.  1.
</event>
<event>
 4    1  0.1988088E-002  0.9118800E+02  0.7818608E-02  0.1130116E+00
         25   -1    0    0    0    0  0.00000000000E+00  0.00000000000E+00  0.99999998245E-14  0.12500000000E+03  0.12500000000E+03 0.  0.
        -11    1    1    0    0    0  0.12669538860E+02  0.14000558416E+02 -0.99586010013E+01  0.21347285192E+02  0.51100000000E-03 0. -1.
         11    1    1    0    0    0  0.22880241893E+02  0.30113599206E+02 -0.16330659970E+02  0.41194960632E+02  0.51100000000E-03 0.  1.
         22    1    1    0    0    0 -0.35549780753E+02 -0.44114157622E+02  0.26289260971E+02  0.62457754176E+02  0.00000000000E+00 0.  1.
</event>
<event>
 4    1  0.1988088E-002  0.9118800E+02  0.7818608E-02  0.1130116E+00
         25   -1    0    0    0    0  0.00000000000E+00  0.00000000000E+00  0.99999998245E-14  0.12500000000E+03  0.12500000000E+03 0.  0.
        -11    1    1    0    0    0 -0.61424464950E+01 -0.27364057423E+01  0.60520216281E+00  0.67515802038E+01  0.51100000000E-03 0. -1.
         11    1    1    0    0    0 -0.51102984234E+02 -0.21806882513E+02  0.45697439986E+01  0.55748880554E+02  0.51100000000E-03 0.  1.
         22    1    1    0    0    0  0.57245430729E+02  0.24543288256E+02 -0.51749461614E+01  0.62499539242E+02  0.00000000000E+00 0.  1.
</event>
<event>
 4    1  0.1988088E-002  0.9118800E+02  0.7818608E-02  0.1130116E+00
         25   -1    0    0    0    0  0.00000000000E+00  0.00000000000E+00  0.99999998245E-14  0.12500000000E+03  0.12500000000E+03 0.  0.
        -11    1    1    0    0    0  0.13341993241E+02 -0.29465187526E+02  0.52453912152E+02  0.61624824218E+02  0.51100000000E-03 0. -1.
         11    1    1    0    0    0  0.76216975348E-01 -0.43700464693E+00  0.75877930608E+00  0.87893593921E+00  0.51100000000E-03 0.  1.
         22    1    1    0    0    0 -0.13418210216E+02  0.29902192173E+02 -0.53212691459E+02  0.62496239842E+02  0.00000000000E+00 0. -1.
</event>
<event>
 4    1  0.1988088E-002  0.9118800E+02  0.7818608E-02  0.1130116E+00
         25   -1    0    0    0    0  0.00000000000E+00  0.00000000000E+00  0.99999998245E-14  0.12500000000E+03  0.12500000000E+03 0.  0.
        -11    1    1    0    0    0 -0.18453595264E+01 -0.51010968840E+01 -0.30349094672E+01  0.62158842442E+01  0.51100000000E-03 0. -1.
         11    1    1    0    0    0 -0.50408476369E+01 -0.51545926730E+02 -0.22250248472E+02  0.56369018660E+02  0.51100000000E-03 0.  1.
         22    1    1    0    0    0  0.68862071633E+01  0.56647023614E+02  0.25285157939E+02  0.62415097096E+02  0.00000000000E+00 0.  1.
</event>
<event>
 4    1  0.1988088E-002  0.9118800E+02  0.7818608E-02  0.1130116E+00
         25   -1    0    0    0    0  0.00000000000E+00  0.00000000000E+00  0.99999998245E-14  0.12500000000E+03  0.12500000000E+03 0.  0.
        -11    1    1    0    0    0  0.43990904798E+00  0.67128706880E+01  0.31256525479E+02  0.31972277650E+02  0.51100000000E-03 0.  1.
         11    1    1    0    0    0  0.42208672603E+01  0.10090934078E+02  0.28632975267E+02  0.30651100207E+02  0.51100000000E-03 0. -1.
         22    1    1    0    0    0 -0.46607763083E+01 -0.16803804766E+02 -0.59889500746E+02  0.62376622143E+02  0.00000000000E+00 0. -1.
</event>
<event>
 4    1  0.1988088E-002  0.9118800E+02  0.7818608E-02  0.1130116E+00
         25   -1    0    0    0    0  0.00000000000E+00  0.00000000000E+00  0.99999998245E-14  0.12500000000E+03  0.12500000000E+03 0.  0.
        -11    1    1    0    0    0  0.16255265409E+02  0.20426636024E+02 -0.15616354396E+02  0.30419592990E+02  0.51100000000E-03 0.  1.
         11    1    1    0    0    0  0.17137451350E+02  0.21549407929E+02 -0.16464608053E+02  0.32080407408E+02  0.51100000000E-03 0. -1.
         22    1    1    0    0    0 -0.33392716759E+02 -0.41976043954E+02  0.32080962449E+02  0.62499999602E+02  0.00000000000E+00 0. -1.
</event>
<event>
 4    1  0.1988088E-002  0.9118800E+02  0.7818608E-02  0.1130116E+00
         25   -1    0    0    0    0  0.00000000000E+00  0.00000000000E+00  0.99999998245E-14  0.12500000000E+03  0.12500000000E+03 0.  0.
        -11    1    1    0    0    0  0.89496080829E+01 -0.22658719320E+02  0.17531284336E+02  0.30014312866E+02  0.51100000000E-03 0.  1.
         11    1    1    0    0    0  0.19439958504E+02 -0.27620848097E+02  0.25012127058E+01  0.33868559188E+02  0.51100000000E-03 0. -1.
         22    1    1    0    0    0 -0.28389566587E+02  0.50279567417E+02 -0.20032497042E+02  0.61117127946E+02  0.00000000000E+00 0. -1.
</event>
<event>
 4    1  0.1988088E-002  0.9118800E+02  0.7818608E-02  0.1130116E+00
         25   -1    0    0    0    0  0.00000000000E+00  0.00000000000E+00  0.99999998245E-14  0.12500000000E+03  0.12500000000E+03 0.  0.
        -11    1    1    0    0    0  0.59200913440E+01 -0.12438673086E+01 -0.46511961018E+01  0.76307478559E+01  0.51100000000E-03 0. -1.
         11    1    1    0    0    0  0.42559480943E+02 -0.89007228627E+01 -0.33467935388E+02  0.54869253549E+02  0.51100000000E-03 0.  1.
         22    1    1    0    0    0 -0.48479572287E+02  0.10144590171E+02  0.38119131490E+02  0.62499998595E+02  0.00000000000E+00 0.  1.
</event>
<event>
 4    1  0.1988088E-002  0.9118800E+02  0.7818608E-02  0.1130116E+00
         25   -1    0    0    0    0  0.00000000000E+00  0.00000000000E+00  0.99999998245E-14  0.12500000000E+03  0.12500000000E+03 0.  0.
        -11    1    1    0    0    0  0.18061525474E+01  0.15132868712E+01 -0.73390273541E+00  0.24679622495E+01  0.51100000000E-03 0.  1.
         11    1    1    0    0    0  0.43958627527E+02  0.36799063598E+02 -0.17813298056E+02  0.60032038143E+02  0.51100000000E-03 0. -1.
         22    1    1    0    0    0 -0.45764780074E+02 -0.38312350469E+02  0.18547200791E+02  0.62499999607E+02  0.00000000000E+00 0. -1.
</event>
<event>
 4    1  0.1988088E-002  0.9118800E+02  0.7818608E-02  0.1130116E+00
         25   -1    0    0    0    0  0.00000000000E+00  0.00000000000E+00  0.99999998245E-14  0.12500000000E+03  0.12500000000E+03 0.  0.
        -11    1    1    0    0    0 -0.13008825081E+02 -0.97335255038E+01 -0.14723347693E+02  0.21925966713E+02  0.51100000000E-03 0. -1.
         11    1    1    0    0    0 -0.24104901476E+02 -0.18110554200E+02 -0.27151743230E+02  0.40574075581E+02  0.51100000000E-03 0.  1.
         22    1    1    0    0    0  0.37113726557E+02  0.27844079704E+02  0.41875090923E+02  0.62499957706E+02  0.00000000000E+00 0.  1.
</event>
<event>
 4    1  0.1988088E-002  0.9118800E+02  0.7818608E-02  0.1130116E+00
         25   -1    0    0    0    0  0.00000000000E+00  0.00000000000E+00  0.99999998245E-14  0.12500000000E+03  0.12500000000E+03 0.  0.
        -11    1    1    0    0    0  0.95078339216E+01  0.10086293618E+02 -0.36064191646E+01  0.14322656328E+02  0.51100000000E-03 0. -1.
         11    1    1    0    0    0  0.30299354678E+02  0.25236261155E+02 -0.28381721308E+02  0.48584378927E+02  0.51100000000E-03 0.  1.
         22    1    1    0    0    0 -0.39807188600E+02 -0.35322554774E+02  0.31988140473E+02  0.62092964745E+02  0.00000000000E+00 0.  1.
</event>
<event>
 4    1  0.1988088E-002  0.9118800E+02  0.7818608E-02  0.1130116E+00
         25   -1    0    0    0    0  0.00000000000E+00  0.00000000000E+00  0.99999998245E-14  0.12500000000E+03  0.12500000000E+03 0.  0.
        -11    1    1    0    0    0 -0.22680588404E+01  0.15521740526E+01 -0.42084895208E+01  0.50264022423E+01  0.51100000000E-03 0.  1.
         11    1    1    0    0    0 -0.19980657444E+02  0.26703907337E+02 -0.46857285823E+02  0.57514611829E+02  0.51100000000E-03 0. -1.
         22    1    1    0    0    0  0.22248716285E+02 -0.28256081389E+02  0.51065775343E+02  0.62458985928E+02  0.00000000000E+00 0. -1.
</event>
<event>
 4    1  0.1988088E-002  0.9118800E+02  0.7818608E-02  0.1130116E+00
         25   -1    0    0    0    0  0.00000000000E+00  0.00000000000E+00  0.99999998245E-14  0.12500000000E+03  0.12500000000E+03 0.  0.
        -11    1    1    0    0    0 -0.27527405005E+02  0.34615195915E+02 -0.24623432931E+02  0.50619001019E+02  0.51100000000E-03 0.  1.
         11    1    1    0    0    0 -0.64592839764E+01  0.81275844226E+01 -0.57773839355E+01  0.11880999261E+02  0.51100000000E-03 0. -1.
         22    1    1    0    0    0  0.33986688982E+02 -0.42742780338E+02  0.30400816866E+02  0.62499999721E+02  0.00000000000E+00 0.  1.
</event>
<event>
 4    1  0.1988088E-002  0.9118800E+02  0.7818608E-02  0.1130116E+00
         25   -1    0    0    0    0  0.00000000000E+00  0.00000000000E+00  0.99999998245E-14  0.12500000000E+03  0.12500000000E+03 0.  0.
        -11    1    1    0    0    0  0.20287973648E+02 -0.32235235743E+02  0.37491391978E+02  0.53444520494E+02  0.51100000000E-03 0. -1.
         11    1    1    0    0    0  0.45995251459E+01 -0.50126975687E+01  0.60354224816E+01  0.90944539845E+01  0.51100000000E-03 0.  1.
         22    1    1    0    0    0 -0.24887498794E+02  0.37247933312E+02 -0.43526814459E+02  0.62461025521E+02  0.00000000000E+00 0. -1.
</event>
<event>
 4    1  0.1988088E-002  0.9118800E+02  0.7818608E-02  0.1130116E+00
         25   -1    0    0    0    0  0.00000000000E+00  0.00000000000E+00  0.99999998245E-14  0.12500000000E+03  0.12500000000E+03 0.  0.
        -11    1    1    0    0    0 -0.44171743205E+02 -0.32799415905E+02 -0.20781716059E+02  0.58811770115E+02  0.51100000000E-03 0. -1.
         11    1    1    0    0    0  0.58714657276E+01  0.20339398266E+02  0.13908056401E+02  0.25329809804E+02  0.51100000000E-03 0.  1.
         22    1    1    0    0    0  0.38300277477E+02  0.12460017639E+02  0.68736596578E+01  0.40858420081E+02  0.00000000000E+00 0. -1.
</event>
<event>
 4    1  0.1988088E-002  0.9118800E+02  0.7818608E-02  0.1130116E+00
         25   -1    0    0    0    0  0.00000000000E+00  0.00000000000E+00  0.99999998245E-14  0.12500000000E+03  0.12500000000E+03 0.  0.
        -11    1    1    0    0    0  0.42448848106E+02 -0.41405337984E+01  0.92295289064E+01  0.43637517457E+02  0.51100000000E-03 0.  1.
         11    1    1    0    0    0  0.17340573545E+02 -0.64053989981E+00  0.77804845514E+01  0.19016879932E+02  0.51100000000E-03 0. -1.
         22    1    1    0    0    0 -0.59789421651E+02  0.47810736982E+01 -0.17010013458E+02  0.62345602611E+02  0.00000000000E+00 0.  1.
</event>
<event>
 4    1  0.1988088E-002  0.9118800E+02  0.7818608E-02  0.1130116E+00
         25   -1    0    0    0    0  0.00000000000E+00  0.00000000000E+00  0.99999998245E-14  0.12500000000E+03  0.12500000000E+03 0.  0.
        -11    1    1    0    0    0  0.20918851276E+02 -0.20873086046E+02  0.32203484910E+02  0.43707533680E+02  0.51100000000E-03 0. -1.
         11    1    1    0    0    0  0.89917867186E+01 -0.89755491759E+01  0.13847168725E+02  0.18792466399E+02  0.51100000000E-03 0.  1.
         22    1    1    0    0    0 -0.29910637994E+02  0.29848635222E+02 -0.46050653635E+02  0.62499999921E+02  0.00000000000E+00 0. -1.
</event>
<event>
 4    1  0.1988088E-002  0.9118800E+02  0.7818608E-02  0.1130116E+00
         25   -1    0    0    0    0  0.00000000000E+00  0.00000000000E+00  0.99999998245E-14  0.12500000000E+03  0.12500000000E+03 0.  0.
        -11    1    1    0    0    0  0.79290081004E+01 -0.29562363545E+02  0.50010757049E+00  0.30611315157E+02  0.51100000000E-03 0. -1.
         11    1    1    0    0    0  0.82627959173E+01 -0.30795181348E+02  0.52079997782E+00  0.31888684882E+02  0.51100000000E-03 0.  1.
         22    1    1    0    0    0 -0.16191804018E+02  0.60357544893E+02 -0.10209075483E+01  0.62499999961E+02  0.00000000000E+00 0. -1.
</event>
<event>
 4    1  0.1988088E-002  0.9118800E+02  0.7818608E-02  0.1130116E+00
         25   -1    0    0    0    0  0.00000000000E+00  0.00000000000E+00  0.99999998245E-14  0.12500000000E+03  0.12500000000E+03 0.  0.
        -11    1    1    0    0    0 -0.20455357654E+01 -0.11117706278E+01 -0.11358544422E+02  0.11594687669E+02  0.51100000000E-03 0. -1.
         11    1    1    0    0    0 -0.96988578239E+01 -0.14707283308E+02 -0.47857762603E+02  0.50997426083E+02  0.51100000000E-03 0.  1.
         22    1    1    0    0    0  0.11744393589E+02  0.15819053936E+02  0.59216307025E+02  0.62407886248E+02  0.00000000000E+00 0.  1.
</event>
<event>
 4    1  0.1988088E-002  0.9118800E+02  0.7818608E-02  0.1130116E+00
         25   -1    0    0    0    0  0.00000000000E+00  0.00000000000E+00  0.99999998245E-14  0.12500000000E+03  0.12500000000E+03 0.  0.
        -11    1    1    0    0    0  0.10805659397E+02  0.43096375119E+01  0.23783619546E+02  0.26476325453E+02  0.51100000000E-03 0.  1.
         11    1    1    0    0    0  0.14701156453E+02  0.58644491821E+01  0.32360305361E+02  0.36023674557E+02  0.51100000000E-03 0. -1.
         22    1    1    0    0    0 -0.25506815850E+02 -0.10174086694E+02 -0.56143924907E+02  0.62499999991E+02  0.00000000000E+00 0. -1.
</event>
<event>
 4    1  0.1988088E-002  0.9118800E+02  0.7818608E-02  0.1130116E+00
         25   -1    0    0    0    0  0.00000000000E+00  0.00000000000E+00  0.99999998245E-14  0.12500000000E+03  0.12500000000E+03 0.  0.
        -11    1    1    0    0    0  0.27037318702E+02  0.26496343296E+02  0.29995551064E+02  0.48299129335E+02  0.51100000000E-03 0. -1.
         11    1    1    0    0    0  0.81510921993E+01  0.77415929686E+01  0.86785047265E+01  0.14201725609E+02  0.51100000000E-03 0.  1.
         22    1    1    0    0    0 -0.35188410901E+02 -0.34237936264E+02 -0.38674055790E+02  0.62499145056E+02  0.00000000000E+00 0. -1.
</event>
<event>
 4    1  0.1988088E-002  0.9118800E+02  0.7818608E-02  0.1130116E+00
         25   -1    0    0    0    0  0.00000000000E+00  0.00000000000E+00  0.99999998245E-14  0.12500000000E+03  0.12500000000E+03 0.  0.
        -11    1    1    0    0    0  0.41618941196E-01 -0.58248429447E-01  0.37421468256E-01  0.80781453359E-01  0.51100000000E-03 0.  1.
         11    1    1    0    0    0  0.53266011564E+02  0.21345665576E+02  0.24625176103E+02  0.62444413082E+02  0.51100000000E-03 0. -1.
         22    1    1    0    0    0 -0.53307630505E+02 -0.21287417147E+02 -0.24662597572E+02  0.62474805464E+02  0.00000000000E+00 0. -1.
</event>
<event>
 4    1  0.1988088E-002  0.9118800E+02  0.7818608E-02  0.1130116E+00
         25   -1    0    0    0    0  0.00000000000E+00  0.00000000000E+00  0.99999998245E-14  0.12500000000E+03  0.12500000000E+03 0.  0.
        -11    1    1    0    0    0 -0.13625763662E+02  0.35649026835E+02  0.28699295135E+02  0.47751063770E+02  0.51100000000E-03 0. -1.
         11    1    1    0    0    0 -0.30374972634E+01  0.11078339396E+02  0.92826649467E+01  0.14769016967E+02  0.51100000000E-03 0.  1.
         22    1    1    0    0    0  0.16663260926E+02 -0.46727366230E+02 -0.37981960082E+02  0.62479919263E+02  0.00000000000E+00 0. -1.
</event>
<event>
 4    1  0.1988088E-002  0.9118800E+02  0.7818608E-02  0.1130116E+00
         25   -1    0    0    0    0  0.00000000000E+00  0.00000000000E+00  0.99999998245E-14  0.12500000000E+03  0.12500000000E+03 0.  0.
        -11    1    1    0    0    0 -0.14230287311E+02 -0.21160420310E+02  0.26874683077E+02  0.37047443304E+02  0.51100000000E-03 0.  1.
         11    1    1    0    0    0 -0.98204592433E+01 -0.14515692046E+02  0.18457698458E+02  0.25452570950E+02  0.51100000000E-03 0. -1.
         22    1    1    0    0    0  0.24050746555E+02  0.35676112355E+02 -0.45332381535E+02  0.62499985746E+02  0.00000000000E+00 0.  1.
</event>
<event>
 4    1  0.1988088E-002  0.9118800E+02  0.7818608E-02  0.1130116E+00
         25   -1    0    0    0    0  0.00000000000E+00  0.00000000000E+00  0.99999998245E-14  0.12500000000E+03  0.12500000000E+03 0.  0.
        -11    1    1    0    0    0  0.41825668514E+01  0.16904519294E+02 -0.21848362406E+01  0.17550787666E+02  0.51100000000E-03 0.  1.
         11    1    1    0    0    0  0.10767578099E+02  0.43290862890E+02 -0.55130331300E+01  0.44949227829E+02  0.51100000000E-03 0. -1.
         22    1    1    0    0    0 -0.14950144950E+02 -0.60195382184E+02  0.76978693705E+01  0.62499984505E+02  0.00000000000E+00 0. -1.
</event>
<event>
 4    1  0.1988088E-002  0.9118800E+02  0.7818608E-02  0.1130116E+00
         25   -1    0    0    0    0  0.00000000000E+00  0.00000000000E+00  0.99999998245E-14  0.12500000000E+03  0.12500000000E+03 0.  0.
        -11    1    1    0    0    0  0.42193142236E+01 -0.10533018394E+01 -0.24883103481E+01  0.50103638523E+01  0.51100000000E-03 0. -1.
         11    1    1    0    0    0  0.48539877855E+02 -0.11791771224E+02 -0.28458691240E+02  0.57489674883E+02  0.51100000000E-03 0.  1.
         22    1    1    0    0    0 -0.52759192079E+02  0.12845073063E+02  0.30947001588E+02  0.62499961265E+02  0.00000000000E+00 0.  1.
</event>
<event>
 4    1  0.1988088E-002  0.9118800E+02  0.7818608E-02  0.1130116E+00
         25   -1    0    0    0    0  0.00000000000E+00  0.00000000000E+00  0.99999998245E-14  0.12500000000E+03  0.12500000000E+03 0.  0.
        -11    1    1    0    0    0  0.24162760021E+01  0.23936148316E+02 -0.29219504634E+02  0.37849135225E+02  0.51100000000E-03 0.  1.
         11    1    1    0    0    0  0.36540378125E+01  0.12405375978E+02 -0.21121878913E+02  0.24766491770E+02  0.51100000000E-03 0. -1.
         22    1    1    0    0    0 -0.60703138146E+01 -0.36341524294E+02  0.50341383548E+02  0.62384373006E+02  0.00000000000E+00 0. -1.
</event>
<event>
 4    1  0.1988088E-002  0.9118800E+02  0.7818608E-02  0.1130116E+00
         25   -1    0    0    0    0  0.00000000000E+00  0.00000000000E+00  0.99999998245E-14  0.12500000000E+03  0.12500000000E+03 0.  0.
        -11    1    1    0    0    0 -0.44241138070E+02  0.89459224327E+01  0.26547545968E+02  0.52364873943E+02  0.51100000000E-03 0.  1.
         11    1    1    0    0    0 -0.85336738567E+01  0.27744004163E+01  0.47659564210E+01  0.10160473809E+02  0.51100000000E-03 0. -1.
         22    1    1    0    0    0  0.52774811927E+02 -0.11720322849E+02 -0.31313502389E+02  0.62474652248E+02  0.00000000000E+00 0.  1.
</event>
<event>
 4    1  0.1988088E-002  0.9118800E+02  0.7818608E-02  0.1130116E+00
         25   -1    0    0    0    0  0.00000000000E+00  0.00000000000E+00  0.99999998245E-14  0.12500000000E+03  0.12500000000E+03 0.  0.
        -11    1    1    0    0    0 -0.14665946210E+02 -0.61242143106E+01  0.51504373791E+02  0.53900802397E+02  0.51100000000E-03 0. -1.
         11    1    1    0    0    0 -0.23373915898E+01 -0.99062611463E+00  0.82159322147E+01  0.85992024026E+01  0.51100000000E-03 0.  1.
         22    1    1    0    0    0  0.17003337799E+02  0.71148404253E+01 -0.59720306006E+02  0.62499995200E+02  0.00000000000E+00 0. -1.
</event>
<event>
 4    1  0.1988088E-002  0.9118800E+02  0.7818608E-02  0.1130116E+00
         25   -1    0    0    0    0  0.00000000000E+00  0.00000000000E+00  0.99999998245E-14  0.12500000000E+03  0.12500000000E+03 0.  0.
        -11    1    1    0    0    0  0.62034703718E+01 -0.89831704016E+01 -0.15431685978E+02  0.18902839138E+02  0.51100000000E-03 0. -1.
         11    1    1    0    0    0  0.14312711760E+02 -0.20720398732E+02 -0.35588253677E+02  0.43597160935E+02  0.51100000000E-03 0.  1.
         22    1    1    0    0    0 -0.20516182131E+02  0.29703569134E+02  0.51019939654E+02  0.62499999927E+02  0.00000000000E+00 0.  1.
</event>
<event>
 4    1  0.1988088E-002  0.9118800E+02  0.7818608E-02  0.1130116E+00
         25   -1    0    0    0    0  0.00000000000E+00  0.00000000000E+00  0.99999998245E-14  0.12500000000E+03  0.12500000000E+03 0.  0.
        -11    1    1    0    0    0 -0.11267437406E+02 -0.25684920089E+02  0.67701251764E+01  0.28853160327E+02  0.51100000000E-03 0. -1.
         11    1    1    0    0    0 -0.13169157449E+02 -0.29942802874E+02  0.78811126635E+01  0.33646843670E+02  0.51100000000E-03 0.  1.
         22    1    1    0    0    0  0.24436594856E+02  0.55627722963E+02 -0.14651237840E+02  0.62499996003E+02  0.00000000000E+00 0.  1.
</event>
<event>
 4    1  0.1988088E-002  0.9118800E+02  0.7818608E-02  0.1130116E+00
         25   -1    0    0    0    0  0.00000000000E+00  0.00000000000E+00  0.99999998245E-14  0.12500000000E+03  0.12500000000E+03 0.  0.
        -11    1    1    0    0    0 -0.18144319718E+02  0.12824203351E+02  0.93769167483E+01  0.24116448694E+02  0.51100000000E-03 0.  1.
         11    1    1    0    0    0 -0.26869973475E+02  0.25180608585E+02  0.11185322817E+02  0.38485971081E+02  0.51100000000E-03 0. -1.
         22    1    1    0    0    0  0.45014293194E+02 -0.38004811936E+02 -0.20562239566E+02  0.62397580225E+02  0.00000000000E+00 0. -1.
</event>
<event>
 4    1  0.1988088E-002  0.9118800E+02  0.7818608E-02  0.1130116E+00
         25   -1    0    0    0    0  0.00000000000E+00  0.00000000000E+00  0.99999998245E-14  0.12500000000E+03  0.12500000000E+03 0.  0.
        -11    1    1    0    0    0  0.26133326197E+02  0.11036540346E+02 -0.38042824688E+02  0.47455373472E+02  0.51100000000E-03 0. -1.
         11    1    1    0    0    0 -0.17459294997E+02 -0.23581596319E+02 -0.68511285949E+01  0.30130659303E+02  0.51100000000E-03 0.  1.
         22    1    1    0    0    0 -0.86740311994E+01  0.12545055974E+02  0.44893953282E+02  0.47413967224E+02  0.00000000000E+00 0. -1.
</event>
<event>
 4    1  0.1988088E-002  0.9118800E+02  0.7818608E-02  0.1130116E+00
         25   -1    0    0    0    0  0.00000000000E+00  0.00000000000E+00  0.99999998245E-14  0.12500000000E+03  0.12500000000E+03 0.  0.
        -11    1    1    0    0    0  0.45283641948E+00  0.18325586663E+01  0.82446053036E-01  0.18894786850E+01  0.51100000000E-03 0. -1.
         11    1    1    0    0    0  0.14466186887E+02  0.58791934398E+02  0.28059994811E+01  0.60610525048E+02  0.51100000000E-03 0.  1.
         22    1    1    0    0    0 -0.14919023306E+02 -0.60624493064E+02 -0.28884455342E+01  0.62499996267E+02  0.00000000000E+00 0.  1.
</event>
<event>
 4    1  0.1988088E-002  0.9118800E+02  0.7818608E-02  0.1130116E+00
         25   -1    0    0    0    0  0.00000000000E+00  0.00000000000E+00  0.99999998245E-14  0.12500000000E+03  0.12500000000E+03 0.  0.
        -11    1    1    0    0    0 -0.23358788152E+02  0.62528690638E+01  0.54532055391E+02  0.59652966572E+02  0.51100000000E-03 0.  1.
         11    1    1    0    0    0 -0.16622839027E+01 -0.93295484581E+01 -0.79022432066E+01  0.12338926621E+02  0.51100000000E-03 0. -1.
         22    1    1    0    0    0  0.25021072055E+02  0.30766793942E+01 -0.46629812184E+02  0.53008106807E+02  0.00000000000E+00 0.  1.
</event>
<event>
 4    1  0.1988088E-002  0.9118800E+02  0.7818608E-02  0.1130116E+00
         25   -1    0    0    0    0  0.00000000000E+00  0.00000000000E+00  0.99999998245E-14  0.12500000000E+03  0.12500000000E+03 0.  0.
        -11    1    1    0    0    0  0.38185237163E+01  0.10166960456E+02 -0.72848042867E+01  0.13077330845E+02  0.51100000000E-03 0.  1.
         11    1    1    0    0    0  0.14370801787E+02  0.38465414849E+02 -0.27504413877E+02  0.49422675631E+02  0.51100000000E-03 0. -1.
         22    1    1    0    0    0 -0.18189325503E+02 -0.48632375305E+02  0.34789218164E+02  0.62499993524E+02  0.00000000000E+00 0. -1.
</event>
<event>
 4    1  0.1988088E-002  0.9118800E+02  0.7818608E-02  0.1130116E+00
         25   -1    0    0    0    0  0.00000000000E+00  0.00000000000E+00  0.99999998245E-14  0.12500000000E+03  0.12500000000E+03 0.  0.
        -11    1    1    0    0    0  0.32235475468E+02 -0.69688125248E+01  0.40431806230E+01  0.33227060305E+02  0.51100000000E-03 0. -1.
         11    1    1    0    0    0  0.28425602097E+02 -0.60345302806E+01  0.35324118534E+01  0.29272996841E+02  0.51100000000E-03 0.  1.
         22    1    1    0    0    0 -0.60661077565E+02  0.13003342805E+02 -0.75755924765E+01  0.62499942855E+02  0.00000000000E+00 0.  1.
</event>
<event>
 4    1  0.1988088E-002  0.9118800E+02  0.7818608E-02  0.1130116E+00
         25   -1    0    0    0    0  0.00000000000E+00  0.00000000000E+00  0.99999998245E-14  0.12500000000E+03  0.12500000000E+03 0.  0.
        -11    1    1    0    0    0 -0.32589549019E+02  0.57851454907E+01 -0.32495922014E+02  0.46384604789E+02  0.51100000000E-03 0. -1.
         11    1    1    0    0    0 -0.11321973474E+02  0.20092355778E+01 -0.11290786169E+02  0.16115395233E+02  0.51100000000E-03 0.  1.
         22    1    1    0    0    0  0.43911522493E+02 -0.77943810685E+01  0.43786708182E+02  0.62499999979E+02  0.00000000000E+00 0.  1.
</event>
<event>
 4    1  0.1988088E-002  0.9118800E+02  0.7818608E-02  0.1130116E+00
         25   -1    0    0    0    0  0.00000000000E+00  0.00000000000E+00  0.99999998245E-14  0.12500000000E+03  0.12500000000E+03 0.  0.
        -11    1    1    0    0    0  0.41889337275E+02  0.38963901575E+02  0.23445541087E+02  0.61827142910E+02  0.51100000000E-03 0. -1.
         11    1    1    0    0    0  0.46473343925E+00  0.41745795669E+00  0.25012191886E+00  0.67291125015E+00  0.51100000000E-03 0.  1.
         22    1    1    0    0    0 -0.42354070715E+02 -0.39381359532E+02 -0.23695663006E+02  0.62499945840E+02  0.00000000000E+00 0. -1.
</event>
<event>
 4    1  0.1988088E-002  0.9118800E+02  0.7818608E-02  0.1130116E+00
         25   -1    0    0    0    0  0.00000000000E+00  0.00000000000E+00  0.99999998245E-14  0.12500000000E+03  0.12500000000E+03 0.  0.
        -11    1    1    0    0    0 -0.30477718878E+02 -0.23450635835E+00 -0.28863788793E+02  0.41976953736E+02  0.51100000000E-03 0. -1.
         11    1    1    0    0    0 -0.14859079827E+02 -0.46167454436E-01 -0.14156407482E+02  0.20523115207E+02  0.51100000000E-03 0.  1.
         22    1    1    0    0    0  0.45336798705E+02  0.28067381279E+00  0.43020196275E+02  0.62499931057E+02  0.00000000000E+00 0. -1.
</event>
<event>
 4    1  0.1988088E-002  0.9118800E+02  0.7818608E-02  0.1130116E+00
         25   -1    0    0    0    0  0.00000000000E+00  0.00000000000E+00  0.99999998245E-14  0.12500000000E+03  0.12500000000E+03 0.  0.
        -11    1    1    0    0    0 -0.41687639792E+02  0.78742389962E+01 -0.25873112898E+02  0.49691859721E+02  0.51100000000E-03 0. -1.
         11    1    1    0    0    0 -0.10745526716E+02  0.20294444823E+01 -0.66680933045E+01  0.12808140298E+02  0.51100000000E-03 0.  1.
         22    1    1    0    0    0  0.52433166508E+02 -0.99036834785E+01  0.32541206203E+02  0.62499999981E+02  0.00000000000E+00 0. -1.
</event>
<event>
 4    1  0.1988088E-002  0.9118800E+02  0.7818608E-02  0.1130116E+00
         25   -1    0    0    0    0  0.00000000000E+00  0.00000000000E+00  0.99999998245E-14  0.12500000000E+03  0.12500000000E+03 0.  0.
        -11    1    1    0    0    0  0.72522547672E+01 -0.49216153604E+02  0.28268497810E+02  0.57218292036E+02  0.51100000000E-03 0.  1.
         11    1    1    0    0    0  0.63172210374E+01  0.17514355430E+01  0.50060108028E+01  0.82483302865E+01  0.51100000000E-03 0. -1.
         22    1    1    0    0    0 -0.13569475805E+02  0.47464718061E+02 -0.33274508613E+02  0.59533377677E+02  0.00000000000E+00 0.  1.
</event>
<event>
 4    1  0.1988088E-002  0.9118800E+02  0.7818608E-02  0.1130116E+00
         25   -1    0    0    0    0  0.00000000000E+00  0.00000000000E+00  0.99999998245E-14  0.12500000000E+03  0.12500000000E+03 0.  0.
        -11    1    1    0    0    0  0.21385983986E+01 -0.95457702620E+00 -0.20440469367E+02  0.20574197642E+02  0.51100000000E-03 0. -1.
         11    1    1    0    0    0  0.41710938793E+01 -0.24164680676E+01 -0.41648263680E+02  0.41926306896E+02  0.51100000000E-03 0.  1.
         22    1    1    0    0    0 -0.63096922778E+01  0.33710450938E+01  0.62088733047E+02  0.62499495462E+02  0.00000000000E+00 0.  1.
</event>
<event>
 4    1  0.1988088E-002  0.9118800E+02  0.7818608E-02  0.1130116E+00
         25   -1    0    0    0    0  0.00000000000E+00  0.00000000000E+00  0.99999998245E-14  0.12500000000E+03  0.12500000000E+03 0.  0.
        -11    1    1    0    0    0 -0.85495075713E+01  0.37852399515E+01 -0.18522466946E+02  0.20748587982E+02  0.51100000000E-03 0.  1.
         11    1    1    0    0    0 -0.17207985402E+02  0.76170048346E+01 -0.37269919305E+02  0.41751412066E+02  0.51100000000E-03 0. -1.
         22    1    1    0    0    0  0.25757492973E+02 -0.11402244786E+02  0.55792386251E+02  0.62499999952E+02  0.00000000000E+00 0. -1.
</event>
<event>
 4    1  0.1988088E-002  0.9118800E+02  0.7818608E-02  0.1130116E+00
         25   -1    0    0    0    0  0.00000000000E+00  0.00000000000E+00  0.99999998245E-14  0.12500000000E+03  0.12500000000E+03 0.  0.
        -11    1    1    0    0    0 -0.20908022776E+02 -0.14140195735E+02  0.94774050715E+00  0.25258439464E+02  0.51100000000E-03 0.  1.
         11    1    1    0    0    0 -0.31920121474E+02 -0.17529782819E+02  0.85832008011E+01  0.37414686646E+02  0.51100000000E-03 0. -1.
         22    1    1    0    0    0  0.52828144250E+02  0.31669978554E+02 -0.95309413083E+01  0.62326873889E+02  0.00000000000E+00 0.  1.
</event>
<event>
 4    1  0.1988088E-002  0.9118800E+02  0.7818608E-02  0.1130116E+00
         25   -1    0    0    0    0  0.00000000000E+00  0.00000000000E+00  0.99999998245E-14  0.12500000000E+03  0.12500000000E+03 0.  0.
        -11    1    1    0    0    0  0.43122934217E+01 -0.15251779161E+02 -0.25858726168E+02  0.30329628442E+02  0.51100000000E-03 0. -1.
         11    1    1    0    0    0 -0.27351380100E+01 -0.25417254585E+01 -0.32974411679E+02  0.33185134836E+02  0.51100000000E-03 0.  1.
         22    1    1    0    0    0 -0.15771554117E+01  0.17793504620E+02  0.58833137847E+02  0.61485236722E+02  0.00000000000E+00 0. -1.
</event>
<event>
 4    1  0.1988088E-002  0.9118800E+02  0.7818608E-02  0.1130116E+00
         25   -1    0    0    0    0  0.00000000000E+00  0.00000000000E+00  0.99999998245E-14  0.12500000000E+03  0.12500000000E+03 0.  0.
        -11    1    1    0    0    0 -0.24253862377E+02 -0.92703179748E+01  0.54330774479E+02  0.60216456980E+02  0.51100000000E-03 0. -1.
         11    1    1    0    0    0 -0.95231927176E+00 -0.40685977613E+00  0.20357791770E+01  0.22840411536E+01  0.51100000000E-03 0.  1.
         22    1    1    0    0    0  0.25206181649E+02  0.96771777510E+01 -0.56366553656E+02  0.62499501866E+02  0.00000000000E+00 0. -1.
</event>
<event>
 4    1  0.1988088E-002  0.9118800E+02  0.7818608E-02  0.1130116E+00
         25   -1    0    0    0    0  0.00000000000E+00  0.00000000000E+00  0.99999998245E-14  0.12500000000E+03  0.12500000000E+03 0.  0.
        -11    1    1    0    0    0  0.15742420452E+02 -0.15467970090E+02  0.22762734710E+02  0.31705267577E+02  0.51100000000E-03 0.  1.
         11    1    1    0    0    0 -0.25769950691E+02 -0.23114000996E+02  0.15600216200E+02  0.37969911067E+02  0.51100000000E-03 0. -1.
         22    1    1    0    0    0  0.10027530239E+02  0.38581971086E+02 -0.38362950910E+02  0.55324821356E+02  0.00000000000E+00 0. -1.
</event>
<event>
 4    1  0.1988088E-002  0.9118800E+02  0.7818608E-02  0.1130116E+00
         25   -1    0    0    0    0  0.00000000000E+00  0.00000000000E+00  0.99999998245E-14  0.12500000000E+03  0.12500000000E+03 0.  0.
        -11    1    1    0    0    0  0.13291084216E+02 -0.35539606840E+02 -0.29029530131E+02  0.47774786173E+02  0.51100000000E-03 0. -1.
         11    1    1    0    0    0  0.78479265008E+01 -0.10655030723E+02 -0.69746833728E+01  0.14958804715E+02  0.51100000000E-03 0.  1.
         22    1    1    0    0    0 -0.21139010717E+02  0.46194637563E+02  0.36004213504E+02  0.62266409112E+02  0.00000000000E+00 0. -1.
</event>
<event>
 4    1  0.1988088E-002  0.9118800E+02  0.7818608E-02  0.1130116E+00
         25   -1    0    0    0    0  0.00000000000E+00  0.00000000000E+00  0.99999998245E-14  0.12500000000E+03  0.12500000000E+03 0.  0.
        -11    1    1    0    0    0  0.93987319486E+01 -0.66439969861E+01  0.12674403142E+02  0.17120728765E+02  0.51100000000E-03 0.  1.
         11    1    1    0    0    0  0.25429679378E+02 -0.16578865424E+02  0.33733306564E+02  0.45381310514E+02  0.51100000000E-03 0. -1.
         22    1    1    0    0    0 -0.34828411326E+02  0.23222862410E+02 -0.46407709706E+02  0.62497960720E+02  0.00000000000E+00 0. -1.
</event>
<event>
 4    1  0.1988088E-002  0.9118800E+02  0.7818608E-02  0.1130116E+00
         25   -1    0    0    0    0  0.00000000000E+00  0.00000000000E+00  0.99999998245E-14  0.12500000000E+03  0.12500000000E+03 0.  0.
        -11    1    1    0    0    0  0.55922842826E+01  0.23042407106E+01 -0.59139008579E+01  0.84591602638E+01  0.51100000000E-03 0. -1.
         11    1    1    0    0    0  0.35533910974E+02  0.14198783096E+02 -0.38159910150E+02  0.54041123354E+02  0.51100000000E-03 0.  1.
         22    1    1    0    0    0 -0.41126195257E+02 -0.16503023806E+02  0.44073811008E+02  0.62499716382E+02  0.00000000000E+00 0.  1.
</event>
<event>
 4    1  0.1988088E-002  0.9118800E+02  0.7818608E-02  0.1130116E+00
         25   -1    0    0    0    0  0.00000000000E+00  0.00000000000E+00  0.99999998245E-14  0.12500000000E+03  0.12500000000E+03 0.  0.
        -11    1    1    0    0    0  0.38799247596E+01  0.48523767948E+02 -0.11328518817E+02  0.49979447884E+02  0.51100000000E-03 0. -1.
         11    1    1    0    0    0  0.38797261768E+01  0.11626787697E+02 -0.31748400324E+01  0.12661519531E+02  0.51100000000E-03 0.  1.
         22    1    1    0    0    0 -0.77596509364E+01 -0.60150555644E+02  0.14503358849E+02  0.62359032584E+02  0.00000000000E+00 0. -1.
</event>
<event>
 4    1  0.1988088E-002  0.9118800E+02  0.7818608E-02  0.1130116E+00
         25   -1    0    0    0    0  0.00000000000E+00  0.00000000000E+00  0.99999998245E-14  0.12500000000E+03  0.12500000000E+03 0.  0.
        -11    1    1    0    0    0 -0.23626538368E+01  0.27546480059E+01 -0.21232561695E+01  0.42045732020E+01  0.51100000000E-03 0.  1.
         11    1    1    0    0    0 -0.32753758629E+02  0.38208494330E+02 -0.29422084597E+02  0.58295426970E+02  0.51100000000E-03 0. -1.
         22    1    1    0    0    0  0.35116412466E+02 -0.40963142336E+02  0.31545340766E+02  0.62499999828E+02  0.00000000000E+00 0. -1.
</event>
<event>
 4    1  0.1988088E-002  0.9118800E+02  0.7818608E-02  0.1130116E+00
         25   -1    0    0    0    0  0.00000000000E+00  0.00000000000E+00  0.99999998245E-14  0.12500000000E+03  0.12500000000E+03 0.  0.
        -11    1    1    0    0    0  0.86647981523E+01 -0.20009145869E+02  0.42724780023E+02  0.47967191639E+02  0.51100000000E-03 0. -1.
         11    1    1    0    0    0  0.26216801054E+01 -0.60623339054E+01  0.12945169940E+02  0.14532808537E+02  0.51100000000E-03 0. -1.
         22    1    1    0    0    0 -0.11286478258E+02  0.26071479775E+02 -0.55669949963E+02  0.62499999824E+02  0.00000000000E+00 0. -1.
</event>
<event>
 4    1  0.1988088E-002  0.9118800E+02  0.7818608E-02  0.1130116E+00
         25   -1    0    0    0    0  0.00000000000E+00  0.00000000000E+00  0.99999998245E-14  0.12500000000E+03  0.12500000000E+03 0.  0.
        -11    1    1    0    0    0 -0.19773292862E+02  0.10131819744E+02 -0.38340177255E+01  0.22546320634E+02  0.51100000000E-03 0.  1.
         11    1    1    0    0    0 -0.34902099610E+02  0.18153437725E+02 -0.69720089570E+01  0.39953883010E+02  0.51100000000E-03 0. -1.
         22    1    1    0    0    0  0.54675392472E+02 -0.28285257468E+02  0.10806026682E+02  0.62499796357E+02  0.00000000000E+00 0. -1.
</event>
<event>
 4    1  0.1988088E-002  0.9118800E+02  0.7818608E-02  0.1130116E+00
         25   -1    0    0    0    0  0.00000000000E+00  0.00000000000E+00  0.99999998245E-14  0.12500000000E+03  0.12500000000E+03 0.  0.
        -11    1    1    0    0    0  0.33045200063E+02 -0.47387618955E+02  0.72187051212E+01  0.58220970289E+02  0.51100000000E-03 0. -1.
         11    1    1    0    0    0  0.23366042019E+01 -0.35373179470E+01  0.58700663018E+00  0.42798264567E+01  0.51100000000E-03 0.  1.
         22    1    1    0    0    0 -0.35381804265E+02  0.50924936902E+02 -0.78057117514E+01  0.62499203255E+02  0.00000000000E+00 0. -1.
</event>
<event>
 4    1  0.1988088E-002  0.9118800E+02  0.7818608E-02  0.1130116E+00
         25   -1    0    0    0    0  0.00000000000E+00  0.00000000000E+00  0.99999998245E-14  0.12500000000E+03  0.12500000000E+03 0.  0.
        -11    1    1    0    0    0 -0.54164597414E+02  0.27541390213E+02 -0.57504841585E+01  0.61036053741E+02  0.51100000000E-03 0. -1.
         11    1    1    0    0    0 -0.12978388241E+01  0.66304929387E+00 -0.13828379219E+00  0.14639476247E+01  0.51100000000E-03 0.  1.
         22    1    1    0    0    0  0.55462436238E+02 -0.28204439507E+02  0.58887679507E+01  0.62499998635E+02  0.00000000000E+00 0. -1.
</event>
<event>
 4    1  0.1988088E-002  0.9118800E+02  0.7818608E-02  0.1130116E+00
         25   -1    0    0    0    0  0.00000000000E+00  0.00000000000E+00  0.99999998245E-14  0.12500000000E+03  0.12500000000E+03 0.  0.
        -11    1    1    0    0    0 -0.17853630059E+02 -0.90744174131E+01  0.34088464614E+02  0.39536319728E+02  0.51100000000E-03 0. -1.
         11    1    1    0    0    0 -0.56562691228E+01  0.10399124114E+01  0.22732361454E+02  0.23448561912E+02  0.51100000000E-03 0.  1.
         22    1    1    0    0    0  0.23509899182E+02  0.80345050016E+01 -0.56820826068E+02  0.62015118360E+02  0.00000000000E+00 0. -1.
</event>
<event>
 4    1  0.1988088E-002  0.9118800E+02  0.7818608E-02  0.1130116E+00
         25   -1    0    0    0    0  0.00000000000E+00  0.00000000000E+00  0.99999998245E-14  0.12500000000E+03  0.12500000000E+03 0.  0.
        -11    1    1    0    0    0 -0.79543521116E+01 -0.28658382026E+02 -0.32832970921E+02  0.44300999511E+02  0.51100000000E-03 0. -1.
         11    1    1    0    0    0 -0.32674508014E+01 -0.11770209625E+02 -0.13490350412E+02  0.18199000627E+02  0.51100000000E-03 0.  1.
         22    1    1    0    0    0  0.11221802913E+02  0.40428591651E+02  0.46323321332E+02  0.62499999862E+02  0.00000000000E+00 0. -1.
</event>
<event>
 4    1  0.1988088E-002  0.9118800E+02  0.7818608E-02  0.1130116E+00
         25   -1    0    0    0    0  0.00000000000E+00  0.00000000000E+00  0.99999998245E-14  0.12500000000E+03  0.12500000000E+03 0.  0.
        -11    1    1    0    0    0 -0.12057852763E+02  0.23044358975E+02  0.50570522481E+02  0.56866616200E+02  0.51100000000E-03 0.  1.
         11    1    1    0    0    0 -0.11961564604E+01  0.22871222689E+01  0.50073252803E+01  0.56333848861E+01  0.51100000000E-03 0. -1.
         22    1    1    0    0    0  0.13254009223E+02 -0.25331481244E+02 -0.55577847761E+02  0.62499998914E+02  0.00000000000E+00 0.  1.
</event>
<event>
 4    1  0.1988088E-002  0.9118800E+02  0.7818608E-02  0.1130116E+00
         25   -1    0    0    0    0  0.00000000000E+00  0.00000000000E+00  0.99999998245E-14  0.12500000000E+03  0.12500000000E+03 0.  0.
        -11    1    1    0    0    0  0.16084980992E+01 -0.95017232119E+00  0.23159254183E+00  0.18824794665E+01  0.51100000000E-03 0. -1.
         11    1    1    0    0    0  0.51898407708E+02 -0.30637419172E+02  0.65116267593E+01  0.60617633238E+02  0.51100000000E-03 0.  1.
         22    1    1    0    0    0 -0.53506905807E+02  0.31587591493E+02 -0.67432193011E+01  0.62499887295E+02  0.00000000000E+00 0.  1.
</event>
<event>
 4    1  0.1988088E-002  0.9118800E+02  0.7818608E-02  0.1130116E+00
         25   -1    0    0    0    0  0.00000000000E+00  0.00000000000E+00  0.99999998245E-14  0.12500000000E+03  0.12500000000E+03 0.  0.
        -11    1    1    0    0    0  0.21432801668E+02 -0.81499456380E+01 -0.17083409804E+02  0.28594221304E+02  0.51100000000E-03 0. -1.
         11    1    1    0    0    0  0.25409795056E+02 -0.96505020509E+01 -0.20268498484E+02  0.33905779827E+02  0.51100000000E-03 0.  1.
         22    1    1    0    0    0 -0.46842596724E+02  0.17800447689E+02  0.37351908288E+02  0.62499998868E+02  0.00000000000E+00 0.  1.
</event>
<event>
 4    1  0.1988088E-002  0.9118800E+02  0.7818608E-02  0.1130116E+00
         25   -1    0    0    0    0  0.00000000000E+00  0.00000000000E+00  0.99999998245E-14  0.12500000000E+03  0.12500000000E+03 0.  0.
        -11    1    1    0    0    0  0.29096480503E+02  0.85952288518E+01  0.10174533868E+02  0.32000066818E+02  0.51100000000E-03 0.  1.
         11    1    1    0    0    0  0.61314592900E+01  0.35257490671E+02 -0.82059891284E+01  0.36715442246E+02  0.51100000000E-03 0. -1.
         22    1    1    0    0    0 -0.35227939793E+02 -0.43852719523E+02 -0.19685447394E+01  0.56284490937E+02  0.00000000000E+00 0. -1.
</event>
<event>
 4    1  0.1988088E-002  0.9118800E+02  0.7818608E-02  0.1130116E+00
         25   -1    0    0    0    0  0.00000000000E+00  0.00000000000E+00  0.99999998245E-14  0.12500000000E+03  0.12500000000E+03 0.  0.
        -11    1    1    0    0    0  0.34199954623E+02 -0.22602150883E+02  0.31728192674E+01  0.41116431060E+02  0.51100000000E-03 0. -1.
         11    1    1    0    0    0  0.15289087004E+02 -0.15121210506E+02 -0.25405758202E+01  0.21653214873E+02  0.51100000000E-03 0.  1.
         22    1    1    0    0    0 -0.49489041626E+02  0.37723361389E+02 -0.63224344726E+00  0.62230354067E+02  0.00000000000E+00 0. -1.
</event>
<event>
 4    1  0.1988088E-002  0.9118800E+02  0.7818608E-02  0.1130116E+00
         25   -1    0    0    0    0  0.00000000000E+00  0.00000000000E+00  0.99999998245E-14  0.12500000000E+03  0.12500000000E+03 0.  0.
        -11    1    1    0    0    0 -0.40322186795E+02  0.35931098232E+02 -0.17315420430E+02  0.56716367594E+02  0.51100000000E-03 0. -1.
         11    1    1    0    0    0 -0.41051025660E+01  0.36727866465E+01 -0.17633016452E+01  0.57836374178E+01  0.51100000000E-03 0.  1.
         22    1    1    0    0    0  0.44427289361E+02 -0.39603884879E+02  0.19078722075E+02  0.62499994988E+02  0.00000000000E+00 0. -1.
</event>
<event>
 4    1  0.1988088E-002  0.9118800E+02  0.7818608E-02  0.1130116E+00
         25   -1    0    0    0    0  0.00000000000E+00  0.00000000000E+00  0.99999998245E-14  0.12500000000E+03  0.12500000000E+03 0.  0.
        -11    1    1    0    0    0 -0.13743207892E+01  0.30280644823E+00 -0.95457374618E+01  0.96489146191E+01  0.51100000000E-03 0.  1.
         11    1    1    0    0    0 -0.75025507685E+01  0.16064230886E+01 -0.52291190697E+02  0.52851087859E+02  0.51100000000E-03 0. -1.
         22    1    1    0    0    0  0.88768715577E+01 -0.19092295369E+01  0.61836928159E+02  0.62499997521E+02  0.00000000000E+00 0.  1.
</event>
<event>
 4    1  0.1988088E-002  0.9118800E+02  0.7818608E-02  0.1130116E+00
         25   -1    0    0    0    0  0.00000000000E+00  0.00000000000E+00  0.99999998245E-14  0.12500000000E+03  0.12500000000E+03 0.  0.
        -11    1    1    0    0    0 -0.23868734149E+02 -0.10920698474E+02 -0.30220396430E+02  0.40028121185E+02  0.51100000000E-03 0. -1.
         11    1    1    0    0    0 -0.13422594841E+02 -0.61438908642E+01 -0.16943207243E+02  0.22471887307E+02  0.51100000000E-03 0.  1.
         22    1    1    0    0    0  0.37291328990E+02  0.17064589338E+02  0.47163603672E+02  0.62499991507E+02  0.00000000000E+00 0. -1.
</event>
<event>
 4    1  0.1988088E-002  0.9118800E+02  0.7818608E-02  0.1130116E+00
         25   -1    0    0    0    0  0.00000000000E+00  0.00000000000E+00  0.99999998245E-14  0.12500000000E+03  0.12500000000E+03 0.  0.
        -11    1    1    0    0    0 -0.20329939626E+02 -0.35700192648E+02  0.22907853216E+02  0.47038069045E+02  0.51100000000E-03 0.  1.
         11    1    1    0    0    0 -0.63094258613E+01 -0.12144008854E+02  0.72069526805E+01  0.15466931594E+02  0.51100000000E-03 0. -1.
         22    1    1    0    0    0  0.26639365487E+02  0.47844201501E+02 -0.30114805897E+02  0.62494999360E+02  0.00000000000E+00 0.  1.
</event>
<event>
 4    1  0.1988088E-002  0.9118800E+02  0.7818608E-02  0.1130116E+00
         25   -1    0    0    0    0  0.00000000000E+00  0.00000000000E+00  0.99999998245E-14  0.12500000000E+03  0.12500000000E+03 0.  0.
        -11    1    1    0    0    0  0.63035766485E+01  0.42625460060E+02 -0.15726304468E+02  0.45869178937E+02  0.51100000000E-03 0.  1.
         11    1    1    0    0    0  0.13542333329E+01  0.14516086023E+02 -0.81814381256E+01  0.16717853673E+02  0.51100000000E-03 0. -1.
         22    1    1    0    0    0 -0.76578099814E+01 -0.57141546083E+02  0.23907742593E+02  0.62412967390E+02  0.00000000000E+00 0.  1.
</event>
<event>
 4    1  0.1988088E-002  0.9118800E+02  0.7818608E-02  0.1130116E+00
         25   -1    0    0    0    0  0.00000000000E+00  0.00000000000E+00  0.99999998245E-14  0.12500000000E+03  0.12500000000E+03 0.  0.
        -11    1    1    0    0    0  0.19809943605E+02 -0.61545047398E+01  0.37997738309E+02  0.43291337598E+02  0.51100000000E-03 0.  1.
         11    1    1    0    0    0  0.10461439587E+02 -0.24866952526E+01  0.15956782527E+02  0.19241732781E+02  0.51100000000E-03 0. -1.
         22    1    1    0    0    0 -0.30271383192E+02  0.86411999924E+01 -0.53954520836E+02  0.62466929621E+02  0.00000000000E+00 0.  1.
</event>
<event>
 4    1  0.1988088E-002  0.9118800E+02  0.7818608E-02  0.1130116E+00
         25   -1    0    0    0    0  0.00000000000E+00  0.00000000000E+00  0.99999998245E-14  0.12500000000E+03  0.12500000000E+03 0.  0.
        -11    1    1    0    0    0 -0.36763995117E+02 -0.12140059972E+02 -0.32618727561E+02  0.50625623760E+02  0.51100000000E-03 0.  1.
         11    1    1    0    0    0 -0.86171734468E+01 -0.28718914304E+01 -0.76483743544E+01  0.11874387105E+02  0.51100000000E-03 0. -1.
         22    1    1    0    0    0  0.45381168564E+02  0.15011951402E+02  0.40267101916E+02  0.62499989135E+02  0.00000000000E+00 0.  1.
</event>
<event>
 4    1  0.1988088E-002  0.9118800E+02  0.7818608E-02  0.1130116E+00
         25   -1    0    0    0    0  0.00000000000E+00  0.00000000000E+00  0.99999998245E-14  0.12500000000E+03  0.12500000000E+03 0.  0.
        -11    1    1    0    0    0 -0.15664894469E+02  0.18684659997E+01 -0.10600563645E+02  0.19006631310E+02  0.51100000000E-03 0. -1.
         11    1    1    0    0    0 -0.35838626807E+02  0.42667762832E+01 -0.24270570983E+02  0.43493369234E+02  0.51100000000E-03 0.  1.
         22    1    1    0    0    0  0.51503521276E+02 -0.61352422829E+01  0.34871134628E+02  0.62499999455E+02  0.00000000000E+00 0. -1.
</event>
<event>
 4    1  0.1988088E-002  0.9118800E+02  0.7818608E-02  0.1130116E+00
         25   -1    0    0    0    0  0.00000000000E+00  0.00000000000E+00  0.99999998245E-14  0.12500000000E+03  0.12500000000E+03 0.  0.
        -11    1    1    0    0    0  0.62687689362E+00 -0.63099476614E+00 -0.40691922785E+00  0.97811684055E+00  0.51100000000E-03 0.  1.
         11    1    1    0    0    0  0.39541424514E+02 -0.39574544337E+02 -0.25598310555E+02  0.61521884851E+02  0.51100000000E-03 0. -1.
         22    1    1    0    0    0 -0.40168301408E+02  0.40205539103E+02  0.26005229782E+02  0.62499998309E+02  0.00000000000E+00 0. -1.
</event>
<event>
 4    1  0.1988088E-002  0.9118800E+02  0.7818608E-02  0.1130116E+00
         25   -1    0    0    0    0  0.00000000000E+00  0.00000000000E+00  0.99999998245E-14  0.12500000000E+03  0.12500000000E+03 0.  0.
        -11    1    1    0    0    0  0.11064488629E+02 -0.10168197861E+02  0.13312641557E+02  0.20075895543E+02  0.51100000000E-03 0.  1.
         11    1    1    0    0    0  0.23543427619E+02 -0.21291672888E+02  0.28145811722E+02  0.42424226995E+02  0.51100000000E-03 0. -1.
         22    1    1    0    0    0 -0.34607916248E+02  0.31459870748E+02 -0.41458453279E+02  0.62499877462E+02  0.00000000000E+00 0. -1.
</event>
<event>
 4    1  0.1988088E-002  0.9118800E+02  0.7818608E-02  0.1130116E+00
         25   -1    0    0    0    0  0.00000000000E+00  0.00000000000E+00  0.99999998245E-14  0.12500000000E+03  0.12500000000E+03 0.  0.
        -11    1    1    0    0    0  0.44443157482E+01  0.24807158628E+01  0.16437547020E+02  0.17207522947E+02  0.51100000000E-03 0. -1.
         11    1    1    0    0    0  0.11564046922E+02  0.65686005520E+01  0.43295930399E+02  0.45292508032E+02  0.51100000000E-03 0.  1.
         22    1    1    0    0    0 -0.16008362670E+02 -0.90493164148E+01 -0.59733477420E+02  0.62499969021E+02  0.00000000000E+00 0.  1.
</event>
<event>
 4    1  0.1988088E-002  0.9118800E+02  0.7818608E-02  0.1130116E+00
         25   -1    0    0    0    0  0.00000000000E+00  0.00000000000E+00  0.99999998245E-14  0.12500000000E+03  0.12500000000E+03 0.  0.
        -11    1    1    0    0    0  0.14910366392E+02  0.13779711403E+02  0.22878004295E+02  0.30587620912E+02  0.51100000000E-03 0. -1.
         11    1    1    0    0    0  0.16835648440E+02  0.12089613669E+02  0.24300796386E+02  0.31939419568E+02  0.51100000000E-03 0.  1.
         22    1    1    0    0    0 -0.31746014833E+02 -0.25869325072E+02 -0.47178800681E+02  0.62472959520E+02  0.00000000000E+00 0.  1.
</event>
<event>
 4    1  0.1988088E-002  0.9118800E+02  0.7818608E-02  0.1130116E+00
         25   -1    0    0    0    0  0.00000000000E+00  0.00000000000E+00  0.99999998245E-14  0.12500000000E+03  0.12500000000E+03 0.  0.
        -11    1    1    0    0    0  0.10235594606E+01 -0.41295868839E+02  0.36574262744E+02  0.55173119838E+02  0.51100000000E-03 0.  1.
         11    1    1    0    0    0  0.33421636731E+00 -0.55083585322E+01  0.48215795344E+01  0.73281200704E+01  0.51100000000E-03 0. -1.
         22    1    1    0    0    0 -0.13577758279E+01  0.46804227371E+02 -0.41395842278E+02  0.62498760091E+02  0.00000000000E+00 0.  1.
</event>
<event>
 4    1  0.1988088E-002  0.9118800E+02  0.7818608E-02  0.1130116E+00
         25   -1    0    0    0    0  0.00000000000E+00  0.00000000000E+00  0.99999998245E-14  0.12500000000E+03  0.12500000000E+03 0.  0.
        -11    1    1    0    0    0  0.34071157342E+02  0.47850040862E+02  0.15599078963E+02  0.60776652078E+02  0.51100000000E-03 0. -1.
         11    1    1    0    0    0 -0.97889236519E+00 -0.16930980232E+02 -0.30879776131E+01  0.17238095251E+02  0.51100000000E-03 0.  1.
         22    1    1    0    0    0 -0.33092264977E+02 -0.30919060630E+02 -0.12511101350E+02  0.46985252671E+02  0.00000000000E+00 0. -1.
</event>
<event>
 4    1  0.1988088E-002  0.9118800E+02  0.7818608E-02  0.1130116E+00
         25   -1    0    0    0    0  0.00000000000E+00  0.00000000000E+00  0.99999998245E-14  0.12500000000E+03  0.12500000000E+03 0.  0.
        -11    1    1    0    0    0 -0.51384361605E+01  0.23277476753E+02  0.20292380041E+02  0.31305353187E+02  0.51100000000E-03 0.  1.
         11    1    1    0    0    0 -0.51130725224E+01  0.23201144293E+02  0.20215573475E+02  0.31194647271E+02  0.51100000000E-03 0. -1.
         22    1    1    0    0    0  0.10251508683E+02 -0.46478621047E+02 -0.40507953517E+02  0.62499999542E+02  0.00000000000E+00 0. -1.
</event>
<event>
 4    1  0.1988088E-002  0.9118800E+02  0.7818608E-02  0.1130116E+00
         25   -1    0    0    0    0  0.00000000000E+00  0.00000000000E+00  0.99999998245E-14  0.12500000000E+03  0.12500000000E+03 0.  0.
        -11    1    1    0    0    0  0.13066920778E+02 -0.25738088235E+02 -0.11940931632E+02  0.31237468738E+02  0.51100000000E-03 0. -1.
         11    1    1    0    0    0  0.13078421584E+02 -0.25757568945E+02 -0.11951920054E+02  0.31262531284E+02  0.51100000000E-03 0.  1.
         22    1    1    0    0    0 -0.26145342362E+02  0.51495657180E+02  0.23892851686E+02  0.62499999978E+02  0.00000000000E+00 0.  1.
</event>
<event>
 4    1  0.1988088E-002  0.9118800E+02  0.7818608E-02  0.1130116E+00
         25   -1    0    0    0    0  0.00000000000E+00  0.00000000000E+00  0.99999998245E-14  0.12500000000E+03  0.12500000000E+03 0.  0.
        -11    1    1    0    0    0 -0.16811752196E+02  0.49198483215E+02  0.44713779015E+01  0.52183512561E+02  0.51100000000E-03 0.  1.
         11    1    1    0    0    0 -0.33252203214E+01  0.97263477558E+01  0.87806478973E+00  0.10316488205E+02  0.51100000000E-03 0. -1.
         22    1    1    0    0    0  0.20136972518E+02 -0.58924830971E+02 -0.53494426912E+01  0.62499999234E+02  0.00000000000E+00 0.  1.
</event>
<event>
 4    1  0.1988088E-002  0.9118800E+02  0.7818608E-02  0.1130116E+00
         25   -1    0    0    0    0  0.00000000000E+00  0.00000000000E+00  0.99999998245E-14  0.12500000000E+03  0.12500000000E+03 0.  0.
        -11    1    1    0    0    0 -0.17453205494E+02 -0.25873004522E+02  0.14473429380E+02  0.34402135156E+02  0.51100000000E-03 0. -1.
         11    1    1    0    0    0 -0.13641597472E+02 -0.21873602189E+02  0.11193999085E+02  0.28104328316E+02  0.51100000000E-03 0.  1.
         22    1    1    0    0    0  0.31094802966E+02  0.47746606711E+02 -0.25667428464E+02  0.62493536529E+02  0.00000000000E+00 0.  1.
</event>
<event>
 4    1  0.1988088E-002  0.9118800E+02  0.7818608E-02  0.1130116E+00
         25   -1    0    0    0    0  0.00000000000E+00  0.00000000000E+00  0.99999998245E-14  0.12500000000E+03  0.12500000000E+03 0.  0.
        -11    1    1    0    0    0 -0.21589078548E+02  0.11233050174E+02 -0.95962723264E+01  0.26160240281E+02  0.51100000000E-03 0.  1.
         11    1    1    0    0    0 -0.29899988068E+02  0.15520573339E+02 -0.13627261179E+02  0.36340056835E+02  0.51100000000E-03 0. -1.
         22    1    1    0    0    0  0.51489066616E+02 -0.26753623513E+02  0.23223533505E+02  0.62499702884E+02  0.00000000000E+00 0. -1.
</event>
<event>
 4    1  0.1988088E-002  0.9118800E+02  0.7818608E-02  0.1130116E+00
         25   -1    0    0    0    0  0.00000000000E+00  0.00000000000E+00  0.99999998245E-14  0.12500000000E+03  0.12500000000E+03 0.  0.
        -11    1    1    0    0    0 -0.25800081089E+02  0.29398763064E+02  0.87270823710E+01  0.40076095379E+02  0.51100000000E-03 0.  1.
         11    1    1    0    0    0 -0.14641774398E+02  0.16629187057E+02  0.35388494378E+01  0.22437354463E+02  0.51100000000E-03 0. -1.
         22    1    1    0    0    0  0.40441855487E+02 -0.46027950121E+02 -0.12265931809E+02  0.62486550158E+02  0.00000000000E+00 0.  1.
</event>
<event>
 4    1  0.1988088E-002  0.9118800E+02  0.7818608E-02  0.1130116E+00
         25   -1    0    0    0    0  0.00000000000E+00  0.00000000000E+00  0.99999998245E-14  0.12500000000E+03  0.12500000000E+03 0.  0.
        -11    1    1    0    0    0 -0.36721755683E+00  0.19904441690E+02  0.12628304652E+02  0.23575320281E+02  0.51100000000E-03 0.  1.
         11    1    1    0    0    0 -0.62440845099E+00  0.32845199752E+02  0.20879031134E+02  0.38924683352E+02  0.51100000000E-03 0. -1.
         22    1    1    0    0    0  0.99162600782E+00 -0.52749641442E+02 -0.33507335786E+02  0.62499996367E+02  0.00000000000E+00 0. -1.
</event>
<event>
 4    1  0.1988088E-002  0.9118800E+02  0.7818608E-02  0.1130116E+00
         25   -1    0    0    0    0  0.00000000000E+00  0.00000000000E+00  0.99999998245E-14  0.12500000000E+03  0.12500000000E+03 0.  0.
        -11    1    1    0    0    0 -0.48140365854E+00 -0.13090761301E+02 -0.27156234379E+02  0.30150635927E+02  0.51100000000E-03 0. -1.
         11    1    1    0    0    0 -0.28349912069E+01 -0.10307649128E+02 -0.30616930016E+02  0.32429634743E+02  0.51100000000E-03 0.  1.
         22    1    1    0    0    0  0.33163948654E+01  0.23398410429E+02  0.57773164394E+02  0.62419729330E+02  0.00000000000E+00 0.  1.
</event>
<event>
 4    1  0.1988088E-002  0.9118800E+02  0.7818608E-02  0.1130116E+00
         25   -1    0    0    0    0  0.00000000000E+00  0.00000000000E+00  0.99999998245E-14  0.12500000000E+03  0.12500000000E+03 0.  0.
        -11    1    1    0    0    0  0.38421599758E+02  0.37052531872E+01 -0.36367045753E+02  0.53033105191E+02  0.51100000000E-03 0.  1.
         11    1    1    0    0    0  0.68596799332E+01  0.65222658042E+00 -0.64916504287E+01  0.94668967380E+01  0.51100000000E-03 0. -1.
         22    1    1    0    0    0 -0.45281279692E+02 -0.43574797677E+01  0.42858696182E+02  0.62499998071E+02  0.00000000000E+00 0.  1.
</event>
<event>
 4    1  0.1988088E-002  0.9118800E+02  0.7818608E-02  0.1130116E+00
         25   -1    0    0    0    0  0.00000000000E+00  0.00000000000E+00  0.99999998245E-14  0.12500000000E+03  0.12500000000E+03 0.  0.
        -11    1    1    0    0    0  0.46151550291E+02  0.21987894287E+02  0.39418166644E+01  0.51273492258E+02  0.51100000000E-03 0.  1.
         11    1    1    0    0    0  0.10109140159E+02  0.48074039983E+01  0.85363405997E+00  0.11226510559E+02  0.51100000000E-03 0. -1.
         22    1    1    0    0    0 -0.56260690451E+02 -0.26795298285E+02 -0.47954507244E+01  0.62499997183E+02  0.00000000000E+00 0.  1.
</event>
<event>
 4    1  0.1988088E-002  0.9118800E+02  0.7818608E-02  0.1130116E+00
         25   -1    0    0    0    0  0.00000000000E+00  0.00000000000E+00  0.99999998245E-14  0.12500000000E+03  0.12500000000E+03 0.  0.
        -11    1    1    0    0    0 -0.24689813204E+02 -0.76274157807E+01 -0.79319553232E+01  0.27031098073E+02  0.51100000000E-03 0. -1.
         11    1    1    0    0    0 -0.29401824176E+02 -0.12033871762E+02 -0.16079809449E+02  0.35606763496E+02  0.51100000000E-03 0.  1.
         22    1    1    0    0    0  0.54091637379E+02  0.19661287543E+02  0.24011764772E+02  0.62362138431E+02  0.00000000000E+00 0.  1.
</event>
<event>
 4    1  0.1988088E-002  0.9118800E+02  0.7818608E-02  0.1130116E+00
         25   -1    0    0    0    0  0.00000000000E+00  0.00000000000E+00  0.99999998245E-14  0.12500000000E+03  0.12500000000E+03 0.  0.
        -11    1    1    0    0    0 -0.14885718177E+02 -0.67354501843E+01 -0.55184907884E+02  0.57552801437E+02  0.51100000000E-03 0.  1.
         11    1    1    0    0    0 -0.25934195399E+00  0.21268366604E+00 -0.50167652938E+01  0.50279644853E+01  0.51100000000E-03 0. -1.
         22    1    1    0    0    0  0.15145060131E+02  0.65227665183E+01  0.60201673178E+02  0.62419234078E+02  0.00000000000E+00 0.  1.
</event>
<event>
 4    1  0.1988088E-002  0.9118800E+02  0.7818608E-02  0.1130116E+00
         25   -1    0    0    0    0  0.00000000000E+00  0.00000000000E+00  0.99999998245E-14  0.12500000000E+03  0.12500000000E+03 0.  0.
        -11    1    1    0    0    0 -0.45817574960E+02 -0.29442875755E+02 -0.13474637098E+02  0.56104357702E+02  0.51100000000E-03 0. -1.
         11    1    1    0    0    0 -0.52189588641E+01 -0.33758042841E+01 -0.15070529317E+01  0.63956856544E+01  0.51100000000E-03 0.  1.
         22    1    1    0    0    0  0.51036533824E+02  0.32818680039E+02  0.14981690030E+02  0.62499956644E+02  0.00000000000E+00 0. -1.
</event>
<event>
 4    1  0.1988088E-002  0.9118800E+02  0.7818608E-02  0.1130116E+00
         25   -1    0    0    0    0  0.00000000000E+00  0.00000000000E+00  0.99999998245E-14  0.12500000000E+03  0.12500000000E+03 0.  0.
        -11    1    1    0    0    0 -0.15802463277E+02 -0.43453667753E+01  0.10436910789E+02  0.19430109755E+02  0.51100000000E-03 0. -1.
         11    1    1    0    0    0 -0.35185744723E+02 -0.97084208390E+01  0.22863542540E+02  0.43070078299E+02  0.51100000000E-03 0.  1.
         22    1    1    0    0    0  0.50988208001E+02  0.14053787614E+02 -0.33300453328E+02  0.62499811946E+02  0.00000000000E+00 0.  1.
</event>
<event>
 4    1  0.1988088E-002  0.9118800E+02  0.7818608E-02  0.1130116E+00
         25   -1    0    0    0    0  0.00000000000E+00  0.00000000000E+00  0.99999998245E-14  0.12500000000E+03  0.12500000000E+03 0.  0.
        -11    1    1    0    0    0 -0.56701193997E+01  0.10777548884E+02 -0.11379454525E+02  0.16667267308E+02  0.51100000000E-03 0. -1.
         11    1    1    0    0    0 -0.15592335621E+02  0.29612992022E+02 -0.31314362555E+02  0.45832734253E+02  0.51100000000E-03 0.  1.
         22    1    1    0    0    0  0.21262455020E+02 -0.40390540906E+02  0.42693817080E+02  0.62499998440E+02  0.00000000000E+00 0.  1.
</event>
<event>
 4    1  0.1988088E-002  0.9118800E+02  0.7818608E-02  0.1130116E+00
         25   -1    0    0    0    0  0.00000000000E+00  0.00000000000E+00  0.99999998245E-14  0.12500000000E+03  0.12500000000E+03 0.  0.
        -11    1    1    0    0    0 -0.52787709422E+01  0.50418571050E-01 -0.10395482309E+02  0.11659074466E+02  0.51100000000E-03 0. -1.
         11    1    1    0    0    0 -0.22953225405E+02  0.22559488381E+00 -0.45364069116E+02  0.50840930524E+02  0.51100000000E-03 0.  1.
         22    1    1    0    0    0  0.28231996347E+02 -0.27601345486E+00  0.55759551425E+02  0.62499995010E+02  0.00000000000E+00 0.  1.
</event>
<event>
 4    1  0.1988088E-002  0.9118800E+02  0.7818608E-02  0.1130116E+00
         25   -1    0    0    0    0  0.00000000000E+00  0.00000000000E+00  0.99999998245E-14  0.12500000000E+03  0.12500000000E+03 0.  0.
        -11    1    1    0    0    0 -0.57870135931E+01  0.28961606134E+01 -0.70207915134E+01  0.95482347249E+01  0.51100000000E-03 0. -1.
         11    1    1    0    0    0 -0.41815098216E+02  0.21345054766E+02  0.31658420840E+02  0.56624812689E+02  0.51100000000E-03 0.  1.
         22    1    1    0    0    0  0.47602111809E+02 -0.24241215379E+02 -0.24637629327E+02  0.58826952586E+02  0.00000000000E+00 0.  1.
</event>
<event>
 4    1  0.1988088E-002  0.9118800E+02  0.7818608E-02  0.1130116E+00
         25   -1    0    0    0    0  0.00000000000E+00  0.00000000000E+00  0.99999998245E-14  0.12500000000E+03  0.12500000000E+03 0.  0.
        -11    1    1    0    0    0  0.14709930438E+01  0.26318810779E+02 -0.21483089873E+02  0.34005393279E+02  0.51100000000E-03 0. -1.
         11    1    1    0    0    0  0.12208477675E+01  0.22055926496E+02 -0.17999674700E+02  0.28494607427E+02  0.51100000000E-03 0.  1.
         22    1    1    0    0    0 -0.26918408113E+01 -0.48374737275E+02  0.39482764573E+02  0.62499999293E+02  0.00000000000E+00 0.  1.
</event>
<event>
 4    1  0.1988088E-002  0.9118800E+02  0.7818608E-02  0.1130116E+00
         25   -1    0    0    0    0  0.00000000000E+00  0.00000000000E+00  0.99999998245E-14  0.12500000000E+03  0.12500000000E+03 0.  0.
        -11    1    1    0    0    0 -0.52619914948E+00  0.33103561952E+02  0.10930639927E+02  0.34865478469E+02  0.51100000000E-03 0. -1.
         11    1    1    0    0    0 -0.41616397721E+00  0.26238740727E+02  0.86615284144E+01  0.27634521565E+02  0.51100000000E-03 0.  1.
         22    1    1    0    0    0  0.94236312668E+00 -0.59342302678E+02 -0.19592168342E+02  0.62499999966E+02  0.00000000000E+00 0. -1.
</event>
<event>
 4    1  0.1988088E-002  0.9118800E+02  0.7818608E-02  0.1130116E+00
         25   -1    0    0    0    0  0.00000000000E+00  0.00000000000E+00  0.99999998245E-14  0.12500000000E+03  0.12500000000E+03 0.  0.
        -11    1    1    0    0    0  0.32327032357E+00  0.48515341184E+02 -0.37108054623E+01  0.48658122768E+02  0.51100000000E-03 0.  1.
         11    1    1    0    0    0  0.93795726999E-01  0.13801413907E+02 -0.10534442975E+01  0.13841877352E+02  0.51100000000E-03 0. -1.
         22    1    1    0    0    0 -0.41706605057E+00 -0.62316755091E+02  0.47642497598E+01  0.62499999880E+02  0.00000000000E+00 0.  1.
</event>
<event>
 4    1  0.1988088E-002  0.9118800E+02  0.7818608E-02  0.1130116E+00
         25   -1    0    0    0    0  0.00000000000E+00  0.00000000000E+00  0.99999998245E-14  0.12500000000E+03  0.12500000000E+03 0.  0.
        -11    1    1    0    0    0 -0.11796841285E+02  0.48766752538E+01  0.10348837642E+02  0.16433072343E+02  0.51100000000E-03 0.  1.
         11    1    1    0    0    0 -0.32989626884E+02  0.14688206766E+02  0.28605270382E+02  0.46068648709E+02  0.51100000000E-03 0. -1.
         22    1    1    0    0    0  0.44786468169E+02 -0.19564882020E+02 -0.38954108024E+02  0.62498278948E+02  0.00000000000E+00 0. -1.
</event>
<event>
 4    1  0.1988088E-002  0.9118800E+02  0.7818608E-02  0.1130116E+00
         25   -1    0    0    0    0  0.00000000000E+00  0.00000000000E+00  0.99999998245E-14  0.12500000000E+03  0.12500000000E+03 0.  0.
        -11    1    1    0    0    0  0.53786711272E+01 -0.19853146811E+02 -0.20010755241E+02  0.28696826775E+02  0.51100000000E-03 0. -1.
         11    1    1    0    0    0  0.65756388211E+01 -0.23168111474E+02 -0.23720946996E+02  0.33803605456E+02  0.51100000000E-03 0.  1.
         22    1    1    0    0    0 -0.11954309948E+02  0.43021258285E+02  0.43731702237E+02  0.62499567769E+02  0.00000000000E+00 0.  1.
</event>
<event>
 4    1  0.1988088E-002  0.9118800E+02  0.7818608E-02  0.1130116E+00
         25   -1    0    0    0    0  0.00000000000E+00  0.00000000000E+00  0.99999998245E-14  0.12500000000E+03  0.12500000000E+03 0.  0.
        -11    1    1    0    0    0 -0.31557508166E+02  0.22036223118E+02 -0.15756774959E+02  0.41590232126E+02  0.51100000000E-03 0. -1.
         11    1    1    0    0    0 -0.15892523101E+02  0.11078233843E+02 -0.78689266442E+01  0.20909795848E+02  0.51100000000E-03 0.  1.
         22    1    1    0    0    0  0.47450031267E+02 -0.33114456961E+02  0.23625701603E+02  0.62499972026E+02  0.00000000000E+00 0. -1.
</event>
<event>
 4    1  0.1988088E-002  0.9118800E+02  0.7818608E-02  0.1130116E+00
         25   -1    0    0    0    0  0.00000000000E+00  0.00000000000E+00  0.99999998245E-14  0.12500000000E+03  0.12500000000E+03 0.  0.
        -11    1    1    0    0    0 -0.19943578856E+02 -0.87232725870E+01  0.22142952452E+02  0.31050799760E+02  0.51100000000E-03 0.  1.
         11    1    1    0    0    0 -0.20199806477E+02 -0.88353070562E+01  0.22426710933E+02  0.31449200245E+02  0.51100000000E-03 0. -1.
         22    1    1    0    0    0  0.40143385333E+02  0.17558579643E+02 -0.44569663385E+02  0.62499999995E+02  0.00000000000E+00 0.  1.
</event>
<event>
 4    1  0.1988088E-002  0.9118800E+02  0.7818608E-02  0.1130116E+00
         25   -1    0    0    0    0  0.00000000000E+00  0.00000000000E+00  0.99999998245E-14  0.12500000000E+03  0.12500000000E+03 0.  0.
        -11    1    1    0    0    0 -0.31842331687E+01  0.34531358820E+02 -0.30296104751E+02  0.46047888618E+02  0.51100000000E-03 0.  1.
         11    1    1    0    0    0 -0.60393480307E+01  0.11921936307E+02 -0.10061938994E+02  0.16728685141E+02  0.51100000000E-03 0. -1.
         22    1    1    0    0    0  0.92235811994E+01 -0.46453295127E+02  0.40358043745E+02  0.62223426242E+02  0.00000000000E+00 0. -1.
</event>
<event>
 4    1  0.1988088E-002  0.9118800E+02  0.7818608E-02  0.1130116E+00
         25   -1    0    0    0    0  0.00000000000E+00  0.00000000000E+00  0.99999998245E-14  0.12500000000E+03  0.12500000000E+03 0.  0.
        -11    1    1    0    0    0 -0.16121613691E+01  0.13228002780E+01  0.19386254963E+01  0.28473029224E+01  0.51100000000E-03 0.  1.
         11    1    1    0    0    0 -0.33765188246E+02  0.27718524832E+02  0.40620680925E+02  0.59652697133E+02  0.51100000000E-03 0. -1.
         22    1    1    0    0    0  0.35377349615E+02 -0.29041325110E+02 -0.42559306422E+02  0.62499999944E+02  0.00000000000E+00 0. -1.
</event>
<event>
 4    1  0.1988088E-002  0.9118800E+02  0.7818608E-02  0.1130116E+00
         25   -1    0    0    0    0  0.00000000000E+00  0.00000000000E+00  0.99999998245E-14  0.12500000000E+03  0.12500000000E+03 0.  0.
        -11    1    1    0    0    0 -0.16053450332E+01 -0.41458760109E+01  0.10262958790E+02  0.11184531459E+02  0.51100000000E-03 0. -1.
         11    1    1    0    0    0  0.66092471274E+01 -0.24209317958E+02  0.44986846688E+02  0.51513004172E+02  0.51100000000E-03 0.  1.
         22    1    1    0    0    0 -0.50039020942E+01  0.28355193969E+02 -0.55249805478E+02  0.62302464370E+02  0.00000000000E+00 0.  1.
</event>
<event>
 4    1  0.1988088E-002  0.9118800E+02  0.7818608E-02  0.1130116E+00
         25   -1    0    0    0    0  0.00000000000E+00  0.00000000000E+00  0.99999998245E-14  0.12500000000E+03  0.12500000000E+03 0.  0.
        -11    1    1    0    0    0 -0.14639481791E+02 -0.11907491536E+02 -0.28378408225E+02  0.34079859674E+02  0.51100000000E-03 0. -1.
         11    1    1    0    0    0 -0.12203215851E+02 -0.99324967703E+01 -0.23667095645E+02  0.28420140494E+02  0.51100000000E-03 0.  1.
         22    1    1    0    0    0  0.26842697642E+02  0.21839988306E+02  0.52045503870E+02  0.62499999831E+02  0.00000000000E+00 0.  1.
</event>
<event>
 4    1  0.1988088E-002  0.9118800E+02  0.7818608E-02  0.1130116E+00
         25   -1    0    0    0    0  0.00000000000E+00  0.00000000000E+00  0.99999998245E-14  0.12500000000E+03  0.12500000000E+03 0.  0.
        -11    1    1    0    0    0 -0.20652085180E+02 -0.28466203206E+02 -0.48539806499E+02  0.59941189198E+02  0.51100000000E-03 0. -1.
         11    1    1    0    0    0 -0.88167829801E+00 -0.12161540144E+01 -0.20715033219E+01  0.25588109507E+01  0.51100000000E-03 0.  1.
         22    1    1    0    0    0  0.21533763478E+02  0.29682357221E+02  0.50611309820E+02  0.62499999852E+02  0.00000000000E+00 0. -1.
</event>
<event>
 4    1  0.1988088E-002  0.9118800E+02  0.7818608E-02  0.1130116E+00
         25   -1    0    0    0    0  0.00000000000E+00  0.00000000000E+00  0.99999998245E-14  0.12500000000E+03  0.12500000000E+03 0.  0.
        -11    1    1    0    0    0  0.39603957380E+01 -0.21628743067E+01  0.50987205952E+01  0.68087966365E+01  0.51100000000E-03 0.  1.
         11    1    1    0    0    0  0.34304300213E+02 -0.19019301810E+02  0.39541636938E+02  0.55696139063E+02  0.51100000000E-03 0. -1.
         22    1    1    0    0    0 -0.38264695951E+02  0.21182176117E+02 -0.44640357533E+02  0.62495064301E+02  0.00000000000E+00 0. -1.
</event>
<event>
 4    1  0.1988088E-002  0.9118800E+02  0.7818608E-02  0.1130116E+00
         25   -1    0    0    0    0  0.00000000000E+00  0.00000000000E+00  0.99999998245E-14  0.12500000000E+03  0.12500000000E+03 0.  0.
        -11    1    1    0    0    0 -0.14082533849E+02 -0.69446440270E+01 -0.13661696785E+02  0.20813164093E+02  0.51100000000E-03 0. -1.
         11    1    1    0    0    0 -0.29358261282E+02 -0.69182559344E+01 -0.28927471057E+02  0.41791965169E+02  0.51100000000E-03 0.  1.
         22    1    1    0    0    0  0.43440795131E+02  0.13862899961E+02  0.42589167841E+02  0.62394870738E+02  0.00000000000E+00 0.  1.
</event>
<event>
 4    1  0.1988088E-002  0.9118800E+02  0.7818608E-02  0.1130116E+00
         25   -1    0    0    0    0  0.00000000000E+00  0.00000000000E+00  0.99999998245E-14  0.12500000000E+03  0.12500000000E+03 0.  0.
        -11    1    1    0    0    0  0.42721446678E+01 -0.53091973653E+01 -0.94976912335E+01  0.11689522478E+02  0.51100000000E-03 0. -1.
         11    1    1    0    0    0  0.40817098400E+02  0.11964915299E+02 -0.30765999962E+02  0.52495156670E+02  0.51100000000E-03 0.  1.
         22    1    1    0    0    0 -0.45089243068E+02 -0.66557179339E+01  0.40263691196E+02  0.60815320852E+02  0.00000000000E+00 0.  1.
</event>
<event>
 4    1  0.1988088E-002  0.9118800E+02  0.7818608E-02  0.1130116E+00
         25   -1    0    0    0    0  0.00000000000E+00  0.00000000000E+00  0.99999998245E-14  0.12500000000E+03  0.12500000000E+03 0.  0.
        -11    1    1    0    0    0  0.14704220662E+02 -0.59341208363E+02 -0.69895646329E+00  0.61139853252E+02  0.51100000000E-03 0. -1.
         11    1    1    0    0    0  0.13745719025E+01  0.19018117050E+01 -0.33335141906E+01  0.40765981892E+01  0.51100000000E-03 0.  1.
         22    1    1    0    0    0 -0.16078792565E+02  0.57439396658E+02  0.40324706539E+01  0.59783548559E+02  0.00000000000E+00 0. -1.
</event>
<event>
 4    1  0.1988088E-002  0.9118800E+02  0.7818608E-02  0.1130116E+00
         25   -1    0    0    0    0  0.00000000000E+00  0.00000000000E+00  0.99999998245E-14  0.12500000000E+03  0.12500000000E+03 0.  0.
        -11    1    1    0    0    0 -0.62251143875E+01 -0.15850976158E+02  0.46880711877E+02  0.49877917365E+02  0.51100000000E-03 0.  1.
         11    1    1    0    0    0 -0.32967596518E+01  0.27471434544E+02 -0.19396724697E+01  0.27736450200E+02  0.51100000000E-03 0. -1.
         22    1    1    0    0    0  0.95218740393E+01 -0.11620458386E+02 -0.44941039407E+02  0.47385632436E+02  0.00000000000E+00 0.  1.
</event>
<event>
 4    1  0.1988088E-002  0.9118800E+02  0.7818608E-02  0.1130116E+00
         25   -1    0    0    0    0  0.00000000000E+00  0.00000000000E+00  0.99999998245E-14  0.12500000000E+03  0.12500000000E+03 0.  0.
        -11    1    1    0    0    0 -0.15297011578E+02 -0.29209866399E+02 -0.30921440588E+01  0.33117611831E+02  0.51100000000E-03 0.  1.
         11    1    1    0    0    0 -0.13425311738E+02 -0.25984460783E+02 -0.28109946035E+01  0.29382526923E+02  0.51100000000E-03 0. -1.
         22    1    1    0    0    0  0.28722323316E+02  0.55194327182E+02  0.59031386623E+01  0.62499861246E+02  0.00000000000E+00 0.  1.
</event>
<event>
 4    1  0.1988088E-002  0.9118800E+02  0.7818608E-02  0.1130116E+00
         25   -1    0    0    0    0  0.00000000000E+00  0.00000000000E+00  0.99999998245E-14  0.12500000000E+03  0.12500000000E+03 0.  0.
        -11    1    1    0    0    0  0.55992820821E+01  0.22779781996E+01  0.20095592569E+02  0.20985089599E+02  0.51100000000E-03 0.  1.
         11    1    1    0    0    0  0.11070670388E+02  0.45102571889E+01  0.39756579738E+02  0.41514910520E+02  0.51100000000E-03 0. -1.
         22    1    1    0    0    0 -0.16669952470E+02 -0.67882353885E+01 -0.59852172308E+02  0.62499999880E+02  0.00000000000E+00 0. -1.
</event>
<event>
 4    1  0.1988088E-002  0.9118800E+02  0.7818608E-02  0.1130116E+00
         25   -1    0    0    0    0  0.00000000000E+00  0.00000000000E+00  0.99999998245E-14  0.12500000000E+03  0.12500000000E+03 0.  0.
        -11    1    1    0    0    0 -0.48690619431E+02 -0.18081481904E+02  0.65731440822E+01  0.52353821559E+02  0.51100000000E-03 0.  1.
         11    1    1    0    0    0 -0.88401543648E+01 -0.52321015483E+01 -0.10435515980E+01  0.10325319172E+02  0.51100000000E-03 0. -1.
         22    1    1    0    0    0  0.57530773796E+02  0.23313583452E+02 -0.55295924841E+01  0.62320859269E+02  0.00000000000E+00 0.  1.
</event>
<event>
 4    1  0.1988088E-002  0.9118800E+02  0.7818608E-02  0.1130116E+00
         25   -1    0    0    0    0  0.00000000000E+00  0.00000000000E+00  0.99999998245E-14  0.12500000000E+03  0.12500000000E+03 0.  0.
        -11    1    1    0    0    0  0.16049082263E+02 -0.12509149632E+02 -0.38549115443E+02  0.43589977836E+02  0.51100000000E-03 0. -1.
         11    1    1    0    0    0  0.69625812910E+01 -0.54264284350E+01 -0.16723195700E+02  0.18910022170E+02  0.51100000000E-03 0. -1.
         22    1    1    0    0    0 -0.23011663554E+02  0.17935578067E+02  0.55272311143E+02  0.62499999994E+02  0.00000000000E+00 0. -1.
</event>
<event>
 4    1  0.1988088E-002  0.9118800E+02  0.7818608E-02  0.1130116E+00
         25   -1    0    0    0    0  0.00000000000E+00  0.00000000000E+00  0.99999998245E-14  0.12500000000E+03  0.12500000000E+03 0.  0.
        -11    1    1    0    0    0  0.35169595508E+02 -0.44050972645E+01 -0.10490594786E+02  0.36964278828E+02  0.51100000000E-03 0.  1.
         11    1    1    0    0    0  0.24487121771E+02 -0.22465459134E+01 -0.69022175579E+01  0.25540295782E+02  0.51100000000E-03 0. -1.
         22    1    1    0    0    0 -0.59656717278E+02  0.66516431779E+01  0.17392812344E+02  0.62495425390E+02  0.00000000000E+00 0. -1.
</event>
<event>
 4    1  0.1988088E-002  0.9118800E+02  0.7818608E-02  0.1130116E+00
         25   -1    0    0    0    0  0.00000000000E+00  0.00000000000E+00  0.99999998245E-14  0.12500000000E+03  0.12500000000E+03 0.  0.
        -11    1    1    0    0    0 -0.95358830271E+01  0.21711318357E+02 -0.45640666329E+02  0.51433304707E+02  0.51100000000E-03 0. -1.
         11    1    1    0    0    0 -0.20516438659E+01  0.46724850721E+01 -0.98198974409E+01  0.11066695320E+02  0.51100000000E-03 0. -1.
         22    1    1    0    0    0  0.11587526893E+02 -0.26383803429E+02  0.55460563770E+02  0.62499999972E+02  0.00000000000E+00 0. -1.
</event>
<event>
 4    1  0.1988088E-002  0.9118800E+02  0.7818608E-02  0.1130116E+00
         25   -1    0    0    0    0  0.00000000000E+00  0.00000000000E+00  0.99999998245E-14  0.12500000000E+03  0.12500000000E+03 0.  0.
        -11    1    1    0    0    0  0.27434007494E+02 -0.37720121040E+02 -0.32907916988E+02  0.57082075113E+02  0.51100000000E-03 0. -1.
         11    1    1    0    0    0  0.27420440974E+01 -0.35210186536E+01 -0.30739172986E+01  0.54189801634E+01  0.51100000000E-03 0.  1.
         22    1    1    0    0    0 -0.30176051591E+02  0.41241139694E+02  0.35981834287E+02  0.62498944723E+02  0.00000000000E+00 0. -1.
</event>
<event>
 4    1  0.1988088E-002  0.9118800E+02  0.7818608E-02  0.1130116E+00
         25   -1    0    0    0    0  0.00000000000E+00  0.00000000000E+00  0.99999998245E-14  0.12500000000E+03  0.12500000000E+03 0.  0.
        -11    1    1    0    0    0 -0.39281741932E+02 -0.26474939607E+02  0.28147101959E+02  0.55102060083E+02  0.51100000000E-03 0. -1.
         11    1    1    0    0    0 -0.49378155626E+01 -0.39591284456E+01  0.38466639956E+01  0.74063178932E+01  0.51100000000E-03 0.  1.
         22    1    1    0    0    0  0.44219557495E+02  0.30434068052E+02 -0.31993765955E+02  0.62491622024E+02  0.00000000000E+00 0. -1.
</event>
<event>
 4    1  0.1988088E-002  0.9118800E+02  0.7818608E-02  0.1130116E+00
         25   -1    0    0    0    0  0.00000000000E+00  0.00000000000E+00  0.99999998245E-14  0.12500000000E+03  0.12500000000E+03 0.  0.
        -11    1    1    0    0    0  0.47101931272E+02 -0.79085674607E+01  0.10601142485E+02  0.48923630191E+02  0.51100000000E-03 0.  1.
         11    1    1    0    0    0  0.13071255530E+02 -0.21861169207E+01  0.29463579659E+01  0.13576371159E+02  0.51100000000E-03 0. -1.
         22    1    1    0    0    0 -0.60173186802E+02  0.10094684381E+02 -0.13547500451E+02  0.62499998649E+02  0.00000000000E+00 0.  1.
</event>
<event>
 4    1  0.1988088E-002  0.9118800E+02  0.7818608E-02  0.1130116E+00
         25   -1    0    0    0    0  0.00000000000E+00  0.00000000000E+00  0.99999998245E-14  0.12500000000E+03  0.12500000000E+03 0.  0.
        -11    1    1    0    0    0  0.13462441032E+02 -0.11698930862E+02 -0.62833045547E+01  0.18909844480E+02  0.51100000000E-03 0.  1.
         11    1    1    0    0    0  0.11921777227E+02  0.21569306043E+01 -0.45797026850E+02  0.47372447588E+02  0.51100000000E-03 0. -1.
         22    1    1    0    0    0 -0.25384218260E+02  0.95420002572E+01  0.52080331405E+02  0.58717707932E+02  0.00000000000E+00 0. -1.
</event>
<event>
 4    1  0.1988088E-002  0.9118800E+02  0.7818608E-02  0.1130116E+00
         25   -1    0    0    0    0  0.00000000000E+00  0.00000000000E+00  0.99999998245E-14  0.12500000000E+03  0.12500000000E+03 0.  0.
        -11    1    1    0    0    0 -0.45129021076E+01  0.14430311489E+01  0.11092367919E+01  0.48661104438E+01  0.51100000000E-03 0. -1.
         11    1    1    0    0    0 -0.53446081574E+02  0.16961691441E+02  0.13322334431E+02  0.57633906748E+02  0.51100000000E-03 0.  1.
         22    1    1    0    0    0  0.57958983682E+02 -0.18404722590E+02 -0.14431571222E+02  0.62499982808E+02  0.00000000000E+00 0.  1.
</event>
<event>
 4    1  0.1988088E-002  0.9118800E+02  0.7818608E-02  0.1130116E+00
         25   -1    0    0    0    0  0.00000000000E+00  0.00000000000E+00  0.99999998245E-14  0.12500000000E+03  0.12500000000E+03 0.  0.
        -11    1    1    0    0    0 -0.64140657180E+01  0.15444596476E+02 -0.94272235145E+01  0.19197612945E+02  0.51100000000E-03 0.  1.
         11    1    1    0    0    0 -0.12301386892E+02  0.34591837307E+02 -0.22986145758E+02  0.43316073515E+02  0.51100000000E-03 0. -1.
         22    1    1    0    0    0  0.18715452610E+02 -0.50036433783E+02  0.32413369272E+02  0.62486313539E+02  0.00000000000E+00 0. -1.
</event>
<event>
 4    1  0.1988088E-002  0.9118800E+02  0.7818608E-02  0.1130116E+00
         25   -1    0    0    0    0  0.00000000000E+00  0.00000000000E+00  0.99999998245E-14  0.12500000000E+03  0.12500000000E+03 0.  0.
        -11    1    1    0    0    0 -0.23581511720E+02 -0.12204646114E+02 -0.36260307041E+02  0.44942751904E+02  0.51100000000E-03 0. -1.
         11    1    1    0    0    0 -0.92228972408E+01 -0.48205969797E+01 -0.14140658843E+02  0.17557284002E+02  0.51100000000E-03 0.  1.
         22    1    1    0    0    0  0.32804408961E+02  0.17025243094E+02  0.50400965884E+02  0.62499964094E+02  0.00000000000E+00 0. -1.
</event>
<event>
 4    1  0.1988088E-002  0.9118800E+02  0.7818608E-02  0.1130116E+00
         25   -1    0    0    0    0  0.00000000000E+00  0.00000000000E+00  0.99999998245E-14  0.12500000000E+03  0.12500000000E+03 0.  0.
        -11    1    1    0    0    0 -0.34784333929E+02  0.26520987636E+02 -0.26804531396E+02  0.51301028993E+02  0.51100000000E-03 0. -1.
         11    1    1    0    0    0 -0.76040784568E+01  0.57948007871E+01 -0.58322752649E+01  0.11198980327E+02  0.51100000000E-03 0.  1.
         22    1    1    0    0    0  0.42388412385E+02 -0.32315788424E+02  0.32636806661E+02  0.62499990680E+02  0.00000000000E+00 0. -1.
</event>
<event>
 4    1  0.1988088E-002  0.9118800E+02  0.7818608E-02  0.1130116E+00
         25   -1    0    0    0    0  0.00000000000E+00  0.00000000000E+00  0.99999998245E-14  0.12500000000E+03  0.12500000000E+03 0.  0.
        -11    1    1    0    0    0  0.40006305152E+00 -0.42376328674E+01 -0.13570579911E+01  0.44675708630E+01  0.51100000000E-03 0.  1.
         11    1    1    0    0    0  0.55013059742E+01 -0.52769371902E+02 -0.23544247311E+02  0.58044832329E+02  0.51100000000E-03 0. -1.
         22    1    1    0    0    0 -0.59013690258E+01  0.57007004769E+02  0.24901305302E+02  0.62487596808E+02  0.00000000000E+00 0. -1.
</event>
<event>
 4    1  0.1988088E-002  0.9118800E+02  0.7818608E-02  0.1130116E+00
         25   -1    0    0    0    0  0.00000000000E+00  0.00000000000E+00  0.99999998245E-14  0.12500000000E+03  0.12500000000E+03 0.  0.
        -11    1    1    0    0    0 -0.61158016063E+01  0.13901417737E+02 -0.84703142068E+01  0.17389613780E+02  0.51100000000E-03 0.  1.
         11    1    1    0    0    0 -0.15861725339E+02  0.36062924243E+02 -0.21973122472E+02  0.45110386244E+02  0.51100000000E-03 0. -1.
         22    1    1    0    0    0  0.21977526945E+02 -0.49964341980E+02  0.30443436678E+02  0.62499999976E+02  0.00000000000E+00 0. -1.
</event>
<event>
 4    1  0.1988088E-002  0.9118800E+02  0.7818608E-02  0.1130116E+00
         25   -1    0    0    0    0  0.00000000000E+00  0.00000000000E+00  0.99999998245E-14  0.12500000000E+03  0.12500000000E+03 0.  0.
        -11    1    1    0    0    0 -0.30754579168E+02 -0.20220632315E+02 -0.29118422049E+02  0.46931872048E+02  0.51100000000E-03 0. -1.
         11    1    1    0    0    0 -0.10213167351E+02 -0.66964673083E+01 -0.96548043597E+01  0.15568131206E+02  0.51100000000E-03 0.  1.
         22    1    1    0    0    0  0.40967746520E+02  0.26917099623E+02  0.38773226409E+02  0.62499996746E+02  0.00000000000E+00 0. -1.
</event>
<event>
 4    1  0.1988088E-002  0.9118800E+02  0.7818608E-02  0.1130116E+00
         25   -1    0    0    0    0  0.00000000000E+00  0.00000000000E+00  0.99999998245E-14  0.12500000000E+03  0.12500000000E+03 0.  0.
        -11    1    1    0    0    0  0.48440003346E+02 -0.23830336358E+02 -0.18048667144E+02  0.56921641237E+02  0.51100000000E-03 0. -1.
         11    1    1    0    0    0  0.47456194428E+01 -0.23356523177E+01 -0.17725457076E+01  0.55783594534E+01  0.51100000000E-03 0.  1.
         22    1    1    0    0    0 -0.53185622789E+02  0.26165988675E+02  0.19821212852E+02  0.62499999310E+02  0.00000000000E+00 0. -1.
</event>
<event>
 4    1  0.1988088E-002  0.9118800E+02  0.7818608E-02  0.1130116E+00
         25   -1    0    0    0    0  0.00000000000E+00  0.00000000000E+00  0.99999998245E-14  0.12500000000E+03  0.12500000000E+03 0.  0.
        -11    1    1    0    0    0 -0.60512683273E+01 -0.37091905107E+02 -0.17132725564E+02  0.41303239078E+02  0.51100000000E-03 0.  1.
         11    1    1    0    0    0 -0.75013251021E+00 -0.20209791434E+02 -0.66427077895E+01  0.21286707957E+02  0.51100000000E-03 0. -1.
         22    1    1    0    0    0  0.68014008375E+01  0.57301696542E+02  0.23775433354E+02  0.62410052965E+02  0.00000000000E+00 0. -1.
</event>
<event>
 4    1  0.1988088E-002  0.9118800E+02  0.7818608E-02  0.1130116E+00
         25   -1    0    0    0    0  0.00000000000E+00  0.00000000000E+00  0.99999998245E-14  0.12500000000E+03  0.12500000000E+03 0.  0.
        -11    1    1    0    0    0 -0.13640234312E+02 -0.82548003850E+00 -0.20237185193E+02  0.24418867176E+02  0.51100000000E-03 0.  1.
         11    1    1    0    0    0 -0.35857200483E+02  0.16207956651E+02 -0.99635183405E+01  0.40591974370E+02  0.51100000000E-03 0. -1.
         22    1    1    0    0    0  0.49497434795E+02 -0.15382476613E+02  0.30200703533E+02  0.59989158453E+02  0.00000000000E+00 0. -1.
</event>
<event>
 4    1  0.1988088E-002  0.9118800E+02  0.7818608E-02  0.1130116E+00
         25   -1    0    0    0    0  0.00000000000E+00  0.00000000000E+00  0.99999998245E-14  0.12500000000E+03  0.12500000000E+03 0.  0.
        -11    1    1    0    0    0  0.10644715568E+02  0.58818462582E+02 -0.15844319677E+02  0.61838208062E+02  0.51100000000E-03 0. -1.
         11    1    1    0    0    0  0.11781790728E+00  0.62968911927E+00 -0.16610973142E+00  0.66180219870E+00  0.51100000000E-03 0.  1.
         22    1    1    0    0    0 -0.10762533476E+02 -0.59448151701E+02  0.16010429408E+02  0.62499989739E+02  0.00000000000E+00 0. -1.
</event>
<event>
 4    1  0.1988088E-002  0.9118800E+02  0.7818608E-02  0.1130116E+00
         25   -1    0    0    0    0  0.00000000000E+00  0.00000000000E+00  0.99999998245E-14  0.12500000000E+03  0.12500000000E+03 0.  0.
        -11    1    1    0    0    0 -0.10899210829E+02 -0.13426967148E+02  0.18828313223E+02  0.25565242471E+02  0.51100000000E-03 0. -1.
         11    1    1    0    0    0 -0.16216098444E+02 -0.20034113056E+02  0.26459201919E+02  0.36938014309E+02  0.51100000000E-03 0.  1.
         22    1    1    0    0    0  0.27115309272E+02  0.33461080205E+02 -0.45287515142E+02  0.62496743220E+02  0.00000000000E+00 0. -1.
</event>
<event>
 4    1  0.1988088E-002  0.9118800E+02  0.7818608E-02  0.1130116E+00
         25   -1    0    0    0    0  0.00000000000E+00  0.00000000000E+00  0.99999998245E-14  0.12500000000E+03  0.12500000000E+03 0.  0.
        -11    1    1    0    0    0 -0.11921603269E+02 -0.63470309901E+01  0.32905519843E+02  0.35569406282E+02  0.51100000000E-03 0.  1.
         11    1    1    0    0    0 -0.90262455344E+01 -0.48050915140E+01  0.24913748516E+02  0.26930593723E+02  0.51100000000E-03 0.  1.
         22    1    1    0    0    0  0.20947848803E+02  0.11152122504E+02 -0.57819268359E+02  0.62499999995E+02  0.00000000000E+00 0.  1.
</event>
<event>
 4    1  0.1988088E-002  0.9118800E+02  0.7818608E-02  0.1130116E+00
         25   -1    0    0    0    0  0.00000000000E+00  0.00000000000E+00  0.99999998245E-14  0.12500000000E+03  0.12500000000E+03 0.  0.
        -11    1    1    0    0    0  0.12426888503E+02 -0.44308970402E+00  0.21833898289E+02  0.25126539776E+02  0.51100000000E-03 0.  1.
         11    1    1    0    0    0  0.18553559765E+02 -0.66775718822E+00  0.32436034918E+02  0.37373477776E+02  0.51100000000E-03 0. -1.
         22    1    1    0    0    0 -0.30980448268E+02  0.11108468922E+01 -0.54269933207E+02  0.62499982448E+02  0.00000000000E+00 0.  1.
</event>
<event>
 4    1  0.1988088E-002  0.9118800E+02  0.7818608E-02  0.1130116E+00
         25   -1    0    0    0    0  0.00000000000E+00  0.00000000000E+00  0.99999998245E-14  0.12500000000E+03  0.12500000000E+03 0.  0.
        -11    1    1    0    0    0  0.60639793032E+01 -0.34252190907E+02 -0.21599730207E+02  0.40945485370E+02  0.51100000000E-03 0. -1.
         11    1    1    0    0    0  0.32514848449E+01 -0.17808233707E+02 -0.11702360496E+02  0.21555755215E+02  0.51100000000E-03 0.  1.
         22    1    1    0    0    0 -0.93154641481E+01  0.52060424613E+02  0.33302090703E+02  0.62498759415E+02  0.00000000000E+00 0. -1.
</event>
<event>
 4    1  0.1988088E-002  0.9118800E+02  0.7818608E-02  0.1130116E+00
         25   -1    0    0    0    0  0.00000000000E+00  0.00000000000E+00  0.99999998245E-14  0.12500000000E+03  0.12500000000E+03 0.  0.
        -11    1    1    0    0    0 -0.11949104425E+02 -0.58266274916E+01 -0.15007747852E+02  0.20049019436E+02  0.51100000000E-03 0. -1.
         11    1    1    0    0    0 -0.25300768911E+02 -0.12331233926E+02 -0.31778884806E+02  0.42450980641E+02  0.51100000000E-03 0. -1.
         22    1    1    0    0    0  0.37249873337E+02  0.18157861418E+02  0.46786632658E+02  0.62499999923E+02  0.00000000000E+00 0. -1.
</event>
<event>
 4    1  0.1988088E-002  0.9118800E+02  0.7818608E-02  0.1130116E+00
         25   -1    0    0    0    0  0.00000000000E+00  0.00000000000E+00  0.99999998245E-14  0.12500000000E+03  0.12500000000E+03 0.  0.
        -11    1    1    0    0    0  0.10727804739E+01  0.22022539275E+01  0.12913889061E+00  0.24530506355E+01  0.51100000000E-03 0.  1.
         11    1    1    0    0    0 -0.23422001595E+02 -0.56998905664E+02 -0.10365027422E+02  0.62489192661E+02  0.51100000000E-03 0. -1.
         22    1    1    0    0    0  0.22349221121E+02  0.54796651737E+02  0.10235888532E+02  0.60057756704E+02  0.00000000000E+00 0. -1.
</event>
<event>
 4    1  0.1988088E-002  0.9118800E+02  0.7818608E-02  0.1130116E+00
         25   -1    0    0    0    0  0.00000000000E+00  0.00000000000E+00  0.99999998245E-14  0.12500000000E+03  0.12500000000E+03 0.  0.
        -11    1    1    0    0    0 -0.49913879031E+02 -0.21608026233E+02 -0.56781977870E+01  0.54685866986E+02  0.51100000000E-03 0.  1.
         11    1    1    0    0    0 -0.71309130491E+01 -0.30910601703E+01 -0.81000468940E+00  0.78141334612E+01  0.51100000000E-03 0. -1.
         22    1    1    0    0    0  0.57044792081E+02  0.24699086404E+02  0.64882024764E+01  0.62499999553E+02  0.00000000000E+00 0.  1.
</event>
<event>
 4    1  0.1988088E-002  0.9118800E+02  0.7818608E-02  0.1130116E+00
         25   -1    0    0    0    0  0.00000000000E+00  0.00000000000E+00  0.99999998245E-14  0.12500000000E+03  0.12500000000E+03 0.  0.
        -11    1    1    0    0    0  0.26293827106E+02 -0.10301199572E+02 -0.54966927099E+02  0.61796789006E+02  0.51100000000E-03 0.  1.
         11    1    1    0    0    0 -0.14328930797E+01 -0.27391591743E+01  0.46314241650E+01  0.55683270034E+01  0.51100000000E-03 0. -1.
         22    1    1    0    0    0 -0.24860934027E+02  0.13040358747E+02  0.50335502934E+02  0.57634883990E+02  0.00000000000E+00 0.  1.
</event>
<event>
 4    1  0.1988088E-002  0.9118800E+02  0.7818608E-02  0.1130116E+00
         25   -1    0    0    0    0  0.00000000000E+00  0.00000000000E+00  0.99999998245E-14  0.12500000000E+03  0.12500000000E+03 0.  0.
        -11    1    1    0    0    0 -0.10198659679E+02  0.18525795620E+02  0.32451654346E+01  0.21395066290E+02  0.51100000000E-03 0.  1.
         11    1    1    0    0    0 -0.13783288447E+02  0.38645695766E+02  0.38124098281E+01  0.41206835727E+02  0.51100000000E-03 0. -1.
         22    1    1    0    0    0  0.23981948126E+02 -0.57171491386E+02 -0.70575752627E+01  0.62398097983E+02  0.00000000000E+00 0. -1.
</event>
<event>
 4    1  0.1988088E-002  0.9118800E+02  0.7818608E-02  0.1130116E+00
         25   -1    0    0    0    0  0.00000000000E+00  0.00000000000E+00  0.99999998245E-14  0.12500000000E+03  0.12500000000E+03 0.  0.
        -11    1    1    0    0    0 -0.38378100815E+02 -0.14122020159E+01 -0.14274485235E+02  0.40971134542E+02  0.51100000000E-03 0.  1.
         11    1    1    0    0    0 -0.20128833420E+02 -0.38183398464E+00 -0.76305197138E+01  0.21529992183E+02  0.51100000000E-03 0. -1.
         22    1    1    0    0    0  0.58506934235E+02  0.17940360005E+01  0.21905004949E+02  0.62498873274E+02  0.00000000000E+00 0.  1.
</event>
<event>
 4    1  0.1988088E-002  0.9118800E+02  0.7818608E-02  0.1130116E+00
         25   -1    0    0    0    0  0.00000000000E+00  0.00000000000E+00  0.99999998245E-14  0.12500000000E+03  0.12500000000E+03 0.  0.
        -11    1    1    0    0    0  0.18153326150E+02  0.22530983247E+02 -0.11313318988E+02  0.31067340459E+02  0.51100000000E-03 0. -1.
         11    1    1    0    0    0  0.15598571175E+02  0.25036884701E+02 -0.11002485246E+02  0.31483578261E+02  0.51100000000E-03 0.  1.
         22    1    1    0    0    0 -0.33751897325E+02 -0.47567867948E+02  0.22315804235E+02  0.62449081281E+02  0.00000000000E+00 0. -1.
</event>
<event>
 4    1  0.1988088E-002  0.9118800E+02  0.7818608E-02  0.1130116E+00
         25   -1    0    0    0    0  0.00000000000E+00  0.00000000000E+00  0.99999998245E-14  0.12500000000E+03  0.12500000000E+03 0.  0.
        -11    1    1    0    0    0 -0.18952258043E+01 -0.49690270812E+01 -0.67576327582E+01  0.85993436807E+01  0.51100000000E-03 0.  1.
         11    1    1    0    0    0 -0.87654757115E+01 -0.32613887262E+02 -0.42019099501E+02  0.53908291848E+02  0.51100000000E-03 0. -1.
         22    1    1    0    0    0  0.10660701516E+02  0.37582914343E+02  0.48776732260E+02  0.62492364472E+02  0.00000000000E+00 0. -1.
</event>
<event>
 4    1  0.1988088E-002  0.9118800E+02  0.7818608E-02  0.1130116E+00
         25   -1    0    0    0    0  0.00000000000E+00  0.00000000000E+00  0.99999998245E-14  0.12500000000E+03  0.12500000000E+03 0.  0.
        -11    1    1    0    0    0 -0.43042008851E+01 -0.64229126619E+00 -0.11538431814E+02  0.12331832480E+02  0.51100000000E-03 0.  1.
         11    1    1    0    0    0 -0.17480651212E+02 -0.26068316917E+01 -0.46951851908E+02  0.50168168554E+02  0.51100000000E-03 0. -1.
         22    1    1    0    0    0  0.21784852097E+02  0.32491229578E+01  0.58490283722E+02  0.62499998966E+02  0.00000000000E+00 0.  1.
</event>
<event>
 4    1  0.1988088E-002  0.9118800E+02  0.7818608E-02  0.1130116E+00
         25   -1    0    0    0    0  0.00000000000E+00  0.00000000000E+00  0.99999998245E-14  0.12500000000E+03  0.12500000000E+03 0.  0.
        -11    1    1    0    0    0 -0.20408346915E+01  0.86378906913E+00  0.42818306661E+02  0.42875616886E+02  0.51100000000E-03 0.  1.
         11    1    1    0    0    0 -0.96832864391E+00  0.17726971735E+00  0.19600103200E+02  0.19624809059E+02  0.51100000000E-03 0. -1.
         22    1    1    0    0    0  0.30091633354E+01 -0.10410587865E+01 -0.62418409861E+02  0.62499574054E+02  0.00000000000E+00 0. -1.
</event>
<event>
 4    1  0.1988088E-002  0.9118800E+02  0.7818608E-02  0.1130116E+00
         25   -1    0    0    0    0  0.00000000000E+00  0.00000000000E+00  0.99999998245E-14  0.12500000000E+03  0.12500000000E+03 0.  0.
        -11    1    1    0    0    0  0.52908588234E+00 -0.13234515015E+02  0.53660818349E+02  0.55271292239E+02  0.51100000000E-03 0.  1.
         11    1    1    0    0    0  0.70138501293E-01 -0.17324072940E+01  0.70176964041E+01  0.72287078737E+01  0.51100000000E-03 0. -1.
         22    1    1    0    0    0 -0.59922438363E+00  0.14966922309E+02 -0.60678514753E+02  0.62499999888E+02  0.00000000000E+00 0.  1.
</event>
<event>
 4    1  0.1988088E-002  0.9118800E+02  0.7818608E-02  0.1130116E+00
         25   -1    0    0    0    0  0.00000000000E+00  0.00000000000E+00  0.99999998245E-14  0.12500000000E+03  0.12500000000E+03 0.  0.
        -11    1    1    0    0    0  0.45483388261E+02  0.99993745818E+01  0.31425860462E+02  0.56181053797E+02  0.51100000000E-03 0. -1.
         11    1    1    0    0    0  0.56469772753E+01  0.21036849644E+01  0.22248434898E+01  0.64236883169E+01  0.51100000000E-03 0.  1.
         22    1    1    0    0    0 -0.51130365536E+02 -0.12103059546E+02 -0.33650703951E+02  0.62395257886E+02  0.00000000000E+00 0. -1.
</event>
<event>
 4    1  0.1988088E-002  0.9118800E+02  0.7818608E-02  0.1130116E+00
         25   -1    0    0    0    0  0.00000000000E+00  0.00000000000E+00  0.99999998245E-14  0.12500000000E+03  0.12500000000E+03 0.  0.
        -11    1    1    0    0    0  0.11600881606E+02  0.18883025769E+01 -0.11771896662E+02  0.16635014035E+02  0.51100000000E-03 0.  1.
         11    1    1    0    0    0  0.31984612728E+02  0.52069976979E+01 -0.32457181972E+02  0.45864985972E+02  0.51100000000E-03 0. -1.
         22    1    1    0    0    0 -0.43585494334E+02 -0.70953002748E+01  0.44229078634E+02  0.62499999993E+02  0.00000000000E+00 0. -1.
</event>
<event>
 4    1  0.1988088E-002  0.9118800E+02  0.7818608E-02  0.1130116E+00
         25   -1    0    0    0    0  0.00000000000E+00  0.00000000000E+00  0.99999998245E-14  0.12500000000E+03  0.12500000000E+03 0.  0.
        -11    1    1    0    0    0 -0.63918498566E+01 -0.17286271988E+01 -0.80589284529E+01  0.10430255253E+02  0.51100000000E-03 0. -1.
         11    1    1    0    0    0 -0.34619367774E+02  0.88147140596E+00 -0.38990717996E+02  0.52149340427E+02  0.51100000000E-03 0.  1.
         22    1    1    0    0    0  0.41011217630E+02  0.84715579285E+00  0.47049646449E+02  0.62420404319E+02  0.00000000000E+00 0.  1.
</event>
<event>
 4    1  0.1988088E-002  0.9118800E+02  0.7818608E-02  0.1130116E+00
         25   -1    0    0    0    0  0.00000000000E+00  0.00000000000E+00  0.99999998245E-14  0.12500000000E+03  0.12500000000E+03 0.  0.
        -11    1    1    0    0    0  0.30012938114E+02 -0.35399551734E+02 -0.18622269913E+02  0.50006936061E+02  0.51100000000E-03 0. -1.
         11    1    1    0    0    0  0.55002815069E+01 -0.60552164963E+01 -0.10351513762E+02  0.13193656843E+02  0.51100000000E-03 0.  1.
         22    1    1    0    0    0 -0.35513219621E+02  0.41454768231E+02  0.28973783675E+02  0.61799407096E+02  0.00000000000E+00 0. -1.
</event>
<event>
 4    1  0.1988088E-002  0.9118800E+02  0.7818608E-02  0.1130116E+00
         25   -1    0    0    0    0  0.00000000000E+00  0.00000000000E+00  0.99999998245E-14  0.12500000000E+03  0.12500000000E+03 0.  0.
        -11    1    1    0    0    0  0.29262072569E+02 -0.84732093388E+01  0.12954938163E+02  0.33104298672E+02  0.51100000000E-03 0.  1.
         11    1    1    0    0    0  0.22807017265E+02 -0.11837562855E+02  0.14629771165E+02  0.29568871055E+02  0.51100000000E-03 0. -1.
         22    1    1    0    0    0 -0.52069089833E+02  0.20310772194E+02 -0.27584709327E+02  0.62326830273E+02  0.00000000000E+00 0.  1.
</event>
<event>
 4    1  0.1988088E-002  0.9118800E+02  0.7818608E-02  0.1130116E+00
         25   -1    0    0    0    0  0.00000000000E+00  0.00000000000E+00  0.99999998245E-14  0.12500000000E+03  0.12500000000E+03 0.  0.
        -11    1    1    0    0    0 -0.20153302144E+00  0.14226708937E+02 -0.23726493672E+02  0.27665617018E+02  0.51100000000E-03 0. -1.
         11    1    1    0    0    0 -0.24930864488E+00  0.17916104559E+02 -0.29872818537E+02  0.34834383086E+02  0.51100000000E-03 0.  1.
         22    1    1    0    0    0  0.45084166632E+00 -0.32142813496E+02  0.53599312210E+02  0.62499999896E+02  0.00000000000E+00 0.  1.
</event>
<event>
 4    1  0.1988088E-002  0.9118800E+02  0.7818608E-02  0.1130116E+00
         25   -1    0    0    0    0  0.00000000000E+00  0.00000000000E+00  0.99999998245E-14  0.12500000000E+03  0.12500000000E+03 0.  0.
        -11    1    1    0    0    0  0.46233471482E+02  0.67424905360E+00  0.10156787653E+02  0.47340773470E+02  0.51100000000E-03 0. -1.
         11    1    1    0    0    0  0.14809195946E+02  0.95596285876E+00  0.31287768821E+01  0.15166258424E+02  0.51100000000E-03 0.  1.
         22    1    1    0    0    0 -0.61042667428E+02 -0.16302119124E+01 -0.13285564535E+02  0.62492968105E+02  0.00000000000E+00 0. -1.
</event>
<event>
 4    1  0.1988088E-002  0.9118800E+02  0.7818608E-02  0.1130116E+00
         25   -1    0    0    0    0  0.00000000000E+00  0.00000000000E+00  0.99999998245E-14  0.12500000000E+03  0.12500000000E+03 0.  0.
        -11    1    1    0    0    0  0.81280271974E+01  0.37567889996E+01  0.16168406762E+02  0.18482306869E+02  0.51100000000E-03 0. -1.
         11    1    1    0    0    0  0.19376913692E+02  0.89576774517E+01  0.38494839015E+02  0.44017694177E+02  0.51100000000E-03 0.  1.
         22    1    1    0    0    0 -0.27504940890E+02 -0.12714466451E+02 -0.54663245777E+02  0.62499998955E+02  0.00000000000E+00 0.  1.
</event>
<event>
 4    1  0.1988088E-002  0.9118800E+02  0.7818608E-02  0.1130116E+00
         25   -1    0    0    0    0  0.00000000000E+00  0.00000000000E+00  0.99999998245E-14  0.12500000000E+03  0.12500000000E+03 0.  0.
        -11    1    1    0    0    0  0.41613146849E+02  0.15027591719E+02  0.17564882335E+02  0.47602600719E+02  0.51100000000E-03 0. -1.
         11    1    1    0    0    0  0.13022471695E+02  0.47046813426E+01  0.54967000052E+01  0.14897399330E+02  0.51100000000E-03 0.  1.
         22    1    1    0    0    0 -0.54635618544E+02 -0.19732273062E+02 -0.23061582340E+02  0.62499999951E+02  0.00000000000E+00 0. -1.
</event>
<event>
 4    1  0.1988088E-002  0.9118800E+02  0.7818608E-02  0.1130116E+00
         25   -1    0    0    0    0  0.00000000000E+00  0.00000000000E+00  0.99999998245E-14  0.12500000000E+03  0.12500000000E+03 0.  0.
        -11    1    1    0    0    0 -0.19477789220E+02 -0.14548379741E+02 -0.24090921518E+02  0.34225898467E+02  0.51100000000E-03 0. -1.
         11    1    1    0    0    0 -0.16063740838E+02 -0.12053623166E+02 -0.19902053999E+02  0.28274111034E+02  0.51100000000E-03 0.  1.
         22    1    1    0    0    0  0.35541530058E+02  0.26602002906E+02  0.43992975517E+02  0.62499990499E+02  0.00000000000E+00 0.  1.
</event>
<event>
 4    1  0.1988088E-002  0.9118800E+02  0.7818608E-02  0.1130116E+00
         25   -1    0    0    0    0  0.00000000000E+00  0.00000000000E+00  0.99999998245E-14  0.12500000000E+03  0.12500000000E+03 0.  0.
        -11    1    1    0    0    0  0.23758298930E+01  0.13795877780E+01 -0.28497990518E+01  0.39584321409E+01  0.51100000000E-03 0.  1.
         11    1    1    0    0    0  0.35060362238E+02  0.20160694866E+02 -0.42325354230E+02  0.58541594006E+02  0.51100000000E-03 0. -1.
         22    1    1    0    0    0 -0.37436192131E+02 -0.21540282644E+02  0.45175153282E+02  0.62499973854E+02  0.00000000000E+00 0. -1.
</event>
<event>
 4    1  0.1988088E-002  0.9118800E+02  0.7818608E-02  0.1130116E+00
         25   -1    0    0    0    0  0.00000000000E+00  0.00000000000E+00  0.99999998245E-14  0.12500000000E+03  0.12500000000E+03 0.  0.
        -11    1    1    0    0    0 -0.34543493360E+02 -0.39239371750E+02 -0.28749569994E+02  0.59661704669E+02  0.51100000000E-03 0.  1.
         11    1    1    0    0    0  0.14295792578E+02  0.62846752597E+00  0.27340872182E+01  0.14568455308E+02  0.51100000000E-03 0. -1.
         22    1    1    0    0    0  0.20247700782E+02  0.38610904224E+02  0.26015482776E+02  0.50769840024E+02  0.00000000000E+00 0.  1.
</event>
<event>
 4    1  0.1988088E-002  0.9118800E+02  0.7818608E-02  0.1130116E+00
         25   -1    0    0    0    0  0.00000000000E+00  0.00000000000E+00  0.99999998245E-14  0.12500000000E+03  0.12500000000E+03 0.  0.
        -11    1    1    0    0    0  0.26539395817E+01 -0.89064977328E+01  0.16522922014E+02  0.18957216286E+02  0.51100000000E-03 0. -1.
         11    1    1    0    0    0  0.49267673429E+02  0.13270391811E+02  0.11090908306E+01  0.51035644668E+02  0.51100000000E-03 0.  1.
         22    1    1    0    0    0 -0.51921613010E+02 -0.43638940785E+01 -0.17632012845E+02  0.55007139046E+02  0.00000000000E+00 0.  1.
</event>
<event>
 4    1  0.1988088E-002  0.9118800E+02  0.7818608E-02  0.1130116E+00
         25   -1    0    0    0    0  0.00000000000E+00  0.00000000000E+00  0.99999998245E-14  0.12500000000E+03  0.12500000000E+03 0.  0.
        -11    1    1    0    0    0 -0.81470019435E+01  0.68984084519E+01  0.16344030304E+02  0.19521501138E+02  0.51100000000E-03 0. -1.
         11    1    1    0    0    0 -0.17926998801E+02  0.15188961609E+02  0.35987074633E+02  0.42978499062E+02  0.51100000000E-03 0.  1.
         22    1    1    0    0    0  0.26074000745E+02 -0.22087370060E+02 -0.52331104937E+02  0.62499999800E+02  0.00000000000E+00 0.  1.
</event>
<event>
 4    1  0.1988088E-002  0.9118800E+02  0.7818608E-02  0.1130116E+00
         25   -1    0    0    0    0  0.00000000000E+00  0.00000000000E+00  0.99999998245E-14  0.12500000000E+03  0.12500000000E+03 0.  0.
        -11    1    1    0    0    0 -0.85183302403E+00  0.28913947033E+00  0.28920224013E+00  0.94491234035E+00  0.51100000000E-03 0.  1.
         11    1    1    0    0    0 -0.53352166839E+02  0.21404536935E+02  0.22013212742E+02  0.61556392384E+02  0.51100000000E-03 0. -1.
         22    1    1    0    0    0  0.54203999863E+02 -0.21693676406E+02 -0.22302414982E+02  0.62498695276E+02  0.00000000000E+00 0. -1.
</event>
<event>
 4    1  0.1988088E-002  0.9118800E+02  0.7818608E-02  0.1130116E+00
         25   -1    0    0    0    0  0.00000000000E+00  0.00000000000E+00  0.99999998245E-14  0.12500000000E+03  0.12500000000E+03 0.  0.
        -11    1    1    0    0    0  0.28932010405E+02 -0.18070324707E+02 -0.94981853533E+01  0.35409227418E+02  0.51100000000E-03 0.  1.
         11    1    1    0    0    0  0.22198118171E+02 -0.13721532807E+02 -0.72716722512E+01  0.27090849571E+02  0.51100000000E-03 0. -1.
         22    1    1    0    0    0 -0.51130128575E+02  0.31791857514E+02  0.16769857605E+02  0.62499923011E+02  0.00000000000E+00 0.  1.
</event>
<event>
 4    1  0.1988088E-002  0.9118800E+02  0.7818608E-02  0.1130116E+00
         25   -1    0    0    0    0  0.00000000000E+00  0.00000000000E+00  0.99999998245E-14  0.12500000000E+03  0.12500000000E+03 0.  0.
        -11    1    1    0    0    0 -0.23872417738E+01 -0.22979594187E+02  0.38032867085E+02  0.44500108441E+02  0.51100000000E-03 0. -1.
         11    1    1    0    0    0 -0.96769095642E+00 -0.92956310126E+01  0.15383462422E+02  0.17999891613E+02  0.51100000000E-03 0.  1.
         22    1    1    0    0    0  0.33549327302E+01  0.32275225200E+02 -0.53416329507E+02  0.62499999947E+02  0.00000000000E+00 0. -1.
</event>
<event>
 4    1  0.1988088E-002  0.9118800E+02  0.7818608E-02  0.1130116E+00
         25   -1    0    0    0    0  0.00000000000E+00  0.00000000000E+00  0.99999998245E-14  0.12500000000E+03  0.12500000000E+03 0.  0.
        -11    1    1    0    0    0  0.31528880839E+02  0.22896567244E+02 -0.21968378658E+02  0.44731787128E+02  0.51100000000E-03 0. -1.
         11    1    1    0    0    0  0.16170297180E+02  0.88372721069E+01 -0.12076379751E+01  0.18467113443E+02  0.51100000000E-03 0.  1.
         22    1    1    0    0    0 -0.47699178019E+02 -0.31733839351E+02  0.23176016633E+02  0.61801099429E+02  0.00000000000E+00 0. -1.
</event>
<event>
 4    1  0.1988088E-002  0.9118800E+02  0.7818608E-02  0.1130116E+00
         25   -1    0    0    0    0  0.00000000000E+00  0.00000000000E+00  0.99999998245E-14  0.12500000000E+03  0.12500000000E+03 0.  0.
        -11    1    1    0    0    0 -0.13612503527E+01 -0.85555765851E+01  0.27722322899E+01  0.90959422468E+01  0.51100000000E-03 0.  1.
         11    1    1    0    0    0 -0.77021961433E+01 -0.50299996943E+02  0.16204527225E+02  0.53404121758E+02  0.51100000000E-03 0. -1.
         22    1    1    0    0    0  0.90634464960E+01  0.58855573528E+02 -0.18976759515E+02  0.62499935995E+02  0.00000000000E+00 0. -1.
</event>
<event>
 4    1  0.1988088E-002  0.9118800E+02  0.7818608E-02  0.1130116E+00
         25   -1    0    0    0    0  0.00000000000E+00  0.00000000000E+00  0.99999998245E-14  0.12500000000E+03  0.12500000000E+03 0.  0.
        -11    1    1    0    0    0  0.18581534011E+02  0.41767614804E+01  0.94129097770E+01  0.21244331323E+02  0.51100000000E-03 0.  1.
         11    1    1    0    0    0  0.36081786749E+02  0.81238738180E+01  0.18279430142E+02  0.41255669033E+02  0.51100000000E-03 0. -1.
         22    1    1    0    0    0 -0.54663320759E+02 -0.12300635298E+02 -0.27692339919E+02  0.62499999643E+02  0.00000000000E+00 0. -1.
</event>
<event>
 4    1  0.1988088E-002  0.9118800E+02  0.7818608E-02  0.1130116E+00
         25   -1    0    0    0    0  0.00000000000E+00  0.00000000000E+00  0.99999998245E-14  0.12500000000E+03  0.12500000000E+03 0.  0.
        -11    1    1    0    0    0 -0.38319724897E+01  0.28233254215E+01  0.79502694769E+01  0.92661731375E+01  0.51100000000E-03 0. -1.
         11    1    1    0    0    0 -0.20719296056E+02  0.16954567510E+02  0.46013766075E+02  0.53235451131E+02  0.51100000000E-03 0.  1.
         22    1    1    0    0    0  0.24551268546E+02 -0.19777892932E+02 -0.53964035552E+02  0.62498375731E+02  0.00000000000E+00 0.  1.
</event>
<event>
 4    1  0.1988088E-002  0.9118800E+02  0.7818608E-02  0.1130116E+00
         25   -1    0    0    0    0  0.00000000000E+00  0.00000000000E+00  0.99999998245E-14  0.12500000000E+03  0.12500000000E+03 0.  0.
        -11    1    1    0    0    0  0.37871683108E+02 -0.13488965861E+02 -0.46926249430E+02  0.61792309127E+02  0.51100000000E-03 0.  1.
         11    1    1    0    0    0  0.59632933558E+00 -0.45569823363E+00 -0.21957310432E+00  0.78197325138E+00  0.51100000000E-03 0. -1.
         22    1    1    0    0    0 -0.38468012444E+02  0.13944664095E+02  0.47145822534E+02  0.62425717621E+02  0.00000000000E+00 0.  1.
</event>
<event>
 4    1  0.1988088E-002  0.9118800E+02  0.7818608E-02  0.1130116E+00
         25   -1    0    0    0    0  0.00000000000E+00  0.00000000000E+00  0.99999998245E-14  0.12500000000E+03  0.12500000000E+03 0.  0.
        -11    1    1    0    0    0 -0.14093812574E+02 -0.40330083907E+02  0.12102738517E+02  0.44403012293E+02  0.51100000000E-03 0.  1.
         11    1    1    0    0    0 -0.57424263311E+01 -0.16437772176E+02  0.49320534293E+01  0.18096987749E+02  0.51100000000E-03 0. -1.
         22    1    1    0    0    0  0.19836238905E+02  0.56767856083E+02 -0.17034791946E+02  0.62499999959E+02  0.00000000000E+00 0.  1.
</event>
<event>
 4    1  0.1988088E-002  0.9118800E+02  0.7818608E-02  0.1130116E+00
         25   -1    0    0    0    0  0.00000000000E+00  0.00000000000E+00  0.99999998245E-14  0.12500000000E+03  0.12500000000E+03 0.  0.
        -11    1    1    0    0    0  0.21798576150E+02  0.40775865828E+02 -0.10157204285E+02  0.47339391159E+02  0.51100000000E-03 0.  1.
         11    1    1    0    0    0  0.69681932282E+01  0.13068587931E+02 -0.32404493437E+01  0.15160614090E+02  0.51100000000E-03 0. -1.
         22    1    1    0    0    0 -0.28766769378E+02 -0.53844453759E+02  0.13397653628E+02  0.62499994751E+02  0.00000000000E+00 0.  1.
</event>
<event>
 4    1  0.1988088E-002  0.9118800E+02  0.7818608E-02  0.1130116E+00
         25   -1    0    0    0    0  0.00000000000E+00  0.00000000000E+00  0.99999998245E-14  0.12500000000E+03  0.12500000000E+03 0.  0.
        -11    1    1    0    0    0  0.27362726583E+02  0.18551677237E+02 -0.41604818292E+02  0.53139857355E+02  0.51100000000E-03 0.  1.
         11    1    1    0    0    0  0.47759070500E+01  0.32282339359E+01 -0.73745422897E+01  0.93602701210E+01  0.51100000000E-03 0. -1.
         22    1    1    0    0    0 -0.32138633632E+02 -0.21779911173E+02  0.48979360582E+02  0.62499872524E+02  0.00000000000E+00 0.  1.
</event>
<event>
 4    1  0.1988088E-002  0.9118800E+02  0.7818608E-02  0.1130116E+00
         25   -1    0    0    0    0  0.00000000000E+00  0.00000000000E+00  0.99999998245E-14  0.12500000000E+03  0.12500000000E+03 0.  0.
        -11    1    1    0    0    0 -0.27638402916E+02 -0.20524865956E+02  0.23907816944E+02  0.41913424455E+02  0.51100000000E-03 0. -1.
         11    1    1    0    0    0 -0.14196035044E+02 -0.99937819524E+01  0.11076317069E+02  0.20593394299E+02  0.51100000000E-03 0.  1.
         22    1    1    0    0    0  0.41834437960E+02  0.30518647909E+02 -0.34984134013E+02  0.62493181246E+02  0.00000000000E+00 0.  1.
</event>
<event>
 4    1  0.1988088E-002  0.9118800E+02  0.7818608E-02  0.1130116E+00
         25   -1    0    0    0    0  0.00000000000E+00  0.00000000000E+00  0.99999998245E-14  0.12500000000E+03  0.12500000000E+03 0.  0.
        -11    1    1    0    0    0 -0.35231689829E+02  0.38234325111E+02 -0.26178724553E+02  0.58210490501E+02  0.51100000000E-03 0. -1.
         11    1    1    0    0    0 -0.25944797630E+01  0.28341604524E+01 -0.19069505646E+01  0.42895514250E+01  0.51100000000E-03 0.  1.
         22    1    1    0    0    0  0.37826169592E+02 -0.41068485564E+02  0.28085675117E+02  0.62499958074E+02  0.00000000000E+00 0. -1.
</event>
<event>
 4    1  0.1988088E-002  0.9118800E+02  0.7818608E-02  0.1130116E+00
         25   -1    0    0    0    0  0.00000000000E+00  0.00000000000E+00  0.99999998245E-14  0.12500000000E+03  0.12500000000E+03 0.  0.
        -11    1    1    0    0    0  0.16590776827E+02  0.36620998822E+02  0.26902857524E+02  0.48374736937E+02  0.51100000000E-03 0.  1.
         11    1    1    0    0    0  0.61501688952E+01  0.11299322225E+02  0.60120242208E+01  0.14200130129E+02  0.51100000000E-03 0. -1.
         22    1    1    0    0    0 -0.22740945722E+02 -0.47920321047E+02 -0.32914881745E+02  0.62425132935E+02  0.00000000000E+00 0.  1.
</event>
<event>
 4    1  0.1988088E-002  0.9118800E+02  0.7818608E-02  0.1130116E+00
         25   -1    0    0    0    0  0.00000000000E+00  0.00000000000E+00  0.99999998245E-14  0.12500000000E+03  0.12500000000E+03 0.  0.
        -11    1    1    0    0    0 -0.31055627595E+02 -0.34203959497E+02 -0.32477950096E+02  0.56472826150E+02  0.51100000000E-03 0. -1.
         11    1    1    0    0    0 -0.33145671648E+01 -0.36505738140E+01 -0.34660899971E+01  0.60271738644E+01  0.51100000000E-03 0. -1.
         22    1    1    0    0    0  0.34370194760E+02  0.37854533311E+02  0.35944040093E+02  0.62499999986E+02  0.00000000000E+00 0. -1.
</event>
<event>
 4    1  0.1988088E-002  0.9118800E+02  0.7818608E-02  0.1130116E+00
         25   -1    0    0    0    0  0.00000000000E+00  0.00000000000E+00  0.99999998245E-14  0.12500000000E+03  0.12500000000E+03 0.  0.
        -11    1    1    0    0    0  0.38605604849E+02 -0.42992012611E+02 -0.22094924479E+02  0.61861874867E+02  0.51100000000E-03 0.  1.
         11    1    1    0    0    0  0.39511034061E+00 -0.44497431637E+00 -0.23043065250E+00  0.63813232970E+00  0.51100000000E-03 0. -1.
         22    1    1    0    0    0 -0.39000715190E+02  0.43436986927E+02  0.22325355131E+02  0.62499992803E+02  0.00000000000E+00 0.  1.
</event>
<event>
 4    1  0.1988088E-002  0.9118800E+02  0.7818608E-02  0.1130116E+00
         25   -1    0    0    0    0  0.00000000000E+00  0.00000000000E+00  0.99999998245E-14  0.12500000000E+03  0.12500000000E+03 0.  0.
        -11    1    1    0    0    0 -0.16974000571E+02 -0.13228092183E+02 -0.90951191344E+01  0.23362797575E+02  0.51100000000E-03 0. -1.
         11    1    1    0    0    0 -0.27545675627E+02 -0.22423936791E+02 -0.16448679636E+02  0.39142767518E+02  0.51100000000E-03 0.  1.
         22    1    1    0    0    0  0.44519676198E+02  0.35652028974E+02  0.25543798771E+02  0.62494434907E+02  0.00000000000E+00 0.  1.
</event>
<event>
 4    1  0.1988088E-002  0.9118800E+02  0.7818608E-02  0.1130116E+00
         25   -1    0    0    0    0  0.00000000000E+00  0.00000000000E+00  0.99999998245E-14  0.12500000000E+03  0.12500000000E+03 0.  0.
        -11    1    1    0    0    0  0.22433025862E+02  0.10494344191E+02  0.21314157171E+02  0.32675146602E+02  0.51100000000E-03 0. -1.
         11    1    1    0    0    0  0.19665120554E+02  0.94575255775E+01  0.20340625023E+02  0.29831238376E+02  0.51100000000E-03 0.  1.
         22    1    1    0    0    0 -0.42098146415E+02 -0.19951869768E+02 -0.41654782194E+02  0.62493615022E+02  0.00000000000E+00 0.  1.
</event>
<event>
 4    1  0.1988088E-002  0.9118800E+02  0.7818608E-02  0.1130116E+00
         25   -1    0    0    0    0  0.00000000000E+00  0.00000000000E+00  0.99999998245E-14  0.12500000000E+03  0.12500000000E+03 0.  0.
        -11    1    1    0    0    0 -0.54226947209E+01 -0.18444095927E+02  0.54658777251E+02  0.57941109960E+02  0.51100000000E-03 0.  1.
         11    1    1    0    0    0 -0.25204896719E+01 -0.40671176933E+01  0.22934944523E+01  0.53060749694E+01  0.51100000000E-03 0. -1.
         22    1    1    0    0    0  0.79431843928E+01  0.22511213621E+02 -0.56952271703E+02  0.61752815070E+02  0.00000000000E+00 0.  1.
</event>
<event>
 4    1  0.1988088E-002  0.9118800E+02  0.7818608E-02  0.1130116E+00
         25   -1    0    0    0    0  0.00000000000E+00  0.00000000000E+00  0.99999998245E-14  0.12500000000E+03  0.12500000000E+03 0.  0.
        -11    1    1    0    0    0 -0.28737359647E+01 -0.49541970014E+00  0.21071367601E+01  0.35977527237E+01  0.51100000000E-03 0.  1.
         11    1    1    0    0    0 -0.47063351599E+02 -0.80766701102E+01  0.34485984351E+02  0.58902247671E+02  0.51100000000E-03 0. -1.
         22    1    1    0    0    0  0.49937087564E+02  0.85720898103E+01 -0.36593121111E+02  0.62499999605E+02  0.00000000000E+00 0. -1.
</event>
<event>
 4    1  0.1988088E-002  0.9118800E+02  0.7818608E-02  0.1130116E+00
         25   -1    0    0    0    0  0.00000000000E+00  0.00000000000E+00  0.99999998245E-14  0.12500000000E+03  0.12500000000E+03 0.  0.
        -11    1    1    0    0    0 -0.44687131404E+02  0.42430600401E+01  0.97728413463E+01  0.45939652805E+02  0.51100000000E-03 0.  1.
         11    1    1    0    0    0 -0.16667940015E+02  0.13749953728E+01 -0.31966945761E+00  0.16727612664E+02  0.51100000000E-03 0. -1.
         22    1    1    0    0    0  0.61355071418E+02 -0.56180554129E+01 -0.94531718886E+01  0.62332734531E+02  0.00000000000E+00 0. -1.
</event>
<event>
 4    1  0.1988088E-002  0.9118800E+02  0.7818608E-02  0.1130116E+00
         25   -1    0    0    0    0  0.00000000000E+00  0.00000000000E+00  0.99999998245E-14  0.12500000000E+03  0.12500000000E+03 0.  0.
        -11    1    1    0    0    0 -0.11815278492E+01 -0.11578231133E+01  0.67875151422E+00  0.17880901262E+01  0.51100000000E-03 0. -1.
         11    1    1    0    0    0 -0.39927555437E+02 -0.39517304323E+02  0.23024120028E+02  0.60711919155E+02  0.51100000000E-03 0.  1.
         22    1    1    0    0    0  0.41109083286E+02  0.40675127436E+02 -0.23702871542E+02  0.62499990719E+02  0.00000000000E+00 0.  1.
</event>
<event>
 4    1  0.1988088E-002  0.9118800E+02  0.7818608E-02  0.1130116E+00
         25   -1    0    0    0    0  0.00000000000E+00  0.00000000000E+00  0.99999998245E-14  0.12500000000E+03  0.12500000000E+03 0.  0.
        -11    1    1    0    0    0  0.20652291594E+02 -0.12326099606E+02  0.20471584155E+02  0.31583787576E+02  0.51100000000E-03 0.  1.
         11    1    1    0    0    0  0.20210709816E+02 -0.12008029536E+02  0.20078542437E+02  0.30916232488E+02  0.51100000000E-03 0. -1.
         22    1    1    0    0    0 -0.40863001410E+02  0.24334129142E+02 -0.40550126592E+02  0.62499979936E+02  0.00000000000E+00 0. -1.
</event>
<event>
 4    1  0.1988088E-002  0.9118800E+02  0.7818608E-02  0.1130116E+00
         25   -1    0    0    0    0  0.00000000000E+00  0.00000000000E+00  0.99999998245E-14  0.12500000000E+03  0.12500000000E+03 0.  0.
        -11    1    1    0    0    0  0.35699371790E+01 -0.44688674651E+01  0.22430932598E+01  0.61438339428E+01  0.51100000000E-03 0.  1.
         11    1    1    0    0    0  0.32753483217E+02 -0.40969836468E+02  0.20608235495E+02  0.56356166775E+02  0.51100000000E-03 0. -1.
         22    1    1    0    0    0 -0.36323420396E+02  0.45438703933E+02 -0.22851328755E+02  0.62499999282E+02  0.00000000000E+00 0. -1.
</event>
<event>
 4    1  0.1988088E-002  0.9118800E+02  0.7818608E-02  0.1130116E+00
         25   -1    0    0    0    0  0.00000000000E+00  0.00000000000E+00  0.99999998245E-14  0.12500000000E+03  0.12500000000E+03 0.  0.
        -11    1    1    0    0    0 -0.18136424015E+02 -0.32635032314E+02  0.10632166030E+02  0.38820331850E+02  0.51100000000E-03 0.  1.
         11    1    1    0    0    0 -0.11081480921E+02 -0.19899272641E+02  0.64766165214E+01  0.23679671300E+02  0.51100000000E-03 0. -1.
         22    1    1    0    0    0  0.29217904936E+02  0.52534304955E+02 -0.17108782551E+02  0.62499996850E+02  0.00000000000E+00 0.  1.
</event>
<event>
 4    1  0.1988088E-002  0.9118800E+02  0.7818608E-02  0.1130116E+00
         25   -1    0    0    0    0  0.00000000000E+00  0.00000000000E+00  0.99999998245E-14  0.12500000000E+03  0.12500000000E+03 0.  0.
        -11    1    1    0    0    0 -0.11572648964E+02 -0.34108526966E+02  0.98033846751E-01  0.36018431764E+02  0.51100000000E-03 0. -1.
         11    1    1    0    0    0 -0.84994797835E+01 -0.25080221729E+02  0.12493343526E+00  0.26481583925E+02  0.51100000000E-03 0.  1.
         22    1    1    0    0    0  0.20072128747E+02  0.59188748695E+02 -0.22296728201E+00  0.62499984311E+02  0.00000000000E+00 0.  1.
</event>
<event>
 4    1  0.1988088E-002  0.9118800E+02  0.7818608E-02  0.1130116E+00
         25   -1    0    0    0    0  0.00000000000E+00  0.00000000000E+00  0.99999998245E-14  0.12500000000E+03  0.12500000000E+03 0.  0.
        -11    1    1    0    0    0 -0.75301967575E+01  0.49090671392E+01 -0.44287602247E+02  0.45190646338E+02  0.51100000000E-03 0. -1.
         11    1    1    0    0    0 -0.34748706464E+01  0.17392401215E+01 -0.16871585418E+02  0.17313291916E+02  0.51100000000E-03 0.  1.
         22    1    1    0    0    0  0.11005067404E+02 -0.66483072607E+01  0.61159187664E+02  0.62496061746E+02  0.00000000000E+00 0. -1.
</event>
<event>
 4    1  0.1988088E-002  0.9118800E+02  0.7818608E-02  0.1130116E+00
         25   -1    0    0    0    0  0.00000000000E+00  0.00000000000E+00  0.99999998245E-14  0.12500000000E+03  0.12500000000E+03 0.  0.
        -11    1    1    0    0    0  0.37585514841E+01  0.10958782869E+01 -0.31320505008E+01  0.50137210810E+01  0.51100000000E-03 0. -1.
         11    1    1    0    0    0  0.43091988530E+02  0.12596929888E+02 -0.35903623642E+02  0.57486279310E+02  0.51100000000E-03 0.  1.
         22    1    1    0    0    0 -0.46850540014E+02 -0.13692808174E+02  0.39035674142E+02  0.62499999609E+02  0.00000000000E+00 0.  1.
</event>
<event>
 4    1  0.1988088E-002  0.9118800E+02  0.7818608E-02  0.1130116E+00
         25   -1    0    0    0    0  0.00000000000E+00  0.00000000000E+00  0.99999998245E-14  0.12500000000E+03  0.12500000000E+03 0.  0.
        -11    1    1    0    0    0  0.61085230788E+01  0.43848647067E+02  0.13594927112E+02  0.46312416772E+02  0.51100000000E-03 0. -1.
         11    1    1    0    0    0  0.22162560630E+01  0.15283759414E+02  0.48517595831E+01  0.16187793675E+02  0.51100000000E-03 0.  1.
         22    1    1    0    0    0 -0.83247791419E+01 -0.59132406481E+02 -0.18446686695E+02  0.62499789552E+02  0.00000000000E+00 0. -1.
</event>
<event>
 4    1  0.1988088E-002  0.9118800E+02  0.7818608E-02  0.1130116E+00
         25   -1    0    0    0    0  0.00000000000E+00  0.00000000000E+00  0.99999998245E-14  0.12500000000E+03  0.12500000000E+03 0.  0.
        -11    1    1    0    0    0 -0.16980106758E+01  0.75145142180E+00  0.50202660529E+01  0.53526620478E+01  0.51100000000E-03 0. -1.
         11    1    1    0    0    0 -0.35373462424E+02  0.31680405580E+02  0.32658696030E+02  0.57632632841E+02  0.51100000000E-03 0.  1.
         22    1    1    0    0    0  0.37071473100E+02 -0.32431857001E+02 -0.37678962083E+02  0.62014705111E+02  0.00000000000E+00 0.  1.
</event>
<event>
 4    1  0.1988088E-002  0.9118800E+02  0.7818608E-02  0.1130116E+00
         25   -1    0    0    0    0  0.00000000000E+00  0.00000000000E+00  0.99999998245E-14  0.12500000000E+03  0.12500000000E+03 0.  0.
        -11    1    1    0    0    0 -0.53478687236E+02 -0.29933100634E+02 -0.37458645975E+01  0.61400260618E+02  0.51100000000E-03 0. -1.
         11    1    1    0    0    0 -0.72410319334E+00 -0.86525534938E+00  0.27634802415E+00  0.11616198801E+01  0.51100000000E-03 0.  1.
         22    1    1    0    0    0  0.54202790430E+02  0.30798355984E+02  0.34695165734E+01  0.62438119502E+02  0.00000000000E+00 0. -1.
</event>
<event>
 4    1  0.1988088E-002  0.9118800E+02  0.7818608E-02  0.1130116E+00
         25   -1    0    0    0    0  0.00000000000E+00  0.00000000000E+00  0.99999998245E-14  0.12500000000E+03  0.12500000000E+03 0.  0.
        -11    1    1    0    0    0 -0.38628889967E+01  0.40972401158E+02  0.18088573119E+02  0.44953932485E+02  0.51100000000E-03 0. -1.
         11    1    1    0    0    0 -0.15985944353E+01  0.15838091842E+02  0.73832825624E+01  0.17547464746E+02  0.51100000000E-03 0.  1.
         22    1    1    0    0    0  0.54614834320E+01 -0.56810493000E+02 -0.25471855682E+02  0.62498602769E+02  0.00000000000E+00 0. -1.
</event>
<event>
 4    1  0.1988088E-002  0.9118800E+02  0.7818608E-02  0.1130116E+00
         25   -1    0    0    0    0  0.00000000000E+00  0.00000000000E+00  0.99999998245E-14  0.12500000000E+03  0.12500000000E+03 0.  0.
        -11    1    1    0    0    0  0.30977638074E+01 -0.34981455951E+01 -0.18146190671E-01  0.46726323156E+01  0.51100000000E-03 0. -1.
         11    1    1    0    0    0  0.38103376676E+02 -0.43498726017E+02  0.69633887839E-01  0.57827427129E+02  0.51100000000E-03 0.  1.
         22    1    1    0    0    0 -0.41201140483E+02  0.46996871613E+02 -0.51487697167E-01  0.62499940555E+02  0.00000000000E+00 0.  1.
</event>
<event>
 4    1  0.1988088E-002  0.9118800E+02  0.7818608E-02  0.1130116E+00
         25   -1    0    0    0    0  0.00000000000E+00  0.00000000000E+00  0.99999998245E-14  0.12500000000E+03  0.12500000000E+03 0.  0.
        -11    1    1    0    0    0 -0.13919609622E-02  0.37396900113E+01 -0.38625200419E+02  0.38805816459E+02  0.51100000000E-03 0.  1.
         11    1    1    0    0    0 -0.59824668581E+01  0.28852336837E+01 -0.22992776232E+02  0.23932869494E+02  0.51100000000E-03 0. -1.
         22    1    1    0    0    0  0.59838588191E+01 -0.66249236950E+01  0.61617976651E+02  0.62261314047E+02  0.00000000000E+00 0.  1.
</event>
<event>
 4    1  0.1988088E-002  0.9118800E+02  0.7818608E-02  0.1130116E+00
         25   -1    0    0    0    0  0.00000000000E+00  0.00000000000E+00  0.99999998245E-14  0.12500000000E+03  0.12500000000E+03 0.  0.
        -11    1    1    0    0    0 -0.19882749065E+02 -0.15979837313E+02 -0.24325785124E+02  0.35248017435E+02  0.51100000000E-03 0.  1.
         11    1    1    0    0    0 -0.15023234443E+02 -0.12479780480E+02 -0.19007316834E+02  0.27252900533E+02  0.51100000000E-03 0. -1.
         22    1    1    0    0    0  0.34905983508E+02  0.28459617793E+02  0.43333101958E+02  0.62499082032E+02  0.00000000000E+00 0. -1.
</event>
<event>
 4    1  0.1988088E-002  0.9118800E+02  0.7818608E-02  0.1130116E+00
         25   -1    0    0    0    0  0.00000000000E+00  0.00000000000E+00  0.99999998245E-14  0.12500000000E+03  0.12500000000E+03 0.  0.
        -11    1    1    0    0    0 -0.17493522324E+02 -0.25285999983E+02 -0.20585659198E+02  0.37002357808E+02  0.51100000000E-03 0. -1.
         11    1    1    0    0    0 -0.40370999246E+01 -0.17926495571E+02 -0.18354234784E+02  0.25971818458E+02  0.51100000000E-03 0.  1.
         22    1    1    0    0    0  0.21530622249E+02  0.43212495554E+02  0.38939893983E+02  0.62025823734E+02  0.00000000000E+00 0.  1.
</event>
<event>
 4    1  0.1988088E-002  0.9118800E+02  0.7818608E-02  0.1130116E+00
         25   -1    0    0    0    0  0.00000000000E+00  0.00000000000E+00  0.99999998245E-14  0.12500000000E+03  0.12500000000E+03 0.  0.
        -11    1    1    0    0    0 -0.18537081611E+02 -0.31200625645E+02 -0.17125663389E+02  0.40129674582E+02  0.51100000000E-03 0. -1.
         11    1    1    0    0    0 -0.10336671133E+02 -0.17393187568E+02 -0.95426266798E+01  0.22370325615E+02  0.51100000000E-03 0.  1.
         22    1    1    0    0    0  0.28873752744E+02  0.48593813213E+02  0.26668290069E+02  0.62499999803E+02  0.00000000000E+00 0. -1.
</event>
<event>
 4    1  0.1988088E-002  0.9118800E+02  0.7818608E-02  0.1130116E+00
         25   -1    0    0    0    0  0.00000000000E+00  0.00000000000E+00  0.99999998245E-14  0.12500000000E+03  0.12500000000E+03 0.  0.
        -11    1    1    0    0    0 -0.19424713382E+02 -0.15406908661E+02 -0.38315115006E+02  0.45637050329E+02  0.51100000000E-03 0. -1.
         11    1    1    0    0    0 -0.51844829872E+01 -0.75009960634E+01 -0.14278244165E+02  0.16941430355E+02  0.51100000000E-03 0.  1.
         22    1    1    0    0    0  0.24609196369E+02  0.22907904725E+02  0.52593359171E+02  0.62421519316E+02  0.00000000000E+00 0. -1.
</event>
<event>
 4    1  0.1988088E-002  0.9118800E+02  0.7818608E-02  0.1130116E+00
         25   -1    0    0    0    0  0.00000000000E+00  0.00000000000E+00  0.99999998245E-14  0.12500000000E+03  0.12500000000E+03 0.  0.
        -11    1    1    0    0    0  0.23913259240E+02 -0.46831931522E+01  0.28486129594E+02  0.37486475495E+02  0.51100000000E-03 0. -1.
         11    1    1    0    0    0  0.15996461818E+02 -0.30965709693E+01  0.18978984040E+02  0.25013543889E+02  0.51100000000E-03 0.  1.
         22    1    1    0    0    0 -0.39909721058E+02  0.77797641215E+01 -0.47465113633E+02  0.62499980615E+02  0.00000000000E+00 0. -1.
</event>
<event>
 4    1  0.1988088E-002  0.9118800E+02  0.7818608E-02  0.1130116E+00
         25   -1    0    0    0    0  0.00000000000E+00  0.00000000000E+00  0.99999998245E-14  0.12500000000E+03  0.12500000000E+03 0.  0.
        -11    1    1    0    0    0  0.26696741149E+02 -0.75173225867E+01 -0.39409304146E+02  0.48190449057E+02  0.51100000000E-03 0.  1.
         11    1    1    0    0    0  0.79210277912E+01 -0.22101100018E+01 -0.11710517094E+02  0.14309558985E+02  0.51100000000E-03 0. -1.
         22    1    1    0    0    0 -0.34617768940E+02  0.97274325885E+01  0.51119821239E+02  0.62499991957E+02  0.00000000000E+00 0.  1.
</event>
<event>
 4    1  0.1988088E-002  0.9118800E+02  0.7818608E-02  0.1130116E+00
         25   -1    0    0    0    0  0.00000000000E+00  0.00000000000E+00  0.99999998245E-14  0.12500000000E+03  0.12500000000E+03 0.  0.
        -11    1    1    0    0    0  0.27877119382E+01  0.12036863360E+02 -0.17291292779E+02  0.21251969877E+02  0.51100000000E-03 0.  1.
         11    1    1    0    0    0  0.54112825526E+01  0.23361997371E+02 -0.33560916096E+02  0.41248030129E+02  0.51100000000E-03 0.  1.
         22    1    1    0    0    0 -0.81989944909E+01 -0.35398860731E+02  0.50852208876E+02  0.62499999994E+02  0.00000000000E+00 0.  1.
</event>
<event>
 4    1  0.1988088E-002  0.9118800E+02  0.7818608E-02  0.1130116E+00
         25   -1    0    0    0    0  0.00000000000E+00  0.00000000000E+00  0.99999998245E-14  0.12500000000E+03  0.12500000000E+03 0.  0.
        -11    1    1    0    0    0  0.21863666945E+02  0.10805271964E+02  0.35328843747E+01  0.24642546677E+02  0.51100000000E-03 0.  1.
         11    1    1    0    0    0  0.33609383785E+02  0.16558555063E+02  0.54231700330E+01  0.37857458944E+02  0.51100000000E-03 0. -1.
         22    1    1    0    0    0 -0.55473050730E+02 -0.27363827026E+02 -0.89560544077E+01  0.62499994379E+02  0.00000000000E+00 0. -1.
</event>
<event>
 4    1  0.1988088E-002  0.9118800E+02  0.7818608E-02  0.1130116E+00
         25   -1    0    0    0    0  0.00000000000E+00  0.00000000000E+00  0.99999998245E-14  0.12500000000E+03  0.12500000000E+03 0.  0.
        -11    1    1    0    0    0 -0.34209505471E+01  0.46082222269E+02  0.85958378813E+01  0.47001729128E+02  0.51100000000E-03 0.  1.
         11    1    1    0    0    0 -0.18549043863E+01  0.15102181887E+02  0.29815980165E+01  0.15505047405E+02  0.51100000000E-03 0. -1.
         22    1    1    0    0    0  0.52758549334E+01 -0.61184404157E+02 -0.11577435898E+02  0.62493223467E+02  0.00000000000E+00 0.  1.
</event>
<event>
 4    1  0.1988088E-002  0.9118800E+02  0.7818608E-02  0.1130116E+00
         25   -1    0    0    0    0  0.00000000000E+00  0.00000000000E+00  0.99999998245E-14  0.12500000000E+03  0.12500000000E+03 0.  0.
        -11    1    1    0    0    0 -0.18255867377E+02  0.29736060368E+02  0.32016583681E+02  0.47355798069E+02  0.51100000000E-03 0.  1.
         11    1    1    0    0    0 -0.58360564646E+01  0.95107223517E+01  0.10238821200E+02  0.15144202011E+02  0.51100000000E-03 0. -1.
         22    1    1    0    0    0  0.24091923842E+02 -0.39246782720E+02 -0.42255404882E+02  0.62499999920E+02  0.00000000000E+00 0.  1.
</event>
<event>
 4    1  0.1988088E-002  0.9118800E+02  0.7818608E-02  0.1130116E+00
         25   -1    0    0    0    0  0.00000000000E+00  0.00000000000E+00  0.99999998245E-14  0.12500000000E+03  0.12500000000E+03 0.  0.
        -11    1    1    0    0    0  0.14023232051E+01 -0.24155007633E+01 -0.76352788640E+01  0.81301068813E+01  0.51100000000E-03 0. -1.
         11    1    1    0    0    0  0.10291761862E+02 -0.16992334192E+02 -0.50611645641E+02  0.54370933947E+02  0.51100000000E-03 0.  1.
         22    1    1    0    0    0 -0.11694085067E+02  0.19407834955E+02  0.58246924505E+02  0.62498959172E+02  0.00000000000E+00 0.  1.
</event>
<event>
 4    1  0.1988088E-002  0.9118800E+02  0.7818608E-02  0.1130116E+00
         25   -1    0    0    0    0  0.00000000000E+00  0.00000000000E+00  0.99999998245E-14  0.12500000000E+03  0.12500000000E+03 0.  0.
        -11    1    1    0    0    0 -0.21673720971E+01  0.43306159676E+01  0.21992277380E+01  0.53186783481E+01  0.51100000000E-03 0. -1.
         11    1    1    0    0    0 -0.44929693115E+02 -0.39184600380E+02  0.81894188046E+01  0.60176214661E+02  0.51100000000E-03 0.  1.
         22    1    1    0    0    0  0.47097065212E+02  0.34853984413E+02 -0.10388646543E+02  0.59505106991E+02  0.00000000000E+00 0.  1.
</event>
<event>
 4    1  0.1988088E-002  0.9118800E+02  0.7818608E-02  0.1130116E+00
         25   -1    0    0    0    0  0.00000000000E+00  0.00000000000E+00  0.99999998245E-14  0.12500000000E+03  0.12500000000E+03 0.  0.
        -11    1    1    0    0    0  0.62759808744E+01  0.41891488810E+01 -0.59250521509E+02  0.59729064982E+02  0.51100000000E-03 0. -1.
         11    1    1    0    0    0  0.30645115659E+00  0.20476729472E+00 -0.27463439840E+01  0.27709650838E+01  0.51100000000E-03 0.  1.
         22    1    1    0    0    0 -0.65824320309E+01 -0.43939161757E+01  0.61996865493E+02  0.62499969934E+02  0.00000000000E+00 0. -1.
</event>
<event>
 4    1  0.1988088E-002  0.9118800E+02  0.7818608E-02  0.1130116E+00
         25   -1    0    0    0    0  0.00000000000E+00  0.00000000000E+00  0.99999998245E-14  0.12500000000E+03  0.12500000000E+03 0.  0.
        -11    1    1    0    0    0  0.11446108344E+01  0.24330841740E+01 -0.29150293092E+01  0.39657822299E+01  0.51100000000E-03 0.  1.
         11    1    1    0    0    0  0.16889544463E+02  0.35913999069E+02 -0.43025371716E+02  0.58534217795E+02  0.51100000000E-03 0.  1.
         22    1    1    0    0    0 -0.18034155297E+02 -0.38347083243E+02  0.45940401025E+02  0.62499999975E+02  0.00000000000E+00 0.  1.
</event>
<event>
 4    1  0.1988088E-002  0.9118800E+02  0.7818608E-02  0.1130116E+00
         25   -1    0    0    0    0  0.00000000000E+00  0.00000000000E+00  0.99999998245E-14  0.12500000000E+03  0.12500000000E+03 0.  0.
        -11    1    1    0    0    0 -0.27790866739E+02 -0.30412143547E+02  0.64369355376E+01  0.41697300736E+02  0.51100000000E-03 0.  1.
         11    1    1    0    0    0 -0.13853815542E+02 -0.15185816778E+02  0.31961284081E+01  0.20802703511E+02  0.51100000000E-03 0. -1.
         22    1    1    0    0    0  0.41644682282E+02  0.45597960325E+02 -0.96330639457E+01  0.62499995753E+02  0.00000000000E+00 0.  1.
</event>
<event>
 4    1  0.1988088E-002  0.9118800E+02  0.7818608E-02  0.1130116E+00
         25   -1    0    0    0    0  0.00000000000E+00  0.00000000000E+00  0.99999998245E-14  0.12500000000E+03  0.12500000000E+03 0.  0.
        -11    1    1    0    0    0  0.25533780243E+02 -0.51955919401E+02 -0.18008453468E+02  0.60627517605E+02  0.51100000000E-03 0. -1.
         11    1    1    0    0    0  0.91802478579E+00 -0.15355234780E+01 -0.56218423471E+00  0.18752741756E+01  0.51100000000E-03 0.  1.
         22    1    1    0    0    0 -0.26451805029E+02  0.53491442879E+02  0.18570637703E+02  0.62497208220E+02  0.00000000000E+00 0. -1.
</event>
<event>
 4    1  0.1988088E-002  0.9118800E+02  0.7818608E-02  0.1130116E+00
         25   -1    0    0    0    0  0.00000000000E+00  0.00000000000E+00  0.99999998245E-14  0.12500000000E+03  0.12500000000E+03 0.  0.
        -11    1    1    0    0    0 -0.15159669149E+02  0.14776940590E+02 -0.71750118435E+01  0.22352949182E+02  0.51100000000E-03 0. -1.
         11    1    1    0    0    0 -0.27913844082E+02  0.22745611011E+02 -0.17958444467E+02  0.40237435799E+02  0.51100000000E-03 0.  1.
         22    1    1    0    0    0  0.43073513232E+02 -0.37522551601E+02  0.25133456311E+02  0.62409615019E+02  0.00000000000E+00 0. -1.
</event>
<event>
 4    1  0.1988088E-002  0.9118800E+02  0.7818608E-02  0.1130116E+00
         25   -1    0    0    0    0  0.00000000000E+00  0.00000000000E+00  0.99999998245E-14  0.12500000000E+03  0.12500000000E+03 0.  0.
        -11    1    1    0    0    0  0.50280824274E+02 -0.16882925673E+02 -0.30285354705E+02  0.61076977487E+02  0.51100000000E-03 0. -1.
         11    1    1    0    0    0  0.11649022655E+01 -0.39232147880E+00 -0.71705310010E+00  0.14230526485E+01  0.51100000000E-03 0.  1.
         22    1    1    0    0    0 -0.51445726540E+02  0.17275247152E+02  0.31002407805E+02  0.62499969865E+02  0.00000000000E+00 0. -1.
</event>
<event>
 4    1  0.1988088E-002  0.9118800E+02  0.7818608E-02  0.1130116E+00
         25   -1    0    0    0    0  0.00000000000E+00  0.00000000000E+00  0.99999998245E-14  0.12500000000E+03  0.12500000000E+03 0.  0.
        -11    1    1    0    0    0 -0.36328840240E+02 -0.29381793956E+02 -0.16678041586E+02  0.49610800443E+02  0.51100000000E-03 0.  1.
         11    1    1    0    0    0 -0.94383389253E+01 -0.76339371400E+01 -0.43326928461E+01  0.12889199567E+02  0.51100000000E-03 0.  1.
         22    1    1    0    0    0  0.45767179165E+02  0.37015731096E+02  0.21010734432E+02  0.62499999989E+02  0.00000000000E+00 0.  1.
</event>
<event>
 4    1  0.1988088E-002  0.9118800E+02  0.7818608E-02  0.1130116E+00
         25   -1    0    0    0    0  0.00000000000E+00  0.00000000000E+00  0.99999998245E-14  0.12500000000E+03  0.12500000000E+03 0.  0.
        -11    1    1    0    0    0  0.48683935817E+01 -0.30468183846E+02  0.21188446364E+02  0.37429423487E+02  0.51100000000E-03 0. -1.
         11    1    1    0    0    0  0.32707864994E+01 -0.20394782678E+02  0.14208756609E+02  0.25070579758E+02  0.51100000000E-03 0.  1.
         22    1    1    0    0    0 -0.81391800811E+01  0.50862966524E+02 -0.35397202973E+02  0.62499996755E+02  0.00000000000E+00 0. -1.
</event>
<event>
 4    1  0.1988088E-002  0.9118800E+02  0.7818608E-02  0.1130116E+00
         25   -1    0    0    0    0  0.00000000000E+00  0.00000000000E+00  0.99999998245E-14  0.12500000000E+03  0.12500000000E+03 0.  0.
        -11    1    1    0    0    0 -0.46714200909E+02 -0.82655695663E+01 -0.85122504508E+01  0.48197454444E+02  0.51100000000E-03 0. -1.
         11    1    1    0    0    0 -0.14391674362E+02  0.95651970363E+00 -0.13075613331E+01  0.14482573589E+02  0.51100000000E-03 0.  1.
         22    1    1    0    0    0  0.61105875271E+02  0.73090498627E+01  0.98198117839E+01  0.62319971967E+02  0.00000000000E+00 0. -1.
</event>
<event>
 4    1  0.1988088E-002  0.9118800E+02  0.7818608E-02  0.1130116E+00
         25   -1    0    0    0    0  0.00000000000E+00  0.00000000000E+00  0.99999998245E-14  0.12500000000E+03  0.12500000000E+03 0.  0.
        -11    1    1    0    0    0 -0.54498454853E+01 -0.20410816979E+01 -0.70305657067E+01  0.91266469598E+01  0.51100000000E-03 0.  1.
         11    1    1    0    0    0 -0.31740320747E+02 -0.12153989666E+02 -0.41152790889E+02  0.53373398094E+02  0.51100000000E-03 0. -1.
         22    1    1    0    0    0  0.37190166232E+02  0.14195071364E+02  0.48183356596E+02  0.62499954946E+02  0.00000000000E+00 0. -1.
</event>
<event>
 4    1  0.1988088E-002  0.9118800E+02  0.7818608E-02  0.1130116E+00
         25   -1    0    0    0    0  0.00000000000E+00  0.00000000000E+00  0.99999998245E-14  0.12500000000E+03  0.12500000000E+03 0.  0.
        -11    1    1    0    0    0  0.73491727725E+01  0.21778472707E+00  0.20267309915E+01  0.76266250334E+01  0.51100000000E-03 0.  1.
         11    1    1    0    0    0  0.52875986329E+02  0.15682981743E+01  0.14586219274E+02  0.54873374987E+02  0.51100000000E-03 0. -1.
         22    1    1    0    0    0 -0.60225159102E+02 -0.17860829014E+01 -0.16612950265E+02  0.62499999980E+02  0.00000000000E+00 0. -1.
</event>
<event>
 4    1  0.1988088E-002  0.9118800E+02  0.7818608E-02  0.1130116E+00
         25   -1    0    0    0    0  0.00000000000E+00  0.00000000000E+00  0.99999998245E-14  0.12500000000E+03  0.12500000000E+03 0.  0.
        -11    1    1    0    0    0  0.37866976150E+02 -0.23279583082E+02 -0.37973244476E+02  0.58462074609E+02  0.51100000000E-03 0. -1.
         11    1    1    0    0    0  0.29236906397E+01 -0.69332509291E+00 -0.27793719832E+01  0.40931131823E+01  0.51100000000E-03 0.  1.
         22    1    1    0    0    0 -0.40790666790E+02  0.23972908175E+02  0.40752616459E+02  0.62444812209E+02  0.00000000000E+00 0. -1.
</event>
<event>
 4    1  0.1988088E-002  0.9118800E+02  0.7818608E-02  0.1130116E+00
         25   -1    0    0    0    0  0.00000000000E+00  0.00000000000E+00  0.99999998245E-14  0.12500000000E+03  0.12500000000E+03 0.  0.
        -11    1    1    0    0    0 -0.17530601926E+02 -0.87308759902E+01  0.25038374394E+00  0.19586038183E+02  0.51100000000E-03 0.  1.
         11    1    1    0    0    0 -0.21504917841E+02  0.23501853381E+02 -0.37687440209E+02  0.49347155475E+02  0.51100000000E-03 0. -1.
         22    1    1    0    0    0  0.39035519767E+02 -0.14770977391E+02  0.37437056465E+02  0.56066806342E+02  0.00000000000E+00 0. -1.
</event>
<event>
 4    1  0.1988088E-002  0.9118800E+02  0.7818608E-02  0.1130116E+00
         25   -1    0    0    0    0  0.00000000000E+00  0.00000000000E+00  0.99999998245E-14  0.12500000000E+03  0.12500000000E+03 0.  0.
        -11    1    1    0    0    0  0.14310809847E+01 -0.79093532327E-01  0.13236818735E+01  0.19509952678E+01  0.51100000000E-03 0. -1.
         11    1    1    0    0    0  0.43562022176E+02 -0.28723553097E+01  0.41956022018E+02  0.60549219523E+02  0.51100000000E-03 0.  1.
         22    1    1    0    0    0 -0.44993103160E+02  0.29514488420E+01 -0.43279703891E+02  0.62499785209E+02  0.00000000000E+00 0.  1.
</event>
<event>
 4    1  0.1988088E-002  0.9118800E+02  0.7818608E-02  0.1130116E+00
         25   -1    0    0    0    0  0.00000000000E+00  0.00000000000E+00  0.99999998245E-14  0.12500000000E+03  0.12500000000E+03 0.  0.
        -11    1    1    0    0    0 -0.26243722235E+02 -0.20915356500E+02 -0.31746290477E+01  0.33708505813E+02  0.51100000000E-03 0. -1.
         11    1    1    0    0    0 -0.22415366231E+02 -0.17864694190E+02 -0.27118620479E+01  0.28791494192E+02  0.51100000000E-03 0. -1.
         22    1    1    0    0    0  0.48659088467E+02  0.38780050690E+02  0.58864910956E+01  0.62499999995E+02  0.00000000000E+00 0. -1.
</event>
<event>
 4    1  0.1988088E-002  0.9118800E+02  0.7818608E-02  0.1130116E+00
         25   -1    0    0    0    0  0.00000000000E+00  0.00000000000E+00  0.99999998245E-14  0.12500000000E+03  0.12500000000E+03 0.  0.
        -11    1    1    0    0    0 -0.21008761220E+02 -0.27978483500E+02  0.59783815816E+01  0.35495135351E+02  0.51100000000E-03 0.  1.
         11    1    1    0    0    0 -0.17185327116E+02 -0.20110846685E+02  0.55277577271E+01  0.27024761391E+02  0.51100000000E-03 0. -1.
         22    1    1    0    0    0  0.38194088336E+02  0.48089330185E+02 -0.11506139309E+02  0.62480103259E+02  0.00000000000E+00 0. -1.
</event>
<event>
 4    1  0.1988088E-002  0.9118800E+02  0.7818608E-02  0.1130116E+00
         25   -1    0    0    0    0  0.00000000000E+00  0.00000000000E+00  0.99999998245E-14  0.12500000000E+03  0.12500000000E+03 0.  0.
        -11    1    1    0    0    0 -0.33467735601E-01 -0.18634858400E+01  0.23834503588E-01  0.18639388160E+01  0.51100000000E-03 0.  1.
         11    1    1    0    0    0 -0.10879744940E+01 -0.60621425941E+02  0.76873214738E+00  0.60636061226E+02  0.51100000000E-03 0. -1.
         22    1    1    0    0    0  0.11214422296E+01  0.62484911781E+02 -0.79256665097E+00  0.62499999958E+02  0.00000000000E+00 0. -1.
</event>
<event>
 4    1  0.1988088E-002  0.9118800E+02  0.7818608E-02  0.1130116E+00
         25   -1    0    0    0    0  0.00000000000E+00  0.00000000000E+00  0.99999998245E-14  0.12500000000E+03  0.12500000000E+03 0.  0.
        -11    1    1    0    0    0 -0.15748027825E+02 -0.11995829715E+02  0.49581919251E+01  0.20407939101E+02  0.51100000000E-03 0. -1.
         11    1    1    0    0    0 -0.33907810537E+02 -0.22132249412E+02  0.11571758272E+02  0.42112725740E+02  0.51100000000E-03 0.  1.
         22    1    1    0    0    0  0.49655838362E+02  0.34128079127E+02 -0.16529950197E+02  0.62479335159E+02  0.00000000000E+00 0.  1.
</event>
<event>
 4    1  0.1988088E-002  0.9118800E+02  0.7818608E-02  0.1130116E+00
         25   -1    0    0    0    0  0.00000000000E+00  0.00000000000E+00  0.99999998245E-14  0.12500000000E+03  0.12500000000E+03 0.  0.
        -11    1    1    0    0    0  0.12569709294E+01  0.28175397743E+01 -0.16672127245E+01  0.35068653848E+01  0.51100000000E-03 0. -1.
         11    1    1    0    0    0  0.10789608410E+02  0.40550655053E+02 -0.41579887107E+02  0.59073329744E+02  0.51100000000E-03 0.  1.
         22    1    1    0    0    0 -0.12046579340E+02 -0.43368194827E+02  0.43247099832E+02  0.62419804872E+02  0.00000000000E+00 0.  1.
</event>
<event>
 4    1  0.1988088E-002  0.9118800E+02  0.7818608E-02  0.1130116E+00
         25   -1    0    0    0    0  0.00000000000E+00  0.00000000000E+00  0.99999998245E-14  0.12500000000E+03  0.12500000000E+03 0.  0.
        -11    1    1    0    0    0  0.12433935487E+02 -0.81639453057E+01  0.87591179185E+01  0.17261949531E+02  0.51100000000E-03 0. -1.
         11    1    1    0    0    0  0.32582823108E+02 -0.21397479512E+02  0.22956234908E+02  0.45238050495E+02  0.51100000000E-03 0.  1.
         22    1    1    0    0    0 -0.45016758596E+02  0.29561424818E+02 -0.31715352827E+02  0.62499999973E+02  0.00000000000E+00 0. -1.
</event>
<event>
 4    1  0.1988088E-002  0.9118800E+02  0.7818608E-02  0.1130116E+00
         25   -1    0    0    0    0  0.00000000000E+00  0.00000000000E+00  0.99999998245E-14  0.12500000000E+03  0.12500000000E+03 0.  0.
        -11    1    1    0    0    0  0.35913885149E+02  0.39525542794E+02 -0.13767901073E+02  0.55150981677E+02  0.51100000000E-03 0. -1.
         11    1    1    0    0    0  0.34437742312E+01  0.45487434801E+01 -0.52715463204E+01  0.77678728795E+01  0.51100000000E-03 0.  1.
         22    1    1    0    0    0 -0.39357659381E+02 -0.44074286274E+02  0.19039447394E+02  0.62081145443E+02  0.00000000000E+00 0. -1.
</event>
<event>
 4    1  0.1988088E-002  0.9118800E+02  0.7818608E-02  0.1130116E+00
         25   -1    0    0    0    0  0.00000000000E+00  0.00000000000E+00  0.99999998245E-14  0.12500000000E+03  0.12500000000E+03 0.  0.
        -11    1    1    0    0    0  0.99143383341E-02  0.15528203506E+00  0.14373506270E+00  0.21182736813E+00  0.51100000000E-03 0. -1.
         11    1    1    0    0    0 -0.68396171171E+01  0.45316825181E+02  0.42185103446E+02  0.62289469092E+02  0.51100000000E-03 0.  1.
         22    1    1    0    0    0  0.68297027788E+01 -0.45472107216E+02 -0.42328838508E+02  0.62498703540E+02  0.00000000000E+00 0.  1.
</event>
<event>
 4    1  0.1988088E-002  0.9118800E+02  0.7818608E-02  0.1130116E+00
         25   -1    0    0    0    0  0.00000000000E+00  0.00000000000E+00  0.99999998245E-14  0.12500000000E+03  0.12500000000E+03 0.  0.
        -11    1    1    0    0    0  0.28733179703E+02 -0.57219566499E+01  0.46769065467E+02  0.55187696896E+02  0.51100000000E-03 0.  1.
         11    1    1    0    0    0  0.80321300454E+01 -0.90535087776E+01 -0.91165382005E+01  0.15152306863E+02  0.51100000000E-03 0. -1.
         22    1    1    0    0    0 -0.36765309748E+02  0.14775465427E+02 -0.37652527267E+02  0.54659996241E+02  0.00000000000E+00 0.  1.
</event>
<event>
 4    1  0.1988088E-002  0.9118800E+02  0.7818608E-02  0.1130116E+00
         25   -1    0    0    0    0  0.00000000000E+00  0.00000000000E+00  0.99999998245E-14  0.12500000000E+03  0.12500000000E+03 0.  0.
        -11    1    1    0    0    0  0.28239958885E+02  0.27823606085E+01  0.20035617106E+02  0.34737051710E+02  0.51100000000E-03 0.  1.
         11    1    1    0    0    0  0.22574473435E+02  0.22153276015E+01  0.16008335373E+02  0.27762948852E+02  0.51100000000E-03 0. -1.
         22    1    1    0    0    0 -0.50814432321E+02 -0.49976882099E+01 -0.36043952479E+02  0.62499999439E+02  0.00000000000E+00 0. -1.
</event>
<event>
 4    1  0.1988088E-002  0.9118800E+02  0.7818608E-02  0.1130116E+00
         25   -1    0    0    0    0  0.00000000000E+00  0.00000000000E+00  0.99999998245E-14  0.12500000000E+03  0.12500000000E+03 0.  0.
        -11    1    1    0    0    0  0.10098368173E+02  0.22625750468E+02  0.20883963550E+02  0.32404344737E+02  0.51100000000E-03 0. -1.
         11    1    1    0    0    0 -0.85728561688E+01  0.17605086005E+02  0.24868198525E+02  0.31652175507E+02  0.51100000000E-03 0.  1.
         22    1    1    0    0    0 -0.15255120046E+01 -0.40230836473E+02 -0.45752162076E+02  0.60943479756E+02  0.00000000000E+00 0. -1.
</event>
<event>
 4    1  0.1988088E-002  0.9118800E+02  0.7818608E-02  0.1130116E+00
         25   -1    0    0    0    0  0.00000000000E+00  0.00000000000E+00  0.99999998245E-14  0.12500000000E+03  0.12500000000E+03 0.  0.
        -11    1    1    0    0    0 -0.83363489722E+01 -0.62645967439E+01 -0.10435367873E+02  0.14752518072E+02  0.51100000000E-03 0.  1.
         11    1    1    0    0    0 -0.27089734230E+02 -0.20324251979E+02 -0.33658526037E+02  0.47747516107E+02  0.51100000000E-03 0. -1.
         22    1    1    0    0    0  0.35426083202E+02  0.26588848723E+02  0.44093893910E+02  0.62499965821E+02  0.00000000000E+00 0. -1.
</event>
<event>
 4    1  0.1988088E-002  0.9118800E+02  0.7818608E-02  0.1130116E+00
         25   -1    0    0    0    0  0.00000000000E+00  0.00000000000E+00  0.99999998245E-14  0.12500000000E+03  0.12500000000E+03 0.  0.
        -11    1    1    0    0    0 -0.36506036693E+02  0.31071774425E+02  0.65584900242E+01  0.48385531646E+02  0.51100000000E-03 0. -1.
         11    1    1    0    0    0 -0.70419903349E+01  0.12443935369E+02  0.20771644046E+01  0.14448382870E+02  0.51100000000E-03 0.  1.
         22    1    1    0    0    0  0.43548027028E+02 -0.43515709794E+02 -0.86356544288E+01  0.62166085484E+02  0.00000000000E+00 0. -1.
</event>
<event>
 4    1  0.1988088E-002  0.9118800E+02  0.7818608E-02  0.1130116E+00
         25   -1    0    0    0    0  0.00000000000E+00  0.00000000000E+00  0.99999998245E-14  0.12500000000E+03  0.12500000000E+03 0.  0.
        -11    1    1    0    0    0 -0.21369018575E+02 -0.60402843011E+01 -0.11200385412E+02  0.24871039844E+02  0.51100000000E-03 0. -1.
         11    1    1    0    0    0 -0.31561579769E+02 -0.83261612360E+01 -0.18744961337E+02  0.37640826960E+02  0.51100000000E-03 0.  1.
         22    1    1    0    0    0  0.52930598344E+02  0.14366445537E+02  0.29945346749E+02  0.62488133196E+02  0.00000000000E+00 0.  1.
</event>
<event>
 4    1  0.1988088E-002  0.9118800E+02  0.7818608E-02  0.1130116E+00
         25   -1    0    0    0    0  0.00000000000E+00  0.00000000000E+00  0.99999998245E-14  0.12500000000E+03  0.12500000000E+03 0.  0.
        -11    1    1    0    0    0  0.19631016579E+02 -0.37364496992E+02  0.31529751526E+02  0.52684036282E+02  0.51100000000E-03 0. -1.
         11    1    1    0    0    0  0.37825613319E+01 -0.68640904072E+01  0.59110737092E+01  0.98165319744E+01  0.51100000000E-03 0.  1.
         22    1    1    0    0    0 -0.23413577911E+02  0.44228587400E+02 -0.37440825235E+02  0.62499431743E+02  0.00000000000E+00 0. -1.
</event>
<event>
 4    1  0.1988088E-002  0.9118800E+02  0.7818608E-02  0.1130116E+00
         25   -1    0    0    0    0  0.00000000000E+00  0.00000000000E+00  0.99999998245E-14  0.12500000000E+03  0.12500000000E+03 0.  0.
        -11    1    1    0    0    0 -0.98872596690E+01  0.82880423378E+01  0.98614275295E+01  0.16238759273E+02  0.51100000000E-03 0. -1.
         11    1    1    0    0    0 -0.16753165623E+02  0.45304525733E+02 -0.73583552804E+01  0.48860147390E+02  0.51100000000E-03 0.  1.
         22    1    1    0    0    0  0.26640425292E+02 -0.53592568071E+02 -0.25030722491E+01  0.59901093336E+02  0.00000000000E+00 0.  1.
</event>
<event>
 4    1  0.1988088E-002  0.9118800E+02  0.7818608E-02  0.1130116E+00
         25   -1    0    0    0    0  0.00000000000E+00  0.00000000000E+00  0.99999998245E-14  0.12500000000E+03  0.12500000000E+03 0.  0.
        -11    1    1    0    0    0  0.15717007844E+01  0.18953594194E+01  0.15297299190E+01  0.28987418944E+01  0.51100000000E-03 0. -1.
         11    1    1    0    0    0  0.32550516584E+02  0.38700508459E+02  0.31544375862E+02  0.59601284664E+02  0.51100000000E-03 0.  1.
         22    1    1    0    0    0 -0.34122217369E+02 -0.40595867878E+02 -0.33074105781E+02  0.62499973441E+02  0.00000000000E+00 0.  1.
</event>
<event>
 4    1  0.1988088E-002  0.9118800E+02  0.7818608E-02  0.1130116E+00
         25   -1    0    0    0    0  0.00000000000E+00  0.00000000000E+00  0.99999998245E-14  0.12500000000E+03  0.12500000000E+03 0.  0.
        -11    1    1    0    0    0  0.49667183759E+02 -0.25821348442E+02 -0.15430982816E+00  0.55978522576E+02  0.51100000000E-03 0. -1.
         11    1    1    0    0    0  0.57859509491E+01 -0.30086654976E+01 -0.19290660098E-01  0.65214775053E+01  0.51100000000E-03 0.  1.
         22    1    1    0    0    0 -0.55453134708E+02  0.28830013940E+02  0.17360048826E+00  0.62499999919E+02  0.00000000000E+00 0. -1.
</event>
<event>
 4    1  0.1988088E-002  0.9118800E+02  0.7818608E-02  0.1130116E+00
         25   -1    0    0    0    0  0.00000000000E+00  0.00000000000E+00  0.99999998245E-14  0.12500000000E+03  0.12500000000E+03 0.  0.
        -11    1    1    0    0    0 -0.15403110005E+02  0.14291345570E+01  0.21328647376E+02  0.26347854230E+02  0.51100000000E-03 0.  1.
         11    1    1    0    0    0 -0.20998947803E+02  0.19458969587E+01  0.29363945729E+02  0.36152228601E+02  0.51100000000E-03 0. -1.
         22    1    1    0    0    0  0.36402057808E+02 -0.33750315158E+01 -0.50692593105E+02  0.62499917168E+02  0.00000000000E+00 0. -1.
</event>
<event>
 4    1  0.1988088E-002  0.9118800E+02  0.7818608E-02  0.1130116E+00
         25   -1    0    0    0    0  0.00000000000E+00  0.00000000000E+00  0.99999998245E-14  0.12500000000E+03  0.12500000000E+03 0.  0.
        -11    1    1    0    0    0  0.29624903701E+02  0.16146027128E+02 -0.15934707609E+02  0.37312786256E+02  0.51100000000E-03 0.  1.
         11    1    1    0    0    0  0.19019556355E+02  0.11152550817E+02 -0.12215283607E+02  0.25205873671E+02  0.51100000000E-03 0. -1.
         22    1    1    0    0    0 -0.48644460056E+02 -0.27298577946E+02  0.28149991215E+02  0.62481340074E+02  0.00000000000E+00 0.  1.
</event>
<event>
 4    1  0.1988088E-002  0.9118800E+02  0.7818608E-02  0.1130116E+00
         25   -1    0    0    0    0  0.00000000000E+00  0.00000000000E+00  0.99999998245E-14  0.12500000000E+03  0.12500000000E+03 0.  0.
        -11    1    1    0    0    0  0.98571837088E+01 -0.84871725708E+01  0.98162811845E+01  0.16295875106E+02  0.51100000000E-03 0.  1.
         11    1    1    0    0    0  0.27967206317E+02 -0.24059302008E+02  0.27817379346E+02  0.46204125748E+02  0.51100000000E-03 0. -1.
         22    1    1    0    0    0 -0.37824390026E+02  0.32546474578E+02 -0.37633660530E+02  0.62499999146E+02  0.00000000000E+00 0. -1.
</event>
<event>
 4    1  0.1988088E-002  0.9118800E+02  0.7818608E-02  0.1130116E+00
         25   -1    0    0    0    0  0.00000000000E+00  0.00000000000E+00  0.99999998245E-14  0.12500000000E+03  0.12500000000E+03 0.  0.
        -11    1    1    0    0    0 -0.26531882972E+02 -0.21328103644E+01  0.12056422982E+02  0.29220661004E+02  0.51100000000E-03 0. -1.
         11    1    1    0    0    0 -0.17529318339E+02 -0.30812597094E+02  0.94838993299E+01  0.36696559619E+02  0.51100000000E-03 0.  1.
         22    1    1    0    0    0  0.44061201312E+02  0.32945407458E+02 -0.21540322312E+02  0.59082779377E+02  0.00000000000E+00 0.  1.
</event>
<event>
 4    1  0.1988088E-002  0.9118800E+02  0.7818608E-02  0.1130116E+00
         25   -1    0    0    0    0  0.00000000000E+00  0.00000000000E+00  0.99999998245E-14  0.12500000000E+03  0.12500000000E+03 0.  0.
        -11    1    1    0    0    0  0.15564207470E+02  0.26064159358E+02  0.45658476057E+02  0.54829566780E+02  0.51100000000E-03 0. -1.
         11    1    1    0    0    0  0.21789361213E+01  0.36466376516E+01  0.63866907128E+01  0.76704333192E+01  0.51100000000E-03 0.  1.
         22    1    1    0    0    0 -0.17743143591E+02 -0.29710797010E+02 -0.52045166770E+02  0.62499999900E+02  0.00000000000E+00 0. -1.
</event>
<event>
 4    1  0.1988088E-002  0.9118800E+02  0.7818608E-02  0.1130116E+00
         25   -1    0    0    0    0  0.00000000000E+00  0.00000000000E+00  0.99999998245E-14  0.12500000000E+03  0.12500000000E+03 0.  0.
        -11    1    1    0    0    0  0.38590112686E+02  0.10096779181E+02 -0.28666811403E+02  0.49121561693E+02  0.51100000000E-03 0.  1.
         11    1    1    0    0    0  0.10495556914E+02  0.27877001617E+01 -0.78137881490E+01  0.13378463014E+02  0.51100000000E-03 0. -1.
         22    1    1    0    0    0 -0.49085669599E+02 -0.12884479343E+02  0.36480599552E+02  0.62499975293E+02  0.00000000000E+00 0.  1.
</event>
<event>
 4    1  0.1988088E-002  0.9118800E+02  0.7818608E-02  0.1130116E+00
         25   -1    0    0    0    0  0.00000000000E+00  0.00000000000E+00  0.99999998245E-14  0.12500000000E+03  0.12500000000E+03 0.  0.
        -11    1    1    0    0    0 -0.18575506405E+02 -0.34671534906E+02  0.29022353617E+02  0.48882121279E+02  0.51100000000E-03 0. -1.
         11    1    1    0    0    0 -0.52151413490E+01 -0.96569220390E+01  0.80618625209E+01  0.13617909903E+02  0.51100000000E-03 0.  1.
         22    1    1    0    0    0  0.23790647754E+02  0.44328456945E+02 -0.37084216138E+02  0.62499968818E+02  0.00000000000E+00 0. -1.
</event>
<event>
 4    1  0.1988088E-002  0.9118800E+02  0.7818608E-02  0.1130116E+00
         25   -1    0    0    0    0  0.00000000000E+00  0.00000000000E+00  0.99999998245E-14  0.12500000000E+03  0.12500000000E+03 0.  0.
        -11    1    1    0    0    0 -0.15460614137E+02 -0.27302559384E+02 -0.50506695487E+02  0.59459117280E+02  0.51100000000E-03 0. -1.
         11    1    1    0    0    0 -0.26863491284E+01  0.94358606988E+00 -0.23898766094E+01  0.37173023525E+01  0.51100000000E-03 0.  1.
         22    1    1    0    0    0  0.18146963265E+02  0.26358973315E+02  0.52896572096E+02  0.61823580368E+02  0.00000000000E+00 0. -1.
</event>
<event>
 4    1  0.1988088E-002  0.9118800E+02  0.7818608E-02  0.1130116E+00
         25   -1    0    0    0    0  0.00000000000E+00  0.00000000000E+00  0.99999998245E-14  0.12500000000E+03  0.12500000000E+03 0.  0.
        -11    1    1    0    0    0  0.15865295691E+02  0.19359834953E+02  0.38879118043E+02  0.46239557057E+02  0.51100000000E-03 0.  1.
         11    1    1    0    0    0 -0.17585835354E+02  0.19596483986E+02 -0.43729102620E+01  0.26690937304E+02  0.51100000000E-03 0. -1.
         22    1    1    0    0    0  0.17205396635E+01 -0.38956318939E+02 -0.34506207781E+02  0.52069505639E+02  0.00000000000E+00 0. -1.
</event>
<event>
 4    1  0.1988088E-002  0.9118800E+02  0.7818608E-02  0.1130116E+00
         25   -1    0    0    0    0  0.00000000000E+00  0.00000000000E+00  0.99999998245E-14  0.12500000000E+03  0.12500000000E+03 0.  0.
        -11    1    1    0    0    0 -0.40910105801E+01  0.37142896922E+01 -0.33447655868E+01  0.64590844999E+01  0.51100000000E-03 0.  1.
         11    1    1    0    0    0 -0.35474851179E+02  0.32219362816E+02 -0.29052226779E+02  0.56040916191E+02  0.51100000000E-03 0. -1.
         22    1    1    0    0    0  0.39565861759E+02 -0.35933652508E+02  0.32396992366E+02  0.62499999309E+02  0.00000000000E+00 0. -1.
</event>
<event>
 4    1  0.1988088E-002  0.9118800E+02  0.7818608E-02  0.1130116E+00
         25   -1    0    0    0    0  0.00000000000E+00  0.00000000000E+00  0.99999998245E-14  0.12500000000E+03  0.12500000000E+03 0.  0.
        -11    1    1    0    0    0 -0.20971018492E+02 -0.12502510991E+02  0.13947661066E+02  0.28118208462E+02  0.51100000000E-03 0. -1.
         11    1    1    0    0    0 -0.25640365010E+02 -0.15300750163E+02  0.17046007534E+02  0.34381792369E+02  0.51100000000E-03 0.  1.
         22    1    1    0    0    0  0.46611383502E+02  0.27803261155E+02 -0.30993668600E+02  0.62499999168E+02  0.00000000000E+00 0.  1.
</event>
<event>
 4    1  0.1988088E-002  0.9118800E+02  0.7818608E-02  0.1130116E+00
         25   -1    0    0    0    0  0.00000000000E+00  0.00000000000E+00  0.99999998245E-14  0.12500000000E+03  0.12500000000E+03 0.  0.
        -11    1    1    0    0    0 -0.14854764517E+01  0.10148630674E+01  0.43917624675E+01  0.47459630389E+01  0.51100000000E-03 0.  1.
         11    1    1    0    0    0 -0.18044334638E+02  0.12278220361E+02  0.53471266522E+02  0.57754039265E+02  0.51100000000E-03 0. -1.
         22    1    1    0    0    0  0.19529811089E+02 -0.13293083428E+02 -0.57863028989E+02  0.62499997696E+02  0.00000000000E+00 0. -1.
</event>
<event>
 4    1  0.1988088E-002  0.9118800E+02  0.7818608E-02  0.1130116E+00
         25   -1    0    0    0    0  0.00000000000E+00  0.00000000000E+00  0.99999998245E-14  0.12500000000E+03  0.12500000000E+03 0.  0.
        -11    1    1    0    0    0 -0.13274643156E+01 -0.21828346399E+01  0.35743737157E+01  0.43935266353E+01  0.51100000000E-03 0. -1.
         11    1    1    0    0    0 -0.18022860187E+02 -0.29580448754E+02  0.46653774957E+02  0.58106808171E+02  0.51100000000E-03 0.  1.
         22    1    1    0    0    0  0.19350324503E+02  0.31763283393E+02 -0.50228148673E+02  0.62499665194E+02  0.00000000000E+00 0.  1.
</event>
<event>
 4    1  0.1988088E-002  0.9118800E+02  0.7818608E-02  0.1130116E+00
         25   -1    0    0    0    0  0.00000000000E+00  0.00000000000E+00  0.99999998245E-14  0.12500000000E+03  0.12500000000E+03 0.  0.
        -11    1    1    0    0    0  0.21729965084E+02 -0.23340700387E+02  0.14572734649E+02  0.35062006111E+02  0.51100000000E-03 0.  1.
         11    1    1    0    0    0  0.17005053704E+02 -0.18264851881E+02  0.11404685139E+02  0.27437993897E+02  0.51100000000E-03 0. -1.
         22    1    1    0    0    0 -0.38735018789E+02  0.41605552268E+02 -0.25977419789E+02  0.62499999992E+02  0.00000000000E+00 0.  1.
</event>
<event>
 4    1  0.1988088E-002  0.9118800E+02  0.7818608E-02  0.1130116E+00
         25   -1    0    0    0    0  0.00000000000E+00  0.00000000000E+00  0.99999998245E-14  0.12500000000E+03  0.12500000000E+03 0.  0.
        -11    1    1    0    0    0 -0.17249352015E+02 -0.19036992456E+02 -0.77788984855E+01  0.26841357801E+02  0.51100000000E-03 0.  1.
         11    1    1    0    0    0 -0.22908241493E+02 -0.25328552481E+02 -0.10257545957E+02  0.35658664423E+02  0.51100000000E-03 0. -1.
         22    1    1    0    0    0  0.40157593509E+02  0.44365544936E+02  0.18036444442E+02  0.62499977776E+02  0.00000000000E+00 0.  1.
</event>
<event>
 4    1  0.1988088E-002  0.9118800E+02  0.7818608E-02  0.1130116E+00
         25   -1    0    0    0    0  0.00000000000E+00  0.00000000000E+00  0.99999998245E-14  0.12500000000E+03  0.12500000000E+03 0.  0.
        -11    1    1    0    0    0  0.12730345909E+02  0.15732179842E+02 -0.22592708285E+02  0.30331397222E+02  0.51100000000E-03 0.  1.
         11    1    1    0    0    0  0.13506805240E+02  0.16686698998E+02 -0.23957030392E+02  0.32168602965E+02  0.51100000000E-03 0. -1.
         22    1    1    0    0    0 -0.26237151150E+02 -0.32418878840E+02  0.46549738677E+02  0.62499999813E+02  0.00000000000E+00 0. -1.
</event>
<event>
 4    1  0.1988088E-002  0.9118800E+02  0.7818608E-02  0.1130116E+00
         25   -1    0    0    0    0  0.00000000000E+00  0.00000000000E+00  0.99999998245E-14  0.12500000000E+03  0.12500000000E+03 0.  0.
        -11    1    1    0    0    0 -0.29592086774E+02 -0.25681091846E+02 -0.22201468615E+02  0.45034600997E+02  0.51100000000E-03 0. -1.
         11    1    1    0    0    0 -0.11476378277E+02 -0.99385409594E+01 -0.86347371280E+01  0.17465409823E+02  0.51100000000E-03 0.  1.
         22    1    1    0    0    0  0.41068465051E+02  0.35619632805E+02  0.30836205743E+02  0.62499989180E+02  0.00000000000E+00 0. -1.
</event>
<event>
 4    1  0.1988088E-002  0.9118800E+02  0.7818608E-02  0.1130116E+00
         25   -1    0    0    0    0  0.00000000000E+00  0.00000000000E+00  0.99999998245E-14  0.12500000000E+03  0.12500000000E+03 0.  0.
        -11    1    1    0    0    0 -0.23100287257E+02  0.32424786339E+02  0.32232435657E+01  0.39942199987E+02  0.51100000000E-03 0. -1.
         11    1    1    0    0    0 -0.13047064134E+02  0.18311444419E+02  0.18219394606E+01  0.22557800046E+02  0.51100000000E-03 0.  1.
         22    1    1    0    0    0  0.36147351391E+02 -0.50736230758E+02 -0.50451830263E+01  0.62499999967E+02  0.00000000000E+00 0. -1.
</event>
<event>
 4    1  0.1988088E-002  0.9118800E+02  0.7818608E-02  0.1130116E+00
         25   -1    0    0    0    0  0.00000000000E+00  0.00000000000E+00  0.99999998245E-14  0.12500000000E+03  0.12500000000E+03 0.  0.
        -11    1    1    0    0    0  0.31599966423E+02 -0.17840846554E+02 -0.17632389532E+02  0.40345443914E+02  0.51100000000E-03 0.  1.
         11    1    1    0    0    0  0.17352626566E+02 -0.98021686609E+01 -0.96761675126E+01  0.22154556579E+02  0.51100000000E-03 0. -1.
         22    1    1    0    0    0 -0.48952592990E+02  0.27643015215E+02  0.27308557045E+02  0.62499999508E+02  0.00000000000E+00 0.  1.
</event>
<event>
 4    1  0.1988088E-002  0.9118800E+02  0.7818608E-02  0.1130116E+00
         25   -1    0    0    0    0  0.00000000000E+00  0.00000000000E+00  0.99999998245E-14  0.12500000000E+03  0.12500000000E+03 0.  0.
        -11    1    1    0    0    0  0.65681011078E+01  0.22286112826E+02 -0.51810449216E+02  0.56781453180E+02  0.51100000000E-03 0.  1.
         11    1    1    0    0    0  0.67450024333E+00  0.22356477884E+01 -0.52200402651E+01  0.57185568321E+01  0.51100000000E-03 0. -1.
         22    1    1    0    0    0 -0.72426013512E+01 -0.24521760614E+02  0.57030489481E+02  0.62499989987E+02  0.00000000000E+00 0.  1.
</event>
<event>
 4    1  0.1988088E-002  0.9118800E+02  0.7818608E-02  0.1130116E+00
         25   -1    0    0    0    0  0.00000000000E+00  0.00000000000E+00  0.99999998245E-14  0.12500000000E+03  0.12500000000E+03 0.  0.
        -11    1    1    0    0    0 -0.51515196412E+02  0.27531882163E+02  0.11870371730E+02  0.59604745802E+02  0.51100000000E-03 0.  1.
         11    1    1    0    0    0 -0.25077172618E+01  0.13442294909E+01  0.53638195023E+00  0.28953936946E+01  0.51100000000E-03 0. -1.
         22    1    1    0    0    0  0.54022913674E+02 -0.28876111654E+02 -0.12406753680E+02  0.62499860504E+02  0.00000000000E+00 0.  1.
</event>
<event>
 4    1  0.1988088E-002  0.9118800E+02  0.7818608E-02  0.1130116E+00
         25   -1    0    0    0    0  0.00000000000E+00  0.00000000000E+00  0.99999998245E-14  0.12500000000E+03  0.12500000000E+03 0.  0.
        -11    1    1    0    0    0  0.75768117551E+01  0.64772220770E+00  0.77932945110E+01  0.10888666586E+02  0.51100000000E-03 0.  1.
         11    1    1    0    0    0  0.35953346420E+02  0.30369602031E+01  0.36903439398E+02  0.51611336795E+02  0.51100000000E-03 0. -1.
         22    1    1    0    0    0 -0.43530158175E+02 -0.36846824108E+01 -0.44696733909E+02  0.62499996619E+02  0.00000000000E+00 0. -1.
</event>
<event>
 4    1  0.1988088E-002  0.9118800E+02  0.7818608E-02  0.1130116E+00
         25   -1    0    0    0    0  0.00000000000E+00  0.00000000000E+00  0.99999998245E-14  0.12500000000E+03  0.12500000000E+03 0.  0.
        -11    1    1    0    0    0 -0.29836049391E+02 -0.40408526178E+02 -0.17579233604E+02  0.53217180360E+02  0.51100000000E-03 0. -1.
         11    1    1    0    0    0 -0.52022252468E+01 -0.70485527530E+01 -0.30700984935E+01  0.92828200700E+01  0.51100000000E-03 0.  1.
         22    1    1    0    0    0  0.35038274637E+02  0.47457078931E+02  0.20649332098E+02  0.62499999570E+02  0.00000000000E+00 0. -1.
</event>
<event>
 4    1  0.1988088E-002  0.9118800E+02  0.7818608E-02  0.1130116E+00
         25   -1    0    0    0    0  0.00000000000E+00  0.00000000000E+00  0.99999998245E-14  0.12500000000E+03  0.12500000000E+03 0.  0.
        -11    1    1    0    0    0 -0.21442840129E+02  0.10636703683E+02 -0.10438483728E+01  0.23958807936E+02  0.51100000000E-03 0.  1.
         11    1    1    0    0    0 -0.35292318488E+02  0.15483085010E+02 -0.94043754089E+00  0.38550720988E+02  0.51100000000E-03 0. -1.
         22    1    1    0    0    0  0.56735158617E+02 -0.26119788692E+02  0.19842859137E+01  0.62490471076E+02  0.00000000000E+00 0. -1.
</event>
<event>
 4    1  0.1988088E-002  0.9118800E+02  0.7818608E-02  0.1130116E+00
         25   -1    0    0    0    0  0.00000000000E+00  0.00000000000E+00  0.99999998245E-14  0.12500000000E+03  0.12500000000E+03 0.  0.
        -11    1    1    0    0    0 -0.44143296538E+01 -0.13011669200E+01 -0.22213145944E+01  0.51101448546E+01  0.51100000000E-03 0.  1.
         11    1    1    0    0    0 -0.49790671671E+02 -0.14944100928E+02 -0.24314215327E+02  0.57390053191E+02  0.51100000000E-03 0. -1.
         22    1    1    0    0    0  0.54205001325E+02  0.16245267848E+02  0.26535529922E+02  0.62499801954E+02  0.00000000000E+00 0. -1.
</event>
<event>
 4    1  0.1988088E-002  0.9118800E+02  0.7818608E-02  0.1130116E+00
         25   -1    0    0    0    0  0.00000000000E+00  0.00000000000E+00  0.99999998245E-14  0.12500000000E+03  0.12500000000E+03 0.  0.
        -11    1    1    0    0    0 -0.51011356099E+02 -0.24918800780E+02 -0.21059739987E+02  0.60552603016E+02  0.51100000000E-03 0. -1.
         11    1    1    0    0    0 -0.15810304354E+01 -0.86437370295E+00 -0.74246310614E+00  0.19488588613E+01  0.51100000000E-03 0.  1.
         22    1    1    0    0    0  0.52592386535E+02  0.25783174483E+02  0.21802203093E+02  0.62498538123E+02  0.00000000000E+00 0. -1.
</event>
<event>
 4    1  0.1988088E-002  0.9118800E+02  0.7818608E-02  0.1130116E+00
         25   -1    0    0    0    0  0.00000000000E+00  0.00000000000E+00  0.99999998245E-14  0.12500000000E+03  0.12500000000E+03 0.  0.
        -11    1    1    0    0    0 -0.22513787633E+02  0.89842684027E+01 -0.41956294654E+00  0.24243839334E+02  0.51100000000E-03 0. -1.
         11    1    1    0    0    0 -0.35548660955E+02  0.14125888306E+02 -0.53796222861E+00  0.38256207598E+02  0.51100000000E-03 0.  1.
         22    1    1    0    0    0  0.58062448588E+02 -0.23110156709E+02  0.95752517515E+00  0.62499953069E+02  0.00000000000E+00 0.  1.
</event>
<event>
 4    1  0.1988088E-002  0.9118800E+02  0.7818608E-02  0.1130116E+00
         25   -1    0    0    0    0  0.00000000000E+00  0.00000000000E+00  0.99999998245E-14  0.12500000000E+03  0.12500000000E+03 0.  0.
        -11    1    1    0    0    0 -0.23394698467E+01  0.12701669562E+02  0.44088002971E+01  0.13647089402E+02  0.51100000000E-03 0. -1.
         11    1    1    0    0    0 -0.35235597884E+01  0.48716401456E+02  0.43501270821E+01  0.49036994711E+02  0.51100000000E-03 0.  1.
         22    1    1    0    0    0  0.58630296351E+01 -0.61418071018E+02 -0.87589273792E+01  0.62315915887E+02  0.00000000000E+00 0.  1.
</event>
<event>
 4    1  0.1988088E-002  0.9118800E+02  0.7818608E-02  0.1130116E+00
         25   -1    0    0    0    0  0.00000000000E+00  0.00000000000E+00  0.99999998245E-14  0.12500000000E+03  0.12500000000E+03 0.  0.
        -11    1    1    0    0    0 -0.17911571415E+02  0.19180676734E+02  0.87864982928E+01  0.27675355518E+02  0.51100000000E-03 0.  1.
         11    1    1    0    0    0 -0.22532457578E+02  0.24172508942E+02  0.10987964979E+02  0.34824663785E+02  0.51100000000E-03 0. -1.
         22    1    1    0    0    0  0.40444028993E+02 -0.43353185676E+02 -0.19774463272E+02  0.62499980697E+02  0.00000000000E+00 0.  1.
</event>
<event>
 4    1  0.1988088E-002  0.9118800E+02  0.7818608E-02  0.1130116E+00
         25   -1    0    0    0    0  0.00000000000E+00  0.00000000000E+00  0.99999998245E-14  0.12500000000E+03  0.12500000000E+03 0.  0.
        -11    1    1    0    0    0  0.20443733508E+02 -0.14165543891E+02 -0.14841402935E+02  0.28963358141E+02  0.51100000000E-03 0. -1.
         11    1    1    0    0    0  0.23671140172E+02 -0.16403946014E+02 -0.17184121339E+02  0.33536641876E+02  0.51100000000E-03 0.  1.
         22    1    1    0    0    0 -0.44114873680E+02  0.30569489905E+02  0.32025524274E+02  0.62499999983E+02  0.00000000000E+00 0.  1.
</event>
<event>
 4    1  0.1988088E-002  0.9118800E+02  0.7818608E-02  0.1130116E+00
         25   -1    0    0    0    0  0.00000000000E+00  0.00000000000E+00  0.99999998245E-14  0.12500000000E+03  0.12500000000E+03 0.  0.
        -11    1    1    0    0    0  0.18647146461E+01 -0.21393957334E+02  0.26538878962E+02  0.34139283355E+02  0.51100000000E-03 0.  1.
         11    1    1    0    0    0  0.26629726762E+01 -0.17911063246E+02  0.21835497541E+02  0.28366997782E+02  0.51100000000E-03 0. -1.
         22    1    1    0    0    0 -0.45276873224E+01  0.39305020580E+02 -0.48374376503E+02  0.62493718863E+02  0.00000000000E+00 0.  1.
</event>
<event>
 4    1  0.1988088E-002  0.9118800E+02  0.7818608E-02  0.1130116E+00
         25   -1    0    0    0    0  0.00000000000E+00  0.00000000000E+00  0.99999998245E-14  0.12500000000E+03  0.12500000000E+03 0.  0.
        -11    1    1    0    0    0  0.17544222219E+01 -0.47432013024E+01  0.36546805991E+02  0.36895053657E+02  0.51100000000E-03 0.  1.
         11    1    1    0    0    0  0.12167543434E+01 -0.32912340229E+01  0.25363370536E+02  0.25604946353E+02  0.51100000000E-03 0. -1.
         22    1    1    0    0    0 -0.29711765654E+01  0.80344353253E+01 -0.61910176527E+02  0.62499999990E+02  0.00000000000E+00 0.  1.
</event>
<event>
 4    1  0.1988088E-002  0.9118800E+02  0.7818608E-02  0.1130116E+00
         25   -1    0    0    0    0  0.00000000000E+00  0.00000000000E+00  0.99999998245E-14  0.12500000000E+03  0.12500000000E+03 0.  0.
        -11    1    1    0    0    0  0.32066508194E+02  0.34450833493E+02 -0.26333659180E+02  0.53931275547E+02  0.51100000000E-03 0.  1.
         11    1    1    0    0    0  0.50953349024E+01  0.54755438078E+01 -0.41807926152E+01  0.85687248124E+01  0.51100000000E-03 0. -1.
         22    1    1    0    0    0 -0.37161843096E+02 -0.39926377300E+02  0.30514451796E+02  0.62499999640E+02  0.00000000000E+00 0.  1.
</event>
<event>
 4    1  0.1988088E-002  0.9118800E+02  0.7818608E-02  0.1130116E+00
         25   -1    0    0    0    0  0.00000000000E+00  0.00000000000E+00  0.99999998245E-14  0.12500000000E+03  0.12500000000E+03 0.  0.
        -11    1    1    0    0    0  0.13812950154E+02  0.29240372525E+02 -0.13647362605E+02  0.35100533952E+02  0.51100000000E-03 0.  1.
         11    1    1    0    0    0  0.10782662709E+02  0.22824866291E+02 -0.10653187478E+02  0.27399466053E+02  0.51100000000E-03 0.  1.
         22    1    1    0    0    0 -0.24595612863E+02 -0.52065238816E+02  0.24300550083E+02  0.62499999995E+02  0.00000000000E+00 0.  1.
</event>
<event>
 4    1  0.1988088E-002  0.9118800E+02  0.7818608E-02  0.1130116E+00
         25   -1    0    0    0    0  0.00000000000E+00  0.00000000000E+00  0.99999998245E-14  0.12500000000E+03  0.12500000000E+03 0.  0.
        -11    1    1    0    0    0 -0.38957000963E+02 -0.13462102564E+01 -0.12890421839E+02  0.41056341551E+02  0.51100000000E-03 0. -1.
         11    1    1    0    0    0 -0.20347815827E+02 -0.70224020343E+00 -0.67308052177E+01  0.21443658489E+02  0.51100000000E-03 0.  1.
         22    1    1    0    0    0  0.59304816790E+02  0.20484504598E+01  0.19621227056E+02  0.62499999960E+02  0.00000000000E+00 0. -1.
</event>
<event>
 4    1  0.1988088E-002  0.9118800E+02  0.7818608E-02  0.1130116E+00
         25   -1    0    0    0    0  0.00000000000E+00  0.00000000000E+00  0.99999998245E-14  0.12500000000E+03  0.12500000000E+03 0.  0.
        -11    1    1    0    0    0  0.99916183927E+00  0.22254127394E+02 -0.15437927820E+02  0.27103027987E+02  0.51100000000E-03 0. -1.
         11    1    1    0    0    0  0.12665996016E+01  0.29075126126E+02 -0.20148915011E+02  0.35396977416E+02  0.51100000000E-03 0.  1.
         22    1    1    0    0    0 -0.22657614408E+01 -0.51329253520E+02  0.35586842832E+02  0.62499994596E+02  0.00000000000E+00 0.  1.
</event>
<event>
 4    1  0.1988088E-002  0.9118800E+02  0.7818608E-02  0.1130116E+00
         25   -1    0    0    0    0  0.00000000000E+00  0.00000000000E+00  0.99999998245E-14  0.12500000000E+03  0.12500000000E+03 0.  0.
        -11    1    1    0    0    0 -0.45147555849E-02  0.90973370713E-03 -0.54915524796E-03  0.46661896549E-02  0.51100000000E-03 0.  1.
         11    1    1    0    0    0 -0.60414536654E+02  0.20075879860E+01 -0.15865951533E+02  0.62495400367E+02  0.51100000000E-03 0. -1.
         22    1    1    0    0    0  0.60419051410E+02 -0.20084977197E+01  0.15866500689E+02  0.62499933444E+02  0.00000000000E+00 0. -1.
</event>
<event>
 4    1  0.1988088E-002  0.9118800E+02  0.7818608E-02  0.1130116E+00
         25   -1    0    0    0    0  0.00000000000E+00  0.00000000000E+00  0.99999998245E-14  0.12500000000E+03  0.12500000000E+03 0.  0.
        -11    1    1    0    0    0  0.42710702878E+02 -0.18434639763E+02  0.37701525448E+02  0.59878586363E+02  0.51100000000E-03 0. -1.
         11    1    1    0    0    0  0.18652240526E+01 -0.81154764526E+00  0.16535305081E+01  0.26214182706E+01  0.51100000000E-03 0.  1.
         22    1    1    0    0    0 -0.44575926930E+02  0.19246187408E+02 -0.39355055956E+02  0.62499995366E+02  0.00000000000E+00 0. -1.
</event>
<event>
 4    1  0.1988088E-002  0.9118800E+02  0.7818608E-02  0.1130116E+00
         25   -1    0    0    0    0  0.00000000000E+00  0.00000000000E+00  0.99999998245E-14  0.12500000000E+03  0.12500000000E+03 0.  0.
        -11    1    1    0    0    0  0.40717799560E+01 -0.27633133947E+02 -0.13800034843E+02  0.31154621578E+02  0.51100000000E-03 0. -1.
         11    1    1    0    0    0  0.40480694698E+01 -0.27839835382E+02 -0.13823578197E+02  0.31345408196E+02  0.51100000000E-03 0.  1.
         22    1    1    0    0    0 -0.81198494259E+01  0.55472969329E+02  0.27623613039E+02  0.62499970226E+02  0.00000000000E+00 0. -1.
</event>
<event>
 4    1  0.1988088E-002  0.9118800E+02  0.7818608E-02  0.1130116E+00
         25   -1    0    0    0    0  0.00000000000E+00  0.00000000000E+00  0.99999998245E-14  0.12500000000E+03  0.12500000000E+03 0.  0.
        -11    1    1    0    0    0 -0.57586400845E+00  0.90619255309E+00 -0.18399630536E+00  0.10893388825E+01  0.51100000000E-03 0. -1.
         11    1    1    0    0    0 -0.32439653473E+02  0.51254326098E+02 -0.95884230649E+01  0.61410706871E+02  0.51100000000E-03 0.  1.
         22    1    1    0    0    0  0.33015517481E+02 -0.52160518651E+02  0.97724193703E+01  0.62499954247E+02  0.00000000000E+00 0.  1.
</event>
<event>
 4    1  0.1988088E-002  0.9118800E+02  0.7818608E-02  0.1130116E+00
         25   -1    0    0    0    0  0.00000000000E+00  0.00000000000E+00  0.99999998245E-14  0.12500000000E+03  0.12500000000E+03 0.  0.
        -11    1    1    0    0    0 -0.16382306634E+01  0.31230938213E+00  0.48412894682E+00  0.17365822626E+01  0.51100000000E-03 0.  1.
         11    1    1    0    0    0 -0.57346016261E+02  0.11013920896E+02  0.16802418821E+02  0.60763420847E+02  0.51100000000E-03 0. -1.
         22    1    1    0    0    0  0.58984246925E+02 -0.11326230278E+02 -0.17286547768E+02  0.62499996890E+02  0.00000000000E+00 0. -1.
</event>
<event>
 4    1  0.1988088E-002  0.9118800E+02  0.7818608E-02  0.1130116E+00
         25   -1    0    0    0    0  0.00000000000E+00  0.00000000000E+00  0.99999998245E-14  0.12500000000E+03  0.12500000000E+03 0.  0.
        -11    1    1    0    0    0 -0.81271437391E+01  0.27572960835E+02 -0.25903125521E+02  0.38694838759E+02  0.51100000000E-03 0.  1.
         11    1    1    0    0    0 -0.47469891471E+01  0.16896717096E+02 -0.16083552673E+02  0.23805747655E+02  0.51100000000E-03 0. -1.
         22    1    1    0    0    0  0.12874132886E+02 -0.44469677931E+02  0.41986678194E+02  0.62499413586E+02  0.00000000000E+00 0.  1.
</event>
<event>
 4    1  0.1988088E-002  0.9118800E+02  0.7818608E-02  0.1130116E+00
         25   -1    0    0    0    0  0.00000000000E+00  0.00000000000E+00  0.99999998245E-14  0.12500000000E+03  0.12500000000E+03 0.  0.
        -11    1    1    0    0    0  0.20353549858E+01  0.38371999054E+02 -0.36636391062E+02  0.53092166387E+02  0.51100000000E-03 0. -1.
         11    1    1    0    0    0 -0.34203963446E-01  0.70883501795E+01 -0.61967856902E+01  0.94152021396E+01  0.51100000000E-03 0.  1.
         22    1    1    0    0    0 -0.20011510223E+01 -0.45460349234E+02  0.42833176752E+02  0.62492631474E+02  0.00000000000E+00 0. -1.
</event>
<event>
 4    1  0.1988088E-002  0.9118800E+02  0.7818608E-02  0.1130116E+00
         25   -1    0    0    0    0  0.00000000000E+00  0.00000000000E+00  0.99999998245E-14  0.12500000000E+03  0.12500000000E+03 0.  0.
        -11    1    1    0    0    0  0.22829569323E+02  0.41208532457E+02  0.55601529939E+01  0.47436775653E+02  0.51100000000E-03 0.  1.
         11    1    1    0    0    0  0.72500018866E+01  0.13084505900E+02  0.17702865722E+01  0.15063224648E+02  0.51100000000E-03 0. -1.
         22    1    1    0    0    0 -0.30079571210E+02 -0.54293038357E+02 -0.73304395661E+01  0.62499999699E+02  0.00000000000E+00 0.  1.
</event>
<event>
 4    1  0.1988088E-002  0.9118800E+02  0.7818608E-02  0.1130116E+00
         25   -1    0    0    0    0  0.00000000000E+00  0.00000000000E+00  0.99999998245E-14  0.12500000000E+03  0.12500000000E+03 0.  0.
        -11    1    1    0    0    0  0.37170581271E+02 -0.14075575738E+02  0.24597210577E+02  0.46741809045E+02  0.51100000000E-03 0. -1.
         11    1    1    0    0    0  0.12256185697E+02 -0.31675934386E+01  0.94628497299E+01  0.15804849297E+02  0.51100000000E-03 0.  1.
         22    1    1    0    0    0 -0.49426766968E+02  0.17243169177E+02 -0.34060060307E+02  0.62453341658E+02  0.00000000000E+00 0. -1.
</event>
<event>
 4    1  0.1988088E-002  0.9118800E+02  0.7818608E-02  0.1130116E+00
         25   -1    0    0    0    0  0.00000000000E+00  0.00000000000E+00  0.99999998245E-14  0.12500000000E+03  0.12500000000E+03 0.  0.
        -11    1    1    0    0    0 -0.13430799233E+02 -0.31186503382E+02 -0.36398734096E+02  0.49778029343E+02  0.51100000000E-03 0.  1.
         11    1    1    0    0    0 -0.73806503964E+00 -0.32626630571E+01 -0.12960258482E+02  0.13384991984E+02  0.51100000000E-03 0. -1.
         22    1    1    0    0    0  0.14168864273E+02  0.34449166439E+02  0.49358992578E+02  0.61836978673E+02  0.00000000000E+00 0.  1.
</event>
<event>
 4    1  0.1988088E-002  0.9118800E+02  0.7818608E-02  0.1130116E+00
         25   -1    0    0    0    0  0.00000000000E+00  0.00000000000E+00  0.99999998245E-14  0.12500000000E+03  0.12500000000E+03 0.  0.
        -11    1    1    0    0    0 -0.10872462511E+01  0.84551506490E+00 -0.14156204614E+00  0.13845722118E+01  0.51100000000E-03 0. -1.
         11    1    1    0    0    0 -0.47848764629E+02  0.37207640976E+02 -0.78237168564E+01  0.61115655680E+02  0.51100000000E-03 0.  1.
         22    1    1    0    0    0  0.48936010880E+02 -0.38053156041E+02  0.79652789025E+01  0.62499772108E+02  0.00000000000E+00 0.  1.
</event>
<event>
 4    1  0.1988088E-002  0.9118800E+02  0.7818608E-02  0.1130116E+00
         25   -1    0    0    0    0  0.00000000000E+00  0.00000000000E+00  0.99999998245E-14  0.12500000000E+03  0.12500000000E+03 0.  0.
        -11    1    1    0    0    0 -0.50486848184E+02  0.25567907569E+02 -0.18277171377E+02  0.59470116284E+02  0.51100000000E-03 0.  1.
         11    1    1    0    0    0 -0.25679841380E+01  0.13050122884E+01 -0.93948899512E+00  0.30298909945E+01  0.51100000000E-03 0. -1.
         22    1    1    0    0    0  0.53054832322E+02 -0.26872919857E+02  0.19216660373E+02  0.62499992722E+02  0.00000000000E+00 0.  1.
</event>
<event>
 4    1  0.1988088E-002  0.9118800E+02  0.7818608E-02  0.1130116E+00
         25   -1    0    0    0    0  0.00000000000E+00  0.00000000000E+00  0.99999998245E-14  0.12500000000E+03  0.12500000000E+03 0.  0.
        -11    1    1    0    0    0  0.26144202514E+02  0.58186638530E+01 -0.31271297093E+02  0.41173659010E+02  0.51100000000E-03 0.  1.
         11    1    1    0    0    0  0.11459596420E+02  0.52013624015E+01 -0.17316386206E+02  0.21406395129E+02  0.51100000000E-03 0. -1.
         22    1    1    0    0    0 -0.37603798934E+02 -0.11020026254E+02  0.48587683299E+02  0.62419945861E+02  0.00000000000E+00 0.  1.
</event>
<event>
 4    1  0.1988088E-002  0.9118800E+02  0.7818608E-02  0.1130116E+00
         25   -1    0    0    0    0  0.00000000000E+00  0.00000000000E+00  0.99999998245E-14  0.12500000000E+03  0.12500000000E+03 0.  0.
        -11    1    1    0    0    0  0.36496396433E+01 -0.78715291365E-01 -0.36499398120E+01  0.51621823404E+01  0.51100000000E-03 0. -1.
         11    1    1    0    0    0  0.52821693321E+02  0.12751973203E+02 -0.19175769384E+02  0.57623382733E+02  0.51100000000E-03 0.  1.
         22    1    1    0    0    0 -0.56471332965E+02 -0.12673257912E+02  0.22825709196E+02  0.62214434926E+02  0.00000000000E+00 0.  1.
</event>
<event>
 4    1  0.1988088E-002  0.9118800E+02  0.7818608E-02  0.1130116E+00
         25   -1    0    0    0    0  0.00000000000E+00  0.00000000000E+00  0.99999998245E-14  0.12500000000E+03  0.12500000000E+03 0.  0.
        -11    1    1    0    0    0 -0.10966855798E+02 -0.79737099836E+01  0.10233617587E+02  0.16987610372E+02  0.51100000000E-03 0.  1.
         11    1    1    0    0    0 -0.26363432379E+02 -0.24093965811E+02  0.28251991291E+02  0.45538168249E+02  0.51100000000E-03 0. -1.
         22    1    1    0    0    0  0.37330288177E+02  0.32067675794E+02 -0.38485608878E+02  0.62474221379E+02  0.00000000000E+00 0. -1.
</event>
<event>
 4    1  0.1988088E-002  0.9118800E+02  0.7818608E-02  0.1130116E+00
         25   -1    0    0    0    0  0.00000000000E+00  0.00000000000E+00  0.99999998245E-14  0.12500000000E+03  0.12500000000E+03 0.  0.
        -11    1    1    0    0    0 -0.12196159097E+02 -0.31666248896E+02 -0.15577418948E+02  0.37338366289E+02  0.51100000000E-03 0.  1.
         11    1    1    0    0    0 -0.14680978439E+02 -0.19523733007E+02 -0.72817187947E+01  0.25489815757E+02  0.51100000000E-03 0. -1.
         22    1    1    0    0    0  0.26877137536E+02  0.51189981903E+02  0.22859137743E+02  0.62171817954E+02  0.00000000000E+00 0.  1.
</event>
<event>
 4    1  0.1988088E-002  0.9118800E+02  0.7818608E-02  0.1130116E+00
         25   -1    0    0    0    0  0.00000000000E+00  0.00000000000E+00  0.99999998245E-14  0.12500000000E+03  0.12500000000E+03 0.  0.
        -11    1    1    0    0    0  0.22595015907E+02  0.14996183389E+02 -0.25005571756E+02  0.36887652124E+02  0.51100000000E-03 0.  1.
         11    1    1    0    0    0  0.16261016551E+02  0.99921868588E+01 -0.17085064002E+02  0.25615695769E+02  0.51100000000E-03 0. -1.
         22    1    1    0    0    0 -0.38856032458E+02 -0.24988370248E+02  0.42090635759E+02  0.62496652107E+02  0.00000000000E+00 0.  1.
</event>
<event>
 4    1  0.1988088E-002  0.9118800E+02  0.7818608E-02  0.1130116E+00
         25   -1    0    0    0    0  0.00000000000E+00  0.00000000000E+00  0.99999998245E-14  0.12500000000E+03  0.12500000000E+03 0.  0.
        -11    1    1    0    0    0 -0.32129110751E+02 -0.23712538990E+02  0.35737357511E+02  0.53588459440E+02  0.51100000000E-03 0.  1.
         11    1    1    0    0    0 -0.33046416780E+01 -0.48452640562E+01  0.68955463333E+01  0.90523919430E+01  0.51100000000E-03 0. -1.
         22    1    1    0    0    0  0.35433752429E+02  0.28557803046E+02 -0.42632903845E+02  0.62359148617E+02  0.00000000000E+00 0.  1.
</event>
<event>
 4    1  0.1988088E-002  0.9118800E+02  0.7818608E-02  0.1130116E+00
         25   -1    0    0    0    0  0.00000000000E+00  0.00000000000E+00  0.99999998245E-14  0.12500000000E+03  0.12500000000E+03 0.  0.
        -11    1    1    0    0    0  0.41084032827E+02 -0.56481692099E+01  0.44857334762E+01  0.41712364760E+02  0.51100000000E-03 0. -1.
         11    1    1    0    0    0  0.20473235179E+02 -0.28228156446E+01  0.22369967996E+01  0.20787635791E+02  0.51100000000E-03 0.  1.
         22    1    1    0    0    0 -0.61557268006E+02  0.84709848546E+01 -0.67227302758E+01  0.62499999449E+02  0.00000000000E+00 0. -1.
</event>
<event>
 4    1  0.1988088E-002  0.9118800E+02  0.7818608E-02  0.1130116E+00
         25   -1    0    0    0    0  0.00000000000E+00  0.00000000000E+00  0.99999998245E-14  0.12500000000E+03  0.12500000000E+03 0.  0.
        -11    1    1    0    0    0  0.45318826567E+01 -0.42900833223E+02 -0.31103933240E+02  0.53183400746E+02  0.51100000000E-03 0. -1.
         11    1    1    0    0    0  0.90838770248E+00 -0.74599740893E+01 -0.55073571102E+01  0.93170469695E+01  0.51100000000E-03 0.  1.
         22    1    1    0    0    0 -0.54402703592E+01  0.50360807312E+02  0.36611290350E+02  0.62499552285E+02  0.00000000000E+00 0. -1.
</event>
<event>
 4    1  0.1988088E-002  0.9118800E+02  0.7818608E-02  0.1130116E+00
         25   -1    0    0    0    0  0.00000000000E+00  0.00000000000E+00  0.99999998245E-14  0.12500000000E+03  0.12500000000E+03 0.  0.
        -11    1    1    0    0    0 -0.14556650051E+02  0.90336996149E+01 -0.36390737314E+02  0.40221754710E+02  0.51100000000E-03 0.  1.
         11    1    1    0    0    0 -0.77838766334E+01  0.48377028767E+01 -0.20306877726E+02  0.22279169370E+02  0.51100000000E-03 0. -1.
         22    1    1    0    0    0  0.22340526685E+02 -0.13871402492E+02  0.56697615040E+02  0.62499075920E+02  0.00000000000E+00 0. -1.
</event>
<event>
 4    1  0.1988088E-002  0.9118800E+02  0.7818608E-02  0.1130116E+00
         25   -1    0    0    0    0  0.00000000000E+00  0.00000000000E+00  0.99999998245E-14  0.12500000000E+03  0.12500000000E+03 0.  0.
        -11    1    1    0    0    0 -0.18121867509E+02 -0.94187782674E+01 -0.53771570280E+02  0.57519537869E+02  0.51100000000E-03 0. -1.
         11    1    1    0    0    0 -0.44899029650E+01 -0.20426075749E-01 -0.31662873083E+01  0.54940896825E+01  0.51100000000E-03 0.  1.
         22    1    1    0    0    0  0.22611770474E+02  0.94392043432E+01  0.56937857588E+02  0.61986372448E+02  0.00000000000E+00 0. -1.
</event>
<event>
 4    1  0.1988088E-002  0.9118800E+02  0.7818608E-02  0.1130116E+00
         25   -1    0    0    0    0  0.00000000000E+00  0.00000000000E+00  0.99999998245E-14  0.12500000000E+03  0.12500000000E+03 0.  0.
        -11    1    1    0    0    0 -0.92134379985E+01 -0.89183833536E+01  0.18809981231E+01  0.12960060015E+02  0.51100000000E-03 0.  1.
         11    1    1    0    0    0 -0.35166446560E+02 -0.34122147524E+02  0.72943298521E+01  0.49539955224E+02  0.51100000000E-03 0. -1.
         22    1    1    0    0    0  0.44379884558E+02  0.43040530878E+02 -0.91753279752E+01  0.62499984761E+02  0.00000000000E+00 0. -1.
</event>
<event>
 4    1  0.1988088E-002  0.9118800E+02  0.7818608E-02  0.1130116E+00
         25   -1    0    0    0    0  0.00000000000E+00  0.00000000000E+00  0.99999998245E-14  0.12500000000E+03  0.12500000000E+03 0.  0.
        -11    1    1    0    0    0  0.19078451368E+02 -0.20398383721E+02 -0.23122449378E+02  0.36259192359E+02  0.51100000000E-03 0.  1.
         11    1    1    0    0    0  0.52669904263E+01 -0.25761806100E+02 -0.86042740889E+01  0.27666683476E+02  0.51100000000E-03 0. -1.
         22    1    1    0    0    0 -0.24345441795E+02  0.46160189822E+02  0.31726723467E+02  0.61074124165E+02  0.00000000000E+00 0.  1.
</event>
<event>
 4    1  0.1988088E-002  0.9118800E+02  0.7818608E-02  0.1130116E+00
         25   -1    0    0    0    0  0.00000000000E+00  0.00000000000E+00  0.99999998245E-14  0.12500000000E+03  0.12500000000E+03 0.  0.
        -11    1    1    0    0    0  0.21415318009E+02 -0.17250085865E+02  0.18814953676E+02  0.33319420611E+02  0.51100000000E-03 0. -1.
         11    1    1    0    0    0  0.21306204375E+02 -0.17395400790E+02  0.10391883124E+02  0.29403155420E+02  0.51100000000E-03 0.  1.
         22    1    1    0    0    0 -0.42721522384E+02  0.34645486655E+02 -0.29206836800E+02  0.62277423969E+02  0.00000000000E+00 0. -1.
</event>
<event>
 4    1  0.1988088E-002  0.9118800E+02  0.7818608E-02  0.1130116E+00
         25   -1    0    0    0    0  0.00000000000E+00  0.00000000000E+00  0.99999998245E-14  0.12500000000E+03  0.12500000000E+03 0.  0.
        -11    1    1    0    0    0  0.39626517902E+00  0.14865201071E+01 -0.80907207327E+00  0.17382076981E+01  0.51100000000E-03 0.  1.
         11    1    1    0    0    0  0.12992185122E+02  0.52232523007E+02 -0.28195273843E+02  0.60761886090E+02  0.51100000000E-03 0. -1.
         22    1    1    0    0    0 -0.13388450301E+02 -0.53719043114E+02  0.29004345916E+02  0.62499906212E+02  0.00000000000E+00 0. -1.
</event>
<event>
 4    1  0.1988088E-002  0.9118800E+02  0.7818608E-02  0.1130116E+00
         25   -1    0    0    0    0  0.00000000000E+00  0.00000000000E+00  0.99999998245E-14  0.12500000000E+03  0.12500000000E+03 0.  0.
        -11    1    1    0    0    0  0.16182367241E+02  0.21423723770E+01  0.46427734410E+01  0.16970978593E+02  0.51100000000E-03 0. -1.
         11    1    1    0    0    0  0.35550463079E+02 -0.26101769594E+02  0.16691071399E+02  0.47156438222E+02  0.51100000000E-03 0.  1.
         22    1    1    0    0    0 -0.51732830320E+02  0.23959397217E+02 -0.21333844840E+02  0.60872583185E+02  0.00000000000E+00 0.  1.
</event>
<event>
 4    1  0.1988088E-002  0.9118800E+02  0.7818608E-02  0.1130116E+00
         25   -1    0    0    0    0  0.00000000000E+00  0.00000000000E+00  0.99999998245E-14  0.12500000000E+03  0.12500000000E+03 0.  0.
        -11    1    1    0    0    0  0.77976868824E+01  0.51035645676E+02 -0.15776121866E+02  0.53984507701E+02  0.51100000000E-03 0.  1.
         11    1    1    0    0    0  0.12029084352E+01  0.80518294166E+01 -0.24970006859E+01  0.85155128057E+01  0.51100000000E-03 0. -1.
         22    1    1    0    0    0 -0.90005953176E+01 -0.59087475093E+02  0.18273122552E+02  0.62499979494E+02  0.00000000000E+00 0.  1.
</event>
<event>
 4    1  0.1988088E-002  0.9118800E+02  0.7818608E-02  0.1130116E+00
         25   -1    0    0    0    0  0.00000000000E+00  0.00000000000E+00  0.99999998245E-14  0.12500000000E+03  0.12500000000E+03 0.  0.
        -11    1    1    0    0    0  0.49571175713E+01 -0.11916716030E+02 -0.17104346369E+02  0.21427547702E+02  0.51100000000E-03 0.  1.
         11    1    1    0    0    0  0.94816017641E+01 -0.22888495325E+02 -0.32759165262E+02  0.41072459132E+02  0.51100000000E-03 0. -1.
         22    1    1    0    0    0 -0.14438719335E+02  0.34805211354E+02  0.49863511631E+02  0.62499993166E+02  0.00000000000E+00 0. -1.
</event>
<event>
 4    1  0.1988088E-002  0.9118800E+02  0.7818608E-02  0.1130116E+00
         25   -1    0    0    0    0  0.00000000000E+00  0.00000000000E+00  0.99999998245E-14  0.12500000000E+03  0.12500000000E+03 0.  0.
        -11    1    1    0    0    0  0.34919077587E+02 -0.22687291781E+02 -0.22739367044E+02  0.47446116825E+02  0.51100000000E-03 0. -1.
         11    1    1    0    0    0  0.10951017639E+02 -0.71019810593E+01 -0.75031861257E+01  0.15055255713E+02  0.51100000000E-03 0.  1.
         22    1    1    0    0    0 -0.45870095226E+02  0.29789272841E+02  0.30242553170E+02  0.62498627462E+02  0.00000000000E+00 0. -1.
</event>
<event>
 4    1  0.1988088E-002  0.9118800E+02  0.7818608E-02  0.1130116E+00
         25   -1    0    0    0    0  0.00000000000E+00  0.00000000000E+00  0.99999998245E-14  0.12500000000E+03  0.12500000000E+03 0.  0.
        -11    1    1    0    0    0  0.13964371353E+01 -0.10527475786E+02 -0.11979353889E+02  0.16008832030E+02  0.51100000000E-03 0.  1.
         11    1    1    0    0    0 -0.32206378813E+02 -0.33158086446E+01 -0.37208527510E+02  0.49322610869E+02  0.51100000000E-03 0. -1.
         22    1    1    0    0    0  0.30809941678E+02  0.13843284430E+02  0.49187881399E+02  0.59668557101E+02  0.00000000000E+00 0. -1.
</event>
<event>
 4    1  0.1988088E-002  0.9118800E+02  0.7818608E-02  0.1130116E+00
         25   -1    0    0    0    0  0.00000000000E+00  0.00000000000E+00  0.99999998245E-14  0.12500000000E+03  0.12500000000E+03 0.  0.
        -11    1    1    0    0    0 -0.67746933853E+01  0.11216812585E+01  0.50419453414E+01  0.85191462247E+01  0.51100000000E-03 0.  1.
         11    1    1    0    0    0 -0.42928130436E+02  0.71040982823E+01  0.31947456560E+02  0.53980853792E+02  0.51100000000E-03 0.  1.
         22    1    1    0    0    0  0.49702823822E+02 -0.82257795408E+01 -0.36989401902E+02  0.62499999984E+02  0.00000000000E+00 0.  1.
</event>
<event>
 4    1  0.1988088E-002  0.9118800E+02  0.7818608E-02  0.1130116E+00
         25   -1    0    0    0    0  0.00000000000E+00  0.00000000000E+00  0.99999998245E-14  0.12500000000E+03  0.12500000000E+03 0.  0.
        -11    1    1    0    0    0 -0.14071103162E+02  0.39063085282E+01  0.37260716684E+01  0.15071124737E+02  0.51100000000E-03 0.  1.
         11    1    1    0    0    0 -0.44263411494E+02  0.12377419080E+02  0.11706795026E+02  0.47428885188E+02  0.51100000000E-03 0. -1.
         22    1    1    0    0    0  0.58334514656E+02 -0.16283727608E+02 -0.15432866695E+02  0.62499990075E+02  0.00000000000E+00 0. -1.
</event>
<event>
 4    1  0.1988088E-002  0.9118800E+02  0.7818608E-02  0.1130116E+00
         25   -1    0    0    0    0  0.00000000000E+00  0.00000000000E+00  0.99999998245E-14  0.12500000000E+03  0.12500000000E+03 0.  0.
        -11    1    1    0    0    0  0.26832148391E+02  0.42676791526E+00 -0.24373254068E+02  0.36251921773E+02  0.51100000000E-03 0.  1.
         11    1    1    0    0    0  0.18922930305E+02  0.10204655837E+00 -0.18194700203E+02  0.26251377498E+02  0.51100000000E-03 0. -1.
         22    1    1    0    0    0 -0.45755078696E+02 -0.52881447363E+00  0.42567954270E+02  0.62496700729E+02  0.00000000000E+00 0.  1.
</event>
<event>
 4    1  0.1988088E-002  0.9118800E+02  0.7818608E-02  0.1130116E+00
         25   -1    0    0    0    0  0.00000000000E+00  0.00000000000E+00  0.99999998245E-14  0.12500000000E+03  0.12500000000E+03 0.  0.
        -11    1    1    0    0    0 -0.36081675976E+02  0.29317254089E+02 -0.35108598307E+02  0.58258067287E+02  0.51100000000E-03 0. -1.
         11    1    1    0    0    0 -0.25593856860E+01  0.21554873857E+01 -0.26078717069E+01  0.42423550135E+01  0.51100000000E-03 0.  1.
         22    1    1    0    0    0  0.38641061663E+02 -0.31472741475E+02  0.37716470014E+02  0.62499577700E+02  0.00000000000E+00 0. -1.
</event>
<event>
 4    1  0.1988088E-002  0.9118800E+02  0.7818608E-02  0.1130116E+00
         25   -1    0    0    0    0  0.00000000000E+00  0.00000000000E+00  0.99999998245E-14  0.12500000000E+03  0.12500000000E+03 0.  0.
        -11    1    1    0    0    0 -0.85938837555E+01  0.97972472426E+00 -0.61117142305E+02  0.61726167727E+02  0.51100000000E-03 0.  1.
         11    1    1    0    0    0  0.12944023999E+01  0.52040431013E+01  0.10832065471E+02  0.12086818639E+02  0.51100000000E-03 0. -1.
         22    1    1    0    0    0  0.72994813556E+01 -0.61837678256E+01  0.50285076834E+02  0.51187013634E+02  0.00000000000E+00 0.  1.
</event>
<event>
 4    1  0.1988088E-002  0.9118800E+02  0.7818608E-02  0.1130116E+00
         25   -1    0    0    0    0  0.00000000000E+00  0.00000000000E+00  0.99999998245E-14  0.12500000000E+03  0.12500000000E+03 0.  0.
        -11    1    1    0    0    0 -0.77868300529E+00 -0.20890214578E+00  0.34573117348E+01  0.35500692982E+01  0.51100000000E-03 0. -1.
         11    1    1    0    0    0 -0.12983451719E+02 -0.35591029254E+01  0.57392137265E+02  0.58949933438E+02  0.51100000000E-03 0.  1.
         22    1    1    0    0    0  0.13762134725E+02  0.37680050712E+01 -0.60849449000E+02  0.62499997264E+02  0.00000000000E+00 0.  1.
</event>
<event>
 4    1  0.1988088E-002  0.9118800E+02  0.7818608E-02  0.1130116E+00
         25   -1    0    0    0    0  0.00000000000E+00  0.00000000000E+00  0.99999998245E-14  0.12500000000E+03  0.12500000000E+03 0.  0.
        -11    1    1    0    0    0  0.17430488510E+01  0.68682915703E+01  0.20516096788E+01  0.73770421530E+01  0.51100000000E-03 0.  1.
         11    1    1    0    0    0  0.11539587480E+02  0.52054514420E+02  0.13999012054E+02  0.55125374280E+02  0.51100000000E-03 0. -1.
         22    1    1    0    0    0 -0.13282636331E+02 -0.58922805991E+02 -0.16050621732E+02  0.62497583567E+02  0.00000000000E+00 0. -1.
</event>
<event>
 4    1  0.1988088E-002  0.9118800E+02  0.7818608E-02  0.1130116E+00
         25   -1    0    0    0    0  0.00000000000E+00  0.00000000000E+00  0.99999998245E-14  0.12500000000E+03  0.12500000000E+03 0.  0.
        -11    1    1    0    0    0 -0.53210138133E+01  0.48184134482E+01  0.36845935082E+01  0.80688614898E+01  0.51100000000E-03 0.  1.
         11    1    1    0    0    0 -0.36260456365E+02  0.32287879063E+02  0.24605623408E+02  0.54431282676E+02  0.51100000000E-03 0. -1.
         22    1    1    0    0    0  0.41581470178E+02 -0.37106292511E+02 -0.28290216917E+02  0.62499855834E+02  0.00000000000E+00 0. -1.
</event>
<event>
 4    1  0.1988088E-002  0.9118800E+02  0.7818608E-02  0.1130116E+00
         25   -1    0    0    0    0  0.00000000000E+00  0.00000000000E+00  0.99999998245E-14  0.12500000000E+03  0.12500000000E+03 0.  0.
        -11    1    1    0    0    0 -0.35246224364E+02 -0.49696239250E+02 -0.62772273048E+01  0.61248804971E+02  0.51100000000E-03 0.  1.
         11    1    1    0    0    0 -0.71760875578E+00 -0.10168287444E+01 -0.12880272947E+00  0.12511967975E+01  0.51100000000E-03 0. -1.
         22    1    1    0    0    0  0.35963833119E+02  0.50713067995E+02  0.64060300343E+01  0.62499998231E+02  0.00000000000E+00 0.  1.
</event>
<event>
 4    1  0.1988088E-002  0.9118800E+02  0.7818608E-02  0.1130116E+00
         25   -1    0    0    0    0  0.00000000000E+00  0.00000000000E+00  0.99999998245E-14  0.12500000000E+03  0.12500000000E+03 0.  0.
        -11    1    1    0    0    0  0.40848726318E+02 -0.59049654915E+01 -0.26131065447E+02  0.48849970736E+02  0.51100000000E-03 0. -1.
         11    1    1    0    0    0  0.11414246715E+02 -0.16512475887E+01 -0.73014829145E+01  0.13650029293E+02  0.51100000000E-03 0. -1.
         22    1    1    0    0    0 -0.52262973034E+02  0.75562130802E+01  0.33432548362E+02  0.62499999971E+02  0.00000000000E+00 0. -1.
</event>
<event>
 4    1  0.1988088E-002  0.9118800E+02  0.7818608E-02  0.1130116E+00
         25   -1    0    0    0    0  0.00000000000E+00  0.00000000000E+00  0.99999998245E-14  0.12500000000E+03  0.12500000000E+03 0.  0.
        -11    1    1    0    0    0  0.90077206129E-01  0.19011722295E+02  0.45443405175E+01  0.19547499317E+02  0.51100000000E-03 0.  1.
         11    1    1    0    0    0  0.30534615959E+00  0.41747856534E+02  0.10096752543E+02  0.42952545602E+02  0.51100000000E-03 0. -1.
         22    1    1    0    0    0 -0.39542336572E+00 -0.60759578830E+02 -0.14641093060E+02  0.62499955082E+02  0.00000000000E+00 0. -1.
</event>
<event>
 4    1  0.1988088E-002  0.9118800E+02  0.7818608E-02  0.1130116E+00
         25   -1    0    0    0    0  0.00000000000E+00  0.00000000000E+00  0.99999998245E-14  0.12500000000E+03  0.12500000000E+03 0.  0.
        -11    1    1    0    0    0  0.16349255563E+02  0.13850699875E+02  0.12823560638E+02  0.24971658980E+02  0.51100000000E-03 0.  1.
         11    1    1    0    0    0  0.24575103843E+02  0.20805286654E+02  0.19276429323E+02  0.37528341415E+02  0.51100000000E-03 0. -1.
         22    1    1    0    0    0 -0.40924359406E+02 -0.34655986529E+02 -0.32099989962E+02  0.62499999605E+02  0.00000000000E+00 0. -1.
</event>
<event>
 4    1  0.1988088E-002  0.9118800E+02  0.7818608E-02  0.1130116E+00
         25   -1    0    0    0    0  0.00000000000E+00  0.00000000000E+00  0.99999998245E-14  0.12500000000E+03  0.12500000000E+03 0.  0.
        -11    1    1    0    0    0  0.11759343162E+02  0.92969717006E+01  0.10274556136E+02  0.18173671573E+02  0.51100000000E-03 0.  1.
         11    1    1    0    0    0  0.94151042944E+01 -0.88731521586E+01  0.45427543641E+02  0.47233872800E+02  0.51100000000E-03 0. -1.
         22    1    1    0    0    0 -0.21174447456E+02 -0.42381954209E+00 -0.55702099777E+02  0.59592455627E+02  0.00000000000E+00 0. -1.
</event>
<event>
 4    1  0.1988088E-002  0.9118800E+02  0.7818608E-02  0.1130116E+00
         25   -1    0    0    0    0  0.00000000000E+00  0.00000000000E+00  0.99999998245E-14  0.12500000000E+03  0.12500000000E+03 0.  0.
        -11    1    1    0    0    0  0.11516464098E+01  0.23436570686E+01 -0.63661088399E+01  0.68808691261E+01  0.51100000000E-03 0.  1.
         11    1    1    0    0    0  0.93205149492E+01  0.18929036423E+02 -0.51461707335E+02  0.55619131070E+02  0.51100000000E-03 0. -1.
         22    1    1    0    0    0 -0.10472161359E+02 -0.21272693492E+02  0.57827816175E+02  0.62499999804E+02  0.00000000000E+00 0. -1.
</event>
<event>
 4    1  0.1988088E-002  0.9118800E+02  0.7818608E-02  0.1130116E+00
         25   -1    0    0    0    0  0.00000000000E+00  0.00000000000E+00  0.99999998245E-14  0.12500000000E+03  0.12500000000E+03 0.  0.
        -11    1    1    0    0    0  0.25849755555E+02  0.13750125672E+02  0.26440497275E+02  0.39450927932E+02  0.51100000000E-03 0.  1.
         11    1    1    0    0    0  0.15103093508E+02  0.80331956012E+01  0.15447461222E+02  0.23049072075E+02  0.51100000000E-03 0.  1.
         22    1    1    0    0    0 -0.40952849063E+02 -0.21783321274E+02 -0.41887958497E+02  0.62499999993E+02  0.00000000000E+00 0.  1.
</event>
<event>
 4    1  0.1988088E-002  0.9118800E+02  0.7818608E-02  0.1130116E+00
         25   -1    0    0    0    0  0.00000000000E+00  0.00000000000E+00  0.99999998245E-14  0.12500000000E+03  0.12500000000E+03 0.  0.
        -11    1    1    0    0    0 -0.21967732204E+01 -0.15266925856E+01 -0.25056693310E+01  0.36653760913E+01  0.51100000000E-03 0. -1.
         11    1    1    0    0    0 -0.35103090590E+02 -0.24564282017E+02 -0.40322241963E+02  0.58834633654E+02  0.51100000000E-03 0.  1.
         22    1    1    0    0    0  0.37299863811E+02  0.26090974603E+02  0.42827911294E+02  0.62499990255E+02  0.00000000000E+00 0.  1.
</event>
<event>
 4    1  0.1988088E-002  0.9118800E+02  0.7818608E-02  0.1130116E+00
         25   -1    0    0    0    0  0.00000000000E+00  0.00000000000E+00  0.99999998245E-14  0.12500000000E+03  0.12500000000E+03 0.  0.
        -11    1    1    0    0    0 -0.37849916813E+01 -0.36375828250E+01 -0.28830539095E+02  0.29304575677E+02  0.51100000000E-03 0.  1.
         11    1    1    0    0    0 -0.42888698167E+01 -0.41204121283E+01 -0.32658291383E+02  0.33195424334E+02  0.51100000000E-03 0.  1.
         22    1    1    0    0    0  0.80738614980E+01  0.77579949533E+01  0.61488830477E+02  0.62499999989E+02  0.00000000000E+00 0.  1.
</event>
<event>
 4    1  0.1988088E-002  0.9118800E+02  0.7818608E-02  0.1130116E+00
         25   -1    0    0    0    0  0.00000000000E+00  0.00000000000E+00  0.99999998245E-14  0.12500000000E+03  0.12500000000E+03 0.  0.
        -11    1    1    0    0    0  0.43005735702E+01 -0.77924812232E+01  0.46309018545E+01  0.10033092688E+02  0.51100000000E-03 0.  1.
         11    1    1    0    0    0  0.23380877447E+02 -0.39278632878E+02  0.25762945654E+02  0.52470999609E+02  0.51100000000E-03 0. -1.
         22    1    1    0    0    0 -0.27681451018E+02  0.47071114101E+02 -0.30393847509E+02  0.62495907702E+02  0.00000000000E+00 0. -1.
</event>
<event>
 4    1  0.1988088E-002  0.9118800E+02  0.7818608E-02  0.1130116E+00
         25   -1    0    0    0    0  0.00000000000E+00  0.00000000000E+00  0.99999998245E-14  0.12500000000E+03  0.12500000000E+03 0.  0.
        -11    1    1    0    0    0  0.57651709608E+02 -0.28206504365E+01  0.19029178076E+02  0.60776519382E+02  0.51100000000E-03 0.  1.
         11    1    1    0    0    0  0.16315030628E+01 -0.10149123161E+00  0.54638372128E+00  0.17235539289E+01  0.51100000000E-03 0. -1.
         22    1    1    0    0    0 -0.59283212671E+02  0.29221416681E+01 -0.19575561797E+02  0.62499926690E+02  0.00000000000E+00 0.  1.
</event>
<event>
 4    1  0.1988088E-002  0.9118800E+02  0.7818608E-02  0.1130116E+00
         25   -1    0    0    0    0  0.00000000000E+00  0.00000000000E+00  0.99999998245E-14  0.12500000000E+03  0.12500000000E+03 0.  0.
        -11    1    1    0    0    0  0.45505809244E+02  0.26238359454E+02 -0.34930545409E+00  0.52529536418E+02  0.51100000000E-03 0.  1.
         11    1    1    0    0    0  0.91143836017E+01  0.40786158091E+01 -0.45005312849E+00  0.99954811509E+01  0.51100000000E-03 0. -1.
         22    1    1    0    0    0 -0.54620192845E+02 -0.30316975263E+02  0.79935858259E+00  0.62474982431E+02  0.00000000000E+00 0.  1.
</event>
<event>
 4    1  0.1988088E-002  0.9118800E+02  0.7818608E-02  0.1130116E+00
         25   -1    0    0    0    0  0.00000000000E+00  0.00000000000E+00  0.99999998245E-14  0.12500000000E+03  0.12500000000E+03 0.  0.
        -11    1    1    0    0    0 -0.60331028511E+02 -0.10147359257E+02 -0.68909674053E+01  0.61565309495E+02  0.51100000000E-03 0.  1.
         11    1    1    0    0    0 -0.91490760973E+00 -0.16122876099E+00 -0.10306606374E+00  0.93470504563E+00  0.51100000000E-03 0. -1.
         22    1    1    0    0    0  0.61245936121E+02  0.10308588018E+02  0.69940334690E+01  0.62499985460E+02  0.00000000000E+00 0.  1.
</event>
<event>
 4    1  0.1988088E-002  0.9118800E+02  0.7818608E-02  0.1130116E+00
         25   -1    0    0    0    0  0.00000000000E+00  0.00000000000E+00  0.99999998245E-14  0.12500000000E+03  0.12500000000E+03 0.  0.
        -11    1    1    0    0    0  0.28601192276E+01 -0.41351922918E+01 -0.14575568710E+02  0.15418407854E+02  0.51100000000E-03 0.  1.
         11    1    1    0    0    0 -0.53352833794E+02  0.15291169407E+02 -0.12142954361E+01  0.55514135581E+02  0.51100000000E-03 0. -1.
         22    1    1    0    0    0  0.50492714566E+02 -0.11155977115E+02  0.15789864146E+02  0.54067456565E+02  0.00000000000E+00 0. -1.
</event>
<event>
 4    1  0.1988088E-002  0.9118800E+02  0.7818608E-02  0.1130116E+00
         25   -1    0    0    0    0  0.00000000000E+00  0.00000000000E+00  0.99999998245E-14  0.12500000000E+03  0.12500000000E+03 0.  0.
        -11    1    1    0    0    0  0.80051234238E+01 -0.30241114473E+01  0.46318848380E+01  0.97304474969E+01  0.51100000000E-03 0.  1.
         11    1    1    0    0    0  0.44009654008E+02 -0.15235761806E+02  0.24815077346E+02  0.52770883522E+02  0.51100000000E-03 0. -1.
         22    1    1    0    0    0 -0.52014777432E+02  0.18259873253E+02 -0.29446962184E+02  0.62498668981E+02  0.00000000000E+00 0. -1.
</event>
<event>
 4    1  0.1988088E-002  0.9118800E+02  0.7818608E-02  0.1130116E+00
         25   -1    0    0    0    0  0.00000000000E+00  0.00000000000E+00  0.99999998245E-14  0.12500000000E+03  0.12500000000E+03 0.  0.
        -11    1    1    0    0    0 -0.80213472369E+01 -0.39578001092E+02 -0.41770503073E+00  0.40384832050E+02  0.51100000000E-03 0.  1.
         11    1    1    0    0    0 -0.44534094584E+01 -0.21661377562E+02 -0.18538814169E+00  0.22115209759E+02  0.51100000000E-03 0. -1.
         22    1    1    0    0    0  0.12474756695E+02  0.61239378654E+02  0.60309317243E+00  0.62499958191E+02  0.00000000000E+00 0.  1.
</event>
<event>
 4    1  0.1988088E-002  0.9118800E+02  0.7818608E-02  0.1130116E+00
         25   -1    0    0    0    0  0.00000000000E+00  0.00000000000E+00  0.99999998245E-14  0.12500000000E+03  0.12500000000E+03 0.  0.
        -11    1    1    0    0    0  0.25918969560E+02 -0.94330641058E+01 -0.23901409285E+02  0.36497301921E+02  0.51100000000E-03 0.  1.
         11    1    1    0    0    0  0.18469586175E+02 -0.67132549161E+01 -0.17027827869E+02  0.26002698461E+02  0.51100000000E-03 0. -1.
         22    1    1    0    0    0 -0.44388555735E+02  0.16146319022E+02  0.40929237154E+02  0.62499999618E+02  0.00000000000E+00 0.  1.
</event>
<event>
 4    1  0.1988088E-002  0.9118800E+02  0.7818608E-02  0.1130116E+00
         25   -1    0    0    0    0  0.00000000000E+00  0.00000000000E+00  0.99999998245E-14  0.12500000000E+03  0.12500000000E+03 0.  0.
        -11    1    1    0    0    0  0.53076582840E+02  0.28695373340E+02  0.95574156381E+01  0.61089215832E+02  0.51100000000E-03 0.  1.
         11    1    1    0    0    0  0.12314654597E+01  0.65420105569E+00  0.21423669734E+00  0.14108096340E+01  0.51100000000E-03 0. -1.
         22    1    1    0    0    0 -0.54308048299E+02 -0.29349574396E+02 -0.97716523354E+01  0.62499974534E+02  0.00000000000E+00 0.  1.
</event>
<event>
 4    1  0.1988088E-002  0.9118800E+02  0.7818608E-02  0.1130116E+00
         25   -1    0    0    0    0  0.00000000000E+00  0.00000000000E+00  0.99999998245E-14  0.12500000000E+03  0.12500000000E+03 0.  0.
        -11    1    1    0    0    0 -0.22962267983E+02  0.33813731578E+01  0.10016237812E+02  0.25278933037E+02  0.51100000000E-03 0. -1.
         11    1    1    0    0    0 -0.33809521349E+02  0.49782338393E+01  0.14749280671E+02  0.37221066973E+02  0.51100000000E-03 0. -1.
         22    1    1    0    0    0  0.56771789332E+02 -0.83596069971E+01 -0.24765518482E+02  0.62499999990E+02  0.00000000000E+00 0. -1.
</event>
<event>
 4    1  0.1988088E-002  0.9118800E+02  0.7818608E-02  0.1130116E+00
         25   -1    0    0    0    0  0.00000000000E+00  0.00000000000E+00  0.99999998245E-14  0.12500000000E+03  0.12500000000E+03 0.  0.
        -11    1    1    0    0    0  0.19402223335E+02 -0.28380982602E+02 -0.35445295035E+00  0.34380984293E+02  0.51100000000E-03 0. -1.
         11    1    1    0    0    0  0.12685517279E+02 -0.25167023181E+02  0.69874320084E+00  0.28192013883E+02  0.51100000000E-03 0.  1.
         22    1    1    0    0    0 -0.32087740614E+02  0.53548005783E+02 -0.34429025049E+00  0.62427001825E+02  0.00000000000E+00 0.  1.
</event>
<event>
 4    1  0.1988088E-002  0.9118800E+02  0.7818608E-02  0.1130116E+00
         25   -1    0    0    0    0  0.00000000000E+00  0.00000000000E+00  0.99999998245E-14  0.12500000000E+03  0.12500000000E+03 0.  0.
        -11    1    1    0    0    0  0.19863208695E+02 -0.19366286294E+02  0.95165710715E+01  0.29328573605E+02  0.51100000000E-03 0. -1.
         11    1    1    0    0    0  0.21671033937E+02 -0.22887370195E+02  0.10358179243E+02  0.33177662724E+02  0.51100000000E-03 0.  1.
         22    1    1    0    0    0 -0.41534242632E+02  0.42253656489E+02 -0.19874750315E+02  0.62493763671E+02  0.00000000000E+00 0. -1.
</event>
<event>
 4    1  0.1988088E-002  0.9118800E+02  0.7818608E-02  0.1130116E+00
         25   -1    0    0    0    0  0.00000000000E+00  0.00000000000E+00  0.99999998245E-14  0.12500000000E+03  0.12500000000E+03 0.  0.
        -11    1    1    0    0    0  0.16417872473E+02 -0.70651561614E+01 -0.42120728774E+00  0.17878489421E+02  0.51100000000E-03 0.  1.
         11    1    1    0    0    0  0.40977398856E+02 -0.17630256520E+02 -0.10516873446E+01  0.44621510603E+02  0.51100000000E-03 0. -1.
         22    1    1    0    0    0 -0.57395271329E+02  0.24695412681E+02  0.14728946323E+01  0.62499999976E+02  0.00000000000E+00 0. -1.
</event>
<event>
 4    1  0.1988088E-002  0.9118800E+02  0.7818608E-02  0.1130116E+00
         25   -1    0    0    0    0  0.00000000000E+00  0.00000000000E+00  0.99999998245E-14  0.12500000000E+03  0.12500000000E+03 0.  0.
        -11    1    1    0    0    0  0.48871017670E+01  0.49169518906E+01  0.31037128921E+01  0.75956048840E+01  0.51100000000E-03 0.  1.
         11    1    1    0    0    0  0.35339180097E+02  0.35522505991E+02  0.22445190166E+02  0.54904395486E+02  0.51100000000E-03 0. -1.
         22    1    1    0    0    0 -0.40226281864E+02 -0.40439457882E+02 -0.25548903058E+02  0.62499999630E+02  0.00000000000E+00 0. -1.
</event>
<event>
 4    1  0.1988088E-002  0.9118800E+02  0.7818608E-02  0.1130116E+00
         25   -1    0    0    0    0  0.00000000000E+00  0.00000000000E+00  0.99999998245E-14  0.12500000000E+03  0.12500000000E+03 0.  0.
        -11    1    1    0    0    0  0.29731918957E+02 -0.68730141128E+00 -0.40478643977E+02  0.50229274398E+02  0.51100000000E-03 0.  1.
         11    1    1    0    0    0  0.83027419061E+01  0.55734364125E+01 -0.81082290383E+01  0.12874086181E+02  0.51100000000E-03 0. -1.
         22    1    1    0    0    0 -0.38034660863E+02 -0.48861350013E+01  0.48586873015E+02  0.61896639421E+02  0.00000000000E+00 0.  1.
</event>
<event>
 4    1  0.1988088E-002  0.9118800E+02  0.7818608E-02  0.1130116E+00
         25   -1    0    0    0    0  0.00000000000E+00  0.00000000000E+00  0.99999998245E-14  0.12500000000E+03  0.12500000000E+03 0.  0.
        -11    1    1    0    0    0 -0.86638526687E+01 -0.38641098566E+02  0.27100626921E+02  0.47985839799E+02  0.51100000000E-03 0.  1.
         11    1    1    0    0    0 -0.26473778273E+01 -0.11699465412E+02  0.81716170016E+01  0.14514180134E+02  0.51100000000E-03 0. -1.
         22    1    1    0    0    0  0.11311230496E+02  0.50340563978E+02 -0.35272243922E+02  0.62499980067E+02  0.00000000000E+00 0.  1.
</event>
<event>
 4    1  0.1988088E-002  0.9118800E+02  0.7818608E-02  0.1130116E+00
         25   -1    0    0    0    0  0.00000000000E+00  0.00000000000E+00  0.99999998245E-14  0.12500000000E+03  0.12500000000E+03 0.  0.
        -11    1    1    0    0    0  0.86456161035E+01 -0.16609826513E+01 -0.40631899417E+01  0.96961360315E+01  0.51100000000E-03 0. -1.
         11    1    1    0    0    0  0.47085205239E+02 -0.90447315907E+01 -0.22122936757E+02  0.52803863997E+02  0.51100000000E-03 0.  1.
         22    1    1    0    0    0 -0.55730821343E+02  0.10705714242E+02  0.26186126699E+02  0.62499999972E+02  0.00000000000E+00 0. -1.
</event>
<event>
 4    1  0.1988088E-002  0.9118800E+02  0.7818608E-02  0.1130116E+00
         25   -1    0    0    0    0  0.00000000000E+00  0.00000000000E+00  0.99999998245E-14  0.12500000000E+03  0.12500000000E+03 0.  0.
        -11    1    1    0    0    0  0.15146191570E+02 -0.28820027348E+02 -0.23626794104E+02  0.40227186023E+02  0.51100000000E-03 0. -1.
         11    1    1    0    0    0  0.85574856658E+01 -0.15789444937E+02 -0.13174306879E+02  0.22273291053E+02  0.51100000000E-03 0.  1.
         22    1    1    0    0    0 -0.23703677236E+02  0.44609472285E+02  0.36801100984E+02  0.62499522924E+02  0.00000000000E+00 0. -1.
</event>
<event>
 4    1  0.1988088E-002  0.9118800E+02  0.7818608E-02  0.1130116E+00
         25   -1    0    0    0    0  0.00000000000E+00  0.00000000000E+00  0.99999998245E-14  0.12500000000E+03  0.12500000000E+03 0.  0.
        -11    1    1    0    0    0  0.10433301238E+02 -0.15384885462E+02  0.25818893216E+02  0.31814520624E+02  0.51100000000E-03 0. -1.
         11    1    1    0    0    0  0.10790382021E+02 -0.20732842771E+02  0.20244872384E+02  0.30921480748E+02  0.51100000000E-03 0.  1.
         22    1    1    0    0    0 -0.21223683260E+02  0.36117728233E+02 -0.46063765600E+02  0.62263998628E+02  0.00000000000E+00 0. -1.
</event>
<event>
 4    1  0.1988088E-002  0.9118800E+02  0.7818608E-02  0.1130116E+00
         25   -1    0    0    0    0  0.00000000000E+00  0.00000000000E+00  0.99999998245E-14  0.12500000000E+03  0.12500000000E+03 0.  0.
        -11    1    1    0    0    0  0.97142780711E-01 -0.11777947942E+02  0.41934883525E+01  0.12502593301E+02  0.51100000000E-03 0.  1.
         11    1    1    0    0    0  0.39085149528E+00 -0.47098106745E+02  0.16773677462E+02  0.49997406730E+02  0.51100000000E-03 0. -1.
         22    1    1    0    0    0 -0.48799427599E+00  0.58876054686E+02 -0.20967165814E+02  0.62499999969E+02  0.00000000000E+00 0. -1.
</event>
<event>
 4    1  0.1988088E-002  0.9118800E+02  0.7818608E-02  0.1130116E+00
         25   -1    0    0    0    0  0.00000000000E+00  0.00000000000E+00  0.99999998245E-14  0.12500000000E+03  0.12500000000E+03 0.  0.
        -11    1    1    0    0    0  0.13034955514E+02 -0.18130027938E+02 -0.13620280989E+02  0.26155688344E+02  0.51100000000E-03 0.  1.
         11    1    1    0    0    0  0.22473055488E+02 -0.27885363576E+02 -0.82351450365E+01  0.36748460359E+02  0.51100000000E-03 0. -1.
         22    1    1    0    0    0 -0.35508011002E+02  0.46015391514E+02  0.21855426025E+02  0.62095851297E+02  0.00000000000E+00 0. -1.
</event>
<event>
 4    1  0.1988088E-002  0.9118800E+02  0.7818608E-02  0.1130116E+00
         25   -1    0    0    0    0  0.00000000000E+00  0.00000000000E+00  0.99999998245E-14  0.12500000000E+03  0.12500000000E+03 0.  0.
        -11    1    1    0    0    0 -0.11078360169E+02  0.46202289515E+01  0.50424415828E+01  0.13019323983E+02  0.51100000000E-03 0.  1.
         11    1    1    0    0    0 -0.48963879114E+02 -0.12971057940E+02  0.34418950976E+01  0.50769640969E+02  0.51100000000E-03 0. -1.
         22    1    1    0    0    0  0.60042239282E+02  0.83508289888E+01 -0.84843366804E+01  0.61211035049E+02  0.00000000000E+00 0. -1.
</event>
<event>
 4    1  0.1988088E-002  0.9118800E+02  0.7818608E-02  0.1130116E+00
         25   -1    0    0    0    0  0.00000000000E+00  0.00000000000E+00  0.99999998245E-14  0.12500000000E+03  0.12500000000E+03 0.  0.
        -11    1    1    0    0    0 -0.58706992559E+01 -0.10764629583E+02  0.38747053782E+02  0.40640823526E+02  0.51100000000E-03 0.  1.
         11    1    1    0    0    0 -0.31592428462E+01 -0.57764810034E+01  0.20844066570E+02  0.21859177925E+02  0.51100000000E-03 0. -1.
         22    1    1    0    0    0  0.90299421020E+01  0.16541110586E+02 -0.59591120352E+02  0.62499998549E+02  0.00000000000E+00 0.  1.
</event>
<event>
 4    1  0.1988088E-002  0.9118800E+02  0.7818608E-02  0.1130116E+00
         25   -1    0    0    0    0  0.00000000000E+00  0.00000000000E+00  0.99999998245E-14  0.12500000000E+03  0.12500000000E+03 0.  0.
        -11    1    1    0    0    0 -0.18595000458E+02 -0.20617896465E+02  0.75902468487E+01  0.28783390074E+02  0.51100000000E-03 0. -1.
         11    1    1    0    0    0 -0.21780340823E+02 -0.24152922072E+02  0.88917318359E+01  0.33716609946E+02  0.51100000000E-03 0. -1.
         22    1    1    0    0    0  0.40375341281E+02  0.44770818537E+02 -0.16481978685E+02  0.62499999979E+02  0.00000000000E+00 0. -1.
</event>
<event>
 4    1  0.1988088E-002  0.9118800E+02  0.7818608E-02  0.1130116E+00
         25   -1    0    0    0    0  0.00000000000E+00  0.00000000000E+00  0.99999998245E-14  0.12500000000E+03  0.12500000000E+03 0.  0.
        -11    1    1    0    0    0  0.68585467251E+01  0.20283868830E+02  0.13278833104E+02  0.25195285407E+02  0.51100000000E-03 0. -1.
         11    1    1    0    0    0  0.10497782463E+02  0.30143873294E+02  0.19308970740E+02  0.37305400214E+02  0.51100000000E-03 0.  1.
         22    1    1    0    0    0 -0.17356329188E+02 -0.50427742124E+02 -0.32587803843E+02  0.62499314380E+02  0.00000000000E+00 0. -1.
</event>
<event>
 4    1  0.1988088E-002  0.9118800E+02  0.7818608E-02  0.1130116E+00
         25   -1    0    0    0    0  0.00000000000E+00  0.00000000000E+00  0.99999998245E-14  0.12500000000E+03  0.12500000000E+03 0.  0.
        -11    1    1    0    0    0 -0.10925069575E+02 -0.37485311993E+02  0.26291576570E+02  0.47071783047E+02  0.51100000000E-03 0. -1.
         11    1    1    0    0    0 -0.35885289279E+01 -0.12281596282E+02  0.86206012340E+01  0.15428218076E+02  0.51100000000E-03 0.  1.
         22    1    1    0    0    0  0.14513598503E+02  0.49766908274E+02 -0.34912177804E+02  0.62499998878E+02  0.00000000000E+00 0.  1.
</event>
<event>
 4    1  0.1988088E-002  0.9118800E+02  0.7818608E-02  0.1130116E+00
         25   -1    0    0    0    0  0.00000000000E+00  0.00000000000E+00  0.99999998245E-14  0.12500000000E+03  0.12500000000E+03 0.  0.
        -11    1    1    0    0    0 -0.16568431672E+02 -0.98725182576E+01 -0.96026850884E+01  0.21545094708E+02  0.51100000000E-03 0. -1.
         11    1    1    0    0    0 -0.33258030722E+02 -0.17906304793E+02 -0.15880994495E+02  0.40974850156E+02  0.51100000000E-03 0.  1.
         22    1    1    0    0    0  0.49826462394E+02  0.27778823051E+02  0.25483679583E+02  0.62480055137E+02  0.00000000000E+00 0.  1.
</event>
<event>
 4    1  0.1988088E-002  0.9118800E+02  0.7818608E-02  0.1130116E+00
         25   -1    0    0    0    0  0.00000000000E+00  0.00000000000E+00  0.99999998245E-14  0.12500000000E+03  0.12500000000E+03 0.  0.
        -11    1    1    0    0    0  0.48599575573E+02  0.29056433572E+02  0.21292011000E+02  0.60494171706E+02  0.51100000000E-03 0.  1.
         11    1    1    0    0    0  0.16120576451E+01  0.96245192853E+00  0.70590658714E+00  0.20058284914E+01  0.51100000000E-03 0. -1.
         22    1    1    0    0    0 -0.50211633218E+02 -0.30018885500E+02 -0.21997917587E+02  0.62499999802E+02  0.00000000000E+00 0.  1.
</event>
<event>
 4    1  0.1988088E-002  0.9118800E+02  0.7818608E-02  0.1130116E+00
         25   -1    0    0    0    0  0.00000000000E+00  0.00000000000E+00  0.99999998245E-14  0.12500000000E+03  0.12500000000E+03 0.  0.
        -11    1    1    0    0    0 -0.39698243033E+02  0.14704880444E+02  0.10918978900E+02  0.43719653581E+02  0.51100000000E-03 0.  1.
         11    1    1    0    0    0  0.10458036715E+02  0.27253000938E+02 -0.68066325291E+01  0.29973769177E+02  0.51100000000E-03 0. -1.
         22    1    1    0    0    0  0.29240206317E+02 -0.41957881382E+02 -0.41123463713E+01  0.51306577241E+02  0.00000000000E+00 0.  1.
</event>
<event>
 4    1  0.1988088E-002  0.9118800E+02  0.7818608E-02  0.1130116E+00
         25   -1    0    0    0    0  0.00000000000E+00  0.00000000000E+00  0.99999998245E-14  0.12500000000E+03  0.12500000000E+03 0.  0.
        -11    1    1    0    0    0  0.32511441700E+02  0.96955398052E+01 -0.84141415578E+01  0.34954185900E+02  0.51100000000E-03 0. -1.
         11    1    1    0    0    0  0.25660096184E+02  0.75552273408E+01 -0.65767139939E+01  0.27545873803E+02  0.51100000000E-03 0.  1.
         22    1    1    0    0    0 -0.58171537884E+02 -0.17250767146E+02  0.14990855552E+02  0.62499940297E+02  0.00000000000E+00 0.  1.
</event>
<event>
 4    1  0.1988088E-002  0.9118800E+02  0.7818608E-02  0.1130116E+00
         25   -1    0    0    0    0  0.00000000000E+00  0.00000000000E+00  0.99999998245E-14  0.12500000000E+03  0.12500000000E+03 0.  0.
        -11    1    1    0    0    0  0.37822252538E+02  0.20076687788E+02 -0.77385048915E+01  0.43514142963E+02  0.51100000000E-03 0. -1.
         11    1    1    0    0    0  0.16494095672E+02  0.87736761573E+01 -0.33808697675E+01  0.18985859633E+02  0.51100000000E-03 0.  1.
         22    1    1    0    0    0 -0.54316348210E+02 -0.28850363945E+02  0.11119374659E+02  0.62499997404E+02  0.00000000000E+00 0. -1.
</event>
<event>
 4    1  0.1988088E-002  0.9118800E+02  0.7818608E-02  0.1130116E+00
         25   -1    0    0    0    0  0.00000000000E+00  0.00000000000E+00  0.99999998245E-14  0.12500000000E+03  0.12500000000E+03 0.  0.
        -11    1    1    0    0    0 -0.66117138288E+01 -0.55707729099E+02 -0.43435774827E-02  0.56098715317E+02  0.51100000000E-03 0.  1.
         11    1    1    0    0    0 -0.76529541623E+00 -0.63553539592E+01 -0.22857809161E-01  0.64013064105E+01  0.51100000000E-03 0. -1.
         22    1    1    0    0    0  0.73770092450E+01  0.62063083058E+02  0.27201386644E-01  0.62499978272E+02  0.00000000000E+00 0.  1.
</event>
<event>
 4    1  0.1988088E-002  0.9118800E+02  0.7818608E-02  0.1130116E+00
         25   -1    0    0    0    0  0.00000000000E+00  0.00000000000E+00  0.99999998245E-14  0.12500000000E+03  0.12500000000E+03 0.  0.
        -11    1    1    0    0    0  0.19606514930E+02 -0.97302578082E+01  0.35902074904E+02  0.42048214319E+02  0.51100000000E-03 0. -1.
         11    1    1    0    0    0  0.95195814104E+01 -0.46802228731E+01  0.17485703454E+02  0.20451815125E+02  0.51100000000E-03 0.  1.
         22    1    1    0    0    0 -0.29126096340E+02  0.14410480681E+02 -0.53387778358E+02  0.62499970556E+02  0.00000000000E+00 0. -1.
</event>
<event>
 4    1  0.1988088E-002  0.9118800E+02  0.7818608E-02  0.1130116E+00
         25   -1    0    0    0    0  0.00000000000E+00  0.00000000000E+00  0.99999998245E-14  0.12500000000E+03  0.12500000000E+03 0.  0.
        -11    1    1    0    0    0  0.20820506483E+02 -0.81412367220E+01 -0.80658426515E+01  0.23766174355E+02  0.51100000000E-03 0. -1.
         11    1    1    0    0    0  0.33934239930E+02 -0.13266409035E+02 -0.13144542677E+02  0.38733825666E+02  0.51100000000E-03 0. -1.
         22    1    1    0    0    0 -0.54754746412E+02  0.21407645757E+02  0.21210385329E+02  0.62499999978E+02  0.00000000000E+00 0. -1.
</event>
<event>
 4    1  0.1988088E-002  0.9118800E+02  0.7818608E-02  0.1130116E+00
         25   -1    0    0    0    0  0.00000000000E+00  0.00000000000E+00  0.99999998245E-14  0.12500000000E+03  0.12500000000E+03 0.  0.
        -11    1    1    0    0    0 -0.61422198249E+00  0.68550298635E+00 -0.80444160815E+00  0.12224195475E+01  0.51100000000E-03 0. -1.
         11    1    1    0    0    0  0.24912414575E+02  0.44193772014E+02 -0.34826330885E+02  0.61535284252E+02  0.51100000000E-03 0.  1.
         22    1    1    0    0    0 -0.24298192593E+02 -0.44879275001E+02  0.35630772493E+02  0.62242296200E+02  0.00000000000E+00 0.  1.
</event>
<event>
 4    1  0.1988088E-002  0.9118800E+02  0.7818608E-02  0.1130116E+00
         25   -1    0    0    0    0  0.00000000000E+00  0.00000000000E+00  0.99999998245E-14  0.12500000000E+03  0.12500000000E+03 0.  0.
        -11    1    1    0    0    0 -0.40309608969E+02 -0.75968886040E+01  0.82124449706E+01  0.41833258830E+02  0.51100000000E-03 0.  1.
         11    1    1    0    0    0 -0.19915000340E+02 -0.37438976856E+01  0.40608145720E+01  0.20666741971E+02  0.51100000000E-03 0. -1.
         22    1    1    0    0    0  0.60224609309E+02  0.11340786290E+02 -0.12273259543E+02  0.62499999199E+02  0.00000000000E+00 0.  1.
</event>
<event>
 4    1  0.1988088E-002  0.9118800E+02  0.7818608E-02  0.1130116E+00
         25   -1    0    0    0    0  0.00000000000E+00  0.00000000000E+00  0.99999998245E-14  0.12500000000E+03  0.12500000000E+03 0.  0.
        -11    1    1    0    0    0 -0.47419788508E+02 -0.24278767695E+01 -0.43308736010E+01  0.47679003704E+02  0.51100000000E-03 0. -1.
         11    1    1    0    0    0 -0.14766303473E+02 -0.65712014911E+00 -0.11014333843E+01  0.14821898694E+02  0.51100000000E-03 0.  1.
         22    1    1    0    0    0  0.62186091981E+02  0.30849969186E+01  0.54323069853E+01  0.62499097602E+02  0.00000000000E+00 0. -1.
</event>
<event>
 4    1  0.1988088E-002  0.9118800E+02  0.7818608E-02  0.1130116E+00
         25   -1    0    0    0    0  0.00000000000E+00  0.00000000000E+00  0.99999998245E-14  0.12500000000E+03  0.12500000000E+03 0.  0.
        -11    1    1    0    0    0 -0.36125240433E+02 -0.47480202734E+02 -0.36159284647E+01  0.59770206516E+02  0.51100000000E-03 0. -1.
         11    1    1    0    0    0 -0.16319891164E+01 -0.21808484912E+01 -0.18062273753E+00  0.27298559398E+01  0.51100000000E-03 0.  1.
         22    1    1    0    0    0  0.37757229550E+02  0.49661051225E+02  0.37965512023E+01  0.62499937545E+02  0.00000000000E+00 0. -1.
</event>
<event>
 4    1  0.1988088E-002  0.9118800E+02  0.7818608E-02  0.1130116E+00
         25   -1    0    0    0    0  0.00000000000E+00  0.00000000000E+00  0.99999998245E-14  0.12500000000E+03  0.12500000000E+03 0.  0.
        -11    1    1    0    0    0 -0.34867105662E+01  0.13857435676E+02  0.95316644229E+01  0.17176678987E+02  0.51100000000E-03 0.  1.
         11    1    1    0    0    0 -0.92215716945E+01  0.36545879629E+02  0.25170714986E+02  0.45323322865E+02  0.51100000000E-03 0. -1.
         22    1    1    0    0    0  0.12708282261E+02 -0.50403315305E+02 -0.34702379409E+02  0.62499998148E+02  0.00000000000E+00 0. -1.
</event>
<event>
 4    1  0.1988088E-002  0.9118800E+02  0.7818608E-02  0.1130116E+00
         25   -1    0    0    0    0  0.00000000000E+00  0.00000000000E+00  0.99999998245E-14  0.12500000000E+03  0.12500000000E+03 0.  0.
        -11    1    1    0    0    0  0.99223432977E+00  0.16102616503E+02 -0.25550714299E+01  0.16334233300E+02  0.51100000000E-03 0.  1.
         11    1    1    0    0    0  0.28032924605E+01  0.45511542053E+02 -0.72193564380E+01  0.46165766714E+02  0.51100000000E-03 0. -1.
         22    1    1    0    0    0 -0.37955267902E+01 -0.61614158556E+02  0.97744278679E+01  0.62499999987E+02  0.00000000000E+00 0. -1.
</event>
<event>
 4    1  0.1988088E-002  0.9118800E+02  0.7818608E-02  0.1130116E+00
         25   -1    0    0    0    0  0.00000000000E+00  0.00000000000E+00  0.99999998245E-14  0.12500000000E+03  0.12500000000E+03 0.  0.
        -11    1    1    0    0    0  0.12384841816E+02 -0.53006636178E+01  0.19558707859E+02  0.23749197775E+02  0.51100000000E-03 0. -1.
         11    1    1    0    0    0  0.20328396099E+02 -0.52310473406E+01  0.32608771519E+02  0.38780659155E+02  0.51100000000E-03 0.  1.
         22    1    1    0    0    0 -0.32713237915E+02  0.10531710958E+02 -0.52167479378E+02  0.62470143070E+02  0.00000000000E+00 0.  1.
</event>
<event>
 4    1  0.1988088E-002  0.9118800E+02  0.7818608E-02  0.1130116E+00
         25   -1    0    0    0    0  0.00000000000E+00  0.00000000000E+00  0.99999998245E-14  0.12500000000E+03  0.12500000000E+03 0.  0.
        -11    1    1    0    0    0  0.15820374132E+01 -0.30918047644E+01  0.23833538805E+02  0.24085258382E+02  0.51100000000E-03 0.  1.
         11    1    1    0    0    0  0.25264812840E+01 -0.49279040031E+01  0.38013484875E+02  0.38414741677E+02  0.51100000000E-03 0.  1.
         22    1    1    0    0    0 -0.41085186971E+01  0.80197087675E+01 -0.61847023680E+02  0.62499999941E+02  0.00000000000E+00 0.  1.
</event>
<event>
 4    1  0.1988088E-002  0.9118800E+02  0.7818608E-02  0.1130116E+00
         25   -1    0    0    0    0  0.00000000000E+00  0.00000000000E+00  0.99999998245E-14  0.12500000000E+03  0.12500000000E+03 0.  0.
        -11    1    1    0    0    0 -0.39938315012E+00  0.16058373252E+00 -0.15955516285E-01  0.43075384545E+00  0.51100000000E-03 0. -1.
         11    1    1    0    0    0 -0.57691107435E+02  0.22780272526E+02 -0.23210253836E+01  0.62069250459E+02  0.51100000000E-03 0.  1.
         22    1    1    0    0    0  0.58090490585E+02 -0.22940856258E+02  0.23369808999E+01  0.62499995696E+02  0.00000000000E+00 0.  1.
</event>
<event>
 4    1  0.1988088E-002  0.9118800E+02  0.7818608E-02  0.1130116E+00
         25   -1    0    0    0    0  0.00000000000E+00  0.00000000000E+00  0.99999998245E-14  0.12500000000E+03  0.12500000000E+03 0.  0.
        -11    1    1    0    0    0  0.82144952516E+01  0.28580507076E+00  0.36519255569E+02  0.37432815074E+02  0.51100000000E-03 0.  1.
         11    1    1    0    0    0  0.31894445083E+02 -0.68349524186E+01  0.45878476575E+00  0.32621813031E+02  0.51100000000E-03 0. -1.
         22    1    1    0    0    0 -0.40108940334E+02  0.65491473478E+01 -0.36978040335E+02  0.54945371895E+02  0.00000000000E+00 0. -1.
</event>
<event>
 4    1  0.1988088E-002  0.9118800E+02  0.7818608E-02  0.1130116E+00
         25   -1    0    0    0    0  0.00000000000E+00  0.00000000000E+00  0.99999998245E-14  0.12500000000E+03  0.12500000000E+03 0.  0.
        -11    1    1    0    0    0 -0.49140547031E+02 -0.19307316527E+01 -0.11906372462E+01  0.49192872497E+02  0.51100000000E-03 0.  1.
         11    1    1    0    0    0 -0.13295567884E+02 -0.47514382748E+00 -0.28824107575E+00  0.13307177394E+02  0.51100000000E-03 0. -1.
         22    1    1    0    0    0  0.62436114915E+02  0.24058754802E+01  0.14788783220E+01  0.62499950109E+02  0.00000000000E+00 0.  1.
</event>
<event>
 4    1  0.1988088E-002  0.9118800E+02  0.7818608E-02  0.1130116E+00
         25   -1    0    0    0    0  0.00000000000E+00  0.00000000000E+00  0.99999998245E-14  0.12500000000E+03  0.12500000000E+03 0.  0.
        -11    1    1    0    0    0  0.28885869598E+01 -0.66770801052E+01 -0.23176067923E+01  0.76353542721E+01  0.51100000000E-03 0.  1.
         11    1    1    0    0    0  0.14752615415E+02 -0.50868520405E+02 -0.14418763821E+02  0.54892137690E+02  0.51100000000E-03 0. -1.
         22    1    1    0    0    0 -0.17641202375E+02  0.57545600510E+02  0.16736370613E+02  0.62472508038E+02  0.00000000000E+00 0. -1.
</event>
<event>
 4    1  0.1988088E-002  0.9118800E+02  0.7818608E-02  0.1130116E+00
         25   -1    0    0    0    0  0.00000000000E+00  0.00000000000E+00  0.99999998245E-14  0.12500000000E+03  0.12500000000E+03 0.  0.
        -11    1    1    0    0    0 -0.30362361978E+01 -0.93575725228E+01  0.48559617205E+01  0.10971019016E+02  0.51100000000E-03 0. -1.
         11    1    1    0    0    0 -0.14992243390E+02 -0.44154788982E+02  0.21930373777E+02  0.51530127558E+02  0.51100000000E-03 0.  1.
         22    1    1    0    0    0  0.18028479588E+02  0.53512361505E+02 -0.26786335497E+02  0.62498853425E+02  0.00000000000E+00 0.  1.
</event>
<event>
 4    1  0.1988088E-002  0.9118800E+02  0.7818608E-02  0.1130116E+00
         25   -1    0    0    0    0  0.00000000000E+00  0.00000000000E+00  0.99999998245E-14  0.12500000000E+03  0.12500000000E+03 0.  0.
        -11    1    1    0    0    0  0.21055544067E+01 -0.50797064434E+02  0.18782778495E+01  0.50875367738E+02  0.51100000000E-03 0. -1.
         11    1    1    0    0    0  0.47443388762E+00 -0.11607273295E+02  0.42217581616E+00  0.11624633910E+02  0.51100000000E-03 0.  1.
         22    1    1    0    0    0 -0.25799882943E+01  0.62404337729E+02 -0.23004536656E+01  0.62499998353E+02  0.00000000000E+00 0. -1.
</event>
<event>
 4    1  0.1988088E-002  0.9118800E+02  0.7818608E-02  0.1130116E+00
         25   -1    0    0    0    0  0.00000000000E+00  0.00000000000E+00  0.99999998245E-14  0.12500000000E+03  0.12500000000E+03 0.  0.
        -11    1    1    0    0    0 -0.31822029830E+02 -0.40956175439E+01  0.28916182730E+02  0.43192143840E+02  0.51100000000E-03 0.  1.
         11    1    1    0    0    0 -0.14230067881E+02 -0.18251471585E+01  0.12921584352E+02  0.19307856859E+02  0.51100000000E-03 0. -1.
         22    1    1    0    0    0  0.46052097711E+02  0.59207647025E+01 -0.41837767082E+02  0.62499999301E+02  0.00000000000E+00 0.  1.
</event>
<event>
 4    1  0.1988088E-002  0.9118800E+02  0.7818608E-02  0.1130116E+00
         25   -1    0    0    0    0  0.00000000000E+00  0.00000000000E+00  0.99999998245E-14  0.12500000000E+03  0.12500000000E+03 0.  0.
        -11    1    1    0    0    0  0.38923481223E+01 -0.15118337634E+02  0.43172604356E+02  0.45908477146E+02  0.51100000000E-03 0. -1.
         11    1    1    0    0    0  0.14408495768E+01 -0.54515522234E+01  0.15603962487E+02  0.16591537443E+02  0.51100000000E-03 0.  1.
         22    1    1    0    0    0 -0.53331976991E+01  0.20569889857E+02 -0.58776566844E+02  0.62499985411E+02  0.00000000000E+00 0. -1.
</event>
<event>
 4    1  0.1988088E-002  0.9118800E+02  0.7818608E-02  0.1130116E+00
         25   -1    0    0    0    0  0.00000000000E+00  0.00000000000E+00  0.99999998245E-14  0.12500000000E+03  0.12500000000E+03 0.  0.
        -11    1    1    0    0    0  0.42112409676E+01 -0.17129815949E+02 -0.36046924300E+02  0.40131607203E+02  0.51100000000E-03 0. -1.
         11    1    1    0    0    0  0.23478959499E+01 -0.95478313130E+01 -0.20091572816E+02  0.22368392804E+02  0.51100000000E-03 0. -1.
         22    1    1    0    0    0 -0.65591369175E+01  0.26677647262E+02  0.56138497116E+02  0.62499999992E+02  0.00000000000E+00 0. -1.
</event>
<event>
 4    1  0.1988088E-002  0.9118800E+02  0.7818608E-02  0.1130116E+00
         25   -1    0    0    0    0  0.00000000000E+00  0.00000000000E+00  0.99999998245E-14  0.12500000000E+03  0.12500000000E+03 0.  0.
        -11    1    1    0    0    0  0.77032092119E+01 -0.46567904883E+01  0.59122126926E+01  0.10769372730E+02  0.51100000000E-03 0. -1.
         11    1    1    0    0    0  0.36997409137E+02 -0.22375561233E+02  0.28400418675E+02  0.51730627336E+02  0.51100000000E-03 0.  1.
         22    1    1    0    0    0 -0.44700618349E+02  0.27032351722E+02 -0.34312631368E+02  0.62499999934E+02  0.00000000000E+00 0.  1.
</event>
<event>
 4    1  0.1988088E-002  0.9118800E+02  0.7818608E-02  0.1130116E+00
         25   -1    0    0    0    0  0.00000000000E+00  0.00000000000E+00  0.99999998245E-14  0.12500000000E+03  0.12500000000E+03 0.  0.
        -11    1    1    0    0    0 -0.89352642444E+01  0.38880096433E+01 -0.11320294494E+02  0.14936687510E+02  0.51100000000E-03 0. -1.
         11    1    1    0    0    0 -0.28475842339E+02  0.12366003271E+02 -0.36034388731E+02  0.47563313650E+02  0.51100000000E-03 0. -1.
         22    1    1    0    0    0  0.37411106583E+02 -0.16254012915E+02  0.47354683225E+02  0.62499998840E+02  0.00000000000E+00 0. -1.
</event>
<event>
 4    1  0.1988088E-002  0.9118800E+02  0.7818608E-02  0.1130116E+00
         25   -1    0    0    0    0  0.00000000000E+00  0.00000000000E+00  0.99999998245E-14  0.12500000000E+03  0.12500000000E+03 0.  0.
        -11    1    1    0    0    0 -0.10165661197E+02  0.15829416823E+02  0.25421924502E+02  0.31625707109E+02  0.51100000000E-03 0.  1.
         11    1    1    0    0    0 -0.12055841084E+02  0.13519190391E+02  0.25044363753E+02  0.30908444948E+02  0.51100000000E-03 0. -1.
         22    1    1    0    0    0  0.22221502281E+02 -0.29348607214E+02 -0.50466288255E+02  0.62465847943E+02  0.00000000000E+00 0.  1.
</event>
<event>
 4    1  0.1988088E-002  0.9118800E+02  0.7818608E-02  0.1130116E+00
         25   -1    0    0    0    0  0.00000000000E+00  0.00000000000E+00  0.99999998245E-14  0.12500000000E+03  0.12500000000E+03 0.  0.
        -11    1    1    0    0    0  0.48928257453E+01  0.22709522168E+01  0.21120731002E+02  0.21798675329E+02  0.51100000000E-03 0. -1.
         11    1    1    0    0    0  0.13337231585E+02  0.63343478625E+01  0.37984272630E+02  0.40753044999E+02  0.51100000000E-03 0.  1.
         22    1    1    0    0    0 -0.18230057330E+02 -0.86053000793E+01 -0.59105003632E+02  0.62448279673E+02  0.00000000000E+00 0.  1.
</event>
<event>
 4    1  0.1988088E-002  0.9118800E+02  0.7818608E-02  0.1130116E+00
         25   -1    0    0    0    0  0.00000000000E+00  0.00000000000E+00  0.99999998245E-14  0.12500000000E+03  0.12500000000E+03 0.  0.
        -11    1    1    0    0    0 -0.26020751550E+02 -0.29662363051E+02  0.47250640985E+02  0.61559388940E+02  0.51100000000E-03 0. -1.
         11    1    1    0    0    0 -0.39348267701E+00 -0.46335984938E+00  0.71783378204E+00  0.94064688746E+00  0.51100000000E-03 0.  1.
         22    1    1    0    0    0  0.26414234227E+02  0.30125722901E+02 -0.47968474767E+02  0.62499964172E+02  0.00000000000E+00 0. -1.
</event>
<event>
 4    1  0.1988088E-002  0.9118800E+02  0.7818608E-02  0.1130116E+00
         25   -1    0    0    0    0  0.00000000000E+00  0.00000000000E+00  0.99999998245E-14  0.12500000000E+03  0.12500000000E+03 0.  0.
        -11    1    1    0    0    0 -0.27829022878E+02 -0.22080367833E+02 -0.62133517288E+01  0.36063872475E+02  0.51100000000E-03 0. -1.
         11    1    1    0    0    0 -0.20405654636E+02 -0.16192843339E+02 -0.45023034455E+01  0.26436142932E+02  0.51100000000E-03 0.  1.
         22    1    1    0    0    0  0.48234677514E+02  0.38273211172E+02  0.10715655174E+02  0.62499984593E+02  0.00000000000E+00 0.  1.
</event>
<event>
 4    1  0.1988088E-002  0.9118800E+02  0.7818608E-02  0.1130116E+00
         25   -1    0    0    0    0  0.00000000000E+00  0.00000000000E+00  0.99999998245E-14  0.12500000000E+03  0.12500000000E+03 0.  0.
        -11    1    1    0    0    0  0.65831829937E+00  0.48946660025E+02 -0.32544430565E+02  0.58782215607E+02  0.51100000000E-03 0.  1.
         11    1    1    0    0    0  0.97986676714E-01  0.30484367093E+01 -0.21269966970E+01  0.37184247969E+01  0.51100000000E-03 0. -1.
         22    1    1    0    0    0 -0.75630497608E+00 -0.51995096734E+02  0.34671427262E+02  0.62499359597E+02  0.00000000000E+00 0. -1.
</event>
<event>
 4    1  0.1988088E-002  0.9118800E+02  0.7818608E-02  0.1130116E+00
         25   -1    0    0    0    0  0.00000000000E+00  0.00000000000E+00  0.99999998245E-14  0.12500000000E+03  0.12500000000E+03 0.  0.
        -11    1    1    0    0    0  0.57077012796E+02  0.23836973536E+02  0.47232479610E+01  0.62034633622E+02  0.51100000000E-03 0. -1.
         11    1    1    0    0    0  0.43953597453E+00  0.15457133478E+00  0.11277513977E-01  0.46605966773E+00  0.51100000000E-03 0.  1.
         22    1    1    0    0    0 -0.57516548771E+02 -0.23991544871E+02 -0.47345254750E+01  0.62499306710E+02  0.00000000000E+00 0. -1.
</event>
<event>
 4    1  0.1988088E-002  0.9118800E+02  0.7818608E-02  0.1130116E+00
         25   -1    0    0    0    0  0.00000000000E+00  0.00000000000E+00  0.99999998245E-14  0.12500000000E+03  0.12500000000E+03 0.  0.
        -11    1    1    0    0    0  0.12391991080E+02 -0.87555991621E+01 -0.17945160340E+02  0.23500015734E+02  0.51100000000E-03 0. -1.
         11    1    1    0    0    0  0.13080378822E+02 -0.17966364251E+02 -0.32265309356E+02  0.39178268755E+02  0.51100000000E-03 0.  1.
         22    1    1    0    0    0 -0.25472369902E+02  0.26721963413E+02  0.50210469697E+02  0.62321715511E+02  0.00000000000E+00 0. -1.
</event>
<event>
 4    1  0.1988088E-002  0.9118800E+02  0.7818608E-02  0.1130116E+00
         25   -1    0    0    0    0  0.00000000000E+00  0.00000000000E+00  0.99999998245E-14  0.12500000000E+03  0.12500000000E+03 0.  0.
        -11    1    1    0    0    0  0.21907834837E+01 -0.79542777999E+00 -0.26276045227E+01  0.35123415857E+01  0.51100000000E-03 0. -1.
         11    1    1    0    0    0  0.36791947656E+02 -0.13901858003E+02 -0.43961845426E+02  0.58987735350E+02  0.51100000000E-03 0.  1.
         22    1    1    0    0    0 -0.38982731139E+02  0.14697285783E+02  0.46589449949E+02  0.62499923064E+02  0.00000000000E+00 0.  1.
</event>
<event>
 4    1  0.1988088E-002  0.9118800E+02  0.7818608E-02  0.1130116E+00
         25   -1    0    0    0    0  0.00000000000E+00  0.00000000000E+00  0.99999998245E-14  0.12500000000E+03  0.12500000000E+03 0.  0.
        -11    1    1    0    0    0  0.63546008568E+00 -0.11306697081E+00  0.82242503904E+00  0.10454553392E+01  0.51100000000E-03 0. -1.
         11    1    1    0    0    0  0.37356246538E+02 -0.66628287686E+01  0.48340238175E+02  0.61454544744E+02  0.51100000000E-03 0.  1.
         22    1    1    0    0    0 -0.37991706624E+02  0.67758957394E+01 -0.49162663214E+02  0.62499999917E+02  0.00000000000E+00 0.  1.
</event>
<event>
 4    1  0.1988088E-002  0.9118800E+02  0.7818608E-02  0.1130116E+00
         25   -1    0    0    0    0  0.00000000000E+00  0.00000000000E+00  0.99999998245E-14  0.12500000000E+03  0.12500000000E+03 0.  0.
        -11    1    1    0    0    0 -0.54460488714E+01  0.20094050458E+02  0.23580984575E+02  0.31456209974E+02  0.51100000000E-03 0.  1.
         11    1    1    0    0    0 -0.26806240078E+01  0.19971520498E+02  0.23654565644E+02  0.31073877327E+02  0.51100000000E-03 0. -1.
         22    1    1    0    0    0  0.81266728791E+01 -0.40065570956E+02 -0.47235550219E+02  0.62469912699E+02  0.00000000000E+00 0.  1.
</event>
<event>
 4    1  0.1988088E-002  0.9118800E+02  0.7818608E-02  0.1130116E+00
         25   -1    0    0    0    0  0.00000000000E+00  0.00000000000E+00  0.99999998245E-14  0.12500000000E+03  0.12500000000E+03 0.  0.
        -11    1    1    0    0    0 -0.88939380472E+01 -0.33086255086E+01 -0.50197863583E+01  0.10735333814E+02  0.51100000000E-03 0.  1.
         11    1    1    0    0    0 -0.42933281475E+02 -0.16115628091E+02 -0.24012624934E+02  0.51764720452E+02  0.51100000000E-03 0. -1.
         22    1    1    0    0    0  0.51827219522E+02  0.19424253600E+02  0.29032411293E+02  0.62499945734E+02  0.00000000000E+00 0. -1.
</event>
<event>
 4    1  0.1988088E-002  0.9118800E+02  0.7818608E-02  0.1130116E+00
         25   -1    0    0    0    0  0.00000000000E+00  0.00000000000E+00  0.99999998245E-14  0.12500000000E+03  0.12500000000E+03 0.  0.
        -11    1    1    0    0    0  0.33869595743E+02 -0.23504795256E+02 -0.36634692358E+02  0.55151841313E+02  0.51100000000E-03 0. -1.
         11    1    1    0    0    0 -0.28104341735E+01  0.15079150983E+02 -0.59660422455E+01  0.16458219677E+02  0.51100000000E-03 0.  1.
         22    1    1    0    0    0 -0.31059161569E+02  0.84256442728E+01  0.42600734603E+02  0.53389939010E+02  0.00000000000E+00 0. -1.
</event>
<event>
 4    1  0.1988088E-002  0.9118800E+02  0.7818608E-02  0.1130116E+00
         25   -1    0    0    0    0  0.00000000000E+00  0.00000000000E+00  0.99999998245E-14  0.12500000000E+03  0.12500000000E+03 0.  0.
        -11    1    1    0    0    0  0.44278399218E+02  0.30974471851E+02  0.28364541472E+02  0.61029023890E+02  0.51100000000E-03 0.  1.
         11    1    1    0    0    0 -0.97063319766E+00  0.20283774989E+01  0.55762088245E+00  0.23167618332E+01  0.51100000000E-03 0. -1.
         22    1    1    0    0    0 -0.43307766021E+02 -0.33002849349E+02 -0.28922162354E+02  0.61654214277E+02  0.00000000000E+00 0.  1.
</event>
<event>
 4    1  0.1988088E-002  0.9118800E+02  0.7818608E-02  0.1130116E+00
         25   -1    0    0    0    0  0.00000000000E+00  0.00000000000E+00  0.99999998245E-14  0.12500000000E+03  0.12500000000E+03 0.  0.
        -11    1    1    0    0    0  0.49973661828E+02 -0.13345057906E+02  0.17989299440E+02  0.54763786772E+02  0.51100000000E-03 0.  1.
         11    1    1    0    0    0  0.71193126975E+01 -0.17736166137E+01  0.24553851935E+01  0.77368757187E+01  0.51100000000E-03 0. -1.
         22    1    1    0    0    0 -0.57092974525E+02  0.15118674519E+02 -0.20444684634E+02  0.62499337510E+02  0.00000000000E+00 0.  1.
</event>
<event>
 4    1  0.1988088E-002  0.9118800E+02  0.7818608E-02  0.1130116E+00
         25   -1    0    0    0    0  0.00000000000E+00  0.00000000000E+00  0.99999998245E-14  0.12500000000E+03  0.12500000000E+03 0.  0.
        -11    1    1    0    0    0 -0.22672555083E+02  0.51102483711E+01 -0.22574850784E+02  0.32400359266E+02  0.51100000000E-03 0. -1.
         11    1    1    0    0    0 -0.21063107548E+02  0.47478026551E+01 -0.20971224163E+02  0.30099640742E+02  0.51100000000E-03 0.  1.
         22    1    1    0    0    0  0.43735662631E+02 -0.98580510262E+01  0.43546074947E+02  0.62499999992E+02  0.00000000000E+00 0.  1.
</event>
<event>
 4    1  0.1988088E-002  0.9118800E+02  0.7818608E-02  0.1130116E+00
         25   -1    0    0    0    0  0.00000000000E+00  0.00000000000E+00  0.99999998245E-14  0.12500000000E+03  0.12500000000E+03 0.  0.
        -11    1    1    0    0    0  0.10760894092E+00  0.33735810630E+01  0.67883206759E+01  0.75811560288E+01  0.51100000000E-03 0. -1.
         11    1    1    0    0    0 -0.19443614670E+01  0.23758021751E+02  0.49480693638E+02  0.54923248103E+02  0.51100000000E-03 0.  1.
         22    1    1    0    0    0  0.18367525261E+01 -0.27131602814E+02 -0.56269014314E+02  0.62495595868E+02  0.00000000000E+00 0.  1.
</event>
<event>
 4    1  0.1988088E-002  0.9118800E+02  0.7818608E-02  0.1130116E+00
         25   -1    0    0    0    0  0.00000000000E+00  0.00000000000E+00  0.99999998245E-14  0.12500000000E+03  0.12500000000E+03 0.  0.
        -11    1    1    0    0    0 -0.37441531277E+01 -0.45279162189E+01 -0.38558110658E+01  0.70276587257E+01  0.51100000000E-03 0.  1.
         11    1    1    0    0    0 -0.32433005013E+02 -0.30479516821E+02 -0.33146882627E+02  0.55494293292E+02  0.51100000000E-03 0. -1.
         22    1    1    0    0    0  0.36177158141E+02  0.35007433040E+02  0.37002693693E+02  0.62478047982E+02  0.00000000000E+00 0. -1.
</event>
<event>
 4    1  0.1988088E-002  0.9118800E+02  0.7818608E-02  0.1130116E+00
         25   -1    0    0    0    0  0.00000000000E+00  0.00000000000E+00  0.99999998245E-14  0.12500000000E+03  0.12500000000E+03 0.  0.
        -11    1    1    0    0    0 -0.11768195460E+01 -0.14899770738E+01 -0.37747311977E+01  0.42253439860E+01  0.51100000000E-03 0. -1.
         11    1    1    0    0    0 -0.16792641974E+02 -0.16969052794E+02 -0.53164642444E+02  0.58278819339E+02  0.51100000000E-03 0.  1.
         22    1    1    0    0    0  0.17969461520E+02  0.18459029868E+02  0.56939373641E+02  0.62495836674E+02  0.00000000000E+00 0.  1.
</event>
<event>
 4    1  0.1988088E-002  0.9118800E+02  0.7818608E-02  0.1130116E+00
         25   -1    0    0    0    0  0.00000000000E+00  0.00000000000E+00  0.99999998245E-14  0.12500000000E+03  0.12500000000E+03 0.  0.
        -11    1    1    0    0    0 -0.20874921527E+01 -0.52542226446E+01 -0.13014998120E+02  0.14189949098E+02  0.51100000000E-03 0. -1.
         11    1    1    0    0    0 -0.26471457844E+02 -0.11529723763E+02 -0.39374454587E+02  0.48826430187E+02  0.51100000000E-03 0.  1.
         22    1    1    0    0    0  0.28558949997E+02  0.16783946408E+02  0.52389452708E+02  0.61983620715E+02  0.00000000000E+00 0.  1.
</event>
<event>
 4    1  0.1988088E-002  0.9118800E+02  0.7818608E-02  0.1130116E+00
         25   -1    0    0    0    0  0.00000000000E+00  0.00000000000E+00  0.99999998245E-14  0.12500000000E+03  0.12500000000E+03 0.  0.
        -11    1    1    0    0    0 -0.13122168666E+01  0.48668447520E+01  0.24632065014E+01  0.56103010147E+01  0.51100000000E-03 0. -1.
         11    1    1    0    0    0 -0.15632821507E+02  0.52200380358E+02  0.16463146988E+02  0.56923633289E+02  0.51100000000E-03 0.  1.
         22    1    1    0    0    0  0.16945038374E+02 -0.57067225110E+02 -0.18926353489E+02  0.62466065697E+02  0.00000000000E+00 0.  1.
</event>
<event>
 4    1  0.1988088E-002  0.9118800E+02  0.7818608E-02  0.1130116E+00
         25   -1    0    0    0    0  0.00000000000E+00  0.00000000000E+00  0.99999998245E-14  0.12500000000E+03  0.12500000000E+03 0.  0.
        -11    1    1    0    0    0  0.66255617394E+01 -0.15781161473E+02 -0.22898203411E+01  0.17268074683E+02  0.51100000000E-03 0.  1.
         11    1    1    0    0    0  0.10470665349E+02 -0.44133947406E+02 -0.52169058637E+00  0.45362013930E+02  0.51100000000E-03 0. -1.
         22    1    1    0    0    0 -0.17096227089E+02  0.59915108879E+02  0.28115109275E+01  0.62369911387E+02  0.00000000000E+00 0. -1.
</event>
<event>
 4    1  0.1988088E-002  0.9118800E+02  0.7818608E-02  0.1130116E+00
         25   -1    0    0    0    0  0.00000000000E+00  0.00000000000E+00  0.99999998245E-14  0.12500000000E+03  0.12500000000E+03 0.  0.
        -11    1    1    0    0    0 -0.24002289689E+02 -0.26116273688E+01 -0.24522089098E+02  0.34413127754E+02  0.51100000000E-03 0. -1.
         11    1    1    0    0    0 -0.19603001855E+02 -0.21728838041E+01 -0.19996846934E+02  0.28086882940E+02  0.51100000000E-03 0.  1.
         22    1    1    0    0    0  0.43605291544E+02  0.47845111729E+01  0.44518936032E+02  0.62499989306E+02  0.00000000000E+00 0. -1.
</event>
<event>
 4    1  0.1988088E-002  0.9118800E+02  0.7818608E-02  0.1130116E+00
         25   -1    0    0    0    0  0.00000000000E+00  0.00000000000E+00  0.99999998245E-14  0.12500000000E+03  0.12500000000E+03 0.  0.
        -11    1    1    0    0    0  0.92732888220E+01 -0.21887034477E+02 -0.29701760717E+02  0.38042486166E+02  0.51100000000E-03 0.  1.
         11    1    1    0    0    0  0.59521942699E+01 -0.14078397716E+02 -0.19092934023E+02  0.24457514770E+02  0.51100000000E-03 0. -1.
         22    1    1    0    0    0 -0.15225483092E+02  0.35965432193E+02  0.48794694740E+02  0.62499999063E+02  0.00000000000E+00 0. -1.
</event>
<event>
 4    1  0.1988088E-002  0.9118800E+02  0.7818608E-02  0.1130116E+00
         25   -1    0    0    0    0  0.00000000000E+00  0.00000000000E+00  0.99999998245E-14  0.12500000000E+03  0.12500000000E+03 0.  0.
        -11    1    1    0    0    0 -0.26583623829E+01  0.13907510595E+02 -0.51558277259E+02  0.53467202056E+02  0.51100000000E-03 0. -1.
         11    1    1    0    0    0 -0.28911387954E+00  0.22073521241E+01 -0.87553363298E+01  0.90339307472E+01  0.51100000000E-03 0.  1.
         22    1    1    0    0    0  0.29474762625E+01 -0.16114862719E+02  0.60313613589E+02  0.62498867197E+02  0.00000000000E+00 0. -1.
</event>
<event>
 4    1  0.1988088E-002  0.9118800E+02  0.7818608E-02  0.1130116E+00
         25   -1    0    0    0    0  0.00000000000E+00  0.00000000000E+00  0.99999998245E-14  0.12500000000E+03  0.12500000000E+03 0.  0.
        -11    1    1    0    0    0 -0.64614793817E+01 -0.11172825320E+02  0.98763786669E+01  0.16251941339E+02  0.51100000000E-03 0. -1.
         11    1    1    0    0    0 -0.18417496594E+02 -0.31801672721E+02  0.28077261036E+02  0.46248061108E+02  0.51100000000E-03 0.  1.
         22    1    1    0    0    0  0.24878975976E+02  0.42974498041E+02 -0.37953639703E+02  0.62499997554E+02  0.00000000000E+00 0.  1.
</event>
<event>
 4    1  0.1988088E-002  0.9118800E+02  0.7818608E-02  0.1130116E+00
         25   -1    0    0    0    0  0.00000000000E+00  0.00000000000E+00  0.99999998245E-14  0.12500000000E+03  0.12500000000E+03 0.  0.
        -11    1    1    0    0    0  0.85290605490E+01 -0.47432500333E+02 -0.18294250655E+02  0.51548681544E+02  0.51100000000E-03 0.  1.
         11    1    1    0    0    0  0.22189991123E+01 -0.10088855703E+02 -0.36488493221E+01  0.10955504009E+02  0.51100000000E-03 0. -1.
         22    1    1    0    0    0 -0.10748059661E+02  0.57521356036E+02  0.21943099977E+02  0.62495814446E+02  0.00000000000E+00 0.  1.
</event>
<event>
 4    1  0.1988088E-002  0.9118800E+02  0.7818608E-02  0.1130116E+00
         25   -1    0    0    0    0  0.00000000000E+00  0.00000000000E+00  0.99999998245E-14  0.12500000000E+03  0.12500000000E+03 0.  0.
        -11    1    1    0    0    0 -0.13931783013E+01 -0.81524523330E+00  0.14579726146E+01  0.21751448172E+01  0.51100000000E-03 0. -1.
         11    1    1    0    0    0 -0.38528562937E+02 -0.21912522845E+02  0.40920558499E+02  0.60324961066E+02  0.51100000000E-03 0.  1.
         22    1    1    0    0    0  0.39921741239E+02  0.22727768079E+02 -0.42378531113E+02  0.62499894117E+02  0.00000000000E+00 0.  1.
</event>
<event>
 4    1  0.1988088E-002  0.9118800E+02  0.7818608E-02  0.1130116E+00
         25   -1    0    0    0    0  0.00000000000E+00  0.00000000000E+00  0.99999998245E-14  0.12500000000E+03  0.12500000000E+03 0.  0.
        -11    1    1    0    0    0 -0.43335426133E+01 -0.56328431420E+01  0.17829230141E+01  0.73271637199E+01  0.51100000000E-03 0. -1.
         11    1    1    0    0    0 -0.32187440182E+02 -0.42633516847E+02  0.13799142753E+02  0.55173040565E+02  0.51100000000E-03 0.  1.
         22    1    1    0    0    0  0.36520982795E+02  0.48266359989E+02 -0.15582065767E+02  0.62499795715E+02  0.00000000000E+00 0.  1.
</event>
<event>
 4    1  0.1988088E-002  0.9118800E+02  0.7818608E-02  0.1130116E+00
         25   -1    0    0    0    0  0.00000000000E+00  0.00000000000E+00  0.99999998245E-14  0.12500000000E+03  0.12500000000E+03 0.  0.
        -11    1    1    0    0    0  0.53478781920E+02  0.30120655861E+02 -0.10422333460E+02  0.62256397745E+02  0.51100000000E-03 0.  1.
         11    1    1    0    0    0 -0.38364772601E+00 -0.84348204769E+00 -0.61906282546E+00  0.11143996525E+01  0.51100000000E-03 0. -1.
         22    1    1    0    0    0 -0.53095134194E+02 -0.29277173814E+02  0.11041396286E+02  0.61629202603E+02  0.00000000000E+00 0.  1.
</event>
<event>
 4    1  0.1988088E-002  0.9118800E+02  0.7818608E-02  0.1130116E+00
         25   -1    0    0    0    0  0.00000000000E+00  0.00000000000E+00  0.99999998245E-14  0.12500000000E+03  0.12500000000E+03 0.  0.
        -11    1    1    0    0    0  0.74675637065E+00  0.14541816383E+00  0.22550926455E+00  0.79350249463E+00  0.51100000000E-03 0. -1.
         11    1    1    0    0    0  0.58129073435E+02  0.11199721581E+02  0.17414622972E+02  0.61706499134E+02  0.51100000000E-03 0.  1.
         22    1    1    0    0    0 -0.58875829805E+02 -0.11345139745E+02 -0.17640132237E+02  0.62499998371E+02  0.00000000000E+00 0.  1.
</event>
<event>
 4    1  0.1988088E-002  0.9118800E+02  0.7818608E-02  0.1130116E+00
         25   -1    0    0    0    0  0.00000000000E+00  0.00000000000E+00  0.99999998245E-14  0.12500000000E+03  0.12500000000E+03 0.  0.
        -11    1    1    0    0    0 -0.19394576104E+02 -0.47217249572E+01  0.11964597027E+01  0.19996894381E+02  0.51100000000E-03 0. -1.
         11    1    1    0    0    0 -0.41223156769E+02 -0.10034654305E+02  0.25438252288E+01  0.42503105628E+02  0.51100000000E-03 0.  1.
         22    1    1    0    0    0  0.60617732872E+02  0.14756379262E+02 -0.37402849315E+01  0.62499999991E+02  0.00000000000E+00 0.  1.
</event>
<event>
 4    1  0.1988088E-002  0.9118800E+02  0.7818608E-02  0.1130116E+00
         25   -1    0    0    0    0  0.00000000000E+00  0.00000000000E+00  0.99999998245E-14  0.12500000000E+03  0.12500000000E+03 0.  0.
        -11    1    1    0    0    0  0.82437574177E+01 -0.73981037564E+01  0.43163972194E+01  0.11887924998E+02  0.51100000000E-03 0. -1.
         11    1    1    0    0    0  0.28120298546E+02 -0.36028092531E+02  0.21922373121E+02  0.50688904952E+02  0.51100000000E-03 0.  1.
         22    1    1    0    0    0 -0.36364055964E+02  0.43426196287E+02 -0.26238770340E+02  0.62423170050E+02  0.00000000000E+00 0. -1.
</event>
<event>
 4    1  0.1988088E-002  0.9118800E+02  0.7818608E-02  0.1130116E+00
         25   -1    0    0    0    0  0.00000000000E+00  0.00000000000E+00  0.99999998245E-14  0.12500000000E+03  0.12500000000E+03 0.  0.
        -11    1    1    0    0    0 -0.12976197638E+02 -0.14639387586E+02 -0.31888855749E+02  0.37411127961E+02  0.51100000000E-03 0.  1.
         11    1    1    0    0    0 -0.84220034975E+01 -0.10102800633E+02 -0.21365924666E+02  0.25089827832E+02  0.51100000000E-03 0. -1.
         22    1    1    0    0    0  0.21398201135E+02  0.24742188220E+02  0.53254780415E+02  0.62499044207E+02  0.00000000000E+00 0.  1.
</event>
<event>
 4    1  0.1988088E-002  0.9118800E+02  0.7818608E-02  0.1130116E+00
         25   -1    0    0    0    0  0.00000000000E+00  0.00000000000E+00  0.99999998245E-14  0.12500000000E+03  0.12500000000E+03 0.  0.
        -11    1    1    0    0    0 -0.12892994703E+02 -0.59555533556E+02 -0.37174300093E+01  0.61048424842E+02  0.51100000000E-03 0. -1.
         11    1    1    0    0    0  0.31862250080E+01  0.27507523203E+02 -0.74093817746E+01  0.28665568215E+02  0.51100000000E-03 0.  1.
         22    1    1    0    0    0  0.97067696948E+01  0.32048010353E+02  0.11126811784E+02  0.35286006943E+02  0.00000000000E+00 0. -1.
</event>
<event>
 4    1  0.1988088E-002  0.9118800E+02  0.7818608E-02  0.1130116E+00
         25   -1    0    0    0    0  0.00000000000E+00  0.00000000000E+00  0.99999998245E-14  0.12500000000E+03  0.12500000000E+03 0.  0.
        -11    1    1    0    0    0 -0.31750927763E+02 -0.48146329388E+02 -0.14597084127E+02  0.59491724741E+02  0.51100000000E-03 0. -1.
         11    1    1    0    0    0 -0.16101576306E+01 -0.24290645206E+01 -0.74619945626E+00  0.30082845494E+01  0.51100000000E-03 0.  1.
         22    1    1    0    0    0  0.33361085393E+02  0.50575393909E+02  0.15343283583E+02  0.62499990710E+02  0.00000000000E+00 0. -1.
</event>
<event>
 4    1  0.1988088E-002  0.9118800E+02  0.7818608E-02  0.1130116E+00
         25   -1    0    0    0    0  0.00000000000E+00  0.00000000000E+00  0.99999998245E-14  0.12500000000E+03  0.12500000000E+03 0.  0.
        -11    1    1    0    0    0  0.23951506143E+01  0.93036773226E+01 -0.21153841105E+02  0.23233169218E+02  0.51100000000E-03 0.  1.
         11    1    1    0    0    0  0.40226869473E+01  0.15726991253E+02 -0.35754214540E+02  0.39266832337E+02  0.51100000000E-03 0. -1.
         22    1    1    0    0    0 -0.64178375616E+01 -0.25030668576E+02  0.56908055645E+02  0.62499998445E+02  0.00000000000E+00 0. -1.
</event>
<event>
 4    1  0.1988088E-002  0.9118800E+02  0.7818608E-02  0.1130116E+00
         25   -1    0    0    0    0  0.00000000000E+00  0.00000000000E+00  0.99999998245E-14  0.12500000000E+03  0.12500000000E+03 0.  0.
        -11    1    1    0    0    0 -0.14527661401E+01 -0.23826941629E+01 -0.15967746505E+01  0.32151905818E+01  0.51100000000E-03 0.  1.
         11    1    1    0    0    0 -0.50226790776E+02 -0.32097212148E+02  0.23732695382E+01  0.59653951654E+02  0.51100000000E-03 0. -1.
         22    1    1    0    0    0  0.51679556916E+02  0.34479906311E+02 -0.77649488772E+00  0.62130857765E+02  0.00000000000E+00 0. -1.
</event>
<event>
 4    1  0.1988088E-002  0.9118800E+02  0.7818608E-02  0.1130116E+00
         25   -1    0    0    0    0  0.00000000000E+00  0.00000000000E+00  0.99999998245E-14  0.12500000000E+03  0.12500000000E+03 0.  0.
        -11    1    1    0    0    0 -0.12900771415E+02 -0.94252982407E+01 -0.50280541415E+01  0.16749551598E+02  0.51100000000E-03 0.  1.
         11    1    1    0    0    0 -0.35225211563E+02 -0.25766030187E+02 -0.13725879883E+02  0.45750449398E+02  0.51100000000E-03 0. -1.
         22    1    1    0    0    0  0.48125982978E+02  0.35191328428E+02  0.18753934024E+02  0.62499999004E+02  0.00000000000E+00 0. -1.
</event>
<event>
 4    1  0.1988088E-002  0.9118800E+02  0.7818608E-02  0.1130116E+00
         25   -1    0    0    0    0  0.00000000000E+00  0.00000000000E+00  0.99999998245E-14  0.12500000000E+03  0.12500000000E+03 0.  0.
        -11    1    1    0    0    0 -0.58495705870E+01 -0.29054980388E+02 -0.34666102175E+02  0.45608639551E+02  0.51100000000E-03 0. -1.
         11    1    1    0    0    0  0.56593943633E+01  0.14059836020E+02 -0.18635338688E+02  0.24020482546E+02  0.51100000000E-03 0.  1.
         22    1    1    0    0    0  0.19017622363E+00  0.14995144367E+02  0.53301440864E+02  0.55370877903E+02  0.00000000000E+00 0. -1.
</event>
<event>
 4    1  0.1988088E-002  0.9118800E+02  0.7818608E-02  0.1130116E+00
         25   -1    0    0    0    0  0.00000000000E+00  0.00000000000E+00  0.99999998245E-14  0.12500000000E+03  0.12500000000E+03 0.  0.
        -11    1    1    0    0    0  0.26171876569E+02 -0.39203535542E+02 -0.22959462951E+02  0.52431109672E+02  0.51100000000E-03 0. -1.
         11    1    1    0    0    0  0.49660118933E+01 -0.76517894453E+01 -0.42647408669E+01  0.10069715525E+02  0.51100000000E-03 0.  1.
         22    1    1    0    0    0 -0.31137888462E+02  0.46855324987E+02  0.27224203818E+02  0.62499174803E+02  0.00000000000E+00 0. -1.
</event>
<event>
 4    1  0.1988088E-002  0.9118800E+02  0.7818608E-02  0.1130116E+00
         25   -1    0    0    0    0  0.00000000000E+00  0.00000000000E+00  0.99999998245E-14  0.12500000000E+03  0.12500000000E+03 0.  0.
        -11    1    1    0    0    0  0.20378195031E+02  0.29101912166E+02  0.11174721759E+02  0.37243342104E+02  0.51100000000E-03 0.  1.
         11    1    1    0    0    0  0.13896910534E+02  0.19707095674E+02  0.75105534436E+01  0.25256724958E+02  0.51100000000E-03 0. -1.
         22    1    1    0    0    0 -0.34275105565E+02 -0.48809007840E+02 -0.18685275203E+02  0.62499932938E+02  0.00000000000E+00 0. -1.
</event>
<event>
 4    1  0.1988088E-002  0.9118800E+02  0.7818608E-02  0.1130116E+00
         25   -1    0    0    0    0  0.00000000000E+00  0.00000000000E+00  0.99999998245E-14  0.12500000000E+03  0.12500000000E+03 0.  0.
        -11    1    1    0    0    0 -0.31642225004E+01 -0.18890281378E+00  0.49955368056E+01  0.59163651461E+01  0.51100000000E-03 0.  1.
         11    1    1    0    0    0 -0.30279812275E+02 -0.18179252333E+01  0.47765425545E+02  0.56583635102E+02  0.51100000000E-03 0. -1.
         22    1    1    0    0    0  0.33444034776E+02  0.20068280470E+01 -0.52760962350E+02  0.62499999752E+02  0.00000000000E+00 0. -1.
</event>
<event>
 4    1  0.1988088E-002  0.9118800E+02  0.7818608E-02  0.1130116E+00
         25   -1    0    0    0    0  0.00000000000E+00  0.00000000000E+00  0.99999998245E-14  0.12500000000E+03  0.12500000000E+03 0.  0.
        -11    1    1    0    0    0 -0.13801377633E+02  0.17214022153E+02  0.13962224581E+02  0.26110233602E+02  0.51100000000E-03 0. -1.
         11    1    1    0    0    0 -0.19117947617E+02  0.23964917036E+02  0.19606362759E+02  0.36389869889E+02  0.51100000000E-03 0.  1.
         22    1    1    0    0    0  0.32919325250E+02 -0.41178939189E+02 -0.33568587340E+02  0.62499896509E+02  0.00000000000E+00 0. -1.
</event>
<event>
 4    1  0.1988088E-002  0.9118800E+02  0.7818608E-02  0.1130116E+00
         25   -1    0    0    0    0  0.00000000000E+00  0.00000000000E+00  0.99999998245E-14  0.12500000000E+03  0.12500000000E+03 0.  0.
        -11    1    1    0    0    0 -0.35679282442E+00 -0.21919762586E+00  0.68133635973E+00  0.79973008881E+00  0.51100000000E-03 0.  1.
         11    1    1    0    0    0 -0.24858444882E+02 -0.16681005321E+02  0.53951675436E+02  0.61700741512E+02  0.51100000000E-03 0. -1.
         22    1    1    0    0    0  0.25215237707E+02  0.16900202947E+02 -0.54633011796E+02  0.62499528399E+02  0.00000000000E+00 0. -1.
</event>
<event>
 4    1  0.1988088E-002  0.9118800E+02  0.7818608E-02  0.1130116E+00
         25   -1    0    0    0    0  0.00000000000E+00  0.00000000000E+00  0.99999998245E-14  0.12500000000E+03  0.12500000000E+03 0.  0.
        -11    1    1    0    0    0 -0.19874166132E+02  0.32797378221E+02 -0.41596038860E+02  0.56576328501E+02  0.51100000000E-03 0. -1.
         11    1    1    0    0    0 -0.20808791439E+01  0.34340539892E+01 -0.43551233172E+01  0.59236715119E+01  0.51100000000E-03 0. -1.
         22    1    1    0    0    0  0.21955045275E+02 -0.36231432210E+02  0.45951162177E+02  0.62499999987E+02  0.00000000000E+00 0. -1.
</event>
<event>
 4    1  0.1988088E-002  0.9118800E+02  0.7818608E-02  0.1130116E+00
         25   -1    0    0    0    0  0.00000000000E+00  0.00000000000E+00  0.99999998245E-14  0.12500000000E+03  0.12500000000E+03 0.  0.
        -11    1    1    0    0    0  0.59595081737E+01 -0.20842419517E+02  0.13574432015E+02  0.25577087281E+02  0.51100000000E-03 0.  1.
         11    1    1    0    0    0  0.85982912214E+01 -0.30091645624E+02  0.19592441029E+02  0.36922912859E+02  0.51100000000E-03 0. -1.
         22    1    1    0    0    0 -0.14557799395E+02  0.50934065141E+02 -0.33166873043E+02  0.62499999860E+02  0.00000000000E+00 0. -1.
</event>
<event>
 4    1  0.1988088E-002  0.9118800E+02  0.7818608E-02  0.1130116E+00
         25   -1    0    0    0    0  0.00000000000E+00  0.00000000000E+00  0.99999998245E-14  0.12500000000E+03  0.12500000000E+03 0.  0.
        -11    1    1    0    0    0 -0.39380079157E+02  0.29081171028E+02  0.11404153250E+02  0.50264896840E+02  0.51100000000E-03 0.  1.
         11    1    1    0    0    0 -0.95852790933E+01  0.70797855262E+01  0.27743129554E+01  0.12235103229E+02  0.51100000000E-03 0. -1.
         22    1    1    0    0    0  0.48965358250E+02 -0.36160956554E+02 -0.14178466205E+02  0.62499999931E+02  0.00000000000E+00 0.  1.
</event>
<event>
 4    1  0.1988088E-002  0.9118800E+02  0.7818608E-02  0.1130116E+00
         25   -1    0    0    0    0  0.00000000000E+00  0.00000000000E+00  0.99999998245E-14  0.12500000000E+03  0.12500000000E+03 0.  0.
        -11    1    1    0    0    0 -0.29857336241E+02  0.10690786239E+02  0.22250350174E+01  0.31791574653E+02  0.51100000000E-03 0. -1.
         11    1    1    0    0    0 -0.74666855115E+01  0.18394363074E+02  0.29989602040E+02  0.35964985975E+02  0.51100000000E-03 0.  1.
         22    1    1    0    0    0  0.37324021753E+02 -0.29085149313E+02 -0.32214637057E+02  0.57243439372E+02  0.00000000000E+00 0.  1.
</event>
<event>
 4    1  0.1988088E-002  0.9118800E+02  0.7818608E-02  0.1130116E+00
         25   -1    0    0    0    0  0.00000000000E+00  0.00000000000E+00  0.99999998245E-14  0.12500000000E+03  0.12500000000E+03 0.  0.
        -11    1    1    0    0    0  0.41258603819E+01 -0.47009319712E+02 -0.35428497012E+02  0.59009128654E+02  0.51100000000E-03 0.  1.
         11    1    1    0    0    0  0.16010141251E+00 -0.28558008793E+01 -0.20037298198E+01  0.34923007569E+01  0.51100000000E-03 0. -1.
         22    1    1    0    0    0 -0.42859617945E+01  0.49865120591E+02  0.37432226832E+02  0.62498570589E+02  0.00000000000E+00 0.  1.
</event>
<event>
 4    1  0.1988088E-002  0.9118800E+02  0.7818608E-02  0.1130116E+00
         25   -1    0    0    0    0  0.00000000000E+00  0.00000000000E+00  0.99999998245E-14  0.12500000000E+03  0.12500000000E+03 0.  0.
        -11    1    1    0    0    0  0.88616459476E+01  0.87691040128E+01  0.68631306467E+01  0.14231251407E+02  0.51100000000E-03 0.  1.
         11    1    1    0    0    0  0.30244727684E+02  0.29354074313E+02  0.23526476751E+02  0.48269041217E+02  0.51100000000E-03 0. -1.
         22    1    1    0    0    0 -0.39106373631E+02 -0.38123178326E+02 -0.30389607397E+02  0.62499707376E+02  0.00000000000E+00 0. -1.
</event>
<event>
 4    1  0.1988088E-002  0.9118800E+02  0.7818608E-02  0.1130116E+00
         25   -1    0    0    0    0  0.00000000000E+00  0.00000000000E+00  0.99999998245E-14  0.12500000000E+03  0.12500000000E+03 0.  0.
        -11    1    1    0    0    0 -0.25568502918E+01 -0.13457763256E+01  0.13537301729E+02  0.13842222931E+02  0.51100000000E-03 0.  1.
         11    1    1    0    0    0 -0.89801994597E+01 -0.47181867992E+01  0.47588591331E+02  0.48657777324E+02  0.51100000000E-03 0. -1.
         22    1    1    0    0    0  0.11537049751E+02  0.60639631248E+01 -0.61125893059E+02  0.62499999744E+02  0.00000000000E+00 0. -1.
</event>
<event>
 4    1  0.1988088E-002  0.9118800E+02  0.7818608E-02  0.1130116E+00
         25   -1    0    0    0    0  0.00000000000E+00  0.00000000000E+00  0.99999998245E-14  0.12500000000E+03  0.12500000000E+03 0.  0.
        -11    1    1    0    0    0  0.18796334537E+02  0.52214581462E+02 -0.28019249697E+02  0.62167057701E+02  0.51100000000E-03 0. -1.
         11    1    1    0    0    0 -0.86157162352E+00 -0.20069363824E+01 -0.67618919582E+00  0.22863358011E+01  0.51100000000E-03 0.  1.
         22    1    1    0    0    0 -0.17934762914E+02 -0.50207645080E+02  0.28695438893E+02  0.60546606498E+02  0.00000000000E+00 0. -1.
</event>
<event>
 4    1  0.1988088E-002  0.9118800E+02  0.7818608E-02  0.1130116E+00
         25   -1    0    0    0    0  0.00000000000E+00  0.00000000000E+00  0.99999998245E-14  0.12500000000E+03  0.12500000000E+03 0.  0.
        -11    1    1    0    0    0  0.22541963826E+01 -0.29461374338E-01 -0.38622610475E+01  0.44720610421E+01  0.51100000000E-03 0. -1.
         11    1    1    0    0    0  0.29244942838E+02 -0.38911688654E+00 -0.50118096636E+02  0.58027938997E+02  0.51100000000E-03 0.  1.
         22    1    1    0    0    0 -0.31499139221E+02  0.41857826088E+00  0.53980357684E+02  0.62499999961E+02  0.00000000000E+00 0.  1.
</event>
<event>
 4    1  0.1988088E-002  0.9118800E+02  0.7818608E-02  0.1130116E+00
         25   -1    0    0    0    0  0.00000000000E+00  0.00000000000E+00  0.99999998245E-14  0.12500000000E+03  0.12500000000E+03 0.  0.
        -11    1    1    0    0    0  0.29077123464E+02 -0.18752126527E+02  0.22909821490E+01  0.34675206671E+02  0.51100000000E-03 0.  1.
         11    1    1    0    0    0  0.23337997342E+02 -0.15044855744E+02  0.17916292759E+01  0.27824804403E+02  0.51100000000E-03 0. -1.
         22    1    1    0    0    0 -0.52415120806E+02  0.33796982271E+02 -0.40826114249E+01  0.62499988926E+02  0.00000000000E+00 0.  1.
</event>
<event>
 4    1  0.1988088E-002  0.9118800E+02  0.7818608E-02  0.1130116E+00
         25   -1    0    0    0    0  0.00000000000E+00  0.00000000000E+00  0.99999998245E-14  0.12500000000E+03  0.12500000000E+03 0.  0.
        -11    1    1    0    0    0 -0.34448030824E+01 -0.69436195385E+01 -0.30703662937E+01  0.83371260042E+01  0.51100000000E-03 0.  1.
         11    1    1    0    0    0 -0.22434577883E+02 -0.45099885662E+02 -0.19907467483E+02  0.54162876893E+02  0.51100000000E-03 0. -1.
         22    1    1    0    0    0  0.25879380965E+02  0.52043505201E+02  0.22977833777E+02  0.62499997102E+02  0.00000000000E+00 0. -1.
</event>
<event>
 4    1  0.1988088E-002  0.9118800E+02  0.7818608E-02  0.1130116E+00
         25   -1    0    0    0    0  0.00000000000E+00  0.00000000000E+00  0.99999998245E-14  0.12500000000E+03  0.12500000000E+03 0.  0.
        -11    1    1    0    0    0  0.20713609299E+02  0.25479933364E+02 -0.32442631804E+02  0.46160643118E+02  0.51100000000E-03 0. -1.
         11    1    1    0    0    0  0.73303009370E+01  0.89854377462E+01 -0.11511032783E+02  0.16339378180E+02  0.51100000000E-03 0.  1.
         22    1    1    0    0    0 -0.28043910236E+02 -0.34465371110E+02  0.43953664587E+02  0.62499978702E+02  0.00000000000E+00 0. -1.
</event>
<event>
 4    1  0.1988088E-002  0.9118800E+02  0.7818608E-02  0.1130116E+00
         25   -1    0    0    0    0  0.00000000000E+00  0.00000000000E+00  0.99999998245E-14  0.12500000000E+03  0.12500000000E+03 0.  0.
        -11    1    1    0    0    0  0.26774115572E+02  0.17898275028E+02  0.16980313405E+02  0.36407863948E+02  0.51100000000E-03 0.  1.
         11    1    1    0    0    0  0.19175521703E+02  0.12843751533E+02  0.12171158769E+02  0.26092138511E+02  0.51100000000E-03 0. -1.
         22    1    1    0    0    0 -0.45949637274E+02 -0.30742026562E+02 -0.29151472174E+02  0.62499997542E+02  0.00000000000E+00 0.  1.
</event>
<event>
 4    1  0.1988088E-002  0.9118800E+02  0.7818608E-02  0.1130116E+00
         25   -1    0    0    0    0  0.00000000000E+00  0.00000000000E+00  0.99999998245E-14  0.12500000000E+03  0.12500000000E+03 0.  0.
        -11    1    1    0    0    0 -0.32057330521E+02  0.47975697299E+02 -0.18000537727E+02  0.60443025488E+02  0.51100000000E-03 0. -1.
         11    1    1    0    0    0 -0.25202027414E+01 -0.14268683078E+01 -0.16481381134E+01  0.33322266621E+01  0.51100000000E-03 0.  1.
         22    1    1    0    0    0  0.34577533262E+02 -0.46548828992E+02  0.19648675840E+02  0.61224747850E+02  0.00000000000E+00 0. -1.
</event>
<event>
 4    1  0.1988088E-002  0.9118800E+02  0.7818608E-02  0.1130116E+00
         25   -1    0    0    0    0  0.00000000000E+00  0.00000000000E+00  0.99999998245E-14  0.12500000000E+03  0.12500000000E+03 0.  0.
        -11    1    1    0    0    0  0.51854700753E+00  0.32310332521E+00 -0.25999055479E+00  0.66398953868E+00  0.51100000000E-03 0.  1.
         11    1    1    0    0    0  0.41838679903E+02  0.40368459738E+02 -0.21081721641E+02  0.61842757581E+02  0.51100000000E-03 0. -1.
         22    1    1    0    0    0 -0.42357226911E+02 -0.40691563063E+02  0.21341712196E+02  0.62493252880E+02  0.00000000000E+00 0. -1.
</event>
<event>
 4    1  0.1988088E-002  0.9118800E+02  0.7818608E-02  0.1130116E+00
         25   -1    0    0    0    0  0.00000000000E+00  0.00000000000E+00  0.99999998245E-14  0.12500000000E+03  0.12500000000E+03 0.  0.
        -11    1    1    0    0    0 -0.38171953716E+01 -0.24948057615E+01  0.26586504121E+02  0.26974751860E+02  0.51100000000E-03 0. -1.
         11    1    1    0    0    0 -0.50266603023E+01 -0.32864754631E+01  0.35013926099E+02  0.35525248147E+02  0.51100000000E-03 0. -1.
         22    1    1    0    0    0  0.88438556738E+01  0.57812812246E+01 -0.61600430220E+02  0.62499999993E+02  0.00000000000E+00 0. -1.
</event>
<event>
 4    1  0.1988088E-002  0.9118800E+02  0.7818608E-02  0.1130116E+00
         25   -1    0    0    0    0  0.00000000000E+00  0.00000000000E+00  0.99999998245E-14  0.12500000000E+03  0.12500000000E+03 0.  0.
        -11    1    1    0    0    0  0.22231804134E+02 -0.65422883052E+01  0.35375709360E+02  0.42290607282E+02  0.51100000000E-03 0. -1.
         11    1    1    0    0    0  0.10589831966E+02 -0.31160191041E+01  0.16928261878E+02  0.20209407873E+02  0.51100000000E-03 0.  1.
         22    1    1    0    0    0 -0.32821636100E+02  0.96583074093E+01 -0.52303971238E+02  0.62499984844E+02  0.00000000000E+00 0. -1.
</event>
<event>
 4    1  0.1988088E-002  0.9118800E+02  0.7818608E-02  0.1130116E+00
         25   -1    0    0    0    0  0.00000000000E+00  0.00000000000E+00  0.99999998245E-14  0.12500000000E+03  0.12500000000E+03 0.  0.
        -11    1    1    0    0    0  0.40749608735E+00 -0.39743861872E+02 -0.25827210069E+02  0.47400267824E+02  0.51100000000E-03 0. -1.
         11    1    1    0    0    0 -0.34013726714E+01 -0.11284156091E+02 -0.97713075922E+01  0.15309473115E+02  0.51100000000E-03 0.  1.
         22    1    1    0    0    0  0.29938765840E+01  0.51028017963E+02  0.35598517661E+02  0.62290259061E+02  0.00000000000E+00 0. -1.
</event>
<event>
 4    1  0.1988088E-002  0.9118800E+02  0.7818608E-02  0.1130116E+00
         25   -1    0    0    0    0  0.00000000000E+00  0.00000000000E+00  0.99999998245E-14  0.12500000000E+03  0.12500000000E+03 0.  0.
        -11    1    1    0    0    0  0.14731861004E+01 -0.79481523239E+01 -0.35532533579E+02  0.36440421862E+02  0.51100000000E-03 0.  1.
         11    1    1    0    0    0 -0.16267598027E+01  0.33365437301E+01 -0.26297210858E+02  0.26557902227E+02  0.51100000000E-03 0. -1.
         22    1    1    0    0    0  0.15357370228E+00  0.46116085938E+01  0.61829744437E+02  0.62001675912E+02  0.00000000000E+00 0.  1.
</event>
<event>
 4    1  0.1988088E-002  0.9118800E+02  0.7818608E-02  0.1130116E+00
         25   -1    0    0    0    0  0.00000000000E+00  0.00000000000E+00  0.99999998245E-14  0.12500000000E+03  0.12500000000E+03 0.  0.
        -11    1    1    0    0    0 -0.82995682094E+01  0.11999992421E+02  0.11411012911E+02  0.18522793161E+02  0.51100000000E-03 0.  1.
         11    1    1    0    0    0 -0.11971159319E+02 -0.42895655035E+02  0.27878531394E+02  0.52541016256E+02  0.51100000000E-03 0. -1.
         22    1    1    0    0    0  0.20270727528E+02  0.30895662614E+02 -0.39289544305E+02  0.53936190583E+02  0.00000000000E+00 0. -1.
</event>
<event>
 4    1  0.1988088E-002  0.9118800E+02  0.7818608E-02  0.1130116E+00
         25   -1    0    0    0    0  0.00000000000E+00  0.00000000000E+00  0.99999998245E-14  0.12500000000E+03  0.12500000000E+03 0.  0.
        -11    1    1    0    0    0  0.22206759901E+02  0.42629924021E+02  0.31240487495E+02  0.57327294254E+02  0.51100000000E-03 0.  1.
         11    1    1    0    0    0  0.20055370153E+01  0.38463661152E+01  0.28178317166E+01  0.51727059511E+01  0.51100000000E-03 0. -1.
         22    1    1    0    0    0 -0.24212296916E+02 -0.46476290136E+02 -0.34058319211E+02  0.62499999795E+02  0.00000000000E+00 0.  1.
</event>
<event>
 4    1  0.1988088E-002  0.9118800E+02  0.7818608E-02  0.1130116E+00
         25   -1    0    0    0    0  0.00000000000E+00  0.00000000000E+00  0.99999998245E-14  0.12500000000E+03  0.12500000000E+03 0.  0.
        -11    1    1    0    0    0  0.35570749020E+01 -0.39328405566E+01  0.34906445522E+00  0.53143073826E+01  0.51100000000E-03 0.  1.
         11    1    1    0    0    0  0.36395964589E+02 -0.43786316410E+02  0.53521736337E+01  0.57188753317E+02  0.51100000000E-03 0. -1.
         22    1    1    0    0    0 -0.39953039491E+02  0.47719156966E+02 -0.57012380890E+01  0.62496939300E+02  0.00000000000E+00 0. -1.
</event>
<event>
 4    1  0.1988088E-002  0.9118800E+02  0.7818608E-02  0.1130116E+00
         25   -1    0    0    0    0  0.00000000000E+00  0.00000000000E+00  0.99999998245E-14  0.12500000000E+03  0.12500000000E+03 0.  0.
        -11    1    1    0    0    0 -0.39101458752E+02 -0.32788341840E+02  0.22317547352E+02  0.55696250836E+02  0.51100000000E-03 0. -1.
         11    1    1    0    0    0 -0.47789894512E+01 -0.40056276250E+01  0.27216212099E+01  0.68037500775E+01  0.51100000000E-03 0.  1.
         22    1    1    0    0    0  0.43880448203E+02  0.36793969465E+02 -0.25039168562E+02  0.62499999086E+02  0.00000000000E+00 0. -1.
</event>
<event>
 4    1  0.1988088E-002  0.9118800E+02  0.7818608E-02  0.1130116E+00
         25   -1    0    0    0    0  0.00000000000E+00  0.00000000000E+00  0.99999998245E-14  0.12500000000E+03  0.12500000000E+03 0.  0.
        -11    1    1    0    0    0  0.13072336950E+02  0.42159048677E+02  0.15076044616E+02  0.46642882631E+02  0.51100000000E-03 0. -1.
         11    1    1    0    0    0  0.38365086648E+01  0.14508116411E+02  0.51374375059E+01  0.15861825397E+02  0.51100000000E-03 0.  1.
         22    1    1    0    0    0 -0.16908845615E+02 -0.56667165088E+02 -0.20213482122E+02  0.62495291972E+02  0.00000000000E+00 0.  1.
</event>
<event>
 4    1  0.1988088E-002  0.9118800E+02  0.7818608E-02  0.1130116E+00
         25   -1    0    0    0    0  0.00000000000E+00  0.00000000000E+00  0.99999998245E-14  0.12500000000E+03  0.12500000000E+03 0.  0.
        -11    1    1    0    0    0  0.29603851245E+01  0.13656439271E+00 -0.73527716445E+01  0.79275330990E+01  0.51100000000E-03 0. -1.
         11    1    1    0    0    0  0.23668889220E+02  0.58166969553E+01 -0.48851778796E+02  0.54594382240E+02  0.51100000000E-03 0.  1.
         22    1    1    0    0    0 -0.26629274344E+02 -0.59532613480E+01  0.56204550440E+02  0.62478084661E+02  0.00000000000E+00 0.  1.
</event>
<event>
 4    1  0.1988088E-002  0.9118800E+02  0.7818608E-02  0.1130116E+00
         25   -1    0    0    0    0  0.00000000000E+00  0.00000000000E+00  0.99999998245E-14  0.12500000000E+03  0.12500000000E+03 0.  0.
        -11    1    1    0    0    0  0.15507164042E+02  0.77030668022E+01  0.22298267139E+02  0.28231579701E+02  0.51100000000E-03 0. -1.
         11    1    1    0    0    0  0.19308092602E+02  0.88192505246E+01  0.26904752615E+02  0.34270210581E+02  0.51100000000E-03 0.  1.
         22    1    1    0    0    0 -0.34815256644E+02 -0.16522317327E+02 -0.49203019754E+02  0.62498209718E+02  0.00000000000E+00 0.  1.
</event>
<event>
 4    1  0.1988088E-002  0.9118800E+02  0.7818608E-02  0.1130116E+00
         25   -1    0    0    0    0  0.00000000000E+00  0.00000000000E+00  0.99999998245E-14  0.12500000000E+03  0.12500000000E+03 0.  0.
        -11    1    1    0    0    0 -0.14613997678E+02 -0.36035883190E+02 -0.20205426979E+02  0.43822518014E+02  0.51100000000E-03 0.  1.
         11    1    1    0    0    0 -0.58801285396E+01 -0.15365046425E+02 -0.88458793406E+01  0.18679136619E+02  0.51100000000E-03 0. -1.
         22    1    1    0    0    0  0.20494126218E+02  0.51400929615E+02  0.29051306319E+02  0.62498345367E+02  0.00000000000E+00 0.  1.
</event>
<event>
 4    1  0.1988088E-002  0.9118800E+02  0.7818608E-02  0.1130116E+00
         25   -1    0    0    0    0  0.00000000000E+00  0.00000000000E+00  0.99999998245E-14  0.12500000000E+03  0.12500000000E+03 0.  0.
        -11    1    1    0    0    0 -0.24457263591E+01  0.96329634732E+01  0.63280774687E+00  0.99587152086E+01  0.51100000000E-03 0. -1.
         11    1    1    0    0    0 -0.13492638590E+02  0.50675756224E+02  0.32454756521E+01  0.52541570945E+02  0.51100000000E-03 0.  1.
         22    1    1    0    0    0  0.15938364949E+02 -0.60308719697E+02 -0.38782833990E+01  0.62499713846E+02  0.00000000000E+00 0.  1.
</event>
<event>
 4    1  0.1988088E-002  0.9118800E+02  0.7818608E-02  0.1130116E+00
         25   -1    0    0    0    0  0.00000000000E+00  0.00000000000E+00  0.99999998245E-14  0.12500000000E+03  0.12500000000E+03 0.  0.
        -11    1    1    0    0    0 -0.29344322472E+01 -0.44397004233E+01 -0.29902617622E+01  0.61043835176E+01  0.51100000000E-03 0. -1.
         11    1    1    0    0    0 -0.26985130882E+02 -0.41091547704E+02 -0.27636099931E+02  0.56395625727E+02  0.51100000000E-03 0.  1.
         22    1    1    0    0    0  0.29919563129E+02  0.45531248127E+02  0.30626361693E+02  0.62499990756E+02  0.00000000000E+00 0.  1.
</event>
<event>
 4    1  0.1988088E-002  0.9118800E+02  0.7818608E-02  0.1130116E+00
         25   -1    0    0    0    0  0.00000000000E+00  0.00000000000E+00  0.99999998245E-14  0.12500000000E+03  0.12500000000E+03 0.  0.
        -11    1    1    0    0    0  0.59675000387E+01  0.73385883820E+01 -0.70944427012E+01  0.11823580408E+02  0.51100000000E-03 0. -1.
         11    1    1    0    0    0  0.30191997072E+02  0.28505135033E+02 -0.29103239320E+02  0.50705995204E+02  0.51100000000E-03 0.  1.
         22    1    1    0    0    0 -0.36159497111E+02 -0.35843723415E+02  0.36197682021E+02  0.62470424388E+02  0.00000000000E+00 0.  1.
</event>
<event>
 4    1  0.1988088E-002  0.9118800E+02  0.7818608E-02  0.1130116E+00
         25   -1    0    0    0    0  0.00000000000E+00  0.00000000000E+00  0.99999998245E-14  0.12500000000E+03  0.12500000000E+03 0.  0.
        -11    1    1    0    0    0 -0.91749247638E+00 -0.21131522590E+00 -0.75210695379E+00  0.12050359746E+01  0.51100000000E-03 0.  1.
         11    1    1    0    0    0 -0.47750735130E+02 -0.12717640362E+02 -0.36266904397E+02  0.61295672251E+02  0.51100000000E-03 0. -1.
         22    1    1    0    0    0  0.48668227606E+02  0.12928955588E+02  0.37019011351E+02  0.62499291775E+02  0.00000000000E+00 0. -1.
</event>
<event>
 4    1  0.1988088E-002  0.9118800E+02  0.7818608E-02  0.1130116E+00
         25   -1    0    0    0    0  0.00000000000E+00  0.00000000000E+00  0.99999998245E-14  0.12500000000E+03  0.12500000000E+03 0.  0.
        -11    1    1    0    0    0 -0.10078540297E+02  0.12685977464E+01 -0.33758196024E+01  0.10704320296E+02  0.51100000000E-03 0.  1.
         11    1    1    0    0    0 -0.48768010762E+02  0.61377901627E+01 -0.16334047105E+02  0.51795679712E+02  0.51100000000E-03 0.  1.
         22    1    1    0    0    0  0.58846551059E+02 -0.74063879091E+01  0.19709866707E+02  0.62499999992E+02  0.00000000000E+00 0.  1.
</event>
<event>
 4    1  0.1988088E-002  0.9118800E+02  0.7818608E-02  0.1130116E+00
         25   -1    0    0    0    0  0.00000000000E+00  0.00000000000E+00  0.99999998245E-14  0.12500000000E+03  0.12500000000E+03 0.  0.
        -11    1    1    0    0    0  0.24473856966E+01 -0.73850837759E+01 -0.64909304248E+01  0.10132193107E+02  0.51100000000E-03 0. -1.
         11    1    1    0    0    0  0.20438874580E+02 -0.26773650705E+02 -0.40336363912E+02  0.52550910744E+02  0.51100000000E-03 0.  1.
         22    1    1    0    0    0 -0.22886260277E+02  0.34158734480E+02  0.46827294336E+02  0.62316896149E+02  0.00000000000E+00 0.  1.
</event>
<event>
 4    1  0.1988088E-002  0.9118800E+02  0.7818608E-02  0.1130116E+00
         25   -1    0    0    0    0  0.00000000000E+00  0.00000000000E+00  0.99999998245E-14  0.12500000000E+03  0.12500000000E+03 0.  0.
        -11    1    1    0    0    0 -0.92114141734E+01 -0.13407710239E+02  0.55021091245E+01  0.17172362971E+02  0.51100000000E-03 0.  1.
         11    1    1    0    0    0 -0.31179039369E+02 -0.32708425854E+02  0.55778365764E+01  0.45531152840E+02  0.51100000000E-03 0. -1.
         22    1    1    0    0    0  0.40390453542E+02  0.46116136093E+02 -0.11079945701E+02  0.62296484189E+02  0.00000000000E+00 0. -1.
</event>
<event>
 4    1  0.1988088E-002  0.9118800E+02  0.7818608E-02  0.1130116E+00
         25   -1    0    0    0    0  0.00000000000E+00  0.00000000000E+00  0.99999998245E-14  0.12500000000E+03  0.12500000000E+03 0.  0.
        -11    1    1    0    0    0  0.14946457658E+01  0.52831990765E+00 -0.25060197152E+01  0.29653369057E+01  0.51100000000E-03 0.  1.
         11    1    1    0    0    0  0.33277001171E+02  0.10960950764E+02 -0.48137756859E+02  0.59537760155E+02  0.51100000000E-03 0. -1.
         22    1    1    0    0    0 -0.34771646937E+02 -0.11489270671E+02  0.50643776574E+02  0.62496902939E+02  0.00000000000E+00 0. -1.
</event>
<event>
 4    1  0.1988088E-002  0.9118800E+02  0.7818608E-02  0.1130116E+00
         25   -1    0    0    0    0  0.00000000000E+00  0.00000000000E+00  0.99999998245E-14  0.12500000000E+03  0.12500000000E+03 0.  0.
        -11    1    1    0    0    0  0.33593241480E+02  0.42771304724E+00 -0.15595988943E+02  0.37039488157E+02  0.51100000000E-03 0. -1.
         11    1    1    0    0    0  0.19713445846E+02  0.78753409377E+00 -0.16504979906E+02  0.25722646035E+02  0.51100000000E-03 0.  1.
         22    1    1    0    0    0 -0.53306687326E+02 -0.12152471410E+01  0.32100968849E+02  0.62237865808E+02  0.00000000000E+00 0. -1.
</event>
<event>
 4    1  0.1988088E-002  0.9118800E+02  0.7818608E-02  0.1130116E+00
         25   -1    0    0    0    0  0.00000000000E+00  0.00000000000E+00  0.99999998245E-14  0.12500000000E+03  0.12500000000E+03 0.  0.
        -11    1    1    0    0    0 -0.58352783771E+00 -0.21039166296E+01  0.19250257967E+02  0.19373678071E+02  0.51100000000E-03 0.  1.
         11    1    1    0    0    0 -0.12650038461E+01 -0.46782335126E+01  0.42853164677E+02  0.43126324057E+02  0.51100000000E-03 0. -1.
         22    1    1    0    0    0  0.18485316838E+01  0.67821501421E+01 -0.62103422644E+02  0.62499997873E+02  0.00000000000E+00 0. -1.
</event>
<event>
 4    1  0.1988088E-002  0.9118800E+02  0.7818608E-02  0.1130116E+00
         25   -1    0    0    0    0  0.00000000000E+00  0.00000000000E+00  0.99999998245E-14  0.12500000000E+03  0.12500000000E+03 0.  0.
        -11    1    1    0    0    0 -0.34547046585E+01 -0.14998426371E+01 -0.10289435923E+02  0.10957052710E+02  0.51100000000E-03 0.  1.
         11    1    1    0    0    0 -0.16213244767E+02 -0.71415421057E+01 -0.48402533646E+02  0.51542954835E+02  0.51100000000E-03 0. -1.
         22    1    1    0    0    0  0.19667949426E+02  0.86413847427E+01  0.58691969569E+02  0.62499992455E+02  0.00000000000E+00 0. -1.
</event>
<event>
 4    1  0.1988088E-002  0.9118800E+02  0.7818608E-02  0.1130116E+00
         25   -1    0    0    0    0  0.00000000000E+00  0.00000000000E+00  0.99999998245E-14  0.12500000000E+03  0.12500000000E+03 0.  0.
        -11    1    1    0    0    0 -0.84703504592E+01 -0.38433151002E+01 -0.14408006273E+02  0.17149593374E+02  0.51100000000E-03 0.  1.
         11    1    1    0    0    0 -0.22331845039E+02 -0.10109587300E+02 -0.38154236105E+02  0.45350422173E+02  0.51100000000E-03 0. -1.
         22    1    1    0    0    0  0.30802195498E+02  0.13952902400E+02  0.52562242378E+02  0.62499984454E+02  0.00000000000E+00 0.  1.
</event>
<event>
 4    1  0.1988088E-002  0.9118800E+02  0.7818608E-02  0.1130116E+00
         25   -1    0    0    0    0  0.00000000000E+00  0.00000000000E+00  0.99999998245E-14  0.12500000000E+03  0.12500000000E+03 0.  0.
        -11    1    1    0    0    0  0.38910741062E+01 -0.13079039918E+01  0.18199972902E+01  0.44903742549E+01  0.51100000000E-03 0.  1.
         11    1    1    0    0    0  0.50274759066E+02 -0.16795447025E+02  0.23568596137E+02  0.58009629925E+02  0.51100000000E-03 0. -1.
         22    1    1    0    0    0 -0.54165833172E+02  0.18103351017E+02 -0.25388593427E+02  0.62499995820E+02  0.00000000000E+00 0. -1.
</event>
<event>
 4    1  0.1988088E-002  0.9118800E+02  0.7818608E-02  0.1130116E+00
         25   -1    0    0    0    0  0.00000000000E+00  0.00000000000E+00  0.99999998245E-14  0.12500000000E+03  0.12500000000E+03 0.  0.
        -11    1    1    0    0    0  0.53993017807E+01  0.47248059649E+02  0.22481919004E+02  0.52601979836E+02  0.51100000000E-03 0. -1.
         11    1    1    0    0    0  0.36553450169E+00  0.87804926193E+01  0.45798186905E+01  0.99098640560E+01  0.51100000000E-03 0.  1.
         22    1    1    0    0    0 -0.57648362824E+01 -0.56028552268E+02 -0.27061737695E+02  0.62488156108E+02  0.00000000000E+00 0. -1.
</event>
<event>
 4    1  0.1988088E-002  0.9118800E+02  0.7818608E-02  0.1130116E+00
         25   -1    0    0    0    0  0.00000000000E+00  0.00000000000E+00  0.99999998245E-14  0.12500000000E+03  0.12500000000E+03 0.  0.
        -11    1    1    0    0    0  0.17365428328E+02 -0.26447073931E+01  0.96303359852E+01  0.20032372542E+02  0.51100000000E-03 0.  1.
         11    1    1    0    0    0  0.36814945175E+02 -0.56280600985E+01  0.20407944948E+02  0.42467628448E+02  0.51100000000E-03 0. -1.
         22    1    1    0    0    0 -0.54180373503E+02  0.82727674916E+01 -0.30038280933E+02  0.62499999010E+02  0.00000000000E+00 0. -1.
</event>
<event>
 4    1  0.1988088E-002  0.9118800E+02  0.7818608E-02  0.1130116E+00
         25   -1    0    0    0    0  0.00000000000E+00  0.00000000000E+00  0.99999998245E-14  0.12500000000E+03  0.12500000000E+03 0.  0.
        -11    1    1    0    0    0  0.42469281849E+02 -0.43174695353E+02  0.81324222969E+01  0.61105077631E+02  0.51100000000E-03 0.  1.
         11    1    1    0    0    0  0.97158660764E+00 -0.98370602668E+00  0.18480919278E+00  0.13949239341E+01  0.51100000000E-03 0. -1.
         22    1    1    0    0    0 -0.43440868457E+02  0.44158401380E+02 -0.83172314896E+01  0.62499998435E+02  0.00000000000E+00 0.  1.
</event>
<event>
 4    1  0.1988088E-002  0.9118800E+02  0.7818608E-02  0.1130116E+00
         25   -1    0    0    0    0  0.00000000000E+00  0.00000000000E+00  0.99999998245E-14  0.12500000000E+03  0.12500000000E+03 0.  0.
        -11    1    1    0    0    0  0.17677981231E+02 -0.55147204901E+02  0.13967227316E+02  0.59571878164E+02  0.51100000000E-03 0.  1.
         11    1    1    0    0    0  0.88940974789E+00 -0.27098459789E+01  0.66335413971E+00  0.29281997720E+01  0.51100000000E-03 0. -1.
         22    1    1    0    0    0 -0.18567390979E+02  0.57857050880E+02 -0.14630581456E+02  0.62499922064E+02  0.00000000000E+00 0.  1.
</event>
<event>
 4    1  0.1988088E-002  0.9118800E+02  0.7818608E-02  0.1130116E+00
         25   -1    0    0    0    0  0.00000000000E+00  0.00000000000E+00  0.99999998245E-14  0.12500000000E+03  0.12500000000E+03 0.  0.
        -11    1    1    0    0    0 -0.71663237284E+01 -0.79404476271E+01 -0.22194330074E+02  0.24637272414E+02  0.51100000000E-03 0. -1.
         11    1    1    0    0    0 -0.12272925389E+02 -0.11409593115E+02 -0.33959149668E+02  0.37868553697E+02  0.51100000000E-03 0.  1.
         22    1    1    0    0    0  0.19439249118E+02  0.19350040742E+02  0.56153479742E+02  0.62494173889E+02  0.00000000000E+00 0. -1.
</event>
<event>
 4    1  0.1988088E-002  0.9118800E+02  0.7818608E-02  0.1130116E+00
         25   -1    0    0    0    0  0.00000000000E+00  0.00000000000E+00  0.99999998245E-14  0.12500000000E+03  0.12500000000E+03 0.  0.
        -11    1    1    0    0    0 -0.34726371188E+02  0.44049108440E+02  0.19186049412E+01  0.56124200266E+02  0.51100000000E-03 0.  1.
         11    1    1    0    0    0 -0.39440531610E+01  0.50047921919E+01  0.21753762056E+00  0.63757998007E+01  0.51100000000E-03 0. -1.
         22    1    1    0    0    0  0.38670424349E+02 -0.49053900632E+02 -0.21361425617E+01  0.62499999933E+02  0.00000000000E+00 0.  1.
</event>
<event>
 4    1  0.1988088E-002  0.9118800E+02  0.7818608E-02  0.1130116E+00
         25   -1    0    0    0    0  0.00000000000E+00  0.00000000000E+00  0.99999998245E-14  0.12500000000E+03  0.12500000000E+03 0.  0.
        -11    1    1    0    0    0 -0.22461046808E+02  0.40453710026E+02  0.28642953873E+02  0.54418931314E+02  0.51100000000E-03 0. -1.
         11    1    1    0    0    0 -0.35316708297E+01  0.36602841302E+01  0.66658812572E+01  0.83847690463E+01  0.51100000000E-03 0.  1.
         22    1    1    0    0    0  0.25992717638E+02 -0.44113994156E+02 -0.35308835130E+02  0.62196299639E+02  0.00000000000E+00 0. -1.
</event>
<event>
 4    1  0.1988088E-002  0.9118800E+02  0.7818608E-02  0.1130116E+00
         25   -1    0    0    0    0  0.00000000000E+00  0.00000000000E+00  0.99999998245E-14  0.12500000000E+03  0.12500000000E+03 0.  0.
        -11    1    1    0    0    0  0.82789726251E-02 -0.23092834511E+00  0.10488280207E+00  0.25376584729E+00  0.51100000000E-03 0. -1.
         11    1    1    0    0    0  0.21615787913E+01 -0.56644199916E+02  0.25716841292E+02  0.62246234692E+02  0.51100000000E-03 0.  1.
         22    1    1    0    0    0 -0.21698577639E+01  0.56875128261E+02 -0.25821724094E+02  0.62499999461E+02  0.00000000000E+00 0.  1.
</event>
<event>
 4    1  0.1988088E-002  0.9118800E+02  0.7818608E-02  0.1130116E+00
         25   -1    0    0    0    0  0.00000000000E+00  0.00000000000E+00  0.99999998245E-14  0.12500000000E+03  0.12500000000E+03 0.  0.
        -11    1    1    0    0    0  0.59709973858E+01  0.22644199522E+02  0.55253955065E+02  0.60011766616E+02  0.51100000000E-03 0. -1.
         11    1    1    0    0    0  0.28455601907E+00  0.91656118824E+00  0.22958998956E+01  0.24884157875E+01  0.51100000000E-03 0.  1.
         22    1    1    0    0    0 -0.62555534048E+01 -0.23560760710E+02 -0.57549854961E+02  0.62499817597E+02  0.00000000000E+00 0. -1.
</event>
<event>
 4    1  0.1988088E-002  0.9118800E+02  0.7818608E-02  0.1130116E+00
         25   -1    0    0    0    0  0.00000000000E+00  0.00000000000E+00  0.99999998245E-14  0.12500000000E+03  0.12500000000E+03 0.  0.
        -11    1    1    0    0    0  0.10505534852E+02  0.30150346103E+02 -0.34476270337E+02  0.46989603630E+02  0.51100000000E-03 0. -1.
         11    1    1    0    0    0  0.34666153750E+01  0.99522106946E+01 -0.11380179087E+02  0.15510396390E+02  0.51100000000E-03 0.  1.
         22    1    1    0    0    0 -0.13972150227E+02 -0.40102556798E+02  0.45856449424E+02  0.62499999980E+02  0.00000000000E+00 0. -1.
</event>
<event>
 4    1  0.1988088E-002  0.9118800E+02  0.7818608E-02  0.1130116E+00
         25   -1    0    0    0    0  0.00000000000E+00  0.00000000000E+00  0.99999998245E-14  0.12500000000E+03  0.12500000000E+03 0.  0.
        -11    1    1    0    0    0 -0.27273045619E+02  0.40795489468E+02 -0.79048627061E+01  0.49704907533E+02  0.51100000000E-03 0.  1.
         11    1    1    0    0    0 -0.70152372459E+01  0.10505731640E+02 -0.20323536046E+01  0.12795093291E+02  0.51100000000E-03 0. -1.
         22    1    1    0    0    0  0.34288282865E+02 -0.51301221107E+02  0.99372163107E+01  0.62499999175E+02  0.00000000000E+00 0.  1.
</event>
<event>
 4    1  0.1988088E-002  0.9118800E+02  0.7818608E-02  0.1130116E+00
         25   -1    0    0    0    0  0.00000000000E+00  0.00000000000E+00  0.99999998245E-14  0.12500000000E+03  0.12500000000E+03 0.  0.
        -11    1    1    0    0    0  0.13572198843E+02 -0.51046301059E+02 -0.16270635913E+02  0.55269006021E+02  0.51100000000E-03 0. -1.
         11    1    1    0    0    0  0.50916797347E+01 -0.32073750614E+01 -0.57050251618E+01  0.82921510878E+01  0.51100000000E-03 0.  1.
         22    1    1    0    0    0 -0.18663878578E+02  0.54253676120E+02  0.21975661075E+02  0.61438842891E+02  0.00000000000E+00 0. -1.
</event>
<event>
 4    1  0.1988088E-002  0.9118800E+02  0.7818608E-02  0.1130116E+00
         25   -1    0    0    0    0  0.00000000000E+00  0.00000000000E+00  0.99999998245E-14  0.12500000000E+03  0.12500000000E+03 0.  0.
        -11    1    1    0    0    0 -0.22578972643E+02  0.48956674227E+01  0.50782782896E+02  0.55791295056E+02  0.51100000000E-03 0. -1.
         11    1    1    0    0    0 -0.13717937147E+01  0.79524684189E+01  0.32700458111E+01  0.87072826885E+01  0.51100000000E-03 0.  1.
         22    1    1    0    0    0  0.23950766357E+02 -0.12848135842E+02 -0.54052828707E+02  0.60501422256E+02  0.00000000000E+00 0. -1.
</event>
<event>
 4    1  0.1988088E-002  0.9118800E+02  0.7818608E-02  0.1130116E+00
         25   -1    0    0    0    0  0.00000000000E+00  0.00000000000E+00  0.99999998245E-14  0.12500000000E+03  0.12500000000E+03 0.  0.
        -11    1    1    0    0    0  0.23707320503E+01  0.29198955073E+01 -0.24322690439E+00  0.37689945365E+01  0.51100000000E-03 0. -1.
         11    1    1    0    0    0  0.37265610983E+02  0.45179168325E+02 -0.44120181015E+01  0.58731157970E+02  0.51100000000E-03 0.  1.
         22    1    1    0    0    0 -0.39636343034E+02 -0.48099063833E+02  0.46552450059E+01  0.62499847493E+02  0.00000000000E+00 0.  1.
</event>
<event>
 4    1  0.1988088E-002  0.9118800E+02  0.7818608E-02  0.1130116E+00
         25   -1    0    0    0    0  0.00000000000E+00  0.00000000000E+00  0.99999998245E-14  0.12500000000E+03  0.12500000000E+03 0.  0.
        -11    1    1    0    0    0  0.12918527659E+02 -0.27092713373E+02  0.19282966117E+02  0.35675429322E+02  0.51100000000E-03 0.  1.
         11    1    1    0    0    0  0.97006847141E+01 -0.20368826820E+02  0.14510868030E+02  0.26824572340E+02  0.51100000000E-03 0. -1.
         22    1    1    0    0    0 -0.22619212373E+02  0.47461540193E+02 -0.33793834148E+02  0.62499998338E+02  0.00000000000E+00 0.  1.
</event>
<event>
 4    1  0.1988088E-002  0.9118800E+02  0.7818608E-02  0.1130116E+00
         25   -1    0    0    0    0  0.00000000000E+00  0.00000000000E+00  0.99999998245E-14  0.12500000000E+03  0.12500000000E+03 0.  0.
        -11    1    1    0    0    0  0.26426998514E+01  0.51756089341E+01 -0.27817335981E+01  0.64427348553E+01  0.51100000000E-03 0. -1.
         11    1    1    0    0    0  0.22153125065E+02  0.45167372682E+02 -0.24730874875E+02  0.56057726296E+02  0.51100000000E-03 0.  1.
         22    1    1    0    0    0 -0.24795824917E+02 -0.50342981616E+02  0.27512608473E+02  0.62499538849E+02  0.00000000000E+00 0.  1.
</event>
<event>
 4    1  0.1988088E-002  0.9118800E+02  0.7818608E-02  0.1130116E+00
         25   -1    0    0    0    0  0.00000000000E+00  0.00000000000E+00  0.99999998245E-14  0.12500000000E+03  0.12500000000E+03 0.  0.
        -11    1    1    0    0    0 -0.49052617590E+02 -0.38277579257E+02 -0.38764323096E+01  0.62340669662E+02  0.51100000000E-03 0.  1.
         11    1    1    0    0    0 -0.10594074594E+00 -0.12133540600E+00  0.71854258097E-02  0.16123775571E+00  0.51100000000E-03 0. -1.
         22    1    1    0    0    0  0.49158558336E+02  0.38398914663E+02  0.38692468838E+01  0.62498092582E+02  0.00000000000E+00 0.  1.
</event>
<event>
 4    1  0.1988088E-002  0.9118800E+02  0.7818608E-02  0.1130116E+00
         25   -1    0    0    0    0  0.00000000000E+00  0.00000000000E+00  0.99999998245E-14  0.12500000000E+03  0.12500000000E+03 0.  0.
        -11    1    1    0    0    0  0.59832292062E+01  0.16694768203E+01  0.13077271403E+02  0.14477610721E+02  0.51100000000E-03 0. -1.
         11    1    1    0    0    0  0.19845568420E+02  0.55389609175E+01  0.43377680882E+02  0.48022389288E+02  0.51100000000E-03 0. -1.
         22    1    1    0    0    0 -0.25828797626E+02 -0.72084377378E+01 -0.56454952285E+02  0.62499999991E+02  0.00000000000E+00 0. -1.
</event>
<event>
 4    1  0.1988088E-002  0.9118800E+02  0.7818608E-02  0.1130116E+00
         25   -1    0    0    0    0  0.00000000000E+00  0.00000000000E+00  0.99999998245E-14  0.12500000000E+03  0.12500000000E+03 0.  0.
        -11    1    1    0    0    0 -0.28332897818E+00  0.13640647453E+01  0.73183732077E+00  0.15737007544E+01  0.51100000000E-03 0.  1.
         11    1    1    0    0    0 -0.50750936427E+02  0.96573630319E+01 -0.33696608681E+02  0.61679685844E+02  0.51100000000E-03 0. -1.
         22    1    1    0    0    0  0.51034265405E+02 -0.11021427777E+02  0.32964771360E+02  0.61746613401E+02  0.00000000000E+00 0. -1.
</event>
<event>
 4    1  0.1988088E-002  0.9118800E+02  0.7818608E-02  0.1130116E+00
         25   -1    0    0    0    0  0.00000000000E+00  0.00000000000E+00  0.99999998245E-14  0.12500000000E+03  0.12500000000E+03 0.  0.
        -11    1    1    0    0    0  0.21322611205E+02  0.37047537731E+02  0.21796065531E+02  0.47981686855E+02  0.51100000000E-03 0. -1.
         11    1    1    0    0    0  0.69552991550E+01  0.12492338340E+02  0.33403907402E+01  0.14683082582E+02  0.51100000000E-03 0.  1.
         22    1    1    0    0    0 -0.28277910360E+02 -0.49539876072E+02 -0.25136456271E+02  0.62335230563E+02  0.00000000000E+00 0. -1.
</event>
<event>
 4    1  0.1988088E-002  0.9118800E+02  0.7818608E-02  0.1130116E+00
         25   -1    0    0    0    0  0.00000000000E+00  0.00000000000E+00  0.99999998245E-14  0.12500000000E+03  0.12500000000E+03 0.  0.
        -11    1    1    0    0    0  0.83177601419E+01  0.57837294180E+02 -0.11894088771E+01  0.58444438791E+02  0.51100000000E-03 0.  1.
         11    1    1    0    0    0  0.17232448189E+00  0.40401951446E+01  0.65152956422E+00  0.40960180136E+01  0.51100000000E-03 0. -1.
         22    1    1    0    0    0 -0.84900846238E+01 -0.61877489325E+02  0.53787931286E+00  0.62459543196E+02  0.00000000000E+00 0.  1.
</event>
<event>
 4    1  0.1988088E-002  0.9118800E+02  0.7818608E-02  0.1130116E+00
         25   -1    0    0    0    0  0.00000000000E+00  0.00000000000E+00  0.99999998245E-14  0.12500000000E+03  0.12500000000E+03 0.  0.
        -11    1    1    0    0    0  0.26855686741E+01 -0.14040500747E+02  0.56130955936E+01  0.15357564349E+02  0.51100000000E-03 0.  1.
         11    1    1    0    0    0  0.82492533352E+01 -0.43099253335E+02  0.17228273998E+02  0.47142435701E+02  0.51100000000E-03 0. -1.
         22    1    1    0    0    0 -0.10934822009E+02  0.57139754082E+02 -0.22841369592E+02  0.62499999950E+02  0.00000000000E+00 0. -1.
</event>
<event>
 4    1  0.1988088E-002  0.9118800E+02  0.7818608E-02  0.1130116E+00
         25   -1    0    0    0    0  0.00000000000E+00  0.00000000000E+00  0.99999998245E-14  0.12500000000E+03  0.12500000000E+03 0.  0.
        -11    1    1    0    0    0 -0.36161028288E+02 -0.44730636016E+02 -0.16742823800E+02  0.59906359548E+02  0.51100000000E-03 0. -1.
         11    1    1    0    0    0  0.16181501703E+02  0.16074221871E+02 -0.57791084165E+01  0.23529124516E+02  0.51100000000E-03 0.  1.
         22    1    1    0    0    0  0.19979526584E+02  0.28656414145E+02  0.22521932217E+02  0.41564515936E+02  0.00000000000E+00 0. -1.
</event>
<event>
 4    1  0.1988088E-002  0.9118800E+02  0.7818608E-02  0.1130116E+00
         25   -1    0    0    0    0  0.00000000000E+00  0.00000000000E+00  0.99999998245E-14  0.12500000000E+03  0.12500000000E+03 0.  0.
        -11    1    1    0    0    0 -0.35831453328E+02 -0.13648105853E+01 -0.39244153772E+02  0.53158812638E+02  0.51100000000E-03 0.  1.
         11    1    1    0    0    0 -0.85805658102E+01  0.66699071436E+00 -0.43165341181E+01  0.96282632541E+01  0.51100000000E-03 0. -1.
         22    1    1    0    0    0  0.44412019138E+02  0.69781987095E+00  0.43560687890E+02  0.62212924108E+02  0.00000000000E+00 0.  1.
</event>
<event>
 4    1  0.1988088E-002  0.9118800E+02  0.7818608E-02  0.1130116E+00
         25   -1    0    0    0    0  0.00000000000E+00  0.00000000000E+00  0.99999998245E-14  0.12500000000E+03  0.12500000000E+03 0.  0.
        -11    1    1    0    0    0  0.59370337541E+01  0.13112741893E+01  0.43804899518E+02  0.44224846318E+02  0.51100000000E-03 0.  1.
         11    1    1    0    0    0  0.18959950409E+01  0.52885480439E+01  0.17624182387E+02  0.18497982125E+02  0.51100000000E-03 0. -1.
         22    1    1    0    0    0 -0.78330287950E+01 -0.65998222333E+01 -0.61429081905E+02  0.62277171558E+02  0.00000000000E+00 0.  1.
</event>
<event>
 4    1  0.1988088E-002  0.9118800E+02  0.7818608E-02  0.1130116E+00
         25   -1    0    0    0    0  0.00000000000E+00  0.00000000000E+00  0.99999998245E-14  0.12500000000E+03  0.12500000000E+03 0.  0.
        -11    1    1    0    0    0  0.11057356211E+01  0.15512647482E+02 -0.83045032827E+01  0.17630361828E+02  0.51100000000E-03 0. -1.
         11    1    1    0    0    0  0.27985668506E+01  0.39495900272E+02 -0.21107498492E+02  0.44869640154E+02  0.51100000000E-03 0.  1.
         22    1    1    0    0    0 -0.39043024717E+01 -0.55008547754E+02  0.29412001775E+02  0.62499998018E+02  0.00000000000E+00 0. -1.
</event>
<event>
 4    1  0.1988088E-002  0.9118800E+02  0.7818608E-02  0.1130116E+00
         25   -1    0    0    0    0  0.00000000000E+00  0.00000000000E+00  0.99999998245E-14  0.12500000000E+03  0.12500000000E+03 0.  0.
        -11    1    1    0    0    0 -0.11495266985E+02  0.15150057743E+02 -0.76783829138E+01  0.20509094985E+02  0.51100000000E-03 0. -1.
         11    1    1    0    0    0 -0.23297976086E+02  0.31262181674E+02 -0.15592886422E+02  0.41991163355E+02  0.51100000000E-03 0.  1.
         22    1    1    0    0    0  0.34793243071E+02 -0.46412239417E+02  0.23271269336E+02  0.62499741660E+02  0.00000000000E+00 0.  1.
</event>
<event>
 4    1  0.1988088E-002  0.9118800E+02  0.7818608E-02  0.1130116E+00
         25   -1    0    0    0    0  0.00000000000E+00  0.00000000000E+00  0.99999998245E-14  0.12500000000E+03  0.12500000000E+03 0.  0.
        -11    1    1    0    0    0 -0.12726669344E+01  0.11125070884E+01  0.34829770751E+01  0.38714961855E+01  0.51100000000E-03 0. -1.
         11    1    1    0    0    0 -0.19110363059E+02  0.16830771495E+02  0.52809294354E+02  0.58628511969E+02  0.51100000000E-03 0.  1.
         22    1    1    0    0    0  0.20383029993E+02 -0.17943278584E+02 -0.56292271429E+02  0.62499991845E+02  0.00000000000E+00 0.  1.
</event>
<event>
 4    1  0.1988088E-002  0.9118800E+02  0.7818608E-02  0.1130116E+00
         25   -1    0    0    0    0  0.00000000000E+00  0.00000000000E+00  0.99999998245E-14  0.12500000000E+03  0.12500000000E+03 0.  0.
        -11    1    1    0    0    0  0.13543166191E+02 -0.35639834952E+02  0.17213164857E+02  0.41831904458E+02  0.51100000000E-03 0.  1.
         11    1    1    0    0    0  0.67184724836E+01 -0.17608701989E+02  0.84832961278E+01  0.20668105179E+02  0.51100000000E-03 0. -1.
         22    1    1    0    0    0 -0.20261638675E+02  0.53248536941E+02 -0.25696460985E+02  0.62499990363E+02  0.00000000000E+00 0.  1.
</event>
<event>
 4    1  0.1988088E-002  0.9118800E+02  0.7818608E-02  0.1130116E+00
         25   -1    0    0    0    0  0.00000000000E+00  0.00000000000E+00  0.99999998245E-14  0.12500000000E+03  0.12500000000E+03 0.  0.
        -11    1    1    0    0    0  0.21051314443E+02 -0.18468141709E+02 -0.13718646113E+02  0.31183831538E+02  0.51100000000E-03 0.  1.
         11    1    1    0    0    0  0.22515958993E+02 -0.15164052828E+02 -0.15750781937E+02  0.31384774007E+02  0.51100000000E-03 0. -1.
         22    1    1    0    0    0 -0.43567273436E+02  0.33632194537E+02  0.29469428050E+02  0.62431394455E+02  0.00000000000E+00 0. -1.
</event>
<event>
 4    1  0.1988088E-002  0.9118800E+02  0.7818608E-02  0.1130116E+00
         25   -1    0    0    0    0  0.00000000000E+00  0.00000000000E+00  0.99999998245E-14  0.12500000000E+03  0.12500000000E+03 0.  0.
        -11    1    1    0    0    0 -0.15468256922E+01  0.26229732891E+02  0.36783402378E+02  0.45204095478E+02  0.51100000000E-03 0. -1.
         11    1    1    0    0    0 -0.21918823932E+02  0.12066085523E+02 -0.19301575392E+02  0.31600254355E+02  0.51100000000E-03 0.  1.
         22    1    1    0    0    0  0.23465649624E+02 -0.38295818414E+02 -0.17481826985E+02  0.48195650167E+02  0.00000000000E+00 0. -1.
</event>
<event>
 4    1  0.1988088E-002  0.9118800E+02  0.7818608E-02  0.1130116E+00
         25   -1    0    0    0    0  0.00000000000E+00  0.00000000000E+00  0.99999998245E-14  0.12500000000E+03  0.12500000000E+03 0.  0.
        -11    1    1    0    0    0 -0.39016311419E+00  0.90945062872E+01  0.74673697464E+01  0.11773864406E+02  0.51100000000E-03 0. -1.
         11    1    1    0    0    0  0.89570321209E+01  0.49892741543E+02  0.87805165237E+01  0.51445228678E+02  0.51100000000E-03 0.  1.
         22    1    1    0    0    0 -0.85668690067E+01 -0.58987247830E+02 -0.16247886270E+02  0.61780906916E+02  0.00000000000E+00 0.  1.
</event>
<event>
 4    1  0.1988088E-002  0.9118800E+02  0.7818608E-02  0.1130116E+00
         25   -1    0    0    0    0  0.00000000000E+00  0.00000000000E+00  0.99999998245E-14  0.12500000000E+03  0.12500000000E+03 0.  0.
        -11    1    1    0    0    0  0.82746652301E+01 -0.12900751077E+02 -0.21175681729E+01  0.15472025021E+02  0.51100000000E-03 0.  1.
         11    1    1    0    0    0  0.25397110756E+02 -0.39090775300E+02 -0.62084003406E+01  0.47028142461E+02  0.51100000000E-03 0. -1.
         22    1    1    0    0    0 -0.33671775986E+02  0.51991526377E+02  0.83259685136E+01  0.62499832518E+02  0.00000000000E+00 0. -1.
</event>
<event>
 4    1  0.1988088E-002  0.9118800E+02  0.7818608E-02  0.1130116E+00
         25   -1    0    0    0    0  0.00000000000E+00  0.00000000000E+00  0.99999998245E-14  0.12500000000E+03  0.12500000000E+03 0.  0.
        -11    1    1    0    0    0 -0.16704101336E+02 -0.43233696109E+02 -0.20418726976E+02  0.50646854713E+02  0.51100000000E-03 0. -1.
         11    1    1    0    0    0 -0.39036160060E+01 -0.10149523440E+02 -0.47167757575E+01  0.11853228159E+02  0.51100000000E-03 0.  1.
         22    1    1    0    0    0  0.20607717342E+02  0.53383219549E+02  0.25135502733E+02  0.62499917129E+02  0.00000000000E+00 0. -1.
</event>
<event>
 4    1  0.1988088E-002  0.9118800E+02  0.7818608E-02  0.1130116E+00
         25   -1    0    0    0    0  0.00000000000E+00  0.00000000000E+00  0.99999998245E-14  0.12500000000E+03  0.12500000000E+03 0.  0.
        -11    1    1    0    0    0 -0.42489552464E+02  0.11445414932E+02  0.19961674173E+02  0.48320058232E+02  0.51100000000E-03 0. -1.
         11    1    1    0    0    0 -0.12344349977E+02  0.37219159482E+01  0.59070321849E+01  0.14181983789E+02  0.51100000000E-03 0.  1.
         22    1    1    0    0    0  0.54833902441E+02 -0.15167330880E+02 -0.25868706358E+02  0.62497957979E+02  0.00000000000E+00 0. -1.
</event>
<event>
 4    1  0.1988088E-002  0.9118800E+02  0.7818608E-02  0.1130116E+00
         25   -1    0    0    0    0  0.00000000000E+00  0.00000000000E+00  0.99999998245E-14  0.12500000000E+03  0.12500000000E+03 0.  0.
        -11    1    1    0    0    0 -0.36808357941E+02  0.15098817841E+02 -0.22941297344E+02  0.45925294105E+02  0.51100000000E-03 0. -1.
         11    1    1    0    0    0 -0.13307180352E+02  0.69505671246E+01 -0.71172450442E+01  0.16614650449E+02  0.51100000000E-03 0.  1.
         22    1    1    0    0    0  0.50115538293E+02 -0.22049384966E+02  0.30058542389E+02  0.62460055446E+02  0.00000000000E+00 0. -1.
</event>
<event>
 4    1  0.1988088E-002  0.9118800E+02  0.7818608E-02  0.1130116E+00
         25   -1    0    0    0    0  0.00000000000E+00  0.00000000000E+00  0.99999998245E-14  0.12500000000E+03  0.12500000000E+03 0.  0.
        -11    1    1    0    0    0  0.32845068693E+01  0.76525322036E-01  0.55525302732E+00  0.33319885482E+01  0.51100000000E-03 0. -1.
         11    1    1    0    0    0  0.58328082699E+02  0.13432576078E+01  0.98429682237E+01  0.59168011595E+02  0.51100000000E-03 0. -1.
         22    1    1    0    0    0 -0.61612589569E+02 -0.14197829298E+01 -0.10398221251E+02  0.62499999857E+02  0.00000000000E+00 0. -1.
</event>
<event>
 4    1  0.1988088E-002  0.9118800E+02  0.7818608E-02  0.1130116E+00
         25   -1    0    0    0    0  0.00000000000E+00  0.00000000000E+00  0.99999998245E-14  0.12500000000E+03  0.12500000000E+03 0.  0.
        -11    1    1    0    0    0  0.17571894938E+02 -0.33580609229E+02 -0.20601532154E+02  0.43137593063E+02  0.51100000000E-03 0. -1.
         11    1    1    0    0    0  0.78835618315E+01 -0.15074659244E+02 -0.92469946275E+01  0.19362407092E+02  0.51100000000E-03 0. -1.
         22    1    1    0    0    0 -0.25455456770E+02  0.48655268473E+02  0.29848526782E+02  0.62499999845E+02  0.00000000000E+00 0. -1.
</event>
<event>
 4    1  0.1988088E-002  0.9118800E+02  0.7818608E-02  0.1130116E+00
         25   -1    0    0    0    0  0.00000000000E+00  0.00000000000E+00  0.99999998245E-14  0.12500000000E+03  0.12500000000E+03 0.  0.
        -11    1    1    0    0    0 -0.55939478977E+01 -0.60220586394E+01 -0.15858121669E+02  0.17861619929E+02  0.51100000000E-03 0.  1.
         11    1    1    0    0    0 -0.13940973712E+02 -0.15518284422E+02 -0.39464574282E+02  0.44638778242E+02  0.51100000000E-03 0. -1.
         22    1    1    0    0    0  0.19534921609E+02  0.21540343062E+02  0.55322695951E+02  0.62499601829E+02  0.00000000000E+00 0. -1.
</event>
<event>
 4    1  0.1988088E-002  0.9118800E+02  0.7818608E-02  0.1130116E+00
         25   -1    0    0    0    0  0.00000000000E+00  0.00000000000E+00  0.99999998245E-14  0.12500000000E+03  0.12500000000E+03 0.  0.
        -11    1    1    0    0    0  0.26906002608E+02  0.13834124705E+02  0.31099359978E+02  0.43387626969E+02  0.51100000000E-03 0.  1.
         11    1    1    0    0    0  0.11851018960E+02  0.61032713521E+01  0.13696213532E+02  0.19112373923E+02  0.51100000000E-03 0. -1.
         22    1    1    0    0    0 -0.38757021568E+02 -0.19937396058E+02 -0.44795573510E+02  0.62499999108E+02  0.00000000000E+00 0.  1.
</event>
<event>
 4    1  0.1988088E-002  0.9118800E+02  0.7818608E-02  0.1130116E+00
         25   -1    0    0    0    0  0.00000000000E+00  0.00000000000E+00  0.99999998245E-14  0.12500000000E+03  0.12500000000E+03 0.  0.
        -11    1    1    0    0    0  0.25250156109E+02 -0.39970216132E+01  0.44236351421E+01  0.25944462096E+02  0.51100000000E-03 0.  1.
         11    1    1    0    0    0  0.35574829361E+02 -0.56767890407E+01  0.62059250828E+01  0.36555545739E+02  0.51100000000E-03 0. -1.
         22    1    1    0    0    0 -0.60824985470E+02  0.96738106539E+01 -0.10629560225E+02  0.62499992165E+02  0.00000000000E+00 0. -1.
</event>
<event>
 4    1  0.1988088E-002  0.9118800E+02  0.7818608E-02  0.1130116E+00
         25   -1    0    0    0    0  0.00000000000E+00  0.00000000000E+00  0.99999998245E-14  0.12500000000E+03  0.12500000000E+03 0.  0.
        -11    1    1    0    0    0 -0.22234024439E+02  0.55045668137E+01 -0.24983944831E+02  0.33894683922E+02  0.51100000000E-03 0. -1.
         11    1    1    0    0    0 -0.45024990495E+01  0.23119232951E+02 -0.20397649293E+02  0.31158233693E+02  0.51100000000E-03 0.  1.
         22    1    1    0    0    0  0.26736523489E+02 -0.28623799765E+02  0.45381594124E+02  0.59947082385E+02  0.00000000000E+00 0.  1.
</event>
<event>
 4    1  0.1988088E-002  0.9118800E+02  0.7818608E-02  0.1130116E+00
         25   -1    0    0    0    0  0.00000000000E+00  0.00000000000E+00  0.99999998245E-14  0.12500000000E+03  0.12500000000E+03 0.  0.
        -11    1    1    0    0    0  0.31479198683E+02 -0.48079168134E+02  0.23170552125E+02  0.61963060320E+02  0.51100000000E-03 0. -1.
         11    1    1    0    0    0  0.30766204056E+00 -0.33617362623E+00  0.29872001610E+00  0.54488764650E+00  0.51100000000E-03 0.  1.
         22    1    1    0    0    0 -0.31786860724E+02  0.48415341760E+02 -0.23469272141E+02  0.62492052033E+02  0.00000000000E+00 0. -1.
</event>
<event>
 4    1  0.1988088E-002  0.9118800E+02  0.7818608E-02  0.1130116E+00
         25   -1    0    0    0    0  0.00000000000E+00  0.00000000000E+00  0.99999998245E-14  0.12500000000E+03  0.12500000000E+03 0.  0.
        -11    1    1    0    0    0 -0.25872825234E+02  0.27736134027E+02  0.66214108976E+01  0.38503756945E+02  0.51100000000E-03 0. -1.
         11    1    1    0    0    0 -0.11967587363E+02  0.18283274925E+02  0.10865041681E+02  0.24403901743E+02  0.51100000000E-03 0.  1.
         22    1    1    0    0    0  0.37840412597E+02 -0.46019408953E+02 -0.17486452578E+02  0.62092341312E+02  0.00000000000E+00 0.  1.
</event>
<event>
 4    1  0.1988088E-002  0.9118800E+02  0.7818608E-02  0.1130116E+00
         25   -1    0    0    0    0  0.00000000000E+00  0.00000000000E+00  0.99999998245E-14  0.12500000000E+03  0.12500000000E+03 0.  0.
        -11    1    1    0    0    0 -0.37423326849E+02  0.33824482048E+01 -0.40064577821E+02  0.54928287289E+02  0.51100000000E-03 0. -1.
         11    1    1    0    0    0  0.15365706921E+02 -0.19392830633E+02  0.43127506017E+01  0.25115466294E+02  0.51100000000E-03 0.  1.
         22    1    1    0    0    0  0.22057619928E+02  0.16010382428E+02  0.35751827219E+02  0.44956246417E+02  0.00000000000E+00 0. -1.
</event>
<event>
 4    1  0.1988088E-002  0.9118800E+02  0.7818608E-02  0.1130116E+00
         25   -1    0    0    0    0  0.00000000000E+00  0.00000000000E+00  0.99999998245E-14  0.12500000000E+03  0.12500000000E+03 0.  0.
        -11    1    1    0    0    0  0.10075973957E+02 -0.26221923648E+02 -0.19036608901E+02  0.33933862287E+02  0.51100000000E-03 0. -1.
         11    1    1    0    0    0  0.71687343267E+01 -0.22279171200E+02 -0.16394780331E+02  0.28575182302E+02  0.51100000000E-03 0.  1.
         22    1    1    0    0    0 -0.17244708284E+02  0.48501094848E+02  0.35431389232E+02  0.62490955411E+02  0.00000000000E+00 0.  1.
</event>
<event>
 4    1  0.1988088E-002  0.9118800E+02  0.7818608E-02  0.1130116E+00
         25   -1    0    0    0    0  0.00000000000E+00  0.00000000000E+00  0.99999998245E-14  0.12500000000E+03  0.12500000000E+03 0.  0.
        -11    1    1    0    0    0 -0.20419871475E+02 -0.74714238372E+01 -0.12278850175E+02  0.24971253214E+02  0.51100000000E-03 0.  1.
         11    1    1    0    0    0 -0.30346518661E+02 -0.11219331282E+02 -0.19018659789E+02  0.37529908202E+02  0.51100000000E-03 0. -1.
         22    1    1    0    0    0  0.50766390135E+02  0.18690755119E+02  0.31297509965E+02  0.62498838583E+02  0.00000000000E+00 0. -1.
</event>
<event>
 4    1  0.1988088E-002  0.9118800E+02  0.7818608E-02  0.1130116E+00
         25   -1    0    0    0    0  0.00000000000E+00  0.00000000000E+00  0.99999998245E-14  0.12500000000E+03  0.12500000000E+03 0.  0.
        -11    1    1    0    0    0 -0.24601285550E+01  0.33243764972E+01 -0.23771813138E+02  0.24128879206E+02  0.51100000000E-03 0.  1.
         11    1    1    0    0    0 -0.39071372667E+01  0.52812504320E+01 -0.37804571075E+02  0.38371120940E+02  0.51100000000E-03 0. -1.
         22    1    1    0    0    0  0.63672658216E+01 -0.86056269292E+01  0.61576384214E+02  0.62499999854E+02  0.00000000000E+00 0. -1.
</event>
<event>
 4    1  0.1988088E-002  0.9118800E+02  0.7818608E-02  0.1130116E+00
         25   -1    0    0    0    0  0.00000000000E+00  0.00000000000E+00  0.99999998245E-14  0.12500000000E+03  0.12500000000E+03 0.  0.
        -11    1    1    0    0    0 -0.64629356283E+00  0.10027790590E+02  0.21839232619E+02  0.24040099025E+02  0.51100000000E-03 0. -1.
         11    1    1    0    0    0 -0.10328583096E+01  0.16042711896E+02  0.34938926458E+02  0.38459900983E+02  0.51100000000E-03 0. -1.
         22    1    1    0    0    0  0.16791518724E+01 -0.26070502486E+02 -0.56778159077E+02  0.62499999993E+02  0.00000000000E+00 0. -1.
</event>
<event>
 4    1  0.1988088E-002  0.9118800E+02  0.7818608E-02  0.1130116E+00
         25   -1    0    0    0    0  0.00000000000E+00  0.00000000000E+00  0.99999998245E-14  0.12500000000E+03  0.12500000000E+03 0.  0.
        -11    1    1    0    0    0  0.27484625210E+01  0.82246112854E+01 -0.15408702059E+02  0.17681243633E+02  0.51100000000E-03 0.  1.
         11    1    1    0    0    0  0.13577585568E+01  0.23679356928E+02 -0.38103572001E+02  0.44882487145E+02  0.51100000000E-03 0. -1.
         22    1    1    0    0    0 -0.41062210778E+01 -0.31903968214E+02  0.53512274059E+02  0.62436269222E+02  0.00000000000E+00 0. -1.
</event>
<event>
 4    1  0.1988088E-002  0.9118800E+02  0.7818608E-02  0.1130116E+00
         25   -1    0    0    0    0  0.00000000000E+00  0.00000000000E+00  0.99999998245E-14  0.12500000000E+03  0.12500000000E+03 0.  0.
        -11    1    1    0    0    0  0.29714063055E+01 -0.41245990964E+02 -0.24171835469E+02  0.47899255279E+02  0.51100000000E-03 0.  1.
         11    1    1    0    0    0 -0.50527931780E+01 -0.12987622432E+02 -0.58076691751E+01  0.15097618251E+02  0.51100000000E-03 0. -1.
         22    1    1    0    0    0  0.20813868725E+01  0.54233613397E+02  0.29979504644E+02  0.62003126470E+02  0.00000000000E+00 0.  1.
</event>
<event>
 4    1  0.1988088E-002  0.9118800E+02  0.7818608E-02  0.1130116E+00
         25   -1    0    0    0    0  0.00000000000E+00  0.00000000000E+00  0.99999998245E-14  0.12500000000E+03  0.12500000000E+03 0.  0.
        -11    1    1    0    0    0  0.41274149551E+02 -0.16555318135E+02 -0.36948086366E+02  0.57816909863E+02  0.51100000000E-03 0. -1.
         11    1    1    0    0    0  0.33462167580E+01 -0.13471809849E+01 -0.29865214025E+01  0.46830944413E+01  0.51100000000E-03 0.  1.
         22    1    1    0    0    0 -0.44620366309E+02  0.17902499119E+02  0.39934607769E+02  0.62499995696E+02  0.00000000000E+00 0. -1.
</event>
<event>
 4    1  0.1988088E-002  0.9118800E+02  0.7818608E-02  0.1130116E+00
         25   -1    0    0    0    0  0.00000000000E+00  0.00000000000E+00  0.99999998245E-14  0.12500000000E+03  0.12500000000E+03 0.  0.
        -11    1    1    0    0    0 -0.61013158790E+01  0.27745305427E+01  0.37248138708E+01  0.76680058569E+01  0.51100000000E-03 0.  1.
         11    1    1    0    0    0 -0.43548192687E+02  0.20055174492E+02  0.26606310620E+02  0.54832024177E+02  0.51100000000E-03 0. -1.
         22    1    1    0    0    0  0.49649508566E+02 -0.22829705035E+02 -0.30331124491E+02  0.62499969966E+02  0.00000000000E+00 0. -1.
</event>
<event>
 4    1  0.1988088E-002  0.9118800E+02  0.7818608E-02  0.1130116E+00
         25   -1    0    0    0    0  0.00000000000E+00  0.00000000000E+00  0.99999998245E-14  0.12500000000E+03  0.12500000000E+03 0.  0.
        -11    1    1    0    0    0 -0.24729502104E+02 -0.45809181669E+01 -0.62398578421E+01  0.25912717181E+02  0.51100000000E-03 0.  1.
         11    1    1    0    0    0 -0.35379536698E+02 -0.78105207651E+01 -0.53658381318E+01  0.36626603319E+02  0.51100000000E-03 0. -1.
         22    1    1    0    0    0  0.60109038802E+02  0.12391438932E+02  0.11605695974E+02  0.62460679500E+02  0.00000000000E+00 0. -1.
</event>
<event>
 4    1  0.1988088E-002  0.9118800E+02  0.7818608E-02  0.1130116E+00
         25   -1    0    0    0    0  0.00000000000E+00  0.00000000000E+00  0.99999998245E-14  0.12500000000E+03  0.12500000000E+03 0.  0.
        -11    1    1    0    0    0 -0.42624358316E+02 -0.84871858380E+00 -0.16286948800E+02  0.45637933198E+02  0.51100000000E-03 0.  1.
         11    1    1    0    0    0 -0.15812721949E+02  0.57804035210E-01 -0.58604317305E+01  0.16863871948E+02  0.51100000000E-03 0. -1.
         22    1    1    0    0    0  0.58437080265E+02  0.79091454859E+00  0.22147380530E+02  0.62498194855E+02  0.00000000000E+00 0.  1.
</event>
<event>
 4    1  0.1988088E-002  0.9118800E+02  0.7818608E-02  0.1130116E+00
         25   -1    0    0    0    0  0.00000000000E+00  0.00000000000E+00  0.99999998245E-14  0.12500000000E+03  0.12500000000E+03 0.  0.
        -11    1    1    0    0    0  0.31803692965E+01 -0.30086050876E+01 -0.56136441401E+01  0.71189503600E+01  0.51100000000E-03 0.  1.
         11    1    1    0    0    0  0.26571957619E+02 -0.18912148332E+02 -0.44774238123E+02  0.55393778405E+02  0.51100000000E-03 0. -1.
         22    1    1    0    0    0 -0.29752326916E+02  0.21920753420E+02  0.50387882263E+02  0.62487271235E+02  0.00000000000E+00 0. -1.
</event>
<event>
 4    1  0.1988088E-002  0.9118800E+02  0.7818608E-02  0.1130116E+00
         25   -1    0    0    0    0  0.00000000000E+00  0.00000000000E+00  0.99999998245E-14  0.12500000000E+03  0.12500000000E+03 0.  0.
        -11    1    1    0    0    0 -0.29566235338E+01 -0.35180115372E+01  0.11837779076E+02  0.12698466112E+02  0.51100000000E-03 0. -1.
         11    1    1    0    0    0 -0.11595935796E+02 -0.13797788650E+02  0.46425726482E+02  0.49801533895E+02  0.51100000000E-03 0. -1.
         22    1    1    0    0    0  0.14552559330E+02  0.17315800187E+02 -0.58263505558E+02  0.62499999993E+02  0.00000000000E+00 0. -1.
</event>
<event>
 4    1  0.1988088E-002  0.9118800E+02  0.7818608E-02  0.1130116E+00
         25   -1    0    0    0    0  0.00000000000E+00  0.00000000000E+00  0.99999998245E-14  0.12500000000E+03  0.12500000000E+03 0.  0.
        -11    1    1    0    0    0 -0.75512293189E+01 -0.86203176483E+01 -0.21919850029E+02  0.24734808796E+02  0.51100000000E-03 0.  1.
         11    1    1    0    0    0  0.20499882495E+01 -0.10262315531E+02 -0.36841899729E+02  0.38299388347E+02  0.51100000000E-03 0. -1.
         22    1    1    0    0    0  0.55012410694E+01  0.18882633179E+02  0.58761749758E+02  0.61965802857E+02  0.00000000000E+00 0. -1.
</event>
<event>
 4    1  0.1988088E-002  0.9118800E+02  0.7818608E-02  0.1130116E+00
         25   -1    0    0    0    0  0.00000000000E+00  0.00000000000E+00  0.99999998245E-14  0.12500000000E+03  0.12500000000E+03 0.  0.
        -11    1    1    0    0    0 -0.15603706175E+02 -0.16856560332E+02 -0.76498351789E+01  0.24210312909E+02  0.51100000000E-03 0.  1.
         11    1    1    0    0    0 -0.22482214781E+02 -0.29644683543E+02 -0.92762065493E+01  0.38344559615E+02  0.51100000000E-03 0. -1.
         22    1    1    0    0    0  0.38085920956E+02  0.46501243875E+02  0.16926041728E+02  0.62445127477E+02  0.00000000000E+00 0. -1.
</event>
<event>
 4    1  0.1988088E-002  0.9118800E+02  0.7818608E-02  0.1130116E+00
         25   -1    0    0    0    0  0.00000000000E+00  0.00000000000E+00  0.99999998245E-14  0.12500000000E+03  0.12500000000E+03 0.  0.
        -11    1    1    0    0    0  0.40802809273E+01  0.70804511337E+01 -0.22662149974E+02  0.24090548404E+02  0.51100000000E-03 0.  1.
         11    1    1    0    0    0  0.65011656446E+01  0.11284011810E+02 -0.36134359051E+02  0.38409451722E+02  0.51100000000E-03 0. -1.
         22    1    1    0    0    0 -0.10581446572E+02 -0.18364462944E+02  0.58796509025E+02  0.62499999874E+02  0.00000000000E+00 0.  1.
</event>
<event>
 4    1  0.1988088E-002  0.9118800E+02  0.7818608E-02  0.1130116E+00
         25   -1    0    0    0    0  0.00000000000E+00  0.00000000000E+00  0.99999998245E-14  0.12500000000E+03  0.12500000000E+03 0.  0.
        -11    1    1    0    0    0  0.17456837699E+01  0.21229567738E+00 -0.95489786569E-01  0.17611359515E+01  0.51100000000E-03 0. -1.
         11    1    1    0    0    0  0.28502165073E+02  0.53770088880E+02  0.56059557624E+01  0.61114831361E+02  0.51100000000E-03 0.  1.
         22    1    1    0    0    0 -0.30247848843E+02 -0.53982384557E+02 -0.55104659758E+01  0.62124032688E+02  0.00000000000E+00 0.  1.
</event>
<event>
 4    1  0.1988088E-002  0.9118800E+02  0.7818608E-02  0.1130116E+00
         25   -1    0    0    0    0  0.00000000000E+00  0.00000000000E+00  0.99999998245E-14  0.12500000000E+03  0.12500000000E+03 0.  0.
        -11    1    1    0    0    0  0.20945167746E+02  0.13837858224E+02  0.11850960993E+02  0.27760253040E+02  0.51100000000E-03 0.  1.
         11    1    1    0    0    0  0.20846105011E+02  0.25557116485E+02  0.11939006553E+02  0.35075150390E+02  0.51100000000E-03 0. -1.
         22    1    1    0    0    0 -0.41791272756E+02 -0.39394974709E+02 -0.23789967546E+02  0.62164596570E+02  0.00000000000E+00 0. -1.
</event>
<event>
 4    1  0.1988088E-002  0.9118800E+02  0.7818608E-02  0.1130116E+00
         25   -1    0    0    0    0  0.00000000000E+00  0.00000000000E+00  0.99999998245E-14  0.12500000000E+03  0.12500000000E+03 0.  0.
        -11    1    1    0    0    0 -0.60132166214E+01  0.41850752304E+01 -0.61461019053E+01  0.95628551025E+01  0.51100000000E-03 0. -1.
         11    1    1    0    0    0 -0.33287547278E+02  0.23169381838E+02 -0.34021467524E+02  0.52937144910E+02  0.51100000000E-03 0. -1.
         22    1    1    0    0    0  0.39300763899E+02 -0.27354457069E+02  0.40167569429E+02  0.62499999987E+02  0.00000000000E+00 0. -1.
</event>
<event>
 4    1  0.1988088E-002  0.9118800E+02  0.7818608E-02  0.1130116E+00
         25   -1    0    0    0    0  0.00000000000E+00  0.00000000000E+00  0.99999998245E-14  0.12500000000E+03  0.12500000000E+03 0.  0.
        -11    1    1    0    0    0 -0.94452989304E+01 -0.19199328357E+02  0.86685509089E+01  0.23086178903E+02  0.51100000000E-03 0.  1.
         11    1    1    0    0    0 -0.16144840251E+02 -0.32756107946E+02  0.14826702768E+02  0.39413824856E+02  0.51100000000E-03 0. -1.
         22    1    1    0    0    0  0.25590139181E+02  0.51955436303E+02 -0.23495253677E+02  0.62499996241E+02  0.00000000000E+00 0. -1.
</event>
<event>
 4    1  0.1988088E-002  0.9118800E+02  0.7818608E-02  0.1130116E+00
         25   -1    0    0    0    0  0.00000000000E+00  0.00000000000E+00  0.99999998245E-14  0.12500000000E+03  0.12500000000E+03 0.  0.
        -11    1    1    0    0    0 -0.17238032124E+02 -0.18408291945E+02 -0.60304658980E+01  0.25930319764E+02  0.51100000000E-03 0. -1.
         11    1    1    0    0    0 -0.24342563916E+02 -0.25949338464E+02 -0.84506670519E+01  0.36569691803E+02  0.51100000000E-03 0.  1.
         22    1    1    0    0    0  0.41580596040E+02  0.44357630409E+02  0.14481132950E+02  0.62499988433E+02  0.00000000000E+00 0. -1.
</event>
<event>
 4    1  0.1988088E-002  0.9118800E+02  0.7818608E-02  0.1130116E+00
         25   -1    0    0    0    0  0.00000000000E+00  0.00000000000E+00  0.99999998245E-14  0.12500000000E+03  0.12500000000E+03 0.  0.
        -11    1    1    0    0    0  0.11283612494E+02 -0.19511932080E+02 -0.39800397518E+02  0.45739556702E+02  0.51100000000E-03 0.  1.
         11    1    1    0    0    0  0.55706914476E+01 -0.68152793647E+01 -0.14291919834E+02  0.16785100799E+02  0.51100000000E-03 0. -1.
         22    1    1    0    0    0 -0.16854303942E+02  0.26327211445E+02  0.54092317352E+02  0.62475342499E+02  0.00000000000E+00 0.  1.
</event>
<event>
 4    1  0.1988088E-002  0.9118800E+02  0.7818608E-02  0.1130116E+00
         25   -1    0    0    0    0  0.00000000000E+00  0.00000000000E+00  0.99999998245E-14  0.12500000000E+03  0.12500000000E+03 0.  0.
        -11    1    1    0    0    0  0.31534724294E+02  0.10823436309E+02 -0.22755533605E+02  0.40365826137E+02  0.51100000000E-03 0.  1.
         11    1    1    0    0    0  0.16772447789E+02  0.96805877023E+01 -0.10966234853E+02  0.22255046399E+02  0.51100000000E-03 0. -1.
         22    1    1    0    0    0 -0.48307172083E+02 -0.20504024011E+02  0.33721768458E+02  0.62379127464E+02  0.00000000000E+00 0.  1.
</event>
<event>
 4    1  0.1988088E-002  0.9118800E+02  0.7818608E-02  0.1130116E+00
         25   -1    0    0    0    0  0.00000000000E+00  0.00000000000E+00  0.99999998245E-14  0.12500000000E+03  0.12500000000E+03 0.  0.
        -11    1    1    0    0    0  0.15125525041E+02  0.51947803172E+01 -0.68163841546E+01  0.17384773323E+02  0.51100000000E-03 0. -1.
         11    1    1    0    0    0  0.37852017860E+02  0.11532689609E+02 -0.21741455100E+02  0.45149408145E+02  0.51100000000E-03 0.  1.
         22    1    1    0    0    0 -0.52977542901E+02 -0.16727469926E+02  0.28557839255E+02  0.62465818532E+02  0.00000000000E+00 0.  1.
</event>
<event>
 4    1  0.1988088E-002  0.9118800E+02  0.7818608E-02  0.1130116E+00
         25   -1    0    0    0    0  0.00000000000E+00  0.00000000000E+00  0.99999998245E-14  0.12500000000E+03  0.12500000000E+03 0.  0.
        -11    1    1    0    0    0 -0.40062415032E+02 -0.25938203036E+01  0.65784287070E+01  0.40681700142E+02  0.51100000000E-03 0. -1.
         11    1    1    0    0    0 -0.21470595338E+02 -0.17493914612E+01  0.34690583591E+01  0.21819285066E+02  0.51100000000E-03 0.  1.
         22    1    1    0    0    0  0.61533010370E+02  0.43432117648E+01 -0.10047487066E+02  0.62499014792E+02  0.00000000000E+00 0. -1.
</event>
<event>
 4    1  0.1988088E-002  0.9118800E+02  0.7818608E-02  0.1130116E+00
         25   -1    0    0    0    0  0.00000000000E+00  0.00000000000E+00  0.99999998245E-14  0.12500000000E+03  0.12500000000E+03 0.  0.
        -11    1    1    0    0    0 -0.29455390205E+01 -0.29130481056E+00  0.48139392242E+00  0.29987995904E+01  0.51100000000E-03 0. -1.
         11    1    1    0    0    0 -0.58443198449E+02 -0.57764877608E+01  0.95612551139E+01  0.59501200454E+02  0.51100000000E-03 0. -1.
         22    1    1    0    0    0  0.61388737470E+02  0.60677925714E+01 -0.10042649036E+02  0.62499999956E+02  0.00000000000E+00 0. -1.
</event>
<event>
 4    1  0.1988088E-002  0.9118800E+02  0.7818608E-02  0.1130116E+00
         25   -1    0    0    0    0  0.00000000000E+00  0.00000000000E+00  0.99999998245E-14  0.12500000000E+03  0.12500000000E+03 0.  0.
        -11    1    1    0    0    0 -0.22953447763E+02  0.18247607213E+02 -0.33745386466E+02  0.44705559399E+02  0.51100000000E-03 0.  1.
         11    1    1    0    0    0 -0.10491615095E+02  0.63180580913E+01 -0.12950298097E+02  0.17824198899E+02  0.51100000000E-03 0. -1.
         22    1    1    0    0    0  0.33445062858E+02 -0.24565665304E+02  0.46695684563E+02  0.62470241701E+02  0.00000000000E+00 0.  1.
</event>
<event>
 4    1  0.1988088E-002  0.9118800E+02  0.7818608E-02  0.1130116E+00
         25   -1    0    0    0    0  0.00000000000E+00  0.00000000000E+00  0.99999998245E-14  0.12500000000E+03  0.12500000000E+03 0.  0.
        -11    1    1    0    0    0  0.60436135313E+01 -0.37832150219E+02 -0.55259106263E+01  0.38708300702E+02  0.51100000000E-03 0. -1.
         11    1    1    0    0    0  0.37126675746E+01 -0.23253369427E+02 -0.33973322894E+01  0.23791699333E+02  0.51100000000E-03 0.  1.
         22    1    1    0    0    0 -0.97562811058E+01  0.61085519646E+02  0.89232429157E+01  0.62499999965E+02  0.00000000000E+00 0. -1.
</event>
<event>
 4    1  0.1988088E-002  0.9118800E+02  0.7818608E-02  0.1130116E+00
         25   -1    0    0    0    0  0.00000000000E+00  0.00000000000E+00  0.99999998245E-14  0.12500000000E+03  0.12500000000E+03 0.  0.
        -11    1    1    0    0    0 -0.23005212105E+02  0.15313476437E+02  0.16185349355E+02  0.32026674486E+02  0.51100000000E-03 0. -1.
         11    1    1    0    0    0 -0.22075196894E+02  0.13976271317E+02  0.15687370441E+02  0.30475302615E+02  0.51100000000E-03 0.  1.
         22    1    1    0    0    0  0.45080409000E+02 -0.29289747755E+02 -0.31872719796E+02  0.62498022899E+02  0.00000000000E+00 0. -1.
</event>
<event>
 4    1  0.1988088E-002  0.9118800E+02  0.7818608E-02  0.1130116E+00
         25   -1    0    0    0    0  0.00000000000E+00  0.00000000000E+00  0.99999998245E-14  0.12500000000E+03  0.12500000000E+03 0.  0.
        -11    1    1    0    0    0 -0.11946165708E+02  0.15248375765E+02  0.47556991953E+01  0.19945939779E+02  0.51100000000E-03 0. -1.
         11    1    1    0    0    0 -0.25489377108E+02  0.32529813442E+02  0.10146474032E+02  0.42554060247E+02  0.51100000000E-03 0.  1.
         22    1    1    0    0    0  0.37435542816E+02 -0.47778189207E+02 -0.14902173228E+02  0.62499999974E+02  0.00000000000E+00 0.  1.
</event>
<event>
 4    1  0.1988088E-002  0.9118800E+02  0.7818608E-02  0.1130116E+00
         25   -1    0    0    0    0  0.00000000000E+00  0.00000000000E+00  0.99999998245E-14  0.12500000000E+03  0.12500000000E+03 0.  0.
        -11    1    1    0    0    0  0.38154786028E+01  0.97969464061E+01  0.40257820816E+00  0.10521411755E+02  0.51100000000E-03 0.  1.
         11    1    1    0    0    0  0.23921830122E+02  0.45757077519E+02  0.63368575374E+01  0.52020379307E+02  0.51100000000E-03 0. -1.
         22    1    1    0    0    0 -0.27737308725E+02 -0.55554023925E+02 -0.67394357456E+01  0.62458208938E+02  0.00000000000E+00 0. -1.
</event>
<event>
 4    1  0.1988088E-002  0.9118800E+02  0.7818608E-02  0.1130116E+00
         25   -1    0    0    0    0  0.00000000000E+00  0.00000000000E+00  0.99999998245E-14  0.12500000000E+03  0.12500000000E+03 0.  0.
        -11    1    1    0    0    0  0.42116372246E+02 -0.29397352564E+02  0.11310498099E+02  0.52592019513E+02  0.51100000000E-03 0. -1.
         11    1    1    0    0    0  0.77394099947E+01 -0.58268194358E+01  0.20903384719E+01  0.99105906480E+01  0.51100000000E-03 0.  1.
         22    1    1    0    0    0 -0.49855782241E+02  0.35224172000E+02 -0.13400836570E+02  0.62497389839E+02  0.00000000000E+00 0. -1.
</event>
<event>
 4    1  0.1988088E-002  0.9118800E+02  0.7818608E-02  0.1130116E+00
         25   -1    0    0    0    0  0.00000000000E+00  0.00000000000E+00  0.99999998245E-14  0.12500000000E+03  0.12500000000E+03 0.  0.
        -11    1    1    0    0    0  0.15313446946E+02  0.29489022114E+02 -0.35879581419E+02  0.48902438034E+02  0.51100000000E-03 0.  1.
         11    1    1    0    0    0  0.32149031435E+01  0.65207947835E+01 -0.11601919326E+02  0.13691636102E+02  0.51100000000E-03 0. -1.
         22    1    1    0    0    0 -0.18528350089E+02 -0.36009816898E+02  0.47481500745E+02  0.62405925865E+02  0.00000000000E+00 0.  1.
</event>
<event>
 4    1  0.1988088E-002  0.9118800E+02  0.7818608E-02  0.1130116E+00
         25   -1    0    0    0    0  0.00000000000E+00  0.00000000000E+00  0.99999998245E-14  0.12500000000E+03  0.12500000000E+03 0.  0.
        -11    1    1    0    0    0  0.16087808195E+02 -0.16186325688E+02  0.14771903718E+02  0.27184993131E+02  0.51100000000E-03 0. -1.
         11    1    1    0    0    0  0.38882793891E+02  0.33943000916E+01 -0.13700691892E+02  0.41365467391E+02  0.51100000000E-03 0.  1.
         22    1    1    0    0    0 -0.54970602086E+02  0.12792025597E+02 -0.10712118264E+01  0.56449539478E+02  0.00000000000E+00 0. -1.
</event>
<event>
 4    1  0.1988088E-002  0.9118800E+02  0.7818608E-02  0.1130116E+00
         25   -1    0    0    0    0  0.00000000000E+00  0.00000000000E+00  0.99999998245E-14  0.12500000000E+03  0.12500000000E+03 0.  0.
        -11    1    1    0    0    0  0.28938240049E+02 -0.83592501966E+01 -0.26228133695E+02  0.39940127671E+02  0.51100000000E-03 0. -1.
         11    1    1    0    0    0  0.23828086276E+02  0.10132778495E+02 -0.46973460126E+00  0.25897327014E+02  0.51100000000E-03 0.  1.
         22    1    1    0    0    0 -0.52766326326E+02 -0.17735282979E+01  0.26697868297E+02  0.59162545315E+02  0.00000000000E+00 0. -1.
</event>
<event>
 4    1  0.1988088E-002  0.9118800E+02  0.7818608E-02  0.1130116E+00
         25   -1    0    0    0    0  0.00000000000E+00  0.00000000000E+00  0.99999998245E-14  0.12500000000E+03  0.12500000000E+03 0.  0.
        -11    1    1    0    0    0 -0.46431888334E+02 -0.10416211566E+02 -0.10941357342E+02  0.48827564125E+02  0.51100000000E-03 0. -1.
         11    1    1    0    0    0 -0.13001622498E+02 -0.29170773654E+01 -0.30633274161E+01  0.13672435886E+02  0.51100000000E-03 0. -1.
         22    1    1    0    0    0  0.59433510832E+02  0.13333288931E+02  0.14004684758E+02  0.62499999989E+02  0.00000000000E+00 0. -1.
</event>
<event>
 4    1  0.1988088E-002  0.9118800E+02  0.7818608E-02  0.1130116E+00
         25   -1    0    0    0    0  0.00000000000E+00  0.00000000000E+00  0.99999998245E-14  0.12500000000E+03  0.12500000000E+03 0.  0.
        -11    1    1    0    0    0  0.11026988034E+02  0.10322713802E+02  0.17472450293E+01  0.15205451352E+02  0.51100000000E-03 0.  1.
         11    1    1    0    0    0  0.27449073832E+02  0.37967038194E+02 -0.87312672108E+01  0.47656926788E+02  0.51100000000E-03 0. -1.
         22    1    1    0    0    0 -0.38476061867E+02 -0.48289751996E+02  0.69840221814E+01  0.62137621861E+02  0.00000000000E+00 0. -1.
</event>
<event>
 4    1  0.1988088E-002  0.9118800E+02  0.7818608E-02  0.1130116E+00
         25   -1    0    0    0    0  0.00000000000E+00  0.00000000000E+00  0.99999998245E-14  0.12500000000E+03  0.12500000000E+03 0.  0.
        -11    1    1    0    0    0 -0.23104277019E+01 -0.13956240537E+01 -0.21932244032E+01  0.34779413751E+01  0.51100000000E-03 0. -1.
         11    1    1    0    0    0 -0.39230569451E+02 -0.23778725622E+02 -0.37136753873E+02  0.59022062487E+02  0.51100000000E-03 0.  1.
         22    1    1    0    0    0  0.41540997153E+02  0.25174349676E+02  0.39329978276E+02  0.62499996138E+02  0.00000000000E+00 0.  1.
</event>
<event>
 4    1  0.1988088E-002  0.9118800E+02  0.7818608E-02  0.1130116E+00
         25   -1    0    0    0    0  0.00000000000E+00  0.00000000000E+00  0.99999998245E-14  0.12500000000E+03  0.12500000000E+03 0.  0.
        -11    1    1    0    0    0  0.10828239071E+01  0.16434614000E+01  0.76420233354E+00  0.21112741306E+01  0.51100000000E-03 0. -1.
         11    1    1    0    0    0  0.32732383125E+02  0.45967752957E+02  0.21504132985E+02  0.60389328136E+02  0.51100000000E-03 0.  1.
         22    1    1    0    0    0 -0.33815207032E+02 -0.47611214357E+02 -0.22268335319E+02  0.62499397734E+02  0.00000000000E+00 0.  1.
</event>
<event>
 4    1  0.1988088E-002  0.9118800E+02  0.7818608E-02  0.1130116E+00
         25   -1    0    0    0    0  0.00000000000E+00  0.00000000000E+00  0.99999998245E-14  0.12500000000E+03  0.12500000000E+03 0.  0.
        -11    1    1    0    0    0  0.24411499169E+02  0.55378251338E+02  0.11750809463E+02  0.61650251713E+02  0.51100000000E-03 0.  1.
         11    1    1    0    0    0  0.33814716192E+00  0.76255006308E+00  0.16201105285E+00  0.84974934197E+00  0.51100000000E-03 0. -1.
         22    1    1    0    0    0 -0.24749646331E+02 -0.56140801401E+02 -0.11912820516E+02  0.62499998945E+02  0.00000000000E+00 0.  1.
</event>
<event>
 4    1  0.1988088E-002  0.9118800E+02  0.7818608E-02  0.1130116E+00
         25   -1    0    0    0    0  0.00000000000E+00  0.00000000000E+00  0.99999998245E-14  0.12500000000E+03  0.12500000000E+03 0.  0.
        -11    1    1    0    0    0 -0.11086170281E+02  0.62332954876E+01  0.36778813822E+02  0.38915784594E+02  0.51100000000E-03 0.  1.
         11    1    1    0    0    0 -0.67107035535E+01  0.37787275384E+01  0.22291319240E+02  0.23584215860E+02  0.51100000000E-03 0. -1.
         22    1    1    0    0    0  0.17796873834E+02 -0.10012023026E+02 -0.59070133062E+02  0.62499999547E+02  0.00000000000E+00 0. -1.
</event>
<event>
 4    1  0.1988088E-002  0.9118800E+02  0.7818608E-02  0.1130116E+00
         25   -1    0    0    0    0  0.00000000000E+00  0.00000000000E+00  0.99999998245E-14  0.12500000000E+03  0.12500000000E+03 0.  0.
        -11    1    1    0    0    0  0.24912813507E+01 -0.27827051543E+02  0.16229348367E+02  0.32310107228E+02  0.51100000000E-03 0.  1.
         11    1    1    0    0    0 -0.14424076063E+02 -0.25514854505E+02  0.11393479072E+02  0.31446353307E+02  0.51100000000E-03 0. -1.
         22    1    1    0    0    0  0.11932794712E+02  0.53341906049E+02 -0.27622827439E+02  0.61243539465E+02  0.00000000000E+00 0. -1.
</event>
<event>
 4    1  0.1988088E-002  0.9118800E+02  0.7818608E-02  0.1130116E+00
         25   -1    0    0    0    0  0.00000000000E+00  0.00000000000E+00  0.99999998245E-14  0.12500000000E+03  0.12500000000E+03 0.  0.
        -11    1    1    0    0    0  0.11816028278E+01  0.13525832404E+01  0.11043061814E+01  0.21083545879E+01  0.51100000000E-03 0.  1.
         11    1    1    0    0    0  0.33786939544E+02  0.38797562666E+02  0.31628196199E+02  0.60391646340E+02  0.51100000000E-03 0. -1.
         22    1    1    0    0    0 -0.34968542372E+02 -0.40150145906E+02 -0.32732502381E+02  0.62499999072E+02  0.00000000000E+00 0. -1.
</event>
<event>
 4    1  0.1988088E-002  0.9118800E+02  0.7818608E-02  0.1130116E+00
         25   -1    0    0    0    0  0.00000000000E+00  0.00000000000E+00  0.99999998245E-14  0.12500000000E+03  0.12500000000E+03 0.  0.
        -11    1    1    0    0    0 -0.16433817744E+02  0.10670368254E+02 -0.40087423175E+02  0.44619823189E+02  0.51100000000E-03 0. -1.
         11    1    1    0    0    0 -0.65416720539E+01 -0.65281883372E+01 -0.16641354709E+02  0.19035372417E+02  0.51100000000E-03 0.  1.
         22    1    1    0    0    0  0.22975489798E+02 -0.41421799165E+01  0.56728777884E+02  0.61344804394E+02  0.00000000000E+00 0. -1.
</event>
<event>
 4    1  0.1988088E-002  0.9118800E+02  0.7818608E-02  0.1130116E+00
         25   -1    0    0    0    0  0.00000000000E+00  0.00000000000E+00  0.99999998245E-14  0.12500000000E+03  0.12500000000E+03 0.  0.
        -11    1    1    0    0    0 -0.12672130667E+02  0.84211232616E+01  0.19039303905E+00  0.15216256517E+02  0.51100000000E-03 0. -1.
         11    1    1    0    0    0 -0.38684273154E+02  0.27181778049E+02  0.78652167462E+00  0.47285734254E+02  0.51100000000E-03 0.  1.
         22    1    1    0    0    0  0.51356403821E+02 -0.35602901310E+02 -0.97691471367E+00  0.62498009228E+02  0.00000000000E+00 0.  1.
</event>
<event>
 4    1  0.1988088E-002  0.9118800E+02  0.7818608E-02  0.1130116E+00
         25   -1    0    0    0    0  0.00000000000E+00  0.00000000000E+00  0.99999998245E-14  0.12500000000E+03  0.12500000000E+03 0.  0.
        -11    1    1    0    0    0 -0.65550277952E+01  0.22958781667E+02  0.26772966161E+02  0.35872911261E+02  0.51100000000E-03 0.  1.
         11    1    1    0    0    0 -0.49382862247E+01  0.17035771075E+02  0.19859488017E+02  0.26627118349E+02  0.51100000000E-03 0. -1.
         22    1    1    0    0    0  0.11493314020E+02 -0.39994552742E+02 -0.46632454178E+02  0.62499970391E+02  0.00000000000E+00 0.  1.
</event>
<event>
 4    1  0.1988088E-002  0.9118800E+02  0.7818608E-02  0.1130116E+00
         25   -1    0    0    0    0  0.00000000000E+00  0.00000000000E+00  0.99999998245E-14  0.12500000000E+03  0.12500000000E+03 0.  0.
        -11    1    1    0    0    0  0.82020819077E+01  0.18808244777E+02 -0.21671970372E+01  0.20633006627E+02  0.51100000000E-03 0. -1.
         11    1    1    0    0    0  0.16547176861E+02  0.38194191955E+02 -0.44992383775E+01  0.41867033659E+02  0.51100000000E-03 0.  1.
         22    1    1    0    0    0 -0.24749258768E+02 -0.57002436733E+02  0.66664354147E+01  0.62499959713E+02  0.00000000000E+00 0.  1.
</event>
<event>
 4    1  0.1988088E-002  0.9118800E+02  0.7818608E-02  0.1130116E+00
         25   -1    0    0    0    0  0.00000000000E+00  0.00000000000E+00  0.99999998245E-14  0.12500000000E+03  0.12500000000E+03 0.  0.
        -11    1    1    0    0    0  0.39091155068E+02  0.32337083195E+02 -0.57999414403E+00  0.50736000508E+02  0.51100000000E-03 0.  1.
         11    1    1    0    0    0  0.90942135786E+01  0.74615791956E+01 -0.11351213719E+00  0.11764045646E+02  0.51100000000E-03 0. -1.
         22    1    1    0    0    0 -0.48185368647E+02 -0.39798662390E+02  0.69350628122E+00  0.62499953845E+02  0.00000000000E+00 0.  1.
</event>
<event>
 4    1  0.1988088E-002  0.9118800E+02  0.7818608E-02  0.1130116E+00
         25   -1    0    0    0    0  0.00000000000E+00  0.00000000000E+00  0.99999998245E-14  0.12500000000E+03  0.12500000000E+03 0.  0.
        -11    1    1    0    0    0  0.18239843114E+02 -0.18958237226E+02  0.12380805379E+02  0.29075607949E+02  0.51100000000E-03 0.  1.
         11    1    1    0    0    0  0.22641345402E+02 -0.17050303854E+02  0.17972170435E+02  0.33561023428E+02  0.51100000000E-03 0. -1.
         22    1    1    0    0    0 -0.40881188516E+02  0.36008541081E+02 -0.30352975813E+02  0.62363368623E+02  0.00000000000E+00 0.  1.
</event>
<event>
 4    1  0.1988088E-002  0.9118800E+02  0.7818608E-02  0.1130116E+00
         25   -1    0    0    0    0  0.00000000000E+00  0.00000000000E+00  0.99999998245E-14  0.12500000000E+03  0.12500000000E+03 0.  0.
        -11    1    1    0    0    0  0.75553459907E+00  0.22090910974E+01 -0.81820449587E+01  0.85086295004E+01  0.51100000000E-03 0. -1.
         11    1    1    0    0    0  0.10237776208E+01  0.26023756848E+02 -0.47423108333E+02  0.54103930036E+02  0.51100000000E-03 0.  1.
         22    1    1    0    0    0 -0.17793122199E+01 -0.28232847945E+02  0.55605153292E+02  0.62387440464E+02  0.00000000000E+00 0.  1.
</event>
<event>
 4    1  0.1988088E-002  0.9118800E+02  0.7818608E-02  0.1130116E+00
         25   -1    0    0    0    0  0.00000000000E+00  0.00000000000E+00  0.99999998245E-14  0.12500000000E+03  0.12500000000E+03 0.  0.
        -11    1    1    0    0    0  0.16441408853E+01 -0.10352317189E+02 -0.54435090832E+02  0.55435122301E+02  0.51100000000E-03 0.  1.
         11    1    1    0    0    0 -0.61010266045E+01  0.99358906587E+01 -0.29327154288E+01  0.12022698069E+02  0.51100000000E-03 0. -1.
         22    1    1    0    0    0  0.44568857192E+01  0.41642652988E+00  0.57367806261E+02  0.57542179630E+02  0.00000000000E+00 0.  1.
</event>
<event>
 4    1  0.1988088E-002  0.9118800E+02  0.7818608E-02  0.1130116E+00
         25   -1    0    0    0    0  0.00000000000E+00  0.00000000000E+00  0.99999998245E-14  0.12500000000E+03  0.12500000000E+03 0.  0.
        -11    1    1    0    0    0  0.22251176765E+02 -0.29762392310E+01  0.12575205097E+02  0.25731471992E+02  0.51100000000E-03 0. -1.
         11    1    1    0    0    0  0.34048655680E+02 -0.14102375600E+02  0.64954160853E+01  0.37421629863E+02  0.51100000000E-03 0.  1.
         22    1    1    0    0    0 -0.56299832445E+02  0.17078614831E+02 -0.19070621182E+02  0.61846898145E+02  0.00000000000E+00 0. -1.
</event>
<event>
 4    1  0.1988088E-002  0.9118800E+02  0.7818608E-02  0.1130116E+00
         25   -1    0    0    0    0  0.00000000000E+00  0.00000000000E+00  0.99999998245E-14  0.12500000000E+03  0.12500000000E+03 0.  0.
        -11    1    1    0    0    0  0.27069088791E+01  0.85355703732E+00  0.41456286442E+02  0.41553334417E+02  0.51100000000E-03 0.  1.
         11    1    1    0    0    0  0.13790096491E+01  0.43262090162E+00  0.20896747173E+02  0.20946667304E+02  0.51100000000E-03 0. -1.
         22    1    1    0    0    0 -0.40859185282E+01 -0.12861779389E+01 -0.62353033615E+02  0.62499998280E+02  0.00000000000E+00 0.  1.
</event>
<event>
 4    1  0.1988088E-002  0.9118800E+02  0.7818608E-02  0.1130116E+00
         25   -1    0    0    0    0  0.00000000000E+00  0.00000000000E+00  0.99999998245E-14  0.12500000000E+03  0.12500000000E+03 0.  0.
        -11    1    1    0    0    0 -0.47833235934E+01  0.37334361126E+02 -0.38750629454E+02  0.54021717750E+02  0.51100000000E-03 0.  1.
         11    1    1    0    0    0 -0.75195224089E+00  0.58585914852E+01 -0.60821661012E+01  0.84782823206E+01  0.51100000000E-03 0.  1.
         22    1    1    0    0    0  0.55352758343E+01 -0.43192952611E+02  0.44832795556E+02  0.62499999929E+02  0.00000000000E+00 0.  1.
</event>
<event>
 4    1  0.1988088E-002  0.9118800E+02  0.7818608E-02  0.1130116E+00
         25   -1    0    0    0    0  0.00000000000E+00  0.00000000000E+00  0.99999998245E-14  0.12500000000E+03  0.12500000000E+03 0.  0.
        -11    1    1    0    0    0  0.59884882546E+01  0.10958830594E+01  0.16228500471E+01  0.63005232951E+01  0.51100000000E-03 0. -1.
         11    1    1    0    0    0  0.53364676297E+02  0.97376774347E+01  0.14689201835E+02  0.56199499010E+02  0.51100000000E-03 0.  1.
         22    1    1    0    0    0 -0.59353164552E+02 -0.10833560494E+02 -0.16312051882E+02  0.62499977695E+02  0.00000000000E+00 0.  1.
</event>
<event>
 4    1  0.1988088E-002  0.9118800E+02  0.7818608E-02  0.1130116E+00
         25   -1    0    0    0    0  0.00000000000E+00  0.00000000000E+00  0.99999998245E-14  0.12500000000E+03  0.12500000000E+03 0.  0.
        -11    1    1    0    0    0  0.18333316679E+02 -0.32711830752E+02  0.23259088128E+02  0.44126630875E+02  0.51100000000E-03 0.  1.
         11    1    1    0    0    0  0.60493045113E+01 -0.14456739473E+02  0.96500386168E+01  0.18404201880E+02  0.51100000000E-03 0. -1.
         22    1    1    0    0    0 -0.24382621191E+02  0.47168570225E+02 -0.32909126744E+02  0.62469167245E+02  0.00000000000E+00 0.  1.
</event>
<event>
 4    1  0.1988088E-002  0.9118800E+02  0.7818608E-02  0.1130116E+00
         25   -1    0    0    0    0  0.00000000000E+00  0.00000000000E+00  0.99999998245E-14  0.12500000000E+03  0.12500000000E+03 0.  0.
        -11    1    1    0    0    0  0.10162980183E+02 -0.26489107665E+02  0.53479872573E+02  0.60539704012E+02  0.51100000000E-03 0. -1.
         11    1    1    0    0    0  0.51012559910E+00 -0.78682909995E+00  0.17267785069E+01  0.19649662675E+01  0.51100000000E-03 0.  1.
         22    1    1    0    0    0 -0.10673105782E+02  0.27275936765E+02 -0.55206651080E+02  0.62495329721E+02  0.00000000000E+00 0. -1.
</event>
<event>
 4    1  0.1988088E-002  0.9118800E+02  0.7818608E-02  0.1130116E+00
         25   -1    0    0    0    0  0.00000000000E+00  0.00000000000E+00  0.99999998245E-14  0.12500000000E+03  0.12500000000E+03 0.  0.
        -11    1    1    0    0    0  0.22937935284E+02  0.29877344496E+02 -0.21546385951E+02  0.43394139432E+02  0.51100000000E-03 0.  1.
         11    1    1    0    0    0  0.10159926821E+02  0.13075450161E+02 -0.95313454195E+01  0.19105969112E+02  0.51100000000E-03 0. -1.
         22    1    1    0    0    0 -0.33097862105E+02 -0.42952794658E+02  0.31077731371E+02  0.62499891456E+02  0.00000000000E+00 0.  1.
</event>
<event>
 4    1  0.1988088E-002  0.9118800E+02  0.7818608E-02  0.1130116E+00
         25   -1    0    0    0    0  0.00000000000E+00  0.00000000000E+00  0.99999998245E-14  0.12500000000E+03  0.12500000000E+03 0.  0.
        -11    1    1    0    0    0  0.48689857121E+01 -0.33621756441E+01  0.17065016663E+01  0.61581973925E+01  0.51100000000E-03 0. -1.
         11    1    1    0    0    0  0.44500722051E+02 -0.30787101411E+02  0.15692013648E+02  0.56341806582E+02  0.51100000000E-03 0.  1.
         22    1    1    0    0    0 -0.49369707763E+02  0.34149277055E+02 -0.17398515315E+02  0.62499996025E+02  0.00000000000E+00 0.  1.
</event>
<event>
 4    1  0.1988088E-002  0.9118800E+02  0.7818608E-02  0.1130116E+00
         25   -1    0    0    0    0  0.00000000000E+00  0.00000000000E+00  0.99999998245E-14  0.12500000000E+03  0.12500000000E+03 0.  0.
        -11    1    1    0    0    0 -0.28258823866E+02  0.25640248372E+01 -0.12025347047E+02  0.30817922083E+02  0.51100000000E-03 0.  1.
         11    1    1    0    0    0 -0.29072846144E+02  0.25762162215E+01 -0.12324290776E+02  0.31682099305E+02  0.51100000000E-03 0. -1.
         22    1    1    0    0    0  0.57331670011E+02 -0.51402410587E+01  0.24349637824E+02  0.62499978612E+02  0.00000000000E+00 0.  1.
</event>
<event>
 4    1  0.1988088E-002  0.9118800E+02  0.7818608E-02  0.1130116E+00
         25   -1    0    0    0    0  0.00000000000E+00  0.00000000000E+00  0.99999998245E-14  0.12500000000E+03  0.12500000000E+03 0.  0.
        -11    1    1    0    0    0 -0.25759607555E+02 -0.19259180603E+01 -0.26350108200E+02  0.36899793281E+02  0.51100000000E-03 0.  1.
         11    1    1    0    0    0 -0.20846698421E+02 -0.22511068785E+00 -0.15059427512E+02  0.25718123320E+02  0.51100000000E-03 0. -1.
         22    1    1    0    0    0  0.46606305976E+02  0.21510287482E+01  0.41409535712E+02  0.62382083399E+02  0.00000000000E+00 0. -1.
</event>
<event>
 4    1  0.1988088E-002  0.9118800E+02  0.7818608E-02  0.1130116E+00
         25   -1    0    0    0    0  0.00000000000E+00  0.00000000000E+00  0.99999998245E-14  0.12500000000E+03  0.12500000000E+03 0.  0.
        -11    1    1    0    0    0  0.12623377580E+02  0.14626921726E+02  0.65037012757E+01  0.20386138213E+02  0.51100000000E-03 0. -1.
         11    1    1    0    0    0  0.26129616547E+02  0.30172799111E+02  0.13432179383E+02  0.42113870759E+02  0.51100000000E-03 0.  1.
         22    1    1    0    0    0 -0.38752994127E+02 -0.44799720837E+02 -0.19935880659E+02  0.62499991028E+02  0.00000000000E+00 0.  1.
</event>
<event>
 4    1  0.1988088E-002  0.9118800E+02  0.7818608E-02  0.1130116E+00
         25   -1    0    0    0    0  0.00000000000E+00  0.00000000000E+00  0.99999998245E-14  0.12500000000E+03  0.12500000000E+03 0.  0.
        -11    1    1    0    0    0 -0.51712599030E+01  0.99118828795E+01  0.39753528470E+00  0.11186839847E+02  0.51100000000E-03 0. -1.
         11    1    1    0    0    0 -0.46791044007E+02  0.20428272460E+02 -0.12204026461E+02  0.52494327095E+02  0.51100000000E-03 0.  1.
         22    1    1    0    0    0  0.51962303910E+02 -0.30340155340E+02  0.11806491177E+02  0.61318833058E+02  0.00000000000E+00 0.  1.
</event>
<event>
 4    1  0.1988088E-002  0.9118800E+02  0.7818608E-02  0.1130116E+00
         25   -1    0    0    0    0  0.00000000000E+00  0.00000000000E+00  0.99999998245E-14  0.12500000000E+03  0.12500000000E+03 0.  0.
        -11    1    1    0    0    0  0.17765084200E+02  0.11294915041E+02 -0.44037520144E+01  0.21507355822E+02  0.51100000000E-03 0. -1.
         11    1    1    0    0    0  0.33811014782E+02  0.21576990733E+02 -0.84644740412E+01  0.40992664841E+02  0.51100000000E-03 0.  1.
         22    1    1    0    0    0 -0.51576098981E+02 -0.32871905774E+02  0.12868226056E+02  0.62499979337E+02  0.00000000000E+00 0.  1.
</event>
<event>
 4    1  0.1988088E-002  0.9118800E+02  0.7818608E-02  0.1130116E+00
         25   -1    0    0    0    0  0.00000000000E+00  0.00000000000E+00  0.99999998245E-14  0.12500000000E+03  0.12500000000E+03 0.  0.
        -11    1    1    0    0    0 -0.41485985201E+01  0.65198128382E+01  0.59251873612E+02  0.59753689057E+02  0.51100000000E-03 0. -1.
         11    1    1    0    0    0 -0.25995862689E+01  0.72229541244E+01 -0.57341968029E+01  0.95817497509E+01  0.51100000000E-03 0.  1.
         22    1    1    0    0    0  0.67481847891E+01 -0.13742766963E+02 -0.53517676809E+02  0.55664561192E+02  0.00000000000E+00 0. -1.
</event>
<event>
 4    1  0.1988088E-002  0.9118800E+02  0.7818608E-02  0.1130116E+00
         25   -1    0    0    0    0  0.00000000000E+00  0.00000000000E+00  0.99999998245E-14  0.12500000000E+03  0.12500000000E+03 0.  0.
        -11    1    1    0    0    0 -0.56778716068E+01  0.26964890460E+01  0.58310615101E+00  0.63126295791E+01  0.51100000000E-03 0.  1.
         11    1    1    0    0    0 -0.50542254621E+02  0.23993348699E+02  0.51788340633E+01  0.56187370525E+02  0.51100000000E-03 0. -1.
         22    1    1    0    0    0  0.56220126228E+02 -0.26689837745E+02 -0.57619402143E+01  0.62499999896E+02  0.00000000000E+00 0. -1.
</event>
<event>
 4    1  0.1988088E-002  0.9118800E+02  0.7818608E-02  0.1130116E+00
         25   -1    0    0    0    0  0.00000000000E+00  0.00000000000E+00  0.99999998245E-14  0.12500000000E+03  0.12500000000E+03 0.  0.
        -11    1    1    0    0    0 -0.58898852327E+01  0.63245636231E+01  0.27581565302E+02  0.28903868216E+02  0.51100000000E-03 0.  1.
         11    1    1    0    0    0 -0.68395641810E+01  0.73481128802E+01  0.32061280119E+02  0.33596131983E+02  0.51100000000E-03 0. -1.
         22    1    1    0    0    0  0.12729449414E+02 -0.13672676503E+02 -0.59642845421E+02  0.62499999801E+02  0.00000000000E+00 0. -1.
</event>
<event>
 4    1  0.1988088E-002  0.9118800E+02  0.7818608E-02  0.1130116E+00
         25   -1    0    0    0    0  0.00000000000E+00  0.00000000000E+00  0.99999998245E-14  0.12500000000E+03  0.12500000000E+03 0.  0.
        -11    1    1    0    0    0  0.17671655975E+01  0.29247876311E+01  0.27980962706E+01  0.44166276656E+01  0.51100000000E-03 0.  1.
         11    1    1    0    0    0  0.19980366521E+02  0.39577040556E+02  0.37530776170E+02  0.58087144410E+02  0.51100000000E-03 0. -1.
         22    1    1    0    0    0 -0.21747532119E+02 -0.42501828187E+02 -0.40328872441E+02  0.62496227925E+02  0.00000000000E+00 0. -1.
</event>
<event>
 4    1  0.1988088E-002  0.9118800E+02  0.7818608E-02  0.1130116E+00
         25   -1    0    0    0    0  0.00000000000E+00  0.00000000000E+00  0.99999998245E-14  0.12500000000E+03  0.12500000000E+03 0.  0.
        -11    1    1    0    0    0  0.30625921613E+02  0.27946867647E+02 -0.20475109750E+02  0.46240724534E+02  0.51100000000E-03 0. -1.
         11    1    1    0    0    0  0.10977214924E+02  0.99210387528E+01 -0.67477873348E+01  0.16262192091E+02  0.51100000000E-03 0.  1.
         22    1    1    0    0    0 -0.41603136537E+02 -0.37867906399E+02  0.27222897085E+02  0.62497083375E+02  0.00000000000E+00 0. -1.
</event>
<event>
 4    1  0.1988088E-002  0.9118800E+02  0.7818608E-02  0.1130116E+00
         25   -1    0    0    0    0  0.00000000000E+00  0.00000000000E+00  0.99999998245E-14  0.12500000000E+03  0.12500000000E+03 0.  0.
        -11    1    1    0    0    0  0.87613836755E+01  0.34938135572E+02  0.50200735463E+02  0.61786317276E+02  0.51100000000E-03 0.  1.
         11    1    1    0    0    0  0.10081511067E+00  0.40518110069E+00  0.57879997615E+00  0.71368416292E+00  0.51100000000E-03 0. -1.
         22    1    1    0    0    0 -0.88621987862E+01 -0.35343316673E+02 -0.50779535439E+02  0.62499998562E+02  0.00000000000E+00 0.  1.
</event>
<event>
 4    1  0.1988088E-002  0.9118800E+02  0.7818608E-02  0.1130116E+00
         25   -1    0    0    0    0  0.00000000000E+00  0.00000000000E+00  0.99999998245E-14  0.12500000000E+03  0.12500000000E+03 0.  0.
        -11    1    1    0    0    0 -0.36206473821E+02 -0.10665543278E+02  0.25996022135E+02  0.45830729069E+02  0.51100000000E-03 0. -1.
         11    1    1    0    0    0 -0.12686184807E+02 -0.35999180121E+01  0.10212254334E+02  0.16678993780E+02  0.51100000000E-03 0.  1.
         22    1    1    0    0    0  0.48892658628E+02  0.14265461290E+02 -0.36208276469E+02  0.62490277151E+02  0.00000000000E+00 0. -1.
</event>
<event>
 4    1  0.1988088E-002  0.9118800E+02  0.7818608E-02  0.1130116E+00
         25   -1    0    0    0    0  0.00000000000E+00  0.00000000000E+00  0.99999998245E-14  0.12500000000E+03  0.12500000000E+03 0.  0.
        -11    1    1    0    0    0 -0.23121912258E+02 -0.38280367939E+01  0.18983089448E+01  0.23513406161E+02  0.51100000000E-03 0.  1.
         11    1    1    0    0    0 -0.37506609752E+02 -0.71052820300E+01  0.82362805142E+01  0.39052107815E+02  0.51100000000E-03 0. -1.
         22    1    1    0    0    0  0.60628522010E+02  0.10933318824E+02 -0.10134589459E+02  0.62434486024E+02  0.00000000000E+00 0. -1.
</event>
<event>
 4    1  0.1988088E-002  0.9118800E+02  0.7818608E-02  0.1130116E+00
         25   -1    0    0    0    0  0.00000000000E+00  0.00000000000E+00  0.99999998245E-14  0.12500000000E+03  0.12500000000E+03 0.  0.
        -11    1    1    0    0    0  0.46486272767E+01  0.95156636942E+01 -0.16707726549E+01  0.10721430531E+02  0.51100000000E-03 0.  1.
         11    1    1    0    0    0  0.22447948503E+02  0.45954735925E+02 -0.80791163104E+01  0.51778569568E+02  0.51100000000E-03 0.  1.
         22    1    1    0    0    0 -0.27096575780E+02 -0.55470399619E+02  0.97498889653E+01  0.62499999901E+02  0.00000000000E+00 0.  1.
</event>
<event>
 4    1  0.1988088E-002  0.9118800E+02  0.7818608E-02  0.1130116E+00
         25   -1    0    0    0    0  0.00000000000E+00  0.00000000000E+00  0.99999998245E-14  0.12500000000E+03  0.12500000000E+03 0.  0.
        -11    1    1    0    0    0  0.25615923806E+02 -0.60946216739E+00  0.88077784027E+01  0.27094721944E+02  0.51100000000E-03 0. -1.
         11    1    1    0    0    0  0.32326690018E+02 -0.90968759987E+01  0.11876451496E+02  0.35620473619E+02  0.51100000000E-03 0.  1.
         22    1    1    0    0    0 -0.57942613824E+02  0.97063381661E+01 -0.20684229899E+02  0.62284804437E+02  0.00000000000E+00 0.  1.
</event>
<event>
 4    1  0.1988088E-002  0.9118800E+02  0.7818608E-02  0.1130116E+00
         25   -1    0    0    0    0  0.00000000000E+00  0.00000000000E+00  0.99999998245E-14  0.12500000000E+03  0.12500000000E+03 0.  0.
        -11    1    1    0    0    0  0.15752129944E+00 -0.49331871341E+01 -0.65914529220E+01  0.82345856085E+01  0.51100000000E-03 0.  1.
         11    1    1    0    0    0  0.10450898316E+01 -0.32508808261E+02 -0.43437545692E+02  0.54265414431E+02  0.51100000000E-03 0. -1.
         22    1    1    0    0    0 -0.12026111310E+01  0.37441995396E+02  0.50028998614E+02  0.62499999961E+02  0.00000000000E+00 0. -1.
</event>
<event>
 4    1  0.1988088E-002  0.9118800E+02  0.7818608E-02  0.1130116E+00
         25   -1    0    0    0    0  0.00000000000E+00  0.00000000000E+00  0.99999998245E-14  0.12500000000E+03  0.12500000000E+03 0.  0.
        -11    1    1    0    0    0 -0.24941657461E+02  0.45209356357E+02 -0.12614067919E+02  0.53151546439E+02  0.51100000000E-03 0.  1.
         11    1    1    0    0    0 -0.32574694830E+01  0.83956576570E+01 -0.26457495890E+01  0.93860623306E+01  0.51100000000E-03 0. -1.
         22    1    1    0    0    0  0.28199126944E+02 -0.53605014014E+02  0.15259817508E+02  0.62462391230E+02  0.00000000000E+00 0.  1.
</event>
<event>
 4    1  0.1988088E-002  0.9118800E+02  0.7818608E-02  0.1130116E+00
         25   -1    0    0    0    0  0.00000000000E+00  0.00000000000E+00  0.99999998245E-14  0.12500000000E+03  0.12500000000E+03 0.  0.
        -11    1    1    0    0    0  0.15170812036E+02 -0.18363291131E+02  0.25199200211E+02  0.34675116301E+02  0.51100000000E-03 0. -1.
         11    1    1    0    0    0  0.50398345570E+00 -0.88785388189E+01  0.27534791097E+02  0.28935223723E+02  0.51100000000E-03 0.  1.
         22    1    1    0    0    0 -0.15674795492E+02  0.27241829950E+02 -0.52733991308E+02  0.61389659976E+02  0.00000000000E+00 0. -1.
</event>
<event>
 4    1  0.1988088E-002  0.9118800E+02  0.7818608E-02  0.1130116E+00
         25   -1    0    0    0    0  0.00000000000E+00  0.00000000000E+00  0.99999998245E-14  0.12500000000E+03  0.12500000000E+03 0.  0.
        -11    1    1    0    0    0 -0.17993298583E+01 -0.84541108094E+01  0.71953324468E+01  0.11246438850E+02  0.51100000000E-03 0. -1.
         11    1    1    0    0    0 -0.82554866255E+01 -0.38511800517E+02  0.32796585106E+02  0.51253564104E+02  0.51100000000E-03 0.  1.
         22    1    1    0    0    0  0.10054816484E+02  0.46965911326E+02 -0.39991917553E+02  0.62499997046E+02  0.00000000000E+00 0.  1.
</event>
<event>
 4    1  0.1988088E-002  0.9118800E+02  0.7818608E-02  0.1130116E+00
         25   -1    0    0    0    0  0.00000000000E+00  0.00000000000E+00  0.99999998245E-14  0.12500000000E+03  0.12500000000E+03 0.  0.
        -11    1    1    0    0    0  0.86028531394E+01 -0.22950348309E+02  0.44015335089E+02  0.50379333986E+02  0.51100000000E-03 0.  1.
         11    1    1    0    0    0  0.71623485986E+01  0.65722538598E+00  0.11034391726E+02  0.13171521692E+02  0.51100000000E-03 0. -1.
         22    1    1    0    0    0 -0.15765201738E+02  0.22293122923E+02 -0.55049726815E+02  0.61449144322E+02  0.00000000000E+00 0.  1.
</event>
<event>
 4    1  0.1988088E-002  0.9118800E+02  0.7818608E-02  0.1130116E+00
         25   -1    0    0    0    0  0.00000000000E+00  0.00000000000E+00  0.99999998245E-14  0.12500000000E+03  0.12500000000E+03 0.  0.
        -11    1    1    0    0    0  0.49845128020E+02  0.18243769531E+02  0.14694783216E+02  0.55075480643E+02  0.51100000000E-03 0. -1.
         11    1    1    0    0    0 -0.20928423918E+01  0.11437829407E+02  0.64083971950E+00  0.11645368462E+02  0.51100000000E-03 0.  1.
         22    1    1    0    0    0 -0.47752285628E+02 -0.29681598937E+02 -0.15335622936E+02  0.58279150895E+02  0.00000000000E+00 0. -1.
</event>
<event>
 4    1  0.1988088E-002  0.9118800E+02  0.7818608E-02  0.1130116E+00
         25   -1    0    0    0    0  0.00000000000E+00  0.00000000000E+00  0.99999998245E-14  0.12500000000E+03  0.12500000000E+03 0.  0.
        -11    1    1    0    0    0 -0.48509391580E+02 -0.33409425815E+02  0.52813426950E+01  0.59137495599E+02  0.51100000000E-03 0. -1.
         11    1    1    0    0    0 -0.27497689707E+01 -0.19154921112E+01  0.27661212644E+00  0.33625665718E+01  0.51100000000E-03 0.  1.
         22    1    1    0    0    0  0.51259160551E+02  0.35324917926E+02 -0.55579548215E+01  0.62499937829E+02  0.00000000000E+00 0. -1.
</event>
<event>
 4    1  0.1988088E-002  0.9118800E+02  0.7818608E-02  0.1130116E+00
         25   -1    0    0    0    0  0.00000000000E+00  0.00000000000E+00  0.99999998245E-14  0.12500000000E+03  0.12500000000E+03 0.  0.
        -11    1    1    0    0    0  0.14739132804E+02  0.69213002039E+01 -0.43440858193E+02  0.46392398010E+02  0.51100000000E-03 0.  1.
         11    1    1    0    0    0  0.51204717740E+01  0.24090222846E+01 -0.15080856739E+02  0.16107602547E+02  0.51100000000E-03 0. -1.
         22    1    1    0    0    0 -0.19859604579E+02 -0.93303224885E+01  0.58521714932E+02  0.62499999443E+02  0.00000000000E+00 0.  1.
</event>
<event>
 4    1  0.1988088E-002  0.9118800E+02  0.7818608E-02  0.1130116E+00
         25   -1    0    0    0    0  0.00000000000E+00  0.00000000000E+00  0.99999998245E-14  0.12500000000E+03  0.12500000000E+03 0.  0.
        -11    1    1    0    0    0 -0.46675468255E+01  0.64889307181E+01  0.50776475680E+01  0.94696737176E+01  0.51100000000E-03 0. -1.
         11    1    1    0    0    0 -0.22564144800E+02  0.36263240568E+02  0.31459717741E+02  0.53045990307E+02  0.51100000000E-03 0.  1.
         22    1    1    0    0    0  0.27231691626E+02 -0.42752171286E+02 -0.36537365309E+02  0.62484335975E+02  0.00000000000E+00 0.  1.
</event>
<event>
 4    1  0.1988088E-002  0.9118800E+02  0.7818608E-02  0.1130116E+00
         25   -1    0    0    0    0  0.00000000000E+00  0.00000000000E+00  0.99999998245E-14  0.12500000000E+03  0.12500000000E+03 0.  0.
        -11    1    1    0    0    0  0.41788886886E+01  0.87005726489E-01  0.64737556114E+01  0.77058544396E+01  0.51100000000E-03 0. -1.
         11    1    1    0    0    0  0.13021152908E+02  0.89182842673E+01  0.52702238940E+02  0.55014654474E+02  0.51100000000E-03 0.  1.
         22    1    1    0    0    0 -0.17200041597E+02 -0.90052899938E+01 -0.59175994551E+02  0.62279491086E+02  0.00000000000E+00 0.  1.
</event>
<event>
 4    1  0.1988088E-002  0.9118800E+02  0.7818608E-02  0.1130116E+00
         25   -1    0    0    0    0  0.00000000000E+00  0.00000000000E+00  0.99999998245E-14  0.12500000000E+03  0.12500000000E+03 0.  0.
        -11    1    1    0    0    0 -0.24308934110E+02 -0.16483401355E+02  0.19332174401E+02  0.35161907871E+02  0.51100000000E-03 0. -1.
         11    1    1    0    0    0 -0.18898678440E+02 -0.12740844684E+02  0.15095856579E+02  0.27338142880E+02  0.51100000000E-03 0.  1.
         22    1    1    0    0    0  0.43207612550E+02  0.29224246039E+02 -0.34428030980E+02  0.62499949248E+02  0.00000000000E+00 0.  1.
</event>
<event>
 4    1  0.1988088E-002  0.9118800E+02  0.7818608E-02  0.1130116E+00
         25   -1    0    0    0    0  0.00000000000E+00  0.00000000000E+00  0.99999998245E-14  0.12500000000E+03  0.12500000000E+03 0.  0.
        -11    1    1    0    0    0 -0.24592366004E+01  0.26351645629E+02 -0.13001967059E+02  0.29487424771E+02  0.51100000000E-03 0.  1.
         11    1    1    0    0    0 -0.48277624605E+00  0.31017172004E+02 -0.11469127272E+02  0.33073235595E+02  0.51100000000E-03 0. -1.
         22    1    1    0    0    0  0.29420128464E+01 -0.57368817633E+02  0.24471094331E+02  0.62439339634E+02  0.00000000000E+00 0.  1.
</event>
<event>
 4    1  0.1988088E-002  0.9118800E+02  0.7818608E-02  0.1130116E+00
         25   -1    0    0    0    0  0.00000000000E+00  0.00000000000E+00  0.99999998245E-14  0.12500000000E+03  0.12500000000E+03 0.  0.
        -11    1    1    0    0    0  0.44651272513E+02  0.62761399800E+01  0.24544408982E+02  0.51337647809E+02  0.51100000000E-03 0.  1.
         11    1    1    0    0    0  0.97084924374E+01  0.13649622462E+01  0.53366805258E+01  0.11162352200E+02  0.51100000000E-03 0. -1.
         22    1    1    0    0    0 -0.54359764950E+02 -0.76411022262E+01 -0.29881089508E+02  0.62499999991E+02  0.00000000000E+00 0.  1.
</event>
<event>
 4    1  0.1988088E-002  0.9118800E+02  0.7818608E-02  0.1130116E+00
         25   -1    0    0    0    0  0.00000000000E+00  0.00000000000E+00  0.99999998245E-14  0.12500000000E+03  0.12500000000E+03 0.  0.
        -11    1    1    0    0    0  0.11154268533E+02  0.39006139136E+02  0.31447814307E+02  0.51330903185E+02  0.51100000000E-03 0. -1.
         11    1    1    0    0    0  0.24161342826E+01  0.84757365776E+01  0.68609874936E+01  0.11169107621E+02  0.51100000000E-03 0.  1.
         22    1    1    0    0    0 -0.13570402815E+02 -0.47481875713E+02 -0.38308801801E+02  0.62499989194E+02  0.00000000000E+00 0. -1.
</event>
<event>
 4    1  0.1988088E-002  0.9118800E+02  0.7818608E-02  0.1130116E+00
         25   -1    0    0    0    0  0.00000000000E+00  0.00000000000E+00  0.99999998245E-14  0.12500000000E+03  0.12500000000E+03 0.  0.
        -11    1    1    0    0    0 -0.40641160098E+02 -0.27834320217E+02  0.30954093755E+02  0.58177394205E+02  0.51100000000E-03 0.  1.
         11    1    1    0    0    0 -0.10659311763E+01 -0.23450490262E+01  0.38848657474E+01  0.46612923470E+01  0.51100000000E-03 0. -1.
         22    1    1    0    0    0  0.41707091274E+02  0.30179369243E+02 -0.34838959502E+02  0.62161313448E+02  0.00000000000E+00 0.  1.
</event>
<event>
 4    1  0.1988088E-002  0.9118800E+02  0.7818608E-02  0.1130116E+00
         25   -1    0    0    0    0  0.00000000000E+00  0.00000000000E+00  0.99999998245E-14  0.12500000000E+03  0.12500000000E+03 0.  0.
        -11    1    1    0    0    0 -0.35692118692E+02 -0.18990905899E+02  0.26289518284E+02  0.48225725660E+02  0.51100000000E-03 0.  1.
         11    1    1    0    0    0 -0.10795568037E+02 -0.55105255194E+01  0.75426810094E+01  0.14275931417E+02  0.51100000000E-03 0. -1.
         22    1    1    0    0    0  0.46487686730E+02  0.24501431418E+02 -0.33832199294E+02  0.62498342923E+02  0.00000000000E+00 0. -1.
</event>
<event>
 4    1  0.1988088E-002  0.9118800E+02  0.7818608E-02  0.1130116E+00
         25   -1    0    0    0    0  0.00000000000E+00  0.00000000000E+00  0.99999998245E-14  0.12500000000E+03  0.12500000000E+03 0.  0.
        -11    1    1    0    0    0  0.30608706143E+02  0.61157067294E+01  0.41099264113E+01  0.31483110645E+02  0.51100000000E-03 0. -1.
         11    1    1    0    0    0  0.30208478607E+02  0.57130127221E+01  0.41088780537E+01  0.31017310864E+02  0.51100000000E-03 0.  1.
         22    1    1    0    0    0 -0.60817184750E+02 -0.11828719451E+02 -0.82188044649E+01  0.62499578491E+02  0.00000000000E+00 0. -1.
</event>
<event>
 4    1  0.1988088E-002  0.9118800E+02  0.7818608E-02  0.1130116E+00
         25   -1    0    0    0    0  0.00000000000E+00  0.00000000000E+00  0.99999998245E-14  0.12500000000E+03  0.12500000000E+03 0.  0.
        -11    1    1    0    0    0 -0.21158539451E+02 -0.93996200952E+01  0.37722039538E+01  0.23457752931E+02  0.51100000000E-03 0.  1.
         11    1    1    0    0    0 -0.35215967288E+02 -0.15643272284E+02  0.62785935404E+01  0.39042247078E+02  0.51100000000E-03 0.  1.
         22    1    1    0    0    0  0.56374506738E+02  0.25042892379E+02 -0.10050797494E+02  0.62499999992E+02  0.00000000000E+00 0.  1.
</event>
<event>
 4    1  0.1988088E-002  0.9118800E+02  0.7818608E-02  0.1130116E+00
         25   -1    0    0    0    0  0.00000000000E+00  0.00000000000E+00  0.99999998245E-14  0.12500000000E+03  0.12500000000E+03 0.  0.
        -11    1    1    0    0    0  0.22171282891E+02 -0.23487826376E+02 -0.16049957413E+02  0.36067227591E+02  0.51100000000E-03 0.  1.
         11    1    1    0    0    0  0.16238471587E+02 -0.17214351458E+02 -0.11775809212E+02  0.26432773946E+02  0.51100000000E-03 0. -1.
         22    1    1    0    0    0 -0.38409754478E+02  0.40702177834E+02  0.27825766625E+02  0.62499998463E+02  0.00000000000E+00 0. -1.
</event>
<event>
 4    1  0.1988088E-002  0.9118800E+02  0.7818608E-02  0.1130116E+00
         25   -1    0    0    0    0  0.00000000000E+00  0.00000000000E+00  0.99999998245E-14  0.12500000000E+03  0.12500000000E+03 0.  0.
        -11    1    1    0    0    0 -0.30910301783E+02 -0.11121313894E+02  0.45962812628E+02  0.56495225674E+02  0.51100000000E-03 0. -1.
         11    1    1    0    0    0 -0.32810412069E+01 -0.11837954034E+01  0.48878138690E+01  0.60047754028E+01  0.51100000000E-03 0.  1.
         22    1    1    0    0    0  0.34191342990E+02  0.12305109298E+02 -0.50850626497E+02  0.62499998923E+02  0.00000000000E+00 0. -1.
</event>
<event>
 4    1  0.1988088E-002  0.9118800E+02  0.7818608E-02  0.1130116E+00
         25   -1    0    0    0    0  0.00000000000E+00  0.00000000000E+00  0.99999998245E-14  0.12500000000E+03  0.12500000000E+03 0.  0.
        -11    1    1    0    0    0 -0.45523571520E+01 -0.49518776289E+00 -0.23329480416E+01  0.51392424914E+01  0.51100000000E-03 0. -1.
         11    1    1    0    0    0 -0.27637793106E+02  0.51928432836E+02 -0.33405590065E+01  0.58920022736E+02  0.51100000000E-03 0.  1.
         22    1    1    0    0    0  0.32190150258E+02 -0.51433245073E+02  0.56735070481E+01  0.60940734772E+02  0.00000000000E+00 0.  1.
</event>
<event>
 4    1  0.1988088E-002  0.9118800E+02  0.7818608E-02  0.1130116E+00
         25   -1    0    0    0    0  0.00000000000E+00  0.00000000000E+00  0.99999998245E-14  0.12500000000E+03  0.12500000000E+03 0.  0.
        -11    1    1    0    0    0 -0.20169285052E+02 -0.33691143878E+02  0.13352586506E+01  0.39289644325E+02  0.51100000000E-03 0. -1.
         11    1    1    0    0    0 -0.16084498469E+02 -0.95632341948E+01  0.18085579119E+02  0.26024117883E+02  0.51100000000E-03 0.  1.
         22    1    1    0    0    0  0.36253783520E+02  0.43254378073E+02 -0.19420837770E+02  0.59686237791E+02  0.00000000000E+00 0. -1.
</event>
<event>
 4    1  0.1988088E-002  0.9118800E+02  0.7818608E-02  0.1130116E+00
         25   -1    0    0    0    0  0.00000000000E+00  0.00000000000E+00  0.99999998245E-14  0.12500000000E+03  0.12500000000E+03 0.  0.
        -11    1    1    0    0    0 -0.36538986904E+01  0.17789299969E+02 -0.14392770508E+02  0.23172440790E+02  0.51100000000E-03 0. -1.
         11    1    1    0    0    0 -0.71504011125E+01  0.30263197911E+02 -0.24080236076E+02  0.39329977798E+02  0.51100000000E-03 0.  1.
         22    1    1    0    0    0  0.10804299803E+02 -0.48052497880E+02  0.38473006584E+02  0.62497581412E+02  0.00000000000E+00 0.  1.
</event>
<event>
 4    1  0.1988088E-002  0.9118800E+02  0.7818608E-02  0.1130116E+00
         25   -1    0    0    0    0  0.00000000000E+00  0.00000000000E+00  0.99999998245E-14  0.12500000000E+03  0.12500000000E+03 0.  0.
        -11    1    1    0    0    0  0.69846529280E+01 -0.29998588155E+02 -0.54128323343E+02  0.62278214940E+02  0.51100000000E-03 0.  1.
         11    1    1    0    0    0  0.24072442742E-01 -0.10629676507E+00 -0.19315936177E+00  0.22178657517E+00  0.51100000000E-03 0. -1.
         22    1    1    0    0    0 -0.70087253708E+01  0.30104884920E+02  0.54321482705E+02  0.62499998485E+02  0.00000000000E+00 0.  1.
</event>
<event>
 4    1  0.1988088E-002  0.9118800E+02  0.7818608E-02  0.1130116E+00
         25   -1    0    0    0    0  0.00000000000E+00  0.00000000000E+00  0.99999998245E-14  0.12500000000E+03  0.12500000000E+03 0.  0.
        -11    1    1    0    0    0 -0.32008774026E+00 -0.81849173582E+00 -0.29206075669E+01  0.30499727383E+01  0.51100000000E-03 0.  1.
         11    1    1    0    0    0 -0.19901336745E+01 -0.29800621357E+02 -0.51459875242E+02  0.59499213655E+02  0.51100000000E-03 0. -1.
         22    1    1    0    0    0  0.23102214148E+01  0.30619113093E+02  0.54380482809E+02  0.62450813607E+02  0.00000000000E+00 0. -1.
</event>
<event>
 4    1  0.1988088E-002  0.9118800E+02  0.7818608E-02  0.1130116E+00
         25   -1    0    0    0    0  0.00000000000E+00  0.00000000000E+00  0.99999998245E-14  0.12500000000E+03  0.12500000000E+03 0.  0.
        -11    1    1    0    0    0  0.28763408073E+01 -0.69857057971E+00 -0.10801530788E+01  0.31508837219E+01  0.51100000000E-03 0. -1.
         11    1    1    0    0    0  0.56886362849E+02 -0.39395036591E+01 -0.16535810722E+02  0.59371803103E+02  0.51100000000E-03 0.  1.
         22    1    1    0    0    0 -0.59762703656E+02  0.46380742388E+01  0.17615963801E+02  0.62477313175E+02  0.00000000000E+00 0.  1.
</event>
<event>
 4    1  0.1988088E-002  0.9118800E+02  0.7818608E-02  0.1130116E+00
         25   -1    0    0    0    0  0.00000000000E+00  0.00000000000E+00  0.99999998245E-14  0.12500000000E+03  0.12500000000E+03 0.  0.
        -11    1    1    0    0    0 -0.88655754345E+00 -0.33356396325E+02 -0.39306394221E+02  0.51559943629E+02  0.51100000000E-03 0.  1.
         11    1    1    0    0    0  0.54595919052E+01 -0.11834728725E+02  0.20470577221E+02  0.24267519028E+02  0.51100000000E-03 0. -1.
         22    1    1    0    0    0 -0.45730343617E+01  0.45191125051E+02  0.18835817000E+02  0.49172537343E+02  0.00000000000E+00 0.  1.
</event>
<event>
 4    1  0.1988088E-002  0.9118800E+02  0.7818608E-02  0.1130116E+00
         25   -1    0    0    0    0  0.00000000000E+00  0.00000000000E+00  0.99999998245E-14  0.12500000000E+03  0.12500000000E+03 0.  0.
        -11    1    1    0    0    0  0.29417321547E+02  0.47892108865E+02 -0.15870631677E+02  0.58402995203E+02  0.51100000000E-03 0. -1.
         11    1    1    0    0    0  0.20616779622E+01  0.33612756689E+01 -0.11120979192E+01  0.40970052703E+01  0.51100000000E-03 0.  1.
         22    1    1    0    0    0 -0.31478999509E+02 -0.51253384534E+02  0.16982729596E+02  0.62499999527E+02  0.00000000000E+00 0. -1.
</event>
<event>
 4    1  0.1988088E-002  0.9118800E+02  0.7818608E-02  0.1130116E+00
         25   -1    0    0    0    0  0.00000000000E+00  0.00000000000E+00  0.99999998245E-14  0.12500000000E+03  0.12500000000E+03 0.  0.
        -11    1    1    0    0    0  0.59237152299E+01  0.29165732595E+00  0.66058511386E+01  0.88776537242E+01  0.51100000000E-03 0. -1.
         11    1    1    0    0    0 -0.22111448627E+02  0.41930390926E+02  0.31561359727E+02  0.56949041007E+02  0.51100000000E-03 0.  1.
         22    1    1    0    0    0  0.16187733397E+02 -0.42222048252E+02 -0.38167210866E+02  0.59173305268E+02  0.00000000000E+00 0.  1.
</event>
<event>
 4    1  0.1988088E-002  0.9118800E+02  0.7818608E-02  0.1130116E+00
         25   -1    0    0    0    0  0.00000000000E+00  0.00000000000E+00  0.99999998245E-14  0.12500000000E+03  0.12500000000E+03 0.  0.
        -11    1    1    0    0    0 -0.88623854958E+01  0.41591356273E+01 -0.51265299638E+01  0.11050864019E+02  0.51100000000E-03 0.  1.
         11    1    1    0    0    0 -0.40550953166E+02  0.20343245891E+02 -0.24267872917E+02  0.51450530728E+02  0.51100000000E-03 0. -1.
         22    1    1    0    0    0  0.49413338661E+02 -0.24502381519E+02  0.29394402881E+02  0.62498605252E+02  0.00000000000E+00 0. -1.
</event>
<event>
 4    1  0.1988088E-002  0.9118800E+02  0.7818608E-02  0.1130116E+00
         25   -1    0    0    0    0  0.00000000000E+00  0.00000000000E+00  0.99999998245E-14  0.12500000000E+03  0.12500000000E+03 0.  0.
        -11    1    1    0    0    0 -0.32091736725E+02 -0.35926738739E+02 -0.38202896015E+02  0.61482285145E+02  0.51100000000E-03 0.  1.
         11    1    1    0    0    0 -0.54546750323E+00 -0.88192625426E+00 -0.26346888477E+00  0.10699274879E+01  0.51100000000E-03 0. -1.
         22    1    1    0    0    0  0.32637204229E+02  0.36808664993E+02  0.38466364900E+02  0.62447787367E+02  0.00000000000E+00 0.  1.
</event>
<event>
 4    1  0.1988088E-002  0.9118800E+02  0.7818608E-02  0.1130116E+00
         25   -1    0    0    0    0  0.00000000000E+00  0.00000000000E+00  0.99999998245E-14  0.12500000000E+03  0.12500000000E+03 0.  0.
        -11    1    1    0    0    0  0.27197861587E+02 -0.51735998183E+02  0.11908276242E+02  0.59650182113E+02  0.51100000000E-03 0.  1.
         11    1    1    0    0    0  0.13909589978E+01 -0.23924532925E+01  0.69060078850E+00  0.28522849438E+01  0.51100000000E-03 0. -1.
         22    1    1    0    0    0 -0.28588820584E+02  0.54128451475E+02 -0.12598877031E+02  0.62497532943E+02  0.00000000000E+00 0.  1.
</event>
<event>
 4    1  0.1988088E-002  0.9118800E+02  0.7818608E-02  0.1130116E+00
         25   -1    0    0    0    0  0.00000000000E+00  0.00000000000E+00  0.99999998245E-14  0.12500000000E+03  0.12500000000E+03 0.  0.
        -11    1    1    0    0    0 -0.16519485214E+02 -0.53880245789E+02 -0.16154669708E+02  0.58625486195E+02  0.51100000000E-03 0.  1.
         11    1    1    0    0    0 -0.10454307910E+01 -0.35811748984E+01 -0.10466726769E+01  0.38746952326E+01  0.51100000000E-03 0. -1.
         22    1    1    0    0    0  0.17564916005E+02  0.57461420687E+02  0.17201342385E+02  0.62499818572E+02  0.00000000000E+00 0.  1.
</event>
<event>
 4    1  0.1988088E-002  0.9118800E+02  0.7818608E-02  0.1130116E+00
         25   -1    0    0    0    0  0.00000000000E+00  0.00000000000E+00  0.99999998245E-14  0.12500000000E+03  0.12500000000E+03 0.  0.
        -11    1    1    0    0    0  0.27049216432E+02  0.16758784156E+02 -0.13772808051E+02  0.34672859672E+02  0.51100000000E-03 0. -1.
         11    1    1    0    0    0  0.21694915214E+02  0.13480691680E+02 -0.11043173848E+02  0.27827146516E+02  0.51100000000E-03 0.  1.
         22    1    1    0    0    0 -0.48744131646E+02 -0.30239475836E+02  0.24815981900E+02  0.62499993812E+02  0.00000000000E+00 0. -1.
</event>
<event>
 4    1  0.1988088E-002  0.9118800E+02  0.7818608E-02  0.1130116E+00
         25   -1    0    0    0    0  0.00000000000E+00  0.00000000000E+00  0.99999998245E-14  0.12500000000E+03  0.12500000000E+03 0.  0.
        -11    1    1    0    0    0  0.38456688267E+01 -0.28623746549E+01  0.71207817200E+01  0.85841650703E+01  0.51100000000E-03 0.  1.
         11    1    1    0    0    0  0.24146968184E+02 -0.17989122840E+02  0.44723960643E+02  0.53915835048E+02  0.51100000000E-03 0. -1.
         22    1    1    0    0    0 -0.27992637011E+02  0.20851497495E+02 -0.51844742363E+02  0.62499999882E+02  0.00000000000E+00 0. -1.
</event>
<event>
 4    1  0.1988088E-002  0.9118800E+02  0.7818608E-02  0.1130116E+00
         25   -1    0    0    0    0  0.00000000000E+00  0.00000000000E+00  0.99999998245E-14  0.12500000000E+03  0.12500000000E+03 0.  0.
        -11    1    1    0    0    0 -0.14318167202E+01  0.30751517576E+02  0.15120928850E+00  0.30785204187E+02  0.51100000000E-03 0.  1.
         11    1    1    0    0    0 -0.14753162721E+01  0.31680071959E+02  0.15734247940E+00  0.31714795827E+02  0.51100000000E-03 0.  1.
         22    1    1    0    0    0  0.29071329923E+01 -0.62431589535E+02 -0.30855176790E+00  0.62499999986E+02  0.00000000000E+00 0.  1.
</event>
<event>
 4    1  0.1988088E-002  0.9118800E+02  0.7818608E-02  0.1130116E+00
         25   -1    0    0    0    0  0.00000000000E+00  0.00000000000E+00  0.99999998245E-14  0.12500000000E+03  0.12500000000E+03 0.  0.
        -11    1    1    0    0    0 -0.64789856094E+01 -0.55328580261E+02 -0.22036530237E+02  0.59906908729E+02  0.51100000000E-03 0. -1.
         11    1    1    0    0    0 -0.48851817065E+00 -0.23914589131E+01 -0.88837843041E+00  0.25974876771E+01  0.51100000000E-03 0.  1.
         22    1    1    0    0    0  0.69675037800E+01  0.57720039175E+02  0.22924908667E+02  0.62495603594E+02  0.00000000000E+00 0. -1.
</event>
<event>
 4    1  0.1988088E-002  0.9118800E+02  0.7818608E-02  0.1130116E+00
         25   -1    0    0    0    0  0.00000000000E+00  0.00000000000E+00  0.99999998245E-14  0.12500000000E+03  0.12500000000E+03 0.  0.
        -11    1    1    0    0    0  0.31734984409E+02 -0.28316671589E+01  0.50127661061E+02  0.59396211816E+02  0.51100000000E-03 0. -1.
         11    1    1    0    0    0  0.16586154653E+01 -0.14875092176E+00  0.26192306546E+01  0.31037882630E+01  0.51100000000E-03 0.  1.
         22    1    1    0    0    0 -0.33393599875E+02  0.29804180806E+01 -0.52746891715E+02  0.62499999921E+02  0.00000000000E+00 0. -1.
</event>
<event>
 4    1  0.1988088E-002  0.9118800E+02  0.7818608E-02  0.1130116E+00
         25   -1    0    0    0    0  0.00000000000E+00  0.00000000000E+00  0.99999998245E-14  0.12500000000E+03  0.12500000000E+03 0.  0.
        -11    1    1    0    0    0  0.64464698427E+01  0.17718706114E+01  0.18341860101E+01  0.69325851943E+01  0.51100000000E-03 0.  1.
         11    1    1    0    0    0  0.51670549664E+02  0.14198679199E+02  0.14706780671E+02  0.55567414835E+02  0.51100000000E-03 0. -1.
         22    1    1    0    0    0 -0.58117019506E+02 -0.15970549810E+02 -0.16540966681E+02  0.62499999970E+02  0.00000000000E+00 0. -1.
</event>
<event>
 4    1  0.1988088E-002  0.9118800E+02  0.7818608E-02  0.1130116E+00
         25   -1    0    0    0    0  0.00000000000E+00  0.00000000000E+00  0.99999998245E-14  0.12500000000E+03  0.12500000000E+03 0.  0.
        -11    1    1    0    0    0  0.40765567801E+02  0.42771338015E+02 -0.18075499917E+02  0.61789502112E+02  0.51100000000E-03 0. -1.
         11    1    1    0    0    0  0.46668670148E+00  0.49103957757E+00 -0.21427462839E+00  0.71051405445E+00  0.51100000000E-03 0.  1.
         22    1    1    0    0    0 -0.41232254502E+02 -0.43262377593E+02  0.18289774546E+02  0.62499983834E+02  0.00000000000E+00 0. -1.
</event>
<event>
 4    1  0.1988088E-002  0.9118800E+02  0.7818608E-02  0.1130116E+00
         25   -1    0    0    0    0  0.00000000000E+00  0.00000000000E+00  0.99999998245E-14  0.12500000000E+03  0.12500000000E+03 0.  0.
        -11    1    1    0    0    0  0.21190847141E+01  0.31368226047E+02  0.26400481896E+02  0.41054129755E+02  0.51100000000E-03 0. -1.
         11    1    1    0    0    0  0.11168748891E+01  0.16409383649E+02  0.13762650346E+02  0.21445881331E+02  0.51100000000E-03 0.  1.
         22    1    1    0    0    0 -0.32359596031E+01 -0.47777609696E+02 -0.40163132242E+02  0.62499988914E+02  0.00000000000E+00 0. -1.
</event>
<event>
 4    1  0.1988088E-002  0.9118800E+02  0.7818608E-02  0.1130116E+00
         25   -1    0    0    0    0  0.00000000000E+00  0.00000000000E+00  0.99999998245E-14  0.12500000000E+03  0.12500000000E+03 0.  0.
        -11    1    1    0    0    0  0.57163789893E+01 -0.30047393012E+02  0.20481620574E+02  0.36810590829E+02  0.51100000000E-03 0.  1.
         11    1    1    0    0    0  0.39832483740E+01 -0.20964229708E+02  0.14303167273E+02  0.25689410059E+02  0.51100000000E-03 0. -1.
         22    1    1    0    0    0 -0.96996273633E+01  0.51011622720E+02 -0.34784787846E+02  0.62499999113E+02  0.00000000000E+00 0.  1.
</event>
<event>
 4    1  0.1988088E-002  0.9118800E+02  0.7818608E-02  0.1130116E+00
         25   -1    0    0    0    0  0.00000000000E+00  0.00000000000E+00  0.99999998245E-14  0.12500000000E+03  0.12500000000E+03 0.  0.
        -11    1    1    0    0    0  0.33286680686E+02  0.15306204498E+02  0.30197108826E+02  0.47477872625E+02  0.51100000000E-03 0. -1.
         11    1    1    0    0    0  0.12890791777E+02  0.32073792223E+01  0.73606187490E+01  0.15186787111E+02  0.51100000000E-03 0.  1.
         22    1    1    0    0    0 -0.46177472463E+02 -0.18513583720E+02 -0.37557727575E+02  0.62335340265E+02  0.00000000000E+00 0. -1.
</event>
<event>
 4    1  0.1988088E-002  0.9118800E+02  0.7818608E-02  0.1130116E+00
         25   -1    0    0    0    0  0.00000000000E+00  0.00000000000E+00  0.99999998245E-14  0.12500000000E+03  0.12500000000E+03 0.  0.
        -11    1    1    0    0    0  0.84196663908E+01 -0.43557112630E+01  0.22319558309E+02  0.24249240938E+02  0.51100000000E-03 0.  1.
         11    1    1    0    0    0  0.13281485783E+02 -0.68691582870E+01  0.35207064194E+02  0.38250759072E+02  0.51100000000E-03 0.  1.
         22    1    1    0    0    0 -0.21701152174E+02  0.11224869550E+02 -0.57526622503E+02  0.62499999989E+02  0.00000000000E+00 0.  1.
</event>
<event>
 4    1  0.1988088E-002  0.9118800E+02  0.7818608E-02  0.1130116E+00
         25   -1    0    0    0    0  0.00000000000E+00  0.00000000000E+00  0.99999998245E-14  0.12500000000E+03  0.12500000000E+03 0.  0.
        -11    1    1    0    0    0 -0.11957218436E+02  0.16100442403E+01  0.87275143521E+00  0.12096652864E+02  0.51100000000E-03 0. -1.
         11    1    1    0    0    0 -0.50355926149E+02  0.27739104595E+01 -0.56280509611E+00  0.50435410451E+02  0.51100000000E-03 0.  1.
         22    1    1    0    0    0  0.62313144585E+02 -0.43839546998E+01 -0.30994633910E+00  0.62467936685E+02  0.00000000000E+00 0.  1.
</event>
<event>
 4    1  0.1988088E-002  0.9118800E+02  0.7818608E-02  0.1130116E+00
         25   -1    0    0    0    0  0.00000000000E+00  0.00000000000E+00  0.99999998245E-14  0.12500000000E+03  0.12500000000E+03 0.  0.
        -11    1    1    0    0    0 -0.26686167901E+02 -0.29553751932E+02  0.15357543486E+02  0.42678214028E+02  0.51100000000E-03 0. -1.
         11    1    1    0    0    0 -0.15028907133E+02 -0.10641685824E+02  0.77160714577E+01  0.19966253675E+02  0.51100000000E-03 0.  1.
         22    1    1    0    0    0  0.41715075034E+02  0.40195437756E+02 -0.23073614943E+02  0.62355532297E+02  0.00000000000E+00 0. -1.
</event>
<event>
 4    1  0.1988088E-002  0.9118800E+02  0.7818608E-02  0.1130116E+00
         25   -1    0    0    0    0  0.00000000000E+00  0.00000000000E+00  0.99999998245E-14  0.12500000000E+03  0.12500000000E+03 0.  0.
        -11    1    1    0    0    0 -0.76298314297E+01 -0.87025558086E+01 -0.50806354907E+02  0.52107912110E+02  0.51100000000E-03 0. -1.
         11    1    1    0    0    0 -0.15003942758E+01 -0.17630375547E+01 -0.10130967854E+02  0.10392112121E+02  0.51100000000E-03 0.  1.
         22    1    1    0    0    0  0.91302257055E+01  0.10465593363E+02  0.60937322761E+02  0.62499975770E+02  0.00000000000E+00 0.  1.
</event>
<event>
 4    1  0.1988088E-002  0.9118800E+02  0.7818608E-02  0.1130116E+00
         25   -1    0    0    0    0  0.00000000000E+00  0.00000000000E+00  0.99999998245E-14  0.12500000000E+03  0.12500000000E+03 0.  0.
        -11    1    1    0    0    0  0.39707061276E+01 -0.15076332035E+02  0.40734551116E+01  0.16113824238E+02  0.51100000000E-03 0.  1.
         11    1    1    0    0    0  0.11669299273E+02 -0.43279960354E+02  0.11931657243E+02  0.46386333748E+02  0.51100000000E-03 0. -1.
         22    1    1    0    0    0 -0.15640005401E+02  0.58356292389E+02 -0.16005112354E+02  0.62499842014E+02  0.00000000000E+00 0.  1.
</event>
<event>
 4    1  0.1988088E-002  0.9118800E+02  0.7818608E-02  0.1130116E+00
         25   -1    0    0    0    0  0.00000000000E+00  0.00000000000E+00  0.99999998245E-14  0.12500000000E+03  0.12500000000E+03 0.  0.
        -11    1    1    0    0    0  0.86609661158E+01 -0.62686076578E+01  0.56211893452E+01  0.12079136805E+02  0.51100000000E-03 0. -1.
         11    1    1    0    0    0  0.36141657250E+02 -0.26210213847E+02  0.23432222288E+02  0.50420866120E+02  0.51100000000E-03 0.  1.
         22    1    1    0    0    0 -0.44802623366E+02  0.32478821505E+02 -0.29053411634E+02  0.62499997075E+02  0.00000000000E+00 0.  1.
</event>
<event>
 4    1  0.1988088E-002  0.9118800E+02  0.7818608E-02  0.1130116E+00
         25   -1    0    0    0    0  0.00000000000E+00  0.00000000000E+00  0.99999998245E-14  0.12500000000E+03  0.12500000000E+03 0.  0.
        -11    1    1    0    0    0  0.85889042102E+01 -0.92144226390E+01 -0.20115524905E+02  0.23734135809E+02  0.51100000000E-03 0.  1.
         11    1    1    0    0    0  0.12993978868E+02 -0.29923191826E+02 -0.22405806554E+02  0.39576016266E+02  0.51100000000E-03 0. -1.
         22    1    1    0    0    0 -0.21582883078E+02  0.39137614465E+02  0.42521331459E+02  0.61689847925E+02  0.00000000000E+00 0.  1.
</event>
<event>
 4    1  0.1988088E-002  0.9118800E+02  0.7818608E-02  0.1130116E+00
         25   -1    0    0    0    0  0.00000000000E+00  0.00000000000E+00  0.99999998245E-14  0.12500000000E+03  0.12500000000E+03 0.  0.
        -11    1    1    0    0    0  0.24835261384E+02  0.11054643389E+01  0.35626064739E+02  0.43442246126E+02  0.51100000000E-03 0. -1.
         11    1    1    0    0    0  0.11051346146E+02  0.33299578107E+00  0.15523376892E+02  0.19058288702E+02  0.51100000000E-03 0.  1.
         22    1    1    0    0    0 -0.35886607530E+02 -0.14384601200E+01 -0.51149441632E+02  0.62499465172E+02  0.00000000000E+00 0. -1.
</event>
<event>
 4    1  0.1988088E-002  0.9118800E+02  0.7818608E-02  0.1130116E+00
         25   -1    0    0    0    0  0.00000000000E+00  0.00000000000E+00  0.99999998245E-14  0.12500000000E+03  0.12500000000E+03 0.  0.
        -11    1    1    0    0    0  0.14139856829E+02 -0.51559289831E+02 -0.28107303925E+02  0.60401295128E+02  0.51100000000E-03 0. -1.
         11    1    1    0    0    0  0.68368933472E-01 -0.16651147654E+01 -0.13358521165E+01  0.21358330064E+01  0.51100000000E-03 0.  1.
         22    1    1    0    0    0 -0.14208225763E+02  0.53224404596E+02  0.29443156042E+02  0.62462871865E+02  0.00000000000E+00 0. -1.
</event>
<event>
 4    1  0.1988088E-002  0.9118800E+02  0.7818608E-02  0.1130116E+00
         25   -1    0    0    0    0  0.00000000000E+00  0.00000000000E+00  0.99999998245E-14  0.12500000000E+03  0.12500000000E+03 0.  0.
        -11    1    1    0    0    0  0.24762885759E+02 -0.22295679600E+02 -0.46593440727E+02  0.57282166151E+02  0.51100000000E-03 0. -1.
         11    1    1    0    0    0  0.21920511570E+01 -0.12344484691E+01 -0.46099135882E+01  0.52516906658E+01  0.51100000000E-03 0.  1.
         22    1    1    0    0    0 -0.26954936916E+02  0.23530128069E+02  0.51203354315E+02  0.62466143183E+02  0.00000000000E+00 0. -1.
</event>
<event>
 4    1  0.1988088E-002  0.9118800E+02  0.7818608E-02  0.1130116E+00
         25   -1    0    0    0    0  0.00000000000E+00  0.00000000000E+00  0.99999998245E-14  0.12500000000E+03  0.12500000000E+03 0.  0.
        -11    1    1    0    0    0  0.20502115454E+01  0.22065962182E+02  0.13937790351E+02  0.26179611428E+02  0.51100000000E-03 0. -1.
         11    1    1    0    0    0  0.28366985158E+01  0.30632089925E+02  0.19308005918E+02  0.36320392129E+02  0.51100000000E-03 0.  1.
         22    1    1    0    0    0 -0.48869100612E+01 -0.52698052107E+02 -0.33245796269E+02  0.62499996443E+02  0.00000000000E+00 0.  1.
</event>
<event>
 4    1  0.1988088E-002  0.9118800E+02  0.7818608E-02  0.1130116E+00
         25   -1    0    0    0    0  0.00000000000E+00  0.00000000000E+00  0.99999998245E-14  0.12500000000E+03  0.12500000000E+03 0.  0.
        -11    1    1    0    0    0 -0.29004381606E+02  0.51653126237E+02  0.95935402954E+01  0.60011129118E+02  0.51100000000E-03 0.  1.
         11    1    1    0    0    0 -0.21194013205E+01  0.11838021251E+01  0.12255687033E+01  0.27194242656E+01  0.51100000000E-03 0. -1.
         22    1    1    0    0    0  0.31123782926E+02 -0.52836928362E+02 -0.10819108999E+02  0.62269446616E+02  0.00000000000E+00 0.  1.
</event>
<event>
 4    1  0.1988088E-002  0.9118800E+02  0.7818608E-02  0.1130116E+00
         25   -1    0    0    0    0  0.00000000000E+00  0.00000000000E+00  0.99999998245E-14  0.12500000000E+03  0.12500000000E+03 0.  0.
        -11    1    1    0    0    0 -0.40847032694E+01  0.96326244767E+01 -0.81584238376E+01  0.13267710235E+02  0.51100000000E-03 0.  1.
         11    1    1    0    0    0 -0.15196778579E+02  0.35716415671E+02 -0.30285544247E+02  0.49232292432E+02  0.51100000000E-03 0. -1.
         22    1    1    0    0    0  0.19281481849E+02 -0.45349040147E+02  0.38443968084E+02  0.62499997333E+02  0.00000000000E+00 0. -1.
</event>
<event>
 4    1  0.1988088E-002  0.9118800E+02  0.7818608E-02  0.1130116E+00
         25   -1    0    0    0    0  0.00000000000E+00  0.00000000000E+00  0.99999998245E-14  0.12500000000E+03  0.12500000000E+03 0.  0.
        -11    1    1    0    0    0 -0.43830568976E+00  0.54396868762E-01  0.10700076126E+01  0.11575782691E+01  0.51100000000E-03 0. -1.
         11    1    1    0    0    0 -0.24148373527E+02  0.31909194875E+01  0.56298996878E+02  0.61342505336E+02  0.51100000000E-03 0.  1.
         22    1    1    0    0    0  0.24586679216E+02 -0.32453163563E+01 -0.57369004491E+02  0.62499916395E+02  0.00000000000E+00 0.  1.
</event>
<event>
 4    1  0.1988088E-002  0.9118800E+02  0.7818608E-02  0.1130116E+00
         25   -1    0    0    0    0  0.00000000000E+00  0.00000000000E+00  0.99999998245E-14  0.12500000000E+03  0.12500000000E+03 0.  0.
        -11    1    1    0    0    0 -0.31231441304E+02  0.44331525876E+02  0.14554798711E+01  0.54247631602E+02  0.51100000000E-03 0. -1.
         11    1    1    0    0    0 -0.47677269324E+01  0.67314265720E+01  0.24214644809E+00  0.82523911055E+01  0.51100000000E-03 0.  1.
         22    1    1    0    0    0  0.35999168237E+02 -0.51062952448E+02 -0.16976263192E+01  0.62499977293E+02  0.00000000000E+00 0. -1.
</event>
<event>
 4    1  0.1988088E-002  0.9118800E+02  0.7818608E-02  0.1130116E+00
         25   -1    0    0    0    0  0.00000000000E+00  0.00000000000E+00  0.99999998245E-14  0.12500000000E+03  0.12500000000E+03 0.  0.
        -11    1    1    0    0    0 -0.14050149241E+01  0.11548405358E+02  0.41066064278E+02  0.42682096584E+02  0.51100000000E-03 0. -1.
         11    1    1    0    0    0 -0.65220069700E+00  0.53627490849E+01  0.19067376653E+02  0.19817903425E+02  0.51100000000E-03 0.  1.
         22    1    1    0    0    0  0.20572156211E+01 -0.16911154443E+02 -0.60133440931E+02  0.62499999991E+02  0.00000000000E+00 0.  1.
</event>
<event>
 4    1  0.1988088E-002  0.9118800E+02  0.7818608E-02  0.1130116E+00
         25   -1    0    0    0    0  0.00000000000E+00  0.00000000000E+00  0.99999998245E-14  0.12500000000E+03  0.12500000000E+03 0.  0.
        -11    1    1    0    0    0  0.11240037808E+01 -0.67065826727E+00  0.78040853456E+00  0.15238781948E+01  0.51100000000E-03 0.  1.
         11    1    1    0    0    0  0.47414197702E+02 -0.20097921335E+02  0.32660462989E+02  0.60981459712E+02  0.51100000000E-03 0. -1.
         22    1    1    0    0    0 -0.48538201482E+02  0.20768579602E+02 -0.33440871524E+02  0.62494662093E+02  0.00000000000E+00 0. -1.
</event>
<event>
 4    1  0.1988088E-002  0.9118800E+02  0.7818608E-02  0.1130116E+00
         25   -1    0    0    0    0  0.00000000000E+00  0.00000000000E+00  0.99999998245E-14  0.12500000000E+03  0.12500000000E+03 0.  0.
        -11    1    1    0    0    0 -0.59918367717E+01 -0.36965575341E+02  0.31179808181E+02  0.48729214099E+02  0.51100000000E-03 0. -1.
         11    1    1    0    0    0 -0.38788160317E+01 -0.15622262131E+02 -0.68824861445E+01  0.17506253274E+02  0.51100000000E-03 0.  1.
         22    1    1    0    0    0  0.98706528034E+01  0.52587837472E+02 -0.24297322036E+02  0.58764532627E+02  0.00000000000E+00 0. -1.
</event>
<event>
 4    1  0.1988088E-002  0.9118800E+02  0.7818608E-02  0.1130116E+00
         25   -1    0    0    0    0  0.00000000000E+00  0.00000000000E+00  0.99999998245E-14  0.12500000000E+03  0.12500000000E+03 0.  0.
        -11    1    1    0    0    0  0.26074130451E+01 -0.43011622752E+01 -0.29133197973E+01  0.58125753508E+01  0.51100000000E-03 0.  1.
         11    1    1    0    0    0  0.25427266173E+02 -0.41950580628E+02 -0.28408925281E+02  0.56687424672E+02  0.51100000000E-03 0. -1.
         22    1    1    0    0    0 -0.28034679218E+02  0.46251742903E+02  0.31322245078E+02  0.62499999977E+02  0.00000000000E+00 0. -1.
</event>
<event>
 4    1  0.1988088E-002  0.9118800E+02  0.7818608E-02  0.1130116E+00
         25   -1    0    0    0    0  0.00000000000E+00  0.00000000000E+00  0.99999998245E-14  0.12500000000E+03  0.12500000000E+03 0.  0.
        -11    1    1    0    0    0 -0.10169253313E+02  0.67424576075E+00 -0.59153921713E+01  0.11783895158E+02  0.51100000000E-03 0. -1.
         11    1    1    0    0    0 -0.41725134420E+02 -0.36924166566E+01 -0.28687631395E+02  0.50770079559E+02  0.51100000000E-03 0.  1.
         22    1    1    0    0    0  0.51894387733E+02  0.30181708958E+01  0.34603023566E+02  0.62446025283E+02  0.00000000000E+00 0.  1.
</event>
<event>
 4    1  0.1988088E-002  0.9118800E+02  0.7818608E-02  0.1130116E+00
         25   -1    0    0    0    0  0.00000000000E+00  0.00000000000E+00  0.99999998245E-14  0.12500000000E+03  0.12500000000E+03 0.  0.
        -11    1    1    0    0    0  0.10889970800E+02 -0.20102990267E+02  0.26122404461E+02  0.34714574702E+02  0.51100000000E-03 0. -1.
         11    1    1    0    0    0  0.56254229779E+01 -0.15759165165E+02  0.22253579628E+02  0.27842745499E+02  0.51100000000E-03 0.  1.
         22    1    1    0    0    0 -0.16515393778E+02  0.35862155432E+02 -0.48375984089E+02  0.62442679799E+02  0.00000000000E+00 0. -1.
</event>
<event>
 4    1  0.1988088E-002  0.9118800E+02  0.7818608E-02  0.1130116E+00
         25   -1    0    0    0    0  0.00000000000E+00  0.00000000000E+00  0.99999998245E-14  0.12500000000E+03  0.12500000000E+03 0.  0.
        -11    1    1    0    0    0 -0.22869416357E+02 -0.17000360539E+02  0.41730694595E+02  0.50531904126E+02  0.51100000000E-03 0. -1.
         11    1    1    0    0    0 -0.17262444330E+01  0.13418150924E+02  0.10168537921E+02  0.16924120591E+02  0.51100000000E-03 0.  1.
         22    1    1    0    0    0  0.24595660790E+02  0.35822096146E+01 -0.51899232517E+02  0.57543975282E+02  0.00000000000E+00 0. -1.
</event>
<event>
 4    1  0.1988088E-002  0.9118800E+02  0.7818608E-02  0.1130116E+00
         25   -1    0    0    0    0  0.00000000000E+00  0.00000000000E+00  0.99999998245E-14  0.12500000000E+03  0.12500000000E+03 0.  0.
        -11    1    1    0    0    0 -0.47678143413E+02 -0.28403873147E+02  0.12096493984E+02  0.56800620912E+02  0.51100000000E-03 0. -1.
         11    1    1    0    0    0 -0.47926794389E+01 -0.28392520390E+01  0.12049546634E+01  0.56993898223E+01  0.51100000000E-03 0.  1.
         22    1    1    0    0    0  0.52470822852E+02  0.31243125186E+02 -0.13301448648E+02  0.62499989266E+02  0.00000000000E+00 0. -1.
</event>
<event>
 4    1  0.1988088E-002  0.9118800E+02  0.7818608E-02  0.1130116E+00
         25   -1    0    0    0    0  0.00000000000E+00  0.00000000000E+00  0.99999998245E-14  0.12500000000E+03  0.12500000000E+03 0.  0.
        -11    1    1    0    0    0  0.15400738929E+02 -0.88129830074E+01  0.21825038177E+01  0.17877772574E+02  0.51100000000E-03 0.  1.
         11    1    1    0    0    0  0.38440903848E+02 -0.21996729901E+02  0.54391153538E+01  0.44622227545E+02  0.51100000000E-03 0. -1.
         22    1    1    0    0    0 -0.53841642776E+02  0.30809712908E+02 -0.76216191715E+01  0.62499999881E+02  0.00000000000E+00 0. -1.
</event>
<event>
 4    1  0.1988088E-002  0.9118800E+02  0.7818608E-02  0.1130116E+00
         25   -1    0    0    0    0  0.00000000000E+00  0.00000000000E+00  0.99999998245E-14  0.12500000000E+03  0.12500000000E+03 0.  0.
        -11    1    1    0    0    0 -0.21462565409E+01  0.31487052505E+02 -0.82802512296E+01  0.32628261573E+02  0.51100000000E-03 0. -1.
         11    1    1    0    0    0 -0.19729404540E+01  0.28819608757E+02 -0.76064852468E+01  0.29871741848E+02  0.51100000000E-03 0.  1.
         22    1    1    0    0    0  0.41191969950E+01 -0.60306661262E+02  0.15886736476E+02  0.62499996579E+02  0.00000000000E+00 0.  1.
</event>
<event>
 4    1  0.1988088E-002  0.9118800E+02  0.7818608E-02  0.1130116E+00
         25   -1    0    0    0    0  0.00000000000E+00  0.00000000000E+00  0.99999998245E-14  0.12500000000E+03  0.12500000000E+03 0.  0.
        -11    1    1    0    0    0 -0.30301549254E+01  0.49146417250E+01 -0.89821125616E+01  0.10677728620E+02  0.51100000000E-03 0.  1.
         11    1    1    0    0    0 -0.16730081054E+02  0.25432188608E+02 -0.41948184946E+02  0.51829933918E+02  0.51100000000E-03 0. -1.
         22    1    1    0    0    0  0.19760235980E+02 -0.30346830333E+02  0.50930297507E+02  0.62492337462E+02  0.00000000000E+00 0.  1.
</event>
<event>
 4    1  0.1988088E-002  0.9118800E+02  0.7818608E-02  0.1130116E+00
         25   -1    0    0    0    0  0.00000000000E+00  0.00000000000E+00  0.99999998245E-14  0.12500000000E+03  0.12500000000E+03 0.  0.
        -11    1    1    0    0    0  0.10866819835E+02 -0.91464001027E+01 -0.13362251135E+01  0.14266390784E+02  0.51100000000E-03 0.  1.
         11    1    1    0    0    0  0.36264209549E+02 -0.31229559164E+02 -0.60333684119E+01  0.48236705883E+02  0.51100000000E-03 0. -1.
         22    1    1    0    0    0 -0.47131029385E+02  0.40375959266E+02  0.73695935253E+01  0.62496903333E+02  0.00000000000E+00 0. -1.
</event>
<event>
 4    1  0.1988088E-002  0.9118800E+02  0.7818608E-02  0.1130116E+00
         25   -1    0    0    0    0  0.00000000000E+00  0.00000000000E+00  0.99999998245E-14  0.12500000000E+03  0.12500000000E+03 0.  0.
        -11    1    1    0    0    0 -0.81623906413E+01 -0.10219605923E+02 -0.68287044508E+01  0.14754530522E+02  0.51100000000E-03 0.  1.
         11    1    1    0    0    0 -0.26429832363E+02 -0.33061245529E+02 -0.22091806337E+02  0.47745469965E+02  0.51100000000E-03 0. -1.
         22    1    1    0    0    0  0.34592223005E+02  0.43280851452E+02  0.28920510788E+02  0.62499999512E+02  0.00000000000E+00 0. -1.
</event>
<event>
 4    1  0.1988088E-002  0.9118800E+02  0.7818608E-02  0.1130116E+00
         25   -1    0    0    0    0  0.00000000000E+00  0.00000000000E+00  0.99999998245E-14  0.12500000000E+03  0.12500000000E+03 0.  0.
        -11    1    1    0    0    0  0.32851699208E-01 -0.71233946192E-01 -0.39892991616E-01  0.88006937976E-01  0.51100000000E-03 0.  1.
         11    1    1    0    0    0  0.22038628442E+02 -0.50637259932E+02 -0.29076198057E+02  0.62412006303E+02  0.51100000000E-03 0. -1.
         22    1    1    0    0    0 -0.22071480142E+02  0.50708493878E+02  0.29116091048E+02  0.62499986760E+02  0.00000000000E+00 0. -1.
</event>
<event>
 4    1  0.1988088E-002  0.9118800E+02  0.7818608E-02  0.1130116E+00
         25   -1    0    0    0    0  0.00000000000E+00  0.00000000000E+00  0.99999998245E-14  0.12500000000E+03  0.12500000000E+03 0.  0.
        -11    1    1    0    0    0  0.25727761330E+02 -0.21048094809E+02  0.45242873372E+02  0.56141407084E+02  0.51100000000E-03 0.  1.
         11    1    1    0    0    0  0.29173103648E+01 -0.23862217632E+01  0.51212265359E+01  0.63585938352E+01  0.51100000000E-03 0. -1.
         22    1    1    0    0    0 -0.28645071695E+02  0.23434316572E+02 -0.50364099908E+02  0.62499999081E+02  0.00000000000E+00 0.  1.
</event>
<event>
 4    1  0.1988088E-002  0.9118800E+02  0.7818608E-02  0.1130116E+00
         25   -1    0    0    0    0  0.00000000000E+00  0.00000000000E+00  0.99999998245E-14  0.12500000000E+03  0.12500000000E+03 0.  0.
        -11    1    1    0    0    0  0.49076505610E+01 -0.23516911873E+01  0.38847940080E+01  0.66863375786E+01  0.51100000000E-03 0.  1.
         11    1    1    0    0    0  0.40978637481E+02 -0.19613411602E+02  0.32422681797E+02  0.55813662661E+02  0.51100000000E-03 0. -1.
         22    1    1    0    0    0 -0.45886288042E+02  0.21965102789E+02 -0.36307475805E+02  0.62499999761E+02  0.00000000000E+00 0. -1.
</event>
<event>
 4    1  0.1988088E-002  0.9118800E+02  0.7818608E-02  0.1130116E+00
         25   -1    0    0    0    0  0.00000000000E+00  0.00000000000E+00  0.99999998245E-14  0.12500000000E+03  0.12500000000E+03 0.  0.
        -11    1    1    0    0    0  0.72576114437E+01  0.50024554530E+02  0.14482762630E+02  0.52582120473E+02  0.51100000000E-03 0. -1.
         11    1    1    0    0    0  0.15764190870E+01  0.94706826359E+01  0.24954985485E+01  0.99200020159E+01  0.51100000000E-03 0.  1.
         22    1    1    0    0    0 -0.88340305308E+01 -0.59495237166E+02 -0.16978261178E+02  0.62497877511E+02  0.00000000000E+00 0. -1.
</event>
<event>
 4    1  0.1988088E-002  0.9118800E+02  0.7818608E-02  0.1130116E+00
         25   -1    0    0    0    0  0.00000000000E+00  0.00000000000E+00  0.99999998245E-14  0.12500000000E+03  0.12500000000E+03 0.  0.
        -11    1    1    0    0    0  0.69829887940E+01 -0.20841556173E+01 -0.10467316432E+02  0.12754236578E+02  0.51100000000E-03 0. -1.
         11    1    1    0    0    0  0.27271739371E+02 -0.81625852152E+01 -0.40795413406E+02  0.49745766864E+02  0.51100000000E-03 0.  1.
         22    1    1    0    0    0 -0.34254728165E+02  0.10246740833E+02  0.51262729837E+02  0.62499996558E+02  0.00000000000E+00 0.  1.
</event>
<event>
 4    1  0.1988088E-002  0.9118800E+02  0.7818608E-02  0.1130116E+00
         25   -1    0    0    0    0  0.00000000000E+00  0.00000000000E+00  0.99999998245E-14  0.12500000000E+03  0.12500000000E+03 0.  0.
        -11    1    1    0    0    0  0.42333981009E+02  0.18423203155E+02  0.18214648084E+02  0.49632184796E+02  0.51100000000E-03 0.  1.
         11    1    1    0    0    0  0.10985594292E+02  0.47619309290E+01  0.47139740291E+01  0.12867821087E+02  0.51100000000E-03 0. -1.
         22    1    1    0    0    0 -0.53319575300E+02 -0.23185134084E+02 -0.22928622113E+02  0.62499994117E+02  0.00000000000E+00 0.  1.
</event>
<event>
 4    1  0.1988088E-002  0.9118800E+02  0.7818608E-02  0.1130116E+00
         25   -1    0    0    0    0  0.00000000000E+00  0.00000000000E+00  0.99999998245E-14  0.12500000000E+03  0.12500000000E+03 0.  0.
        -11    1    1    0    0    0 -0.11349460099E+01  0.81205018860E+00  0.27972301424E+00  0.14232965889E+01  0.51100000000E-03 0.  1.
         11    1    1    0    0    0 -0.41235519949E+00  0.36969216987E+02  0.49049152438E+02  0.61422409563E+02  0.51100000000E-03 0. -1.
         22    1    1    0    0    0  0.15473012094E+01 -0.37781267175E+02 -0.49328875452E+02  0.62154293848E+02  0.00000000000E+00 0. -1.
</event>
<event>
 4    1  0.1988088E-002  0.9118800E+02  0.7818608E-02  0.1130116E+00
         25   -1    0    0    0    0  0.00000000000E+00  0.00000000000E+00  0.99999998245E-14  0.12500000000E+03  0.12500000000E+03 0.  0.
        -11    1    1    0    0    0  0.11402980607E+02 -0.13143441157E+02 -0.36765368920E+01  0.17784682622E+02  0.51100000000E-03 0.  1.
         11    1    1    0    0    0  0.28665771059E+02 -0.33050511725E+02 -0.92410421103E+01  0.44715317457E+02  0.51100000000E-03 0. -1.
         22    1    1    0    0    0 -0.40068751665E+02  0.46193952883E+02  0.12917579002E+02  0.62499999922E+02  0.00000000000E+00 0. -1.
</event>
<event>
 4    1  0.1988088E-002  0.9118800E+02  0.7818608E-02  0.1130116E+00
         25   -1    0    0    0    0  0.00000000000E+00  0.00000000000E+00  0.99999998245E-14  0.12500000000E+03  0.12500000000E+03 0.  0.
        -11    1    1    0    0    0 -0.21809768282E+02  0.18678320404E+02  0.17658593592E+02  0.33710110850E+02  0.51100000000E-03 0. -1.
         11    1    1    0    0    0 -0.18627123023E+02  0.15949402601E+02  0.15083254456E+02  0.28789889210E+02  0.51100000000E-03 0.  1.
         22    1    1    0    0    0  0.40436891306E+02 -0.34627723004E+02 -0.32741848048E+02  0.62499999940E+02  0.00000000000E+00 0.  1.
</event>
<event>
 4    1  0.1988088E-002  0.9118800E+02  0.7818608E-02  0.1130116E+00
         25   -1    0    0    0    0  0.00000000000E+00  0.00000000000E+00  0.99999998245E-14  0.12500000000E+03  0.12500000000E+03 0.  0.
        -11    1    1    0    0    0  0.10819484875E+01  0.59746070160E+00 -0.16542522152E+00  0.12469713648E+01  0.51100000000E-03 0. -1.
         11    1    1    0    0    0  0.56210671391E+02  0.24341863437E+02 -0.80384752998E+00  0.61260199681E+02  0.51100000000E-03 0.  1.
         22    1    1    0    0    0 -0.57292619879E+02 -0.24939324138E+02  0.96927275151E+00  0.62492828954E+02  0.00000000000E+00 0.  1.
</event>
<event>
 4    1  0.1988088E-002  0.9118800E+02  0.7818608E-02  0.1130116E+00
         25   -1    0    0    0    0  0.00000000000E+00  0.00000000000E+00  0.99999998245E-14  0.12500000000E+03  0.12500000000E+03 0.  0.
        -11    1    1    0    0    0  0.49200221891E+02  0.10539290130E+02 -0.67157342715E+01  0.50762580289E+02  0.51100000000E-03 0. -1.
         11    1    1    0    0    0  0.11399653930E+02  0.23863700877E+01 -0.14577656075E+01  0.11737629776E+02  0.51100000000E-03 0.  1.
         22    1    1    0    0    0 -0.60599875821E+02 -0.12925660218E+02  0.81734998790E+01  0.62499789935E+02  0.00000000000E+00 0. -1.
</event>
<event>
 4    1  0.1988088E-002  0.9118800E+02  0.7818608E-02  0.1130116E+00
         25   -1    0    0    0    0  0.00000000000E+00  0.00000000000E+00  0.99999998245E-14  0.12500000000E+03  0.12500000000E+03 0.  0.
        -11    1    1    0    0    0 -0.68775011139E+01  0.41805182902E+01 -0.44628567236E+02  0.45348492461E+02  0.51100000000E-03 0. -1.
         11    1    1    0    0    0 -0.33908289576E+01  0.16635368962E+01 -0.16737536457E+02  0.17158385790E+02  0.51100000000E-03 0.  1.
         22    1    1    0    0    0  0.10268330072E+02 -0.58440551864E+01  0.61366103692E+02  0.62493121748E+02  0.00000000000E+00 0. -1.
</event>
<event>
 4    1  0.1988088E-002  0.9118800E+02  0.7818608E-02  0.1130116E+00
         25   -1    0    0    0    0  0.00000000000E+00  0.00000000000E+00  0.99999998245E-14  0.12500000000E+03  0.12500000000E+03 0.  0.
        -11    1    1    0    0    0  0.27816257795E+02 -0.33935854407E+02 -0.29113774503E+02  0.52659265834E+02  0.51100000000E-03 0. -1.
         11    1    1    0    0    0  0.52252854230E+01 -0.63640976577E+01 -0.53885401998E+01  0.98408186902E+01  0.51100000000E-03 0.  1.
         22    1    1    0    0    0 -0.33041543218E+02  0.40299952064E+02  0.34502314703E+02  0.62499915476E+02  0.00000000000E+00 0. -1.
</event>
<event>
 4    1  0.1988088E-002  0.9118800E+02  0.7818608E-02  0.1130116E+00
         25   -1    0    0    0    0  0.00000000000E+00  0.00000000000E+00  0.99999998245E-14  0.12500000000E+03  0.12500000000E+03 0.  0.
        -11    1    1    0    0    0  0.14996121930E+02  0.12581873191E+02  0.23174825329E+02  0.30335783082E+02  0.51100000000E-03 0. -1.
         11    1    1    0    0    0  0.22488801041E+02  0.14825157686E+02  0.18168819295E+02  0.32490575056E+02  0.51100000000E-03 0.  1.
         22    1    1    0    0    0 -0.37484922971E+02 -0.27407030877E+02 -0.41343644623E+02  0.62173641862E+02  0.00000000000E+00 0. -1.
</event>
<event>
 4    1  0.1988088E-002  0.9118800E+02  0.7818608E-02  0.1130116E+00
         25   -1    0    0    0    0  0.00000000000E+00  0.00000000000E+00  0.99999998245E-14  0.12500000000E+03  0.12500000000E+03 0.  0.
        -11    1    1    0    0    0 -0.41405199236E+01 -0.31167581386E+01 -0.24057766319E+02  0.24609636467E+02  0.51100000000E-03 0.  1.
         11    1    1    0    0    0 -0.38653555544E+02 -0.23747929759E+02  0.24370044600E+01  0.45431272435E+02  0.51100000000E-03 0. -1.
         22    1    1    0    0    0  0.42794075468E+02  0.26864687898E+02  0.21620761859E+02  0.54959091098E+02  0.00000000000E+00 0. -1.
</event>
<event>
 4    1  0.1988088E-002  0.9118800E+02  0.7818608E-02  0.1130116E+00
         25   -1    0    0    0    0  0.00000000000E+00  0.00000000000E+00  0.99999998245E-14  0.12500000000E+03  0.12500000000E+03 0.  0.
        -11    1    1    0    0    0  0.59008893540E+02  0.56346603579E+01  0.44302059208E+00  0.59278960700E+02  0.51100000000E-03 0. -1.
         11    1    1    0    0    0  0.31430645615E+01 -0.31118796667E+00  0.10359405644E+01  0.33239834389E+01  0.51100000000E-03 0.  1.
         22    1    1    0    0    0 -0.62151958101E+02 -0.53234723912E+01 -0.14789611565E+01  0.62397055862E+02  0.00000000000E+00 0. -1.
</event>
<event>
 4    1  0.1988088E-002  0.9118800E+02  0.7818608E-02  0.1130116E+00
         25   -1    0    0    0    0  0.00000000000E+00  0.00000000000E+00  0.99999998245E-14  0.12500000000E+03  0.12500000000E+03 0.  0.
        -11    1    1    0    0    0 -0.65135196222E+00 -0.11015313484E+02  0.11674492770E+02  0.16064095749E+02  0.51100000000E-03 0. -1.
         11    1    1    0    0    0 -0.18827926315E+01 -0.31841220397E+02  0.33747369963E+02  0.46435904257E+02  0.51100000000E-03 0. -1.
         22    1    1    0    0    0  0.25341445938E+01  0.42856533881E+02 -0.45421862733E+02  0.62499999994E+02  0.00000000000E+00 0. -1.
</event>
<event>
 4    1  0.1988088E-002  0.9118800E+02  0.7818608E-02  0.1130116E+00
         25   -1    0    0    0    0  0.00000000000E+00  0.00000000000E+00  0.99999998245E-14  0.12500000000E+03  0.12500000000E+03 0.  0.
        -11    1    1    0    0    0  0.25985862640E+02 -0.14474163461E+02  0.17621383777E+02  0.34572816367E+02  0.51100000000E-03 0. -1.
         11    1    1    0    0    0  0.21006691926E+02 -0.11684318993E+02  0.14217008715E+02  0.27927186630E+02  0.51100000000E-03 0.  1.
         22    1    1    0    0    0 -0.46992554566E+02  0.26158482454E+02 -0.31838392492E+02  0.62499997003E+02  0.00000000000E+00 0. -1.
</event>
<event>
 4    1  0.1988088E-002  0.9118800E+02  0.7818608E-02  0.1130116E+00
         25   -1    0    0    0    0  0.00000000000E+00  0.00000000000E+00  0.99999998245E-14  0.12500000000E+03  0.12500000000E+03 0.  0.
        -11    1    1    0    0    0 -0.74544216604E+00  0.11414205035E+02  0.12630606244E+02  0.17040304426E+02  0.51100000000E-03 0.  1.
         11    1    1    0    0    0 -0.10272035811E+02  0.26273032517E+02  0.35821243809E+02  0.45595487338E+02  0.51100000000E-03 0. -1.
         22    1    1    0    0    0  0.11017477977E+02 -0.37687237552E+02 -0.48451850053E+02  0.62364208235E+02  0.00000000000E+00 0. -1.
</event>
<event>
 4    1  0.1988088E-002  0.9118800E+02  0.7818608E-02  0.1130116E+00
         25   -1    0    0    0    0  0.00000000000E+00  0.00000000000E+00  0.99999998245E-14  0.12500000000E+03  0.12500000000E+03 0.  0.
        -11    1    1    0    0    0  0.90110300851E+01 -0.29631660140E+01 -0.83678919275E+01  0.12649135607E+02  0.51100000000E-03 0.  1.
         11    1    1    0    0    0  0.35540638110E+02 -0.11558329151E+02 -0.32990578852E+02  0.49850879865E+02  0.51100000000E-03 0. -1.
         22    1    1    0    0    0 -0.44551668195E+02  0.14521495165E+02  0.41358470780E+02  0.62499984528E+02  0.00000000000E+00 0. -1.
</event>
<event>
 4    1  0.1988088E-002  0.9118800E+02  0.7818608E-02  0.1130116E+00
         25   -1    0    0    0    0  0.00000000000E+00  0.00000000000E+00  0.99999998245E-14  0.12500000000E+03  0.12500000000E+03 0.  0.
        -11    1    1    0    0    0 -0.53203995981E+02 -0.27363097672E+02 -0.53455358600E+01  0.60066455334E+02  0.51100000000E-03 0. -1.
         11    1    1    0    0    0 -0.20548602740E+00  0.39901551030E+01  0.52955321411E+01  0.66337186534E+01  0.51100000000E-03 0.  1.
         22    1    1    0    0    0  0.53409482008E+02  0.23372942569E+02  0.50003718899E-01  0.58299826012E+02  0.00000000000E+00 0. -1.
</event>
<event>
 4    1  0.1988088E-002  0.9118800E+02  0.7818608E-02  0.1130116E+00
         25   -1    0    0    0    0  0.00000000000E+00  0.00000000000E+00  0.99999998245E-14  0.12500000000E+03  0.12500000000E+03 0.  0.
        -11    1    1    0    0    0  0.49921593546E+01 -0.13163164724E+02  0.13000430027E+02  0.19162508753E+02  0.51100000000E-03 0.  1.
         11    1    1    0    0    0  0.11364427845E+02 -0.29774751733E+02  0.29367552044E+02  0.43337503093E+02  0.51100000000E-03 0. -1.
         22    1    1    0    0    0 -0.16356587200E+02  0.42937916457E+02 -0.42367982071E+02  0.62499988154E+02  0.00000000000E+00 0. -1.
</event>
<event>
 4    1  0.1988088E-002  0.9118800E+02  0.7818608E-02  0.1130116E+00
         25   -1    0    0    0    0  0.00000000000E+00  0.00000000000E+00  0.99999998245E-14  0.12500000000E+03  0.12500000000E+03 0.  0.
        -11    1    1    0    0    0  0.12955072162E+01 -0.12290335304E+01  0.60703946410E+01  0.63276025258E+01  0.51100000000E-03 0. -1.
         11    1    1    0    0    0  0.11684698402E+02 -0.11137873523E+02  0.53802960332E+02  0.56172439364E+02  0.51100000000E-03 0.  1.
         22    1    1    0    0    0 -0.12980205618E+02  0.12366907054E+02 -0.59873354973E+02  0.62499958110E+02  0.00000000000E+00 0.  1.
</event>
<event>
 4    1  0.1988088E-002  0.9118800E+02  0.7818608E-02  0.1130116E+00
         25   -1    0    0    0    0  0.00000000000E+00  0.00000000000E+00  0.99999998245E-14  0.12500000000E+03  0.12500000000E+03 0.  0.
        -11    1    1    0    0    0 -0.23110570948E+01 -0.10777163276E+01  0.74967515233E-01  0.25510934455E+01  0.51100000000E-03 0.  1.
         11    1    1    0    0    0 -0.54379487419E+02 -0.25185110776E+02  0.15665970532E+01  0.59948917283E+02  0.51100000000E-03 0. -1.
         22    1    1    0    0    0  0.56690544514E+02  0.26262827104E+02 -0.16415645684E+01  0.62499989272E+02  0.00000000000E+00 0. -1.
</event>
<event>
 4    1  0.1988088E-002  0.9118800E+02  0.7818608E-02  0.1130116E+00
         25   -1    0    0    0    0  0.00000000000E+00  0.00000000000E+00  0.99999998245E-14  0.12500000000E+03  0.12500000000E+03 0.  0.
        -11    1    1    0    0    0  0.83514101695E+01  0.12174676169E+02 -0.12248235060E+02  0.19183014726E+02  0.51100000000E-03 0.  1.
         11    1    1    0    0    0  0.19926919594E+02  0.26719755053E+02 -0.27669486491E+02  0.43320063684E+02  0.51100000000E-03 0. -1.
         22    1    1    0    0    0 -0.28278329763E+02 -0.38894431222E+02  0.39917721552E+02  0.62496921590E+02  0.00000000000E+00 0.  1.
</event>
<event>
 4    1  0.1988088E-002  0.9118800E+02  0.7818608E-02  0.1130116E+00
         25   -1    0    0    0    0  0.00000000000E+00  0.00000000000E+00  0.99999998245E-14  0.12500000000E+03  0.12500000000E+03 0.  0.
        -11    1    1    0    0    0  0.79313952231E+00 -0.83583247948E-01  0.16993694223E+00  0.81543564225E+00  0.51100000000E-03 0. -1.
         11    1    1    0    0    0  0.60027825249E+02 -0.64304190534E+01  0.12660794767E+02  0.61684567095E+02  0.51100000000E-03 0.  1.
         22    1    1    0    0    0 -0.60820964771E+02  0.65140023014E+01 -0.12830731709E+02  0.62499997263E+02  0.00000000000E+00 0.  1.
</event>
<event>
 4    1  0.1988088E-002  0.9118800E+02  0.7818608E-02  0.1130116E+00
         25   -1    0    0    0    0  0.00000000000E+00  0.00000000000E+00  0.99999998245E-14  0.12500000000E+03  0.12500000000E+03 0.  0.
        -11    1    1    0    0    0 -0.76659829881E+01  0.17998854242E+02 -0.33277727764E+02  0.38602243648E+02  0.51100000000E-03 0. -1.
         11    1    1    0    0    0 -0.47477679244E+01  0.11136409874E+02 -0.20604413348E+02  0.23897756691E+02  0.51100000000E-03 0.  1.
         22    1    1    0    0    0  0.12413750912E+02 -0.29135264116E+02  0.53882141113E+02  0.62499999662E+02  0.00000000000E+00 0. -1.
</event>
<event>
 4    1  0.1988088E-002  0.9118800E+02  0.7818608E-02  0.1130116E+00
         25   -1    0    0    0    0  0.00000000000E+00  0.00000000000E+00  0.99999998245E-14  0.12500000000E+03  0.12500000000E+03 0.  0.
        -11    1    1    0    0    0  0.28590600579E+02 -0.37056136369E+02 -0.10791724694E+02  0.48031666702E+02  0.51100000000E-03 0. -1.
         11    1    1    0    0    0  0.56301149887E+01 -0.13595714767E+02 -0.85599696035E+00  0.14740230184E+02  0.51100000000E-03 0.  1.
         22    1    1    0    0    0 -0.34220715568E+02  0.50651851136E+02  0.11647721654E+02  0.62228103114E+02  0.00000000000E+00 0. -1.
</event>
<event>
 4    1  0.1988088E-002  0.9118800E+02  0.7818608E-02  0.1130116E+00
         25   -1    0    0    0    0  0.00000000000E+00  0.00000000000E+00  0.99999998245E-14  0.12500000000E+03  0.12500000000E+03 0.  0.
        -11    1    1    0    0    0  0.41479657845E+00 -0.34232501703E+02  0.37478720743E+02  0.50761114426E+02  0.51100000000E-03 0.  1.
         11    1    1    0    0    0  0.97774764548E-01 -0.79195288218E+01  0.86644645491E+01  0.11738885929E+02  0.51100000000E-03 0. -1.
         22    1    1    0    0    0 -0.51257134300E+00  0.42152030524E+02 -0.46143185292E+02  0.62499999645E+02  0.00000000000E+00 0.  1.
</event>
<event>
 4    1  0.1988088E-002  0.9118800E+02  0.7818608E-02  0.1130116E+00
         25   -1    0    0    0    0  0.00000000000E+00  0.00000000000E+00  0.99999998245E-14  0.12500000000E+03  0.12500000000E+03 0.  0.
        -11    1    1    0    0    0  0.85628733810E+01  0.26315240383E+01  0.76015479827E+01  0.11748670193E+02  0.51100000000E-03 0.  1.
         11    1    1    0    0    0  0.26203902183E+02  0.32457627657E+02  0.29822825669E+02  0.51279069940E+02  0.51100000000E-03 0. -1.
         22    1    1    0    0    0 -0.34766775564E+02 -0.35089151695E+02 -0.37424373652E+02  0.61972259867E+02  0.00000000000E+00 0. -1.
</event>
<event>
 4    1  0.1988088E-002  0.9118800E+02  0.7818608E-02  0.1130116E+00
         25   -1    0    0    0    0  0.00000000000E+00  0.00000000000E+00  0.99999998245E-14  0.12500000000E+03  0.12500000000E+03 0.  0.
        -11    1    1    0    0    0  0.75892014138E+01  0.97096164390E+01 -0.13770842244E+02  0.18479954704E+02  0.51100000000E-03 0.  1.
         11    1    1    0    0    0  0.19040151948E+02  0.22542771239E+02 -0.32668804665E+02  0.44022207122E+02  0.51100000000E-03 0. -1.
         22    1    1    0    0    0 -0.26629353361E+02 -0.32252387678E+02  0.46439646909E+02  0.62497838174E+02  0.00000000000E+00 0. -1.
</event>
<event>
 4    1  0.1988088E-002  0.9118800E+02  0.7818608E-02  0.1130116E+00
         25   -1    0    0    0    0  0.00000000000E+00  0.00000000000E+00  0.99999998245E-14  0.12500000000E+03  0.12500000000E+03 0.  0.
        -11    1    1    0    0    0  0.26665305659E+02  0.16102564965E+02  0.23700413101E+02  0.39141291570E+02  0.51100000000E-03 0.  1.
         11    1    1    0    0    0  0.15914086605E+02  0.96095615181E+01  0.14143105558E+02  0.23358708443E+02  0.51100000000E-03 0.  1.
         22    1    1    0    0    0 -0.42579392264E+02 -0.25712126484E+02 -0.37843518659E+02  0.62499999987E+02  0.00000000000E+00 0.  1.
</event>
<event>
 4    1  0.1988088E-002  0.9118800E+02  0.7818608E-02  0.1130116E+00
         25   -1    0    0    0    0  0.00000000000E+00  0.00000000000E+00  0.99999998245E-14  0.12500000000E+03  0.12500000000E+03 0.  0.
        -11    1    1    0    0    0 -0.27725326663E+02  0.31186804855E+02  0.24344250082E+02  0.48311003383E+02  0.51100000000E-03 0.  1.
         11    1    1    0    0    0 -0.81306699584E+01  0.89576644273E+01  0.74177913520E+01  0.14190531166E+02  0.51100000000E-03 0. -1.
         22    1    1    0    0    0  0.35855996621E+02 -0.40144469282E+02 -0.31762041434E+02  0.62498465451E+02  0.00000000000E+00 0.  1.
</event>
<event>
 4    1  0.1988088E-002  0.9118800E+02  0.7818608E-02  0.1130116E+00
         25   -1    0    0    0    0  0.00000000000E+00  0.00000000000E+00  0.99999998245E-14  0.12500000000E+03  0.12500000000E+03 0.  0.
        -11    1    1    0    0    0  0.15392039893E+02 -0.62754904907E+01 -0.74060486466E+00  0.16638664874E+02  0.51100000000E-03 0.  1.
         11    1    1    0    0    0  0.42426740037E+02 -0.17293623496E+02 -0.20406807698E+01  0.45861335154E+02  0.51100000000E-03 0. -1.
         22    1    1    0    0    0 -0.57818779930E+02  0.23569113987E+02  0.27812856345E+01  0.62499999972E+02  0.00000000000E+00 0. -1.
</event>
<event>
 4    1  0.1988088E-002  0.9118800E+02  0.7818608E-02  0.1130116E+00
         25   -1    0    0    0    0  0.00000000000E+00  0.00000000000E+00  0.99999998245E-14  0.12500000000E+03  0.12500000000E+03 0.  0.
        -11    1    1    0    0    0 -0.14106623845E+02 -0.17050109049E+02  0.10506423256E+02  0.24496693344E+02  0.51100000000E-03 0.  1.
         11    1    1    0    0    0 -0.22587198193E+02 -0.25648734753E+02  0.16626969923E+02  0.38006515833E+02  0.51100000000E-03 0. -1.
         22    1    1    0    0    0  0.36693822038E+02  0.42698843802E+02 -0.27133393179E+02  0.62496790823E+02  0.00000000000E+00 0. -1.
</event>
<event>
 4    1  0.1988088E-002  0.9118800E+02  0.7818608E-02  0.1130116E+00
         25   -1    0    0    0    0  0.00000000000E+00  0.00000000000E+00  0.99999998245E-14  0.12500000000E+03  0.12500000000E+03 0.  0.
        -11    1    1    0    0    0  0.32499502423E+02 -0.91187638711E+01 -0.44872740595E+02  0.56150978273E+02  0.51100000000E-03 0. -1.
         11    1    1    0    0    0  0.36778780232E+01 -0.10253483060E+01 -0.50726689754E+01  0.63490232869E+01  0.51100000000E-03 0.  1.
         22    1    1    0    0    0 -0.36177380446E+02  0.10144112177E+02  0.49945409571E+02  0.62499998440E+02  0.00000000000E+00 0. -1.
</event>
<event>
 4    1  0.1988088E-002  0.9118800E+02  0.7818608E-02  0.1130116E+00
         25   -1    0    0    0    0  0.00000000000E+00  0.00000000000E+00  0.99999998245E-14  0.12500000000E+03  0.12500000000E+03 0.  0.
        -11    1    1    0    0    0  0.40734406034E+02 -0.31859981467E+02 -0.63738721948E+01  0.52105436386E+02  0.51100000000E-03 0.  1.
         11    1    1    0    0    0  0.68796916817E+01 -0.79552494969E+01  0.18031608211E+00  0.10518966981E+02  0.51100000000E-03 0. -1.
         22    1    1    0    0    0 -0.47614097716E+02  0.39815230964E+02  0.61935561127E+01  0.62375596633E+02  0.00000000000E+00 0.  1.
</event>
<event>
 4    1  0.1988088E-002  0.9118800E+02  0.7818608E-02  0.1130116E+00
         25   -1    0    0    0    0  0.00000000000E+00  0.00000000000E+00  0.99999998245E-14  0.12500000000E+03  0.12500000000E+03 0.  0.
        -11    1    1    0    0    0 -0.39104280241E+01  0.75331008331E+01  0.21183302419E+01  0.87479356861E+01  0.51100000000E-03 0.  1.
         11    1    1    0    0    0 -0.24033166421E+02  0.46275892813E+02  0.13047342801E+02  0.53752065061E+02  0.51100000000E-03 0. -1.
         22    1    1    0    0    0  0.27943594445E+02 -0.53808993646E+02 -0.15165673043E+02  0.62499999253E+02  0.00000000000E+00 0. -1.
</event>
<event>
 4    1  0.1988088E-002  0.9118800E+02  0.7818608E-02  0.1130116E+00
         25   -1    0    0    0    0  0.00000000000E+00  0.00000000000E+00  0.99999998245E-14  0.12500000000E+03  0.12500000000E+03 0.  0.
        -11    1    1    0    0    0 -0.25774286600E+02  0.12491966949E+02 -0.91051908087E+01  0.30054410457E+02  0.51100000000E-03 0.  1.
         11    1    1    0    0    0 -0.27879518836E+02  0.13789836081E+02 -0.92409621550E+01  0.32447226869E+02  0.51100000000E-03 0. -1.
         22    1    1    0    0    0  0.53653805436E+02 -0.26281803030E+02  0.18346152964E+02  0.62498362674E+02  0.00000000000E+00 0.  1.
</event>
<event>
 4    1  0.1988088E-002  0.9118800E+02  0.7818608E-02  0.1130116E+00
         25   -1    0    0    0    0  0.00000000000E+00  0.00000000000E+00  0.99999998245E-14  0.12500000000E+03  0.12500000000E+03 0.  0.
        -11    1    1    0    0    0 -0.33563051189E+02  0.13960201079E+02 -0.26190608251E+02  0.44803053246E+02  0.51100000000E-03 0.  1.
         11    1    1    0    0    0 -0.99719067807E+01  0.13418220383E+01 -0.15186338016E+02  0.18217142307E+02  0.51100000000E-03 0. -1.
         22    1    1    0    0    0  0.43534957970E+02 -0.15302023118E+02  0.41376946267E+02  0.61979804447E+02  0.00000000000E+00 0.  1.
</event>
<event>
 4    1  0.1988088E-002  0.9118800E+02  0.7818608E-02  0.1130116E+00
         25   -1    0    0    0    0  0.00000000000E+00  0.00000000000E+00  0.99999998245E-14  0.12500000000E+03  0.12500000000E+03 0.  0.
        -11    1    1    0    0    0 -0.55632776924E+00 -0.14634575315E+01 -0.60612882342E+00  0.16788689481E+01  0.51100000000E-03 0. -1.
         11    1    1    0    0    0 -0.20161996253E+02 -0.53023070199E+02 -0.21937591661E+02  0.60821131150E+02  0.51100000000E-03 0.  1.
         22    1    1    0    0    0  0.20718324023E+02  0.54486527730E+02  0.22543720485E+02  0.62499999902E+02  0.00000000000E+00 0.  1.
</event>
<event>
 4    1  0.1988088E-002  0.9118800E+02  0.7818608E-02  0.1130116E+00
         25   -1    0    0    0    0  0.00000000000E+00  0.00000000000E+00  0.99999998245E-14  0.12500000000E+03  0.12500000000E+03 0.  0.
        -11    1    1    0    0    0  0.59514332740E+01 -0.45502499379E+01 -0.39128394537E+01  0.84519018785E+01  0.51100000000E-03 0. -1.
         11    1    1    0    0    0  0.38059104670E+02 -0.29096786774E+02 -0.25021559955E+02  0.54048098132E+02  0.51100000000E-03 0. -1.
         22    1    1    0    0    0 -0.44010537944E+02  0.33647036712E+02  0.28934399409E+02  0.62499999990E+02  0.00000000000E+00 0. -1.
</event>
<event>
 4    1  0.1988088E-002  0.9118800E+02  0.7818608E-02  0.1130116E+00
         25   -1    0    0    0    0  0.00000000000E+00  0.00000000000E+00  0.99999998245E-14  0.12500000000E+03  0.12500000000E+03 0.  0.
        -11    1    1    0    0    0  0.24372404074E+02 -0.36808998737E+02 -0.50799218403E+01  0.44437845071E+02  0.51100000000E-03 0.  1.
         11    1    1    0    0    0  0.21466262951E+02  0.63178268200E+01 -0.83676347688E+01  0.23890012404E+02  0.51100000000E-03 0. -1.
         22    1    1    0    0    0 -0.45838667025E+02  0.30491171917E+02  0.13447556609E+02  0.56672142524E+02  0.00000000000E+00 0.  1.
</event>
<event>
 4    1  0.1988088E-002  0.9118800E+02  0.7818608E-02  0.1130116E+00
         25   -1    0    0    0    0  0.00000000000E+00  0.00000000000E+00  0.99999998245E-14  0.12500000000E+03  0.12500000000E+03 0.  0.
        -11    1    1    0    0    0  0.22344181492E+02  0.37867041770E+02 -0.21146639629E+02  0.48788888764E+02  0.51100000000E-03 0. -1.
         11    1    1    0    0    0  0.20924322201E+01  0.14911365912E+02  0.43678119130E+01  0.15678165937E+02  0.51100000000E-03 0.  1.
         22    1    1    0    0    0 -0.24436613712E+02 -0.52778407682E+02  0.16778827716E+02  0.60532945300E+02  0.00000000000E+00 0.  1.
</event>
<event>
 4    1  0.1988088E-002  0.9118800E+02  0.7818608E-02  0.1130116E+00
         25   -1    0    0    0    0  0.00000000000E+00  0.00000000000E+00  0.99999998245E-14  0.12500000000E+03  0.12500000000E+03 0.  0.
        -11    1    1    0    0    0  0.36030603212E+01  0.13867041193E+01  0.18699951373E+01  0.42897405594E+01  0.51100000000E-03 0. -1.
         11    1    1    0    0    0  0.48893340439E+02  0.18811650090E+02  0.25377103628E+02  0.58210259467E+02  0.51100000000E-03 0. -1.
         22    1    1    0    0    0 -0.52496400761E+02 -0.20198354209E+02 -0.27247098765E+02  0.62499999974E+02  0.00000000000E+00 0. -1.
</event>
<event>
 4    1  0.1988088E-002  0.9118800E+02  0.7818608E-02  0.1130116E+00
         25   -1    0    0    0    0  0.00000000000E+00  0.00000000000E+00  0.99999998245E-14  0.12500000000E+03  0.12500000000E+03 0.  0.
        -11    1    1    0    0    0 -0.13863446936E+01 -0.12503685828E+00 -0.75005101679E+00  0.15811902524E+01  0.51100000000E-03 0. -1.
         11    1    1    0    0    0 -0.65464497531E+01  0.46063427478E+02  0.40859275562E+02  0.61920721533E+02  0.51100000000E-03 0.  1.
         22    1    1    0    0    0  0.79327944467E+01 -0.45938390620E+02 -0.40109224545E+02  0.61498088215E+02  0.00000000000E+00 0.  1.
</event>
<event>
 4    1  0.1988088E-002  0.9118800E+02  0.7818608E-02  0.1130116E+00
         25   -1    0    0    0    0  0.00000000000E+00  0.00000000000E+00  0.99999998245E-14  0.12500000000E+03  0.12500000000E+03 0.  0.
        -11    1    1    0    0    0 -0.99872047629E+00  0.48743023691E+02  0.19337019769E+02  0.52448070841E+02  0.51100000000E-03 0. -1.
         11    1    1    0    0    0 -0.15250303873E+00  0.93401139326E+01  0.37122697858E+01  0.10051961633E+02  0.51100000000E-03 0.  1.
         22    1    1    0    0    0  0.11512235150E+01 -0.58083137624E+02 -0.23049289554E+02  0.62499967526E+02  0.00000000000E+00 0. -1.
</event>
<event>
 4    1  0.1988088E-002  0.9118800E+02  0.7818608E-02  0.1130116E+00
         25   -1    0    0    0    0  0.00000000000E+00  0.00000000000E+00  0.99999998245E-14  0.12500000000E+03  0.12500000000E+03 0.  0.
        -11    1    1    0    0    0  0.13189759807E+00 -0.37143658143E-01  0.92765429221E-02  0.13734243003E+00  0.51100000000E-03 0. -1.
         11    1    1    0    0    0  0.60200414954E+02 -0.15930676857E+02  0.33506080735E+01  0.62362673134E+02  0.51100000000E-03 0.  1.
         22    1    1    0    0    0 -0.60332312552E+02  0.15967820515E+02 -0.33598846164E+01  0.62499984436E+02  0.00000000000E+00 0.  1.
</event>
<event>
 4    1  0.1988088E-002  0.9118800E+02  0.7818608E-02  0.1130116E+00
         25   -1    0    0    0    0  0.00000000000E+00  0.00000000000E+00  0.99999998245E-14  0.12500000000E+03  0.12500000000E+03 0.  0.
        -11    1    1    0    0    0  0.31217460267E+01 -0.60918520775E+01  0.33924845326E+01  0.76396931584E+01  0.51100000000E-03 0.  1.
         11    1    1    0    0    0 -0.17354935226E+02 -0.13450363540E+02  0.52259040281E+02  0.56684330705E+02  0.51100000000E-03 0. -1.
         22    1    1    0    0    0  0.14233189199E+02  0.19542215618E+02 -0.55651524814E+02  0.60675976137E+02  0.00000000000E+00 0. -1.
</event>
<event>
 4    1  0.1988088E-002  0.9118800E+02  0.7818608E-02  0.1130116E+00
         25   -1    0    0    0    0  0.00000000000E+00  0.00000000000E+00  0.99999998245E-14  0.12500000000E+03  0.12500000000E+03 0.  0.
        -11    1    1    0    0    0  0.45086143989E+02  0.13659959128E+02  0.40221019435E+01  0.47281414609E+02  0.51100000000E-03 0. -1.
         11    1    1    0    0    0  0.14566225567E+02  0.42580908679E+01  0.11470394176E+01  0.15219131539E+02  0.51100000000E-03 0.  1.
         22    1    1    0    0    0 -0.59652369556E+02 -0.17918049995E+02 -0.51691413611E+01  0.62499453851E+02  0.00000000000E+00 0. -1.
</event>
<event>
 4    1  0.1988088E-002  0.9118800E+02  0.7818608E-02  0.1130116E+00
         25   -1    0    0    0    0  0.00000000000E+00  0.00000000000E+00  0.99999998245E-14  0.12500000000E+03  0.12500000000E+03 0.  0.
        -11    1    1    0    0    0  0.13675646363E+02 -0.20385238232E+02 -0.69380702550E+01  0.25509176003E+02  0.51100000000E-03 0.  1.
         11    1    1    0    0    0 -0.18925194770E+02 -0.29969065835E+02  0.27485675844E+02  0.44852762245E+02  0.51100000000E-03 0. -1.
         22    1    1    0    0    0  0.52495484070E+01  0.50354304067E+02 -0.20547605589E+02  0.54638061752E+02  0.00000000000E+00 0.  1.
</event>
<event>
 4    1  0.1988088E-002  0.9118800E+02  0.7818608E-02  0.1130116E+00
         25   -1    0    0    0    0  0.00000000000E+00  0.00000000000E+00  0.99999998245E-14  0.12500000000E+03  0.12500000000E+03 0.  0.
        -11    1    1    0    0    0  0.89481223292E+01 -0.16601295214E+02 -0.49140176191E+02  0.52634863088E+02  0.51100000000E-03 0.  1.
         11    1    1    0    0    0  0.16754135531E+01 -0.31124581874E+01 -0.92101314444E+01  0.98651369999E+01  0.51100000000E-03 0. -1.
         22    1    1    0    0    0 -0.10623535882E+02  0.19713753401E+02  0.58350307635E+02  0.62499999912E+02  0.00000000000E+00 0.  1.
</event>
<event>
 4    1  0.1988088E-002  0.9118800E+02  0.7818608E-02  0.1130116E+00
         25   -1    0    0    0    0  0.00000000000E+00  0.00000000000E+00  0.99999998245E-14  0.12500000000E+03  0.12500000000E+03 0.  0.
        -11    1    1    0    0    0  0.12416182476E+02 -0.91436731470E+00  0.36465393246E+01  0.12972852585E+02  0.51100000000E-03 0. -1.
         11    1    1    0    0    0  0.47401923258E+02 -0.34903829798E+01  0.13921681995E+02  0.49527147422E+02  0.51100000000E-03 0. -1.
         22    1    1    0    0    0 -0.59818105735E+02  0.44047502945E+01 -0.17568221320E+02  0.62499999993E+02  0.00000000000E+00 0. -1.
</event>
<event>
 4    1  0.1988088E-002  0.9118800E+02  0.7818608E-02  0.1130116E+00
         25   -1    0    0    0    0  0.00000000000E+00  0.00000000000E+00  0.99999998245E-14  0.12500000000E+03  0.12500000000E+03 0.  0.
        -11    1    1    0    0    0 -0.10168706170E+02  0.31373680892E+01 -0.16716123144E+02  0.19816014658E+02  0.51100000000E-03 0. -1.
         11    1    1    0    0    0 -0.21905906442E+02  0.67584131357E+01 -0.36005245742E+02  0.42683985362E+02  0.51100000000E-03 0.  1.
         22    1    1    0    0    0  0.32074612612E+02 -0.98957812249E+01  0.52721368886E+02  0.62499999980E+02  0.00000000000E+00 0.  1.
</event>
<event>
 4    1  0.1988088E-002  0.9118800E+02  0.7818608E-02  0.1130116E+00
         25   -1    0    0    0    0  0.00000000000E+00  0.00000000000E+00  0.99999998245E-14  0.12500000000E+03  0.12500000000E+03 0.  0.
        -11    1    1    0    0    0 -0.94318613687E+01  0.22317478904E+01 -0.33958106216E+01  0.10269967749E+02  0.51100000000E-03 0.  1.
         11    1    1    0    0    0 -0.32104022725E+02  0.38717035346E+02 -0.16765974713E+02  0.53016742727E+02  0.51100000000E-03 0. -1.
         22    1    1    0    0    0  0.41535884093E+02 -0.40948783236E+02  0.20161785335E+02  0.61713289524E+02  0.00000000000E+00 0. -1.
</event>
<event>
 4    1  0.1988088E-002  0.9118800E+02  0.7818608E-02  0.1130116E+00
         25   -1    0    0    0    0  0.00000000000E+00  0.00000000000E+00  0.99999998245E-14  0.12500000000E+03  0.12500000000E+03 0.  0.
        -11    1    1    0    0    0  0.97905283457E+01 -0.23147396988E+01 -0.26341745400E+02  0.28197517907E+02  0.51100000000E-03 0.  1.
         11    1    1    0    0    0  0.12035927622E+02 -0.27871687525E+01 -0.32000509506E+02  0.34302543233E+02  0.51100000000E-03 0. -1.
         22    1    1    0    0    0 -0.21826455968E+02  0.51019084514E+01  0.58342254906E+02  0.62499938859E+02  0.00000000000E+00 0. -1.
</event>
<event>
 4    1  0.1988088E-002  0.9118800E+02  0.7818608E-02  0.1130116E+00
         25   -1    0    0    0    0  0.00000000000E+00  0.00000000000E+00  0.99999998245E-14  0.12500000000E+03  0.12500000000E+03 0.  0.
        -11    1    1    0    0    0  0.88424952377E+01 -0.15074178188E+02  0.29081678054E+02  0.33928816200E+02  0.51100000000E-03 0. -1.
         11    1    1    0    0    0  0.90031901884E+01 -0.23082716184E+01  0.27618001083E+02  0.29139998894E+02  0.51100000000E-03 0.  1.
         22    1    1    0    0    0 -0.17845685426E+02  0.17382449806E+02 -0.56699679137E+02  0.61931184906E+02  0.00000000000E+00 0.  1.
</event>
<event>
 4    1  0.1988088E-002  0.9118800E+02  0.7818608E-02  0.1130116E+00
         25   -1    0    0    0    0  0.00000000000E+00  0.00000000000E+00  0.99999998245E-14  0.12500000000E+03  0.12500000000E+03 0.  0.
        -11    1    1    0    0    0  0.35694924366E+02  0.38057582317E+02  0.23115422349E+01  0.52228827530E+02  0.51100000000E-03 0.  1.
         11    1    1    0    0    0  0.69615691120E+01  0.75336879664E+01  0.53099344214E+00  0.10271409503E+02  0.51100000000E-03 0. -1.
         22    1    1    0    0    0 -0.42656493478E+02 -0.45591270284E+02 -0.28425356771E+01  0.62499762968E+02  0.00000000000E+00 0.  1.
</event>
<event>
 4    1  0.1988088E-002  0.9118800E+02  0.7818608E-02  0.1130116E+00
         25   -1    0    0    0    0  0.00000000000E+00  0.00000000000E+00  0.99999998245E-14  0.12500000000E+03  0.12500000000E+03 0.  0.
        -11    1    1    0    0    0  0.33646193475E+01 -0.34588386799E+02 -0.55155373323E+01  0.35186621279E+02  0.51100000000E-03 0.  1.
         11    1    1    0    0    0  0.26521915612E+01 -0.26837731803E+02 -0.43270974598E+01  0.27313398563E+02  0.51100000000E-03 0. -1.
         22    1    1    0    0    0 -0.60168109087E+01  0.61426118602E+02  0.98426347921E+01  0.62499980157E+02  0.00000000000E+00 0. -1.
</event>
<event>
 4    1  0.1988088E-002  0.9118800E+02  0.7818608E-02  0.1130116E+00
         25   -1    0    0    0    0  0.00000000000E+00  0.00000000000E+00  0.99999998245E-14  0.12500000000E+03  0.12500000000E+03 0.  0.
        -11    1    1    0    0    0 -0.99708758491E+00  0.11951039318E+02 -0.25763525280E+02  0.28417965436E+02  0.51100000000E-03 0. -1.
         11    1    1    0    0    0 -0.12784468374E+01  0.14152930568E+02 -0.30978308278E+02  0.34082186755E+02  0.51100000000E-03 0.  1.
         22    1    1    0    0    0  0.22755344223E+01 -0.26103969886E+02  0.56741833557E+02  0.62499847809E+02  0.00000000000E+00 0.  1.
</event>
<event>
 4    1  0.1988088E-002  0.9118800E+02  0.7818608E-02  0.1130116E+00
         25   -1    0    0    0    0  0.00000000000E+00  0.00000000000E+00  0.99999998245E-14  0.12500000000E+03  0.12500000000E+03 0.  0.
        -11    1    1    0    0    0  0.41085382541E+01  0.71936426986E+00  0.59939707004E+02  0.60084657339E+02  0.51100000000E-03 0. -1.
         11    1    1    0    0    0  0.16454658720E+00  0.29838995081E-01  0.24095465731E+01  0.24153428109E+01  0.51100000000E-03 0.  1.
         22    1    1    0    0    0 -0.42730848413E+01 -0.74920326494E+00 -0.62349253577E+02  0.62499999850E+02  0.00000000000E+00 0. -1.
</event>
<event>
 4    1  0.1988088E-002  0.9118800E+02  0.7818608E-02  0.1130116E+00
         25   -1    0    0    0    0  0.00000000000E+00  0.00000000000E+00  0.99999998245E-14  0.12500000000E+03  0.12500000000E+03 0.  0.
        -11    1    1    0    0    0  0.12657211782E+02  0.79873192136E+00  0.52054945055E+01  0.13709126744E+02  0.51100000000E-03 0. -1.
         11    1    1    0    0    0  0.45045795410E+02  0.28399799742E+01  0.18529979638E+02  0.48790873286E+02  0.51100000000E-03 0.  1.
         22    1    1    0    0    0 -0.57703007193E+02 -0.36387118956E+01 -0.23735474143E+02  0.62499999969E+02  0.00000000000E+00 0.  1.
</event>
<event>
 4    1  0.1988088E-002  0.9118800E+02  0.7818608E-02  0.1130116E+00
         25   -1    0    0    0    0  0.00000000000E+00  0.00000000000E+00  0.99999998245E-14  0.12500000000E+03  0.12500000000E+03 0.  0.
        -11    1    1    0    0    0  0.35050408380E+02 -0.24705020625E+02  0.79706796556E+01  0.43616521023E+02  0.51100000000E-03 0. -1.
         11    1    1    0    0    0  0.16424450512E+02 -0.94477282921E+01  0.93262770544E+00  0.18970818095E+02  0.51100000000E-03 0.  1.
         22    1    1    0    0    0 -0.51474858892E+02  0.34152748917E+02 -0.89033073611E+01  0.62412660883E+02  0.00000000000E+00 0. -1.
</event>
<event>
 4    1  0.1988088E-002  0.9118800E+02  0.7818608E-02  0.1130116E+00
         25   -1    0    0    0    0  0.00000000000E+00  0.00000000000E+00  0.99999998245E-14  0.12500000000E+03  0.12500000000E+03 0.  0.
        -11    1    1    0    0    0  0.27052587303E+01 -0.19798211246E+02 -0.27898002791E+02  0.34315975191E+02  0.51100000000E-03 0. -1.
         11    1    1    0    0    0  0.22233498120E+01 -0.16259366178E+02 -0.22913510917E+02  0.28184024831E+02  0.51100000000E-03 0. -1.
         22    1    1    0    0    0 -0.49286085423E+01  0.36057577423E+02  0.50811513708E+02  0.62499999977E+02  0.00000000000E+00 0. -1.
</event>
<event>
 4    1  0.1988088E-002  0.9118800E+02  0.7818608E-02  0.1130116E+00
         25   -1    0    0    0    0  0.00000000000E+00  0.00000000000E+00  0.99999998245E-14  0.12500000000E+03  0.12500000000E+03 0.  0.
        -11    1    1    0    0    0 -0.25452208602E+01  0.35809585369E+01 -0.72847411405E+01  0.85069893038E+01  0.51100000000E-03 0. -1.
         11    1    1    0    0    0 -0.16153627325E+02  0.22724907718E+02 -0.46237258775E+02  0.53993010713E+02  0.51100000000E-03 0. -1.
         22    1    1    0    0    0  0.18698848185E+02 -0.26305866255E+02  0.53521999916E+02  0.62499999983E+02  0.00000000000E+00 0. -1.
</event>
<event>
 4    1  0.1988088E-002  0.9118800E+02  0.7818608E-02  0.1130116E+00
         25   -1    0    0    0    0  0.00000000000E+00  0.00000000000E+00  0.99999998245E-14  0.12500000000E+03  0.12500000000E+03 0.  0.
        -11    1    1    0    0    0  0.86288125250E+01 -0.71931382302E+00 -0.26513221407E+01  0.90555688569E+01  0.51100000000E-03 0. -1.
         11    1    1    0    0    0 -0.85692616987E+00 -0.17429204298E+02 -0.53578928266E+02  0.56349028734E+02  0.51100000000E-03 0.  1.
         22    1    1    0    0    0 -0.77718863551E+01  0.18148518122E+02  0.56230250406E+02  0.59595402409E+02  0.00000000000E+00 0.  1.
</event>
<event>
 4    1  0.1988088E-002  0.9118800E+02  0.7818608E-02  0.1130116E+00
         25   -1    0    0    0    0  0.00000000000E+00  0.00000000000E+00  0.99999998245E-14  0.12500000000E+03  0.12500000000E+03 0.  0.
        -11    1    1    0    0    0  0.35764240892E+02  0.20130104677E+02  0.72479465888E+01  0.41675349679E+02  0.51100000000E-03 0. -1.
         11    1    1    0    0    0  0.17776853786E+02  0.10485682361E+02  0.28241495314E+01  0.20831271827E+02  0.51100000000E-03 0.  1.
         22    1    1    0    0    0 -0.53541094678E+02 -0.30615787038E+02 -0.10072096120E+02  0.62493378493E+02  0.00000000000E+00 0. -1.
</event>
<event>
 4    1  0.1988088E-002  0.9118800E+02  0.7818608E-02  0.1130116E+00
         25   -1    0    0    0    0  0.00000000000E+00  0.00000000000E+00  0.99999998245E-14  0.12500000000E+03  0.12500000000E+03 0.  0.
        -11    1    1    0    0    0  0.99292553799E-01  0.29623068087E+01 -0.27327122037E+00  0.29765412917E+01  0.51100000000E-03 0. -1.
         11    1    1    0    0    0  0.17217858528E+01  0.59247864006E+02 -0.54561767191E+01  0.59523472684E+02  0.51100000000E-03 0.  1.
         22    1    1    0    0    0 -0.18210784066E+01 -0.62210170814E+02  0.57294479394E+01  0.62499986024E+02  0.00000000000E+00 0.  1.
</event>
<event>
 4    1  0.1988088E-002  0.9118800E+02  0.7818608E-02  0.1130116E+00
         25   -1    0    0    0    0  0.00000000000E+00  0.00000000000E+00  0.99999998245E-14  0.12500000000E+03  0.12500000000E+03 0.  0.
        -11    1    1    0    0    0 -0.22863319474E+01  0.16295844111E+02  0.25667300109E+02  0.30489213571E+02  0.51100000000E-03 0. -1.
         11    1    1    0    0    0 -0.23979857781E+01  0.17109477347E+02  0.26948207703E+02  0.32010786456E+02  0.51100000000E-03 0. -1.
         22    1    1    0    0    0  0.46843177255E+01 -0.33405321457E+02 -0.52615507812E+02  0.62499999972E+02  0.00000000000E+00 0. -1.
</event>
<event>
 4    1  0.1988088E-002  0.9118800E+02  0.7818608E-02  0.1130116E+00
         25   -1    0    0    0    0  0.00000000000E+00  0.00000000000E+00  0.99999998245E-14  0.12500000000E+03  0.12500000000E+03 0.  0.
        -11    1    1    0    0    0  0.15491850239E+01  0.16357792430E+02 -0.10538937225E+02  0.19520413559E+02  0.51100000000E-03 0.  1.
         11    1    1    0    0    0  0.33978966042E+01  0.36082890242E+02 -0.23102521999E+02  0.42979613685E+02  0.51100000000E-03 0. -1.
         22    1    1    0    0    0 -0.49470816281E+01 -0.52440682672E+02  0.33641459224E+02  0.62499972756E+02  0.00000000000E+00 0. -1.
</event>
<event>
 4    1  0.1988088E-002  0.9118800E+02  0.7818608E-02  0.1130116E+00
         25   -1    0    0    0    0  0.00000000000E+00  0.00000000000E+00  0.99999998245E-14  0.12500000000E+03  0.12500000000E+03 0.  0.
        -11    1    1    0    0    0  0.43911029293E+01 -0.88866944690E+00  0.10817038050E+01  0.46088612155E+01  0.51100000000E-03 0.  1.
         11    1    1    0    0    0  0.56780267173E+02 -0.75576917113E+01  0.84739040028E+01  0.57904442779E+02  0.51100000000E-03 0. -1.
         22    1    1    0    0    0 -0.61171370103E+02  0.84463611582E+01 -0.95556078078E+01  0.62486696005E+02  0.00000000000E+00 0. -1.
</event>
<event>
 4    1  0.1988088E-002  0.9118800E+02  0.7818608E-02  0.1130116E+00
         25   -1    0    0    0    0  0.00000000000E+00  0.00000000000E+00  0.99999998245E-14  0.12500000000E+03  0.12500000000E+03 0.  0.
        -11    1    1    0    0    0 -0.22447384485E+01 -0.20187233104E+02  0.52884205202E+02  0.56650705125E+02  0.51100000000E-03 0. -1.
         11    1    1    0    0    0 -0.36101919711E+00 -0.19419203722E+01  0.55073248700E+01  0.58508133689E+01  0.51100000000E-03 0.  1.
         22    1    1    0    0    0  0.26057576456E+01  0.22129153476E+02 -0.58391530072E+02  0.62498481506E+02  0.00000000000E+00 0. -1.
</event>
<event>
 4    1  0.1988088E-002  0.9118800E+02  0.7818608E-02  0.1130116E+00
         25   -1    0    0    0    0  0.00000000000E+00  0.00000000000E+00  0.99999998245E-14  0.12500000000E+03  0.12500000000E+03 0.  0.
        -11    1    1    0    0    0  0.33948042862E-03 -0.24360993021E-01  0.15809625347E-01  0.29047867436E-01  0.51100000000E-03 0.  1.
         11    1    1    0    0    0  0.22016900024E+01 -0.50230681765E+02  0.37076341487E+02  0.62470984687E+02  0.51100000000E-03 0. -1.
         22    1    1    0    0    0 -0.22020294829E+01  0.50255042758E+02 -0.37092151113E+02  0.62499967445E+02  0.00000000000E+00 0. -1.
</event>
<event>
 4    1  0.1988088E-002  0.9118800E+02  0.7818608E-02  0.1130116E+00
         25   -1    0    0    0    0  0.00000000000E+00  0.00000000000E+00  0.99999998245E-14  0.12500000000E+03  0.12500000000E+03 0.  0.
        -11    1    1    0    0    0  0.13125596625E+01 -0.29308813397E+02 -0.23517730870E+02  0.37600705062E+02  0.51100000000E-03 0.  1.
         11    1    1    0    0    0  0.98904312400E+00 -0.19396861492E+02 -0.15580847991E+02  0.24899382853E+02  0.51100000000E-03 0. -1.
         22    1    1    0    0    0 -0.23016027865E+01  0.48705674889E+02  0.39098578861E+02  0.62499912086E+02  0.00000000000E+00 0.  1.
</event>
<event>
 4    1  0.1988088E-002  0.9118800E+02  0.7818608E-02  0.1130116E+00
         25   -1    0    0    0    0  0.00000000000E+00  0.00000000000E+00  0.99999998245E-14  0.12500000000E+03  0.12500000000E+03 0.  0.
        -11    1    1    0    0    0  0.65397062393E+01 -0.21439283560E+02 -0.12661507594E+02  0.25743434349E+02  0.51100000000E-03 0.  1.
         11    1    1    0    0    0  0.93202000660E+01 -0.30610102613E+02 -0.18088689598E+02  0.36756566800E+02  0.51100000000E-03 0. -1.
         22    1    1    0    0    0 -0.15859906305E+02  0.52049386173E+02  0.30750197192E+02  0.62499998851E+02  0.00000000000E+00 0. -1.
</event>
<event>
 4    1  0.1988088E-002  0.9118800E+02  0.7818608E-02  0.1130116E+00
         25   -1    0    0    0    0  0.00000000000E+00  0.00000000000E+00  0.99999998245E-14  0.12500000000E+03  0.12500000000E+03 0.  0.
        -11    1    1    0    0    0 -0.11423877179E+02  0.48172743332E+01  0.67427339158E+00  0.12416349974E+02  0.51100000000E-03 0.  1.
         11    1    1    0    0    0 -0.47409572613E+02  0.15185039332E+02  0.57441137007E+01  0.50112352143E+02  0.51100000000E-03 0. -1.
         22    1    1    0    0    0  0.58833449792E+02 -0.20002313665E+02 -0.64183870923E+01  0.62471297883E+02  0.00000000000E+00 0. -1.
</event>
<event>
 4    1  0.1988088E-002  0.9118800E+02  0.7818608E-02  0.1130116E+00
         25   -1    0    0    0    0  0.00000000000E+00  0.00000000000E+00  0.99999998245E-14  0.12500000000E+03  0.12500000000E+03 0.  0.
        -11    1    1    0    0    0  0.34858016648E+02  0.13089215977E+02  0.32030492950E+02  0.49115795610E+02  0.51100000000E-03 0. -1.
         11    1    1    0    0    0  0.11795180376E+02 -0.12131322050E+02 -0.22675545590E+02  0.28292677901E+02  0.51100000000E-03 0.  1.
         22    1    1    0    0    0 -0.46653197025E+02 -0.95789392752E+00 -0.93549473602E+01  0.47591526489E+02  0.00000000000E+00 0.  1.
</event>
<event>
 4    1  0.1988088E-002  0.9118800E+02  0.7818608E-02  0.1130116E+00
         25   -1    0    0    0    0  0.00000000000E+00  0.00000000000E+00  0.99999998245E-14  0.12500000000E+03  0.12500000000E+03 0.  0.
        -11    1    1    0    0    0 -0.95807655125E+01 -0.48187491566E+02 -0.14335467788E+02  0.51179400624E+02  0.51100000000E-03 0.  1.
         11    1    1    0    0    0 -0.21229486714E+01 -0.10658075802E+02 -0.31708808263E+01  0.11320599646E+02  0.51100000000E-03 0. -1.
         22    1    1    0    0    0  0.11703714184E+02  0.58845567368E+02  0.17506348614E+02  0.62499999731E+02  0.00000000000E+00 0. -1.
</event>
<event>
 4    1  0.1988088E-002  0.9118800E+02  0.7818608E-02  0.1130116E+00
         25   -1    0    0    0    0  0.00000000000E+00  0.00000000000E+00  0.99999998245E-14  0.12500000000E+03  0.12500000000E+03 0.  0.
        -11    1    1    0    0    0  0.45058144764E+01  0.14817634688E+02  0.83698075295E+00  0.15510164374E+02  0.51100000000E-03 0. -1.
         11    1    1    0    0    0  0.13653071502E+02  0.44890829313E+02  0.25400270815E+01  0.46989835664E+02  0.51100000000E-03 0.  1.
         22    1    1    0    0    0 -0.18158885979E+02 -0.59708464002E+02 -0.33770078344E+01  0.62499999963E+02  0.00000000000E+00 0.  1.
</event>
<event>
 4    1  0.1988088E-002  0.9118800E+02  0.7818608E-02  0.1130116E+00
         25   -1    0    0    0    0  0.00000000000E+00  0.00000000000E+00  0.99999998245E-14  0.12500000000E+03  0.12500000000E+03 0.  0.
        -11    1    1    0    0    0 -0.36703690656E+02 -0.22096169308E+02 -0.35027048227E+02  0.55338013279E+02  0.51100000000E-03 0.  1.
         11    1    1    0    0    0 -0.47460140262E+01 -0.27838105257E+01 -0.45851449832E+01  0.71622485965E+01  0.51100000000E-03 0. -1.
         22    1    1    0    0    0  0.41449704682E+02  0.24879979834E+02  0.39612193210E+02  0.62499738125E+02  0.00000000000E+00 0.  1.
</event>
<event>
 4    1  0.1988088E-002  0.9118800E+02  0.7818608E-02  0.1130116E+00
         25   -1    0    0    0    0  0.00000000000E+00  0.00000000000E+00  0.99999998245E-14  0.12500000000E+03  0.12500000000E+03 0.  0.
        -11    1    1    0    0    0 -0.33465386138E+01  0.10729810758E+02  0.73419862902E+01  0.13425085569E+02  0.51100000000E-03 0. -1.
         11    1    1    0    0    0 -0.12236808184E+02  0.39224074371E+02  0.26834301658E+02  0.49074914473E+02  0.51100000000E-03 0.  1.
         22    1    1    0    0    0  0.15583346798E+02 -0.49953885128E+02 -0.34176287948E+02  0.62499999958E+02  0.00000000000E+00 0.  1.
</event>
<event>
 4    1  0.1988088E-002  0.9118800E+02  0.7818608E-02  0.1130116E+00
         25   -1    0    0    0    0  0.00000000000E+00  0.00000000000E+00  0.99999998245E-14  0.12500000000E+03  0.12500000000E+03 0.  0.
        -11    1    1    0    0    0  0.13246005530E+02 -0.42386949398E+01  0.32453499090E+01  0.14281298736E+02  0.51100000000E-03 0.  1.
         11    1    1    0    0    0  0.44615305240E+02 -0.14492627973E+02  0.11157557296E+02  0.48218801440E+02  0.51100000000E-03 0. -1.
         22    1    1    0    0    0 -0.57861310770E+02  0.18731322913E+02 -0.14402907205E+02  0.62499899824E+02  0.00000000000E+00 0. -1.
</event>
<event>
 4    1  0.1988088E-002  0.9118800E+02  0.7818608E-02  0.1130116E+00
         25   -1    0    0    0    0  0.00000000000E+00  0.00000000000E+00  0.99999998245E-14  0.12500000000E+03  0.12500000000E+03 0.  0.
        -11    1    1    0    0    0 -0.38423271050E+02 -0.81550444250E+01 -0.95311524403E+01  0.40418997697E+02  0.51100000000E-03 0. -1.
         11    1    1    0    0    0 -0.20984913153E+02 -0.43716465726E+01 -0.53007453360E+01  0.22081118069E+02  0.51100000000E-03 0.  1.
         22    1    1    0    0    0  0.59408184203E+02  0.12526690998E+02  0.14831897776E+02  0.62499884234E+02  0.00000000000E+00 0. -1.
</event>
<event>
 4    1  0.1988088E-002  0.9118800E+02  0.7818608E-02  0.1130116E+00
         25   -1    0    0    0    0  0.00000000000E+00  0.00000000000E+00  0.99999998245E-14  0.12500000000E+03  0.12500000000E+03 0.  0.
        -11    1    1    0    0    0 -0.28064426621E+02 -0.35979996308E+02  0.78845431800E+01  0.46306999442E+02  0.51100000000E-03 0. -1.
         11    1    1    0    0    0 -0.98150448692E+01 -0.12582254749E+02  0.27504624670E+01  0.16193001093E+02  0.51100000000E-03 0.  1.
         22    1    1    0    0    0  0.37879471490E+02  0.48562251057E+02 -0.10635005647E+02  0.62499999465E+02  0.00000000000E+00 0.  1.
</event>
<event>
 4    1  0.1988088E-002  0.9118800E+02  0.7818608E-02  0.1130116E+00
         25   -1    0    0    0    0  0.00000000000E+00  0.00000000000E+00  0.99999998245E-14  0.12500000000E+03  0.12500000000E+03 0.  0.
        -11    1    1    0    0    0  0.49709652101E+02 -0.37743652811E+01 -0.10793077234E+02  0.51007703945E+02  0.51100000000E-03 0.  1.
         11    1    1    0    0    0  0.11190438693E+02 -0.81681308699E+00 -0.24862573698E+01  0.11492370414E+02  0.51100000000E-03 0. -1.
         22    1    1    0    0    0 -0.60900090795E+02  0.45911783681E+01  0.13279334604E+02  0.62499925641E+02  0.00000000000E+00 0.  1.
</event>
<event>
 4    1  0.1988088E-002  0.9118800E+02  0.7818608E-02  0.1130116E+00
         25   -1    0    0    0    0  0.00000000000E+00  0.00000000000E+00  0.99999998245E-14  0.12500000000E+03  0.12500000000E+03 0.  0.
        -11    1    1    0    0    0 -0.17109422320E+02 -0.41776484867E+02 -0.20188220789E+02  0.49452717608E+02  0.51100000000E-03 0.  1.
         11    1    1    0    0    0 -0.84243925496E+01 -0.10887346310E+02  0.42309592997E+00  0.13772570926E+02  0.51100000000E-03 0. -1.
         22    1    1    0    0    0  0.25533814870E+02  0.52663831176E+02  0.19765124859E+02  0.61774711466E+02  0.00000000000E+00 0.  1.
</event>
<event>
 4    1  0.1988088E-002  0.9118800E+02  0.7818608E-02  0.1130116E+00
         25   -1    0    0    0    0  0.00000000000E+00  0.00000000000E+00  0.99999998245E-14  0.12500000000E+03  0.12500000000E+03 0.  0.
        -11    1    1    0    0    0 -0.36145901040E+02  0.34518305379E+02  0.76506414630E+01  0.50562554161E+02  0.51100000000E-03 0.  1.
         11    1    1    0    0    0 -0.85334330189E+01  0.81498398447E+01  0.18064452921E+01  0.11937445851E+02  0.51100000000E-03 0.  1.
         22    1    1    0    0    0  0.44679334058E+02 -0.42668145223E+02 -0.94570867552E+01  0.62499999989E+02  0.00000000000E+00 0.  1.
</event>
<event>
 4    1  0.1988088E-002  0.9118800E+02  0.7818608E-02  0.1130116E+00
         25   -1    0    0    0    0  0.00000000000E+00  0.00000000000E+00  0.99999998245E-14  0.12500000000E+03  0.12500000000E+03 0.  0.
        -11    1    1    0    0    0  0.59887576709E+01 -0.35905860657E+02 -0.44467984860E+01  0.36672470124E+02  0.51100000000E-03 0.  1.
         11    1    1    0    0    0  0.63709635667E+01 -0.23187918280E+02 -0.10331387530E+02  0.26172625002E+02  0.51100000000E-03 0. -1.
         22    1    1    0    0    0 -0.12359721238E+02  0.59093778936E+02  0.14778186016E+02  0.62154904875E+02  0.00000000000E+00 0.  1.
</event>
<event>
 4    1  0.1988088E-002  0.9118800E+02  0.7818608E-02  0.1130116E+00
         25   -1    0    0    0    0  0.00000000000E+00  0.00000000000E+00  0.99999998245E-14  0.12500000000E+03  0.12500000000E+03 0.  0.
        -11    1    1    0    0    0 -0.14799946204E+01 -0.23564222442E+01 -0.11705783363E+02  0.12031977156E+02  0.51100000000E-03 0. -1.
         11    1    1    0    0    0  0.22969621513E+02  0.32390495512E+02 -0.35341191420E+02  0.53157760705E+02  0.51100000000E-03 0.  1.
         22    1    1    0    0    0 -0.21489626892E+02 -0.30034073268E+02  0.47046974783E+02  0.59810262140E+02  0.00000000000E+00 0.  1.
</event>
<event>
 4    1  0.1988088E-002  0.9118800E+02  0.7818608E-02  0.1130116E+00
         25   -1    0    0    0    0  0.00000000000E+00  0.00000000000E+00  0.99999998245E-14  0.12500000000E+03  0.12500000000E+03 0.  0.
        -11    1    1    0    0    0 -0.73712631185E+01 -0.97495073511E+01  0.17684373340E+02  0.21497103857E+02  0.51100000000E-03 0.  1.
         11    1    1    0    0    0 -0.14172884376E+02 -0.23906494717E+02  0.30261758051E+02  0.41087286863E+02  0.51100000000E-03 0. -1.
         22    1    1    0    0    0  0.21544147495E+02  0.33656002068E+02 -0.47946131391E+02  0.62415609280E+02  0.00000000000E+00 0. -1.
</event>
<event>
 4    1  0.1988088E-002  0.9118800E+02  0.7818608E-02  0.1130116E+00
         25   -1    0    0    0    0  0.00000000000E+00  0.00000000000E+00  0.99999998245E-14  0.12500000000E+03  0.12500000000E+03 0.  0.
        -11    1    1    0    0    0 -0.89054723439E+01 -0.43968244602E+01  0.11591900435E+02  0.15264719419E+02  0.51100000000E-03 0.  1.
         11    1    1    0    0    0 -0.27487755198E+02 -0.96155503616E+01  0.37219670348E+02  0.47258219980E+02  0.51100000000E-03 0. -1.
         22    1    1    0    0    0  0.36393227542E+02  0.14012374822E+02 -0.48811570783E+02  0.62477060601E+02  0.00000000000E+00 0. -1.
</event>
<event>
 4    1  0.1988088E-002  0.9118800E+02  0.7818608E-02  0.1130116E+00
         25   -1    0    0    0    0  0.00000000000E+00  0.00000000000E+00  0.99999998245E-14  0.12500000000E+03  0.12500000000E+03 0.  0.
        -11    1    1    0    0    0 -0.26569510330E+01  0.35614736699E+01  0.10029476562E+02  0.10969680208E+02  0.51100000000E-03 0.  1.
         11    1    1    0    0    0 -0.12487824379E+02  0.16730732820E+02  0.47111683098E+02  0.51530319842E+02  0.51100000000E-03 0. -1.
         22    1    1    0    0    0  0.15144775412E+02 -0.20292206489E+02 -0.57141159660E+02  0.62499999950E+02  0.00000000000E+00 0. -1.
</event>
<event>
 4    1  0.1988088E-002  0.9118800E+02  0.7818608E-02  0.1130116E+00
         25   -1    0    0    0    0  0.00000000000E+00  0.00000000000E+00  0.99999998245E-14  0.12500000000E+03  0.12500000000E+03 0.  0.
        -11    1    1    0    0    0 -0.32117746754E+02 -0.31938797713E+02  0.10409586732E+02  0.46475756606E+02  0.51100000000E-03 0. -1.
         11    1    1    0    0    0 -0.10876587908E+02 -0.11206982225E+02  0.35928189566E+01  0.16025135364E+02  0.51100000000E-03 0.  1.
         22    1    1    0    0    0  0.42994334662E+02  0.43145779938E+02 -0.14002405689E+02  0.62499108030E+02  0.00000000000E+00 0.  1.
</event>
<event>
 4    1  0.1988088E-002  0.9118800E+02  0.7818608E-02  0.1130116E+00
         25   -1    0    0    0    0  0.00000000000E+00  0.00000000000E+00  0.99999998245E-14  0.12500000000E+03  0.12500000000E+03 0.  0.
        -11    1    1    0    0    0 -0.16951073620E+01 -0.14395222125E+01 -0.41212051390E+01  0.46829419416E+01  0.51100000000E-03 0.  1.
         11    1    1    0    0    0 -0.21395749524E+02 -0.17847550175E+02 -0.50660727223E+02  0.57817146488E+02  0.51100000000E-03 0. -1.
         22    1    1    0    0    0  0.23090856886E+02  0.19287072387E+02  0.54781932362E+02  0.62499911571E+02  0.00000000000E+00 0. -1.
</event>
<event>
 4    1  0.1988088E-002  0.9118800E+02  0.7818608E-02  0.1130116E+00
         25   -1    0    0    0    0  0.00000000000E+00  0.00000000000E+00  0.99999998245E-14  0.12500000000E+03  0.12500000000E+03 0.  0.
        -11    1    1    0    0    0  0.22211141342E+02 -0.37497531748E+02  0.44049171763E+02  0.61965548655E+02  0.51100000000E-03 0.  1.
         11    1    1    0    0    0  0.18944534500E+00 -0.32435115621E+00  0.38019417212E+00  0.53445400261E+00  0.51100000000E-03 0. -1.
         22    1    1    0    0    0 -0.22400586687E+02  0.37821882905E+02 -0.44429365935E+02  0.62499997342E+02  0.00000000000E+00 0.  1.
</event>
<event>
 4    1  0.1988088E-002  0.9118800E+02  0.7818608E-02  0.1130116E+00
         25   -1    0    0    0    0  0.00000000000E+00  0.00000000000E+00  0.99999998245E-14  0.12500000000E+03  0.12500000000E+03 0.  0.
        -11    1    1    0    0    0  0.43687042795E+02  0.17655988084E+02  0.19427431035E+01  0.47160002910E+02  0.51100000000E-03 0. -1.
         11    1    1    0    0    0  0.14206949925E+02  0.57538727429E+01  0.60932265092E+00  0.15340004957E+02  0.51100000000E-03 0.  1.
         22    1    1    0    0    0 -0.57893992721E+02 -0.23409860827E+02 -0.25520657544E+01  0.62499992133E+02  0.00000000000E+00 0. -1.
</event>
<event>
 4    1  0.1988088E-002  0.9118800E+02  0.7818608E-02  0.1130116E+00
         25   -1    0    0    0    0  0.00000000000E+00  0.00000000000E+00  0.99999998245E-14  0.12500000000E+03  0.12500000000E+03 0.  0.
        -11    1    1    0    0    0 -0.99489270183E+01 -0.14323541143E+02  0.45643748820E+01  0.18027160010E+02  0.51100000000E-03 0.  1.
         11    1    1    0    0    0 -0.24564224787E+02 -0.35258990392E+02  0.11456107582E+02  0.44472912475E+02  0.51100000000E-03 0. -1.
         22    1    1    0    0    0  0.34513151806E+02  0.49582531535E+02 -0.16020482464E+02  0.62499927515E+02  0.00000000000E+00 0. -1.
</event>
<event>
 4    1  0.1988088E-002  0.9118800E+02  0.7818608E-02  0.1130116E+00
         25   -1    0    0    0    0  0.00000000000E+00  0.00000000000E+00  0.99999998245E-14  0.12500000000E+03  0.12500000000E+03 0.  0.
        -11    1    1    0    0    0 -0.66379694324E+01 -0.66948533493E+00 -0.26138878061E+01  0.71654210290E+01  0.51100000000E-03 0. -1.
         11    1    1    0    0    0 -0.33315291018E+02  0.20100290744E+02 -0.40333546314E+02  0.56042173960E+02  0.51100000000E-03 0.  1.
         22    1    1    0    0    0  0.39953260451E+02 -0.19430805409E+02  0.42947434120E+02  0.61792405011E+02  0.00000000000E+00 0.  1.
</event>
<event>
 4    1  0.1988088E-002  0.9118800E+02  0.7818608E-02  0.1130116E+00
         25   -1    0    0    0    0  0.00000000000E+00  0.00000000000E+00  0.99999998245E-14  0.12500000000E+03  0.12500000000E+03 0.  0.
        -11    1    1    0    0    0 -0.79408271267E+01 -0.24138592941E+01 -0.34726915132E+01  0.89968349298E+01  0.51100000000E-03 0.  1.
         11    1    1    0    0    0 -0.47213457187E+02 -0.14424535830E+02 -0.20625501315E+02  0.53503168861E+02  0.51100000000E-03 0. -1.
         22    1    1    0    0    0  0.55154284314E+02  0.16838395124E+02  0.24098192828E+02  0.62499996209E+02  0.00000000000E+00 0. -1.
</event>
<event>
 4    1  0.1988088E-002  0.9118800E+02  0.7818608E-02  0.1130116E+00
         25   -1    0    0    0    0  0.00000000000E+00  0.00000000000E+00  0.99999998245E-14  0.12500000000E+03  0.12500000000E+03 0.  0.
        -11    1    1    0    0    0  0.13467957223E+01 -0.28102616278E+01  0.43347477379E+01  0.53386765538E+01  0.51100000000E-03 0. -1.
         11    1    1    0    0    0  0.14019154881E+02 -0.29737240356E+02  0.46761031818E+02  0.57161475353E+02  0.51100000000E-03 0.  1.
         22    1    1    0    0    0 -0.15365950603E+02  0.32547501984E+02 -0.51095779556E+02  0.62499848094E+02  0.00000000000E+00 0.  1.
</event>
<event>
 4    1  0.1988088E-002  0.9118800E+02  0.7818608E-02  0.1130116E+00
         25   -1    0    0    0    0  0.00000000000E+00  0.00000000000E+00  0.99999998245E-14  0.12500000000E+03  0.12500000000E+03 0.  0.
        -11    1    1    0    0    0 -0.29416273443E+00 -0.14598567359E+00  0.19828432823E+00  0.38361499862E+00  0.51100000000E-03 0.  1.
         11    1    1    0    0    0 -0.47514197974E+02 -0.22330719096E+02  0.33199310775E+02  0.62116457245E+02  0.51100000000E-03 0. -1.
         22    1    1    0    0    0  0.47808360708E+02  0.22476704770E+02 -0.33397595103E+02  0.62499927757E+02  0.00000000000E+00 0. -1.
</event>
<event>
 4    1  0.1988088E-002  0.9118800E+02  0.7818608E-02  0.1130116E+00
         25   -1    0    0    0    0  0.00000000000E+00  0.00000000000E+00  0.99999998245E-14  0.12500000000E+03  0.12500000000E+03 0.  0.
        -11    1    1    0    0    0  0.43388665773E+02  0.29551397865E+02  0.18996184702E+02  0.55827560101E+02  0.51100000000E-03 0. -1.
         11    1    1    0    0    0  0.51875001595E+01  0.35319633233E+01  0.22663935656E+01  0.66724405488E+01  0.51100000000E-03 0.  1.
         22    1    1    0    0    0 -0.48576165933E+02 -0.33083361188E+02 -0.21262578267E+02  0.62499999350E+02  0.00000000000E+00 0. -1.
</event>
<event>
 4    1  0.1988088E-002  0.9118800E+02  0.7818608E-02  0.1130116E+00
         25   -1    0    0    0    0  0.00000000000E+00  0.00000000000E+00  0.99999998245E-14  0.12500000000E+03  0.12500000000E+03 0.  0.
        -11    1    1    0    0    0 -0.55090596720E+01 -0.33895119355E+02  0.23637085876E+02  0.41688615755E+02  0.51100000000E-03 0.  1.
         11    1    1    0    0    0 -0.26542673498E+01 -0.16838151518E+02  0.11939727848E+02  0.20811669396E+02  0.51100000000E-03 0. -1.
         22    1    1    0    0    0  0.81633270218E+01  0.50733270873E+02 -0.35576813724E+02  0.62499714850E+02  0.00000000000E+00 0.  1.
</event>
<event>
 4    1  0.1988088E-002  0.9118800E+02  0.7818608E-02  0.1130116E+00
         25   -1    0    0    0    0  0.00000000000E+00  0.00000000000E+00  0.99999998245E-14  0.12500000000E+03  0.12500000000E+03 0.  0.
        -11    1    1    0    0    0  0.12300543979E+02  0.14609451563E+02  0.24523102310E+02  0.31082503186E+02  0.51100000000E-03 0. -1.
         11    1    1    0    0    0  0.12433074750E+02  0.14766701502E+02  0.24787542941E+02  0.31417496818E+02  0.51100000000E-03 0. -1.
         22    1    1    0    0    0 -0.24733618729E+02 -0.29376153066E+02 -0.49310645251E+02  0.62499999996E+02  0.00000000000E+00 0. -1.
</event>
<event>
 4    1  0.1988088E-002  0.9118800E+02  0.7818608E-02  0.1130116E+00
         25   -1    0    0    0    0  0.00000000000E+00  0.00000000000E+00  0.99999998245E-14  0.12500000000E+03  0.12500000000E+03 0.  0.
        -11    1    1    0    0    0  0.11521651772E+02  0.96612042697E+01  0.43926883577E+02  0.46429068788E+02  0.51100000000E-03 0. -1.
         11    1    1    0    0    0 -0.13748305531E+01  0.98988003089E+01  0.13652361361E+02  0.16919319655E+02  0.51100000000E-03 0.  1.
         22    1    1    0    0    0 -0.10146821219E+02 -0.19560004579E+02 -0.57579244938E+02  0.61651611557E+02  0.00000000000E+00 0. -1.
</event>
<event>
 4    1  0.1988088E-002  0.9118800E+02  0.7818608E-02  0.1130116E+00
         25   -1    0    0    0    0  0.00000000000E+00  0.00000000000E+00  0.99999998245E-14  0.12500000000E+03  0.12500000000E+03 0.  0.
        -11    1    1    0    0    0 -0.18283501888E+02 -0.41470590736E+02 -0.31577186979E+02  0.55237804764E+02  0.51100000000E-03 0.  1.
         11    1    1    0    0    0 -0.33811344728E+01 -0.28329556124E+01 -0.62211206525E+01  0.76262736810E+01  0.51100000000E-03 0. -1.
         22    1    1    0    0    0  0.21664636361E+02  0.44303546349E+02  0.37798307632E+02  0.62135921555E+02  0.00000000000E+00 0.  1.
</event>
<event>
 4    1  0.1988088E-002  0.9118800E+02  0.7818608E-02  0.1130116E+00
         25   -1    0    0    0    0  0.00000000000E+00  0.00000000000E+00  0.99999998245E-14  0.12500000000E+03  0.12500000000E+03 0.  0.
        -11    1    1    0    0    0  0.16874613064E+02  0.14451294479E+02  0.17976801257E+02  0.28578975872E+02  0.51100000000E-03 0.  1.
         11    1    1    0    0    0  0.20045260628E+02  0.17148609240E+02  0.21324837742E+02  0.33921025596E+02  0.51100000000E-03 0. -1.
         22    1    1    0    0    0 -0.36919873692E+02 -0.31599903719E+02 -0.39301638999E+02  0.62499998532E+02  0.00000000000E+00 0.  1.
</event>
<event>
 4    1  0.1988088E-002  0.9118800E+02  0.7818608E-02  0.1130116E+00
         25   -1    0    0    0    0  0.00000000000E+00  0.00000000000E+00  0.99999998245E-14  0.12500000000E+03  0.12500000000E+03 0.  0.
        -11    1    1    0    0    0 -0.30080906888E+02  0.33017629250E+02  0.30728908984E+02  0.54215225243E+02  0.51100000000E-03 0. -1.
         11    1    1    0    0    0 -0.45965167907E+01  0.50455355499E+01  0.46959660471E+01  0.82847747687E+01  0.51100000000E-03 0. -1.
         22    1    1    0    0    0  0.34677423678E+02 -0.38063164800E+02 -0.35424875031E+02  0.62499999989E+02  0.00000000000E+00 0. -1.
</event>
<event>
 4    1  0.1988088E-002  0.9118800E+02  0.7818608E-02  0.1130116E+00
         25   -1    0    0    0    0  0.00000000000E+00  0.00000000000E+00  0.99999998245E-14  0.12500000000E+03  0.12500000000E+03 0.  0.
        -11    1    1    0    0    0  0.25551150266E+02  0.19540824040E+02  0.28160165143E+02  0.42751607984E+02  0.51100000000E-03 0. -1.
         11    1    1    0    0    0  0.11495734643E+02  0.92378659177E+01  0.13136288336E+02  0.19749738054E+02  0.51100000000E-03 0.  1.
         22    1    1    0    0    0 -0.37046884909E+02 -0.28778689958E+02 -0.41296453479E+02  0.62498653962E+02  0.00000000000E+00 0. -1.
</event>
<event>
 4    1  0.1988088E-002  0.9118800E+02  0.7818608E-02  0.1130116E+00
         25   -1    0    0    0    0  0.00000000000E+00  0.00000000000E+00  0.99999998245E-14  0.12500000000E+03  0.12500000000E+03 0.  0.
        -11    1    1    0    0    0 -0.18927388562E+02 -0.14770222422E+01 -0.18081025329E+02  0.26217381823E+02  0.51100000000E-03 0. -1.
         11    1    1    0    0    0 -0.26193670843E+02 -0.20448688019E+01 -0.25022759667E+02  0.36282618183E+02  0.51100000000E-03 0. -1.
         22    1    1    0    0    0  0.45121059404E+02  0.35218910441E+01  0.43103784995E+02  0.62499999994E+02  0.00000000000E+00 0. -1.
</event>
<event>
 4    1  0.1988088E-002  0.9118800E+02  0.7818608E-02  0.1130116E+00
         25   -1    0    0    0    0  0.00000000000E+00  0.00000000000E+00  0.99999998245E-14  0.12500000000E+03  0.12500000000E+03 0.  0.
        -11    1    1    0    0    0 -0.19452208650E+02 -0.40204788557E+00  0.17945931404E+01  0.19538951576E+02  0.51100000000E-03 0.  1.
         11    1    1    0    0    0 -0.42768453289E+02 -0.91141150413E+00  0.39598690617E+01  0.42961050161E+02  0.51100000000E-03 0. -1.
         22    1    1    0    0    0  0.62220661939E+02  0.13134593897E+01 -0.57544622020E+01  0.62499998264E+02  0.00000000000E+00 0. -1.
</event>
<event>
 4    1  0.1988088E-002  0.9118800E+02  0.7818608E-02  0.1130116E+00
         25   -1    0    0    0    0  0.00000000000E+00  0.00000000000E+00  0.99999998245E-14  0.12500000000E+03  0.12500000000E+03 0.  0.
        -11    1    1    0    0    0  0.45260571886E+02 -0.23987048950E+02  0.20997782396E+02  0.55360678740E+02  0.51100000000E-03 0.  1.
         11    1    1    0    0    0  0.58852346944E+01 -0.30965690716E+01  0.25983715172E+01  0.71397662585E+01  0.51100000000E-03 0. -1.
         22    1    1    0    0    0 -0.51145806581E+02  0.27083618021E+02 -0.23596153913E+02  0.62499555001E+02  0.00000000000E+00 0.  1.
</event>
<event>
 4    1  0.1988088E-002  0.9118800E+02  0.7818608E-02  0.1130116E+00
         25   -1    0    0    0    0  0.00000000000E+00  0.00000000000E+00  0.99999998245E-14  0.12500000000E+03  0.12500000000E+03 0.  0.
        -11    1    1    0    0    0 -0.89617642668E+01  0.11683782945E+02 -0.30297192985E+02  0.33685960068E+02  0.51100000000E-03 0. -1.
         11    1    1    0    0    0 -0.17133794517E+02  0.12233935801E+02 -0.20509568918E+02  0.29391810376E+02  0.51100000000E-03 0.  1.
         22    1    1    0    0    0  0.26095558783E+02 -0.23917718746E+02  0.50806761902E+02  0.61922229556E+02  0.00000000000E+00 0. -1.
</event>
<event>
 4    1  0.1988088E-002  0.9118800E+02  0.7818608E-02  0.1130116E+00
         25   -1    0    0    0    0  0.00000000000E+00  0.00000000000E+00  0.99999998245E-14  0.12500000000E+03  0.12500000000E+03 0.  0.
        -11    1    1    0    0    0 -0.68379138832E+01  0.23616647246E+02  0.18207906792E+02  0.30594623113E+02  0.51100000000E-03 0.  1.
         11    1    1    0    0    0 -0.71344117213E+01  0.24629721591E+02  0.18984995753E+02  0.31905376980E+02  0.51100000000E-03 0.  1.
         22    1    1    0    0    0  0.13972325605E+02 -0.48246368836E+02 -0.37192902545E+02  0.62499999907E+02  0.00000000000E+00 0.  1.
</event>
<event>
 4    1  0.1988088E-002  0.9118800E+02  0.7818608E-02  0.1130116E+00
         25   -1    0    0    0    0  0.00000000000E+00  0.00000000000E+00  0.99999998245E-14  0.12500000000E+03  0.12500000000E+03 0.  0.
        -11    1    1    0    0    0  0.41431856721E+01 -0.33398048116E+01  0.76017540967E+00  0.53757000110E+01  0.51100000000E-03 0.  1.
         11    1    1    0    0    0  0.44047198867E+02 -0.35471028612E+02  0.80520875123E+01  0.57124300542E+02  0.51100000000E-03 0. -1.
         22    1    1    0    0    0 -0.48190384540E+02  0.38810833423E+02 -0.88122629220E+01  0.62499999447E+02  0.00000000000E+00 0. -1.
</event>
<event>
 4    1  0.1988088E-002  0.9118800E+02  0.7818608E-02  0.1130116E+00
         25   -1    0    0    0    0  0.00000000000E+00  0.00000000000E+00  0.99999998245E-14  0.12500000000E+03  0.12500000000E+03 0.  0.
        -11    1    1    0    0    0  0.17957773419E+01  0.23911486381E+00  0.34188951261E+01  0.38692165000E+01  0.51100000000E-03 0. -1.
         11    1    1    0    0    0  0.27333916203E+02  0.36150271292E+01  0.51743192502E+02  0.58630788556E+02  0.51100000000E-03 0.  1.
         22    1    1    0    0    0 -0.29129693545E+02 -0.38541419930E+01 -0.55162087628E+02  0.62499994944E+02  0.00000000000E+00 0.  1.
</event>
<event>
 4    1  0.1988088E-002  0.9118800E+02  0.7818608E-02  0.1130116E+00
         25   -1    0    0    0    0  0.00000000000E+00  0.00000000000E+00  0.99999998245E-14  0.12500000000E+03  0.12500000000E+03 0.  0.
        -11    1    1    0    0    0 -0.86344632617E+01  0.28732337294E+02  0.26816484569E+01  0.30121294808E+02  0.51100000000E-03 0. -1.
         11    1    1    0    0    0 -0.92807735674E+01  0.30885717884E+02  0.28844797869E+01  0.32378705211E+02  0.51100000000E-03 0.  1.
         22    1    1    0    0    0  0.17915236829E+02 -0.59618055179E+02 -0.55661282438E+01  0.62499999981E+02  0.00000000000E+00 0.  1.
</event>
<event>
 4    1  0.1988088E-002  0.9118800E+02  0.7818608E-02  0.1130116E+00
         25   -1    0    0    0    0  0.00000000000E+00  0.00000000000E+00  0.99999998245E-14  0.12500000000E+03  0.12500000000E+03 0.  0.
        -11    1    1    0    0    0 -0.57130562075E+01  0.37800558685E+01 -0.15326022826E+02  0.16787340752E+02  0.51100000000E-03 0.  1.
         11    1    1    0    0    0 -0.15540985827E+02  0.10291312492E+02 -0.41739835919E+02  0.45712659691E+02  0.51100000000E-03 0. -1.
         22    1    1    0    0    0  0.21254042034E+02 -0.14071368361E+02  0.57065858745E+02  0.62499999557E+02  0.00000000000E+00 0. -1.
</event>
<event>
 4    1  0.1988088E-002  0.9118800E+02  0.7818608E-02  0.1130116E+00
         25   -1    0    0    0    0  0.00000000000E+00  0.00000000000E+00  0.99999998245E-14  0.12500000000E+03  0.12500000000E+03 0.  0.
        -11    1    1    0    0    0  0.23096622794E+02 -0.97979378589E+01  0.16384479943E+02  0.29965058886E+02  0.51100000000E-03 0.  1.
         11    1    1    0    0    0  0.25077223942E+02 -0.10638374374E+02  0.17789891045E+02  0.32534941119E+02  0.51100000000E-03 0.  1.
         22    1    1    0    0    0 -0.48173846736E+02  0.20436312233E+02 -0.34174370987E+02  0.62499999995E+02  0.00000000000E+00 0.  1.
</event>
<event>
 4    1  0.1988088E-002  0.9118800E+02  0.7818608E-02  0.1130116E+00
         25   -1    0    0    0    0  0.00000000000E+00  0.00000000000E+00  0.99999998245E-14  0.12500000000E+03  0.12500000000E+03 0.  0.
        -11    1    1    0    0    0  0.44616426480E+01  0.93245180991E+01  0.70869163141E+01  0.12533047355E+02  0.51100000000E-03 0. -1.
         11    1    1    0    0    0  0.17764891193E+02  0.37198211466E+02  0.28238239907E+02  0.49966953966E+02  0.51100000000E-03 0.  1.
         22    1    1    0    0    0 -0.22226533841E+02 -0.46522729565E+02 -0.35325156221E+02  0.62499998679E+02  0.00000000000E+00 0.  1.
</event>
<event>
 4    1  0.1988088E-002  0.9118800E+02  0.7818608E-02  0.1130116E+00
         25   -1    0    0    0    0  0.00000000000E+00  0.00000000000E+00  0.99999998245E-14  0.12500000000E+03  0.12500000000E+03 0.  0.
        -11    1    1    0    0    0  0.78793150221E+01 -0.32156300075E+02 -0.14607596340E+02  0.36186919057E+02  0.51100000000E-03 0.  1.
         11    1    1    0    0    0  0.40496754729E+01 -0.23823462328E+02 -0.10454780253E+02  0.26329824518E+02  0.51100000000E-03 0. -1.
         22    1    1    0    0    0 -0.11928990495E+02  0.55979762403E+02  0.25062376593E+02  0.62483256425E+02  0.00000000000E+00 0. -1.
</event>
<event>
 4    1  0.1988088E-002  0.9118800E+02  0.7818608E-02  0.1130116E+00
         25   -1    0    0    0    0  0.00000000000E+00  0.00000000000E+00  0.99999998245E-14  0.12500000000E+03  0.12500000000E+03 0.  0.
        -11    1    1    0    0    0 -0.14705141229E+02 -0.38541913530E+02  0.38234198428E+02  0.56245659448E+02  0.51100000000E-03 0.  1.
         11    1    1    0    0    0 -0.91433560734E+01 -0.31925206601E+00  0.15470977421E+00  0.91502359282E+01  0.51100000000E-03 0. -1.
         22    1    1    0    0    0  0.23848497302E+02  0.38861165596E+02 -0.38388908202E+02  0.59604104624E+02  0.00000000000E+00 0.  1.
</event>
<event>
 4    1  0.1988088E-002  0.9118800E+02  0.7818608E-02  0.1130116E+00
         25   -1    0    0    0    0  0.00000000000E+00  0.00000000000E+00  0.99999998245E-14  0.12500000000E+03  0.12500000000E+03 0.  0.
        -11    1    1    0    0    0 -0.27050240371E+02  0.84098678241E+01  0.16103861100E+01  0.28373133852E+02  0.51100000000E-03 0. -1.
         11    1    1    0    0    0 -0.32536022855E+02  0.10114430342E+02  0.19361066782E+01  0.34126866157E+02  0.51100000000E-03 0. -1.
         22    1    1    0    0    0  0.59586263226E+02 -0.18524298166E+02 -0.35464927882E+01  0.62499999991E+02  0.00000000000E+00 0. -1.
</event>
<event>
 4    1  0.1988088E-002  0.9118800E+02  0.7818608E-02  0.1130116E+00
         25   -1    0    0    0    0  0.00000000000E+00  0.00000000000E+00  0.99999998245E-14  0.12500000000E+03  0.12500000000E+03 0.  0.
        -11    1    1    0    0    0 -0.11090549955E+02  0.54314682129E+01  0.88792653612E+01  0.15209947366E+02  0.51100000000E-03 0. -1.
         11    1    1    0    0    0 -0.34202322356E+02  0.17551372405E+02  0.27542027201E+02  0.47290726263E+02  0.51100000000E-03 0.  1.
         22    1    1    0    0    0  0.45292872310E+02 -0.22982840618E+02 -0.36421292563E+02  0.62499326372E+02  0.00000000000E+00 0.  1.
</event>
<event>
 4    1  0.1988088E-002  0.9118800E+02  0.7818608E-02  0.1130116E+00
         25   -1    0    0    0    0  0.00000000000E+00  0.00000000000E+00  0.99999998245E-14  0.12500000000E+03  0.12500000000E+03 0.  0.
        -11    1    1    0    0    0 -0.29146493707E+02 -0.25605976996E+02 -0.13172124350E+02  0.40971807544E+02  0.51100000000E-03 0.  1.
         11    1    1    0    0    0 -0.15301922758E+02 -0.13464020002E+02 -0.69306932940E+01  0.21528195105E+02  0.51100000000E-03 0. -1.
         22    1    1    0    0    0  0.44448416464E+02  0.39069996998E+02  0.20102817644E+02  0.62499997350E+02  0.00000000000E+00 0.  1.
</event>
<event>
 4    1  0.1988088E-002  0.9118800E+02  0.7818608E-02  0.1130116E+00
         25   -1    0    0    0    0  0.00000000000E+00  0.00000000000E+00  0.99999998245E-14  0.12500000000E+03  0.12500000000E+03 0.  0.
        -11    1    1    0    0    0 -0.62048302880E+02 -0.17908616310E+01 -0.53085162080E+01  0.62300717654E+02  0.51100000000E-03 0. -1.
         11    1    1    0    0    0 -0.19763788153E+00 -0.90352062637E-02 -0.24612865191E-01  0.19937006150E+00  0.51100000000E-03 0.  1.
         22    1    1    0    0    0  0.62245940761E+02  0.17998968372E+01  0.53331290732E+01  0.62499912284E+02  0.00000000000E+00 0. -1.
</event>
<event>
 4    1  0.1988088E-002  0.9118800E+02  0.7818608E-02  0.1130116E+00
         25   -1    0    0    0    0  0.00000000000E+00  0.00000000000E+00  0.99999998245E-14  0.12500000000E+03  0.12500000000E+03 0.  0.
        -11    1    1    0    0    0 -0.15673156514E+02 -0.51053899590E+02 -0.20205866657E+02  0.57100136130E+02  0.51100000000E-03 0.  1.
         11    1    1    0    0    0 -0.14825429860E+01 -0.48283569887E+01 -0.19098600231E+01  0.53998639321E+01  0.51100000000E-03 0.  1.
         22    1    1    0    0    0  0.17155699500E+02  0.55882256579E+02  0.22115726680E+02  0.62499999938E+02  0.00000000000E+00 0.  1.
</event>
<event>
 4    1  0.1988088E-002  0.9118800E+02  0.7818608E-02  0.1130116E+00
         25   -1    0    0    0    0  0.00000000000E+00  0.00000000000E+00  0.99999998245E-14  0.12500000000E+03  0.12500000000E+03 0.  0.
        -11    1    1    0    0    0  0.10376929092E+02 -0.94976626749E+01 -0.24687387196E+01  0.14282189075E+02  0.51100000000E-03 0.  1.
         11    1    1    0    0    0  0.28383710383E+02 -0.38970005395E+02 -0.36930564113E+01  0.48352197484E+02  0.51100000000E-03 0. -1.
         22    1    1    0    0    0 -0.38760639474E+02  0.48467668070E+02  0.61617951309E+01  0.62365613441E+02  0.00000000000E+00 0. -1.
</event>
<event>
 4    1  0.1988088E-002  0.9118800E+02  0.7818608E-02  0.1130116E+00
         25   -1    0    0    0    0  0.00000000000E+00  0.00000000000E+00  0.99999998245E-14  0.12500000000E+03  0.12500000000E+03 0.  0.
        -11    1    1    0    0    0  0.18429665828E+02  0.11862872083E+02 -0.20546240265E+02  0.30042108879E+02  0.51100000000E-03 0.  1.
         11    1    1    0    0    0  0.19908001963E+02  0.12815198749E+02 -0.22202631442E+02  0.32457891249E+02  0.51100000000E-03 0. -1.
         22    1    1    0    0    0 -0.38337667791E+02 -0.24678070832E+02  0.42748871708E+02  0.62499999872E+02  0.00000000000E+00 0. -1.
</event>
<event>
 4    1  0.1988088E-002  0.9118800E+02  0.7818608E-02  0.1130116E+00
         25   -1    0    0    0    0  0.00000000000E+00  0.00000000000E+00  0.99999998245E-14  0.12500000000E+03  0.12500000000E+03 0.  0.
        -11    1    1    0    0    0 -0.19753468088E+01  0.12223599485E+01  0.54956384832E+01  0.59664228360E+01  0.51100000000E-03 0. -1.
         11    1    1    0    0    0 -0.18649236480E+02  0.11854372336E+02  0.52035843444E+02  0.56533610958E+02  0.51100000000E-03 0.  1.
         22    1    1    0    0    0  0.20624583289E+02 -0.13076732284E+02 -0.57531481927E+02  0.62499966206E+02  0.00000000000E+00 0.  1.
</event>
<event>
 4    1  0.1988088E-002  0.9118800E+02  0.7818608E-02  0.1130116E+00
         25   -1    0    0    0    0  0.00000000000E+00  0.00000000000E+00  0.99999998245E-14  0.12500000000E+03  0.12500000000E+03 0.  0.
        -11    1    1    0    0    0  0.81343302641E+01  0.26280384830E+01  0.19861622090E+01  0.87760330272E+01  0.51100000000E-03 0. -1.
         11    1    1    0    0    0  0.49561342946E+02  0.16852090624E+02  0.12082640763E+02  0.53724388140E+02  0.51100000000E-03 0.  1.
         22    1    1    0    0    0 -0.57695673210E+02 -0.19480129107E+02 -0.14068802972E+02  0.62499578832E+02  0.00000000000E+00 0.  1.
</event>
<event>
 4    1  0.1988088E-002  0.9118800E+02  0.7818608E-02  0.1130116E+00
         25   -1    0    0    0    0  0.00000000000E+00  0.00000000000E+00  0.99999998245E-14  0.12500000000E+03  0.12500000000E+03 0.  0.
        -11    1    1    0    0    0 -0.20877884886E+02  0.48986083982E+02  0.15460032944E+02  0.55448490693E+02  0.51100000000E-03 0. -1.
         11    1    1    0    0    0 -0.26167191071E+01  0.62593771705E+01  0.19231804605E+01  0.70516412836E+01  0.51100000000E-03 0.  1.
         22    1    1    0    0    0  0.23494603994E+02 -0.55245461152E+02 -0.17383213405E+02  0.62499868024E+02  0.00000000000E+00 0. -1.
</event>
<event>
 4    1  0.1988088E-002  0.9118800E+02  0.7818608E-02  0.1130116E+00
         25   -1    0    0    0    0  0.00000000000E+00  0.00000000000E+00  0.99999998245E-14  0.12500000000E+03  0.12500000000E+03 0.  0.
        -11    1    1    0    0    0  0.99909318607E+01 -0.74776894961E+01 -0.53608440561E+02  0.55041797384E+02  0.51100000000E-03 0. -1.
         11    1    1    0    0    0 -0.37185836631E+01 -0.58536244753E+00 -0.72923261161E+01  0.82066152645E+01  0.51100000000E-03 0.  1.
         22    1    1    0    0    0 -0.62723481977E+01  0.80630519436E+01  0.60900766677E+02  0.61751587351E+02  0.00000000000E+00 0. -1.
</event>
<event>
 4    1  0.1988088E-002  0.9118800E+02  0.7818608E-02  0.1130116E+00
         25   -1    0    0    0    0  0.00000000000E+00  0.00000000000E+00  0.99999998245E-14  0.12500000000E+03  0.12500000000E+03 0.  0.
        -11    1    1    0    0    0 -0.22201222926E+02  0.16002528145E+02  0.40782718283E+02  0.49114206878E+02  0.51100000000E-03 0.  1.
         11    1    1    0    0    0 -0.62392551266E+01  0.44367062314E+01  0.10981347835E+02  0.13386660049E+02  0.51100000000E-03 0. -1.
         22    1    1    0    0    0  0.28440478053E+02 -0.20439234377E+02 -0.51764066118E+02  0.62499133073E+02  0.00000000000E+00 0.  1.
</event>
<event>
 4    1  0.1988088E-002  0.9118800E+02  0.7818608E-02  0.1130116E+00
         25   -1    0    0    0    0  0.00000000000E+00  0.00000000000E+00  0.99999998245E-14  0.12500000000E+03  0.12500000000E+03 0.  0.
        -11    1    1    0    0    0 -0.46974909508E+01  0.49417120026E+01  0.11422055503E+01  0.69131449088E+01  0.51100000000E-03 0.  1.
         11    1    1    0    0    0 -0.37765640462E+02  0.39741438482E+02  0.91800290138E+01  0.55586855147E+02  0.51100000000E-03 0. -1.
         22    1    1    0    0    0  0.42463131413E+02 -0.44683150485E+02 -0.10322234564E+02  0.62499999944E+02  0.00000000000E+00 0. -1.
</event>
<event>
 4    1  0.1988088E-002  0.9118800E+02  0.7818608E-02  0.1130116E+00
         25   -1    0    0    0    0  0.00000000000E+00  0.00000000000E+00  0.99999998245E-14  0.12500000000E+03  0.12500000000E+03 0.  0.
        -11    1    1    0    0    0  0.96807475985E+01 -0.28070224044E+02  0.33386135979E+01  0.29879770631E+02  0.51100000000E-03 0.  1.
         11    1    1    0    0    0  0.20109082600E+02 -0.26218708735E+02 -0.31788021655E+01  0.33194889279E+02  0.51100000000E-03 0. -1.
         22    1    1    0    0    0 -0.29789830199E+02  0.54288932779E+02 -0.15981143241E+00  0.61925340090E+02  0.00000000000E+00 0. -1.
</event>
<event>
 4    1  0.1988088E-002  0.9118800E+02  0.7818608E-02  0.1130116E+00
         25   -1    0    0    0    0  0.00000000000E+00  0.00000000000E+00  0.99999998245E-14  0.12500000000E+03  0.12500000000E+03 0.  0.
        -11    1    1    0    0    0  0.63739564975E+00 -0.63663763816E+01 -0.73018200853E+01  0.97084292378E+01  0.51100000000E-03 0. -1.
         11    1    1    0    0    0  0.27363937274E+01 -0.36034766771E+02 -0.38487270818E+02  0.52794528903E+02  0.51100000000E-03 0.  1.
         22    1    1    0    0    0 -0.33737893772E+01  0.42401143152E+02  0.45789090903E+02  0.62497041859E+02  0.00000000000E+00 0.  1.
</event>
<event>
 4    1  0.1988088E-002  0.9118800E+02  0.7818608E-02  0.1130116E+00
         25   -1    0    0    0    0  0.00000000000E+00  0.00000000000E+00  0.99999998245E-14  0.12500000000E+03  0.12500000000E+03 0.  0.
        -11    1    1    0    0    0 -0.16244216475E+02  0.21440238462E+02  0.36145648475E+02  0.45056257036E+02  0.51100000000E-03 0.  1.
         11    1    1    0    0    0 -0.64506319470E+01  0.83034091649E+01  0.13918992580E+02  0.17444070941E+02  0.51100000000E-03 0. -1.
         22    1    1    0    0    0  0.22694848422E+02 -0.29743647627E+02 -0.50064641055E+02  0.62499672023E+02  0.00000000000E+00 0.  1.
</event>
<event>
 4    1  0.1988088E-002  0.9118800E+02  0.7818608E-02  0.1130116E+00
         25   -1    0    0    0    0  0.00000000000E+00  0.00000000000E+00  0.99999998245E-14  0.12500000000E+03  0.12500000000E+03 0.  0.
        -11    1    1    0    0    0 -0.32906089651E+02  0.67423655303E+01  0.49673849860E+02  0.59964669508E+02  0.51100000000E-03 0. -1.
         11    1    1    0    0    0 -0.16526210020E+01  0.70605988270E+00  0.18306655965E+01  0.25653486160E+01  0.51100000000E-03 0.  1.
         22    1    1    0    0    0  0.34558710653E+02 -0.74484254130E+01 -0.51504515456E+02  0.62469981876E+02  0.00000000000E+00 0. -1.
</event>
<event>
 4    1  0.1988088E-002  0.9118800E+02  0.7818608E-02  0.1130116E+00
         25   -1    0    0    0    0  0.00000000000E+00  0.00000000000E+00  0.99999998245E-14  0.12500000000E+03  0.12500000000E+03 0.  0.
        -11    1    1    0    0    0 -0.17447361032E+01 -0.48859969004E+02 -0.17727589339E+02  0.52005846779E+02  0.51100000000E-03 0.  1.
         11    1    1    0    0    0  0.35259477258E+01  0.49043485969E+02 -0.56989928316E+01  0.49499235781E+02  0.51100000000E-03 0. -1.
         22    1    1    0    0    0 -0.17812116226E+01 -0.18351696514E+00  0.23426582171E+02  0.23494917440E+02  0.00000000000E+00 0. -1.
</event>
<event>
 4    1  0.1988088E-002  0.9118800E+02  0.7818608E-02  0.1130116E+00
         25   -1    0    0    0    0  0.00000000000E+00  0.00000000000E+00  0.99999998245E-14  0.12500000000E+03  0.12500000000E+03 0.  0.
        -11    1    1    0    0    0  0.87023723312E+01 -0.17830307874E+02 -0.21073032083E+01  0.19952240229E+02  0.51100000000E-03 0.  1.
         11    1    1    0    0    0  0.18840997875E+02 -0.37917095719E+02 -0.42012817665E+01  0.42548091819E+02  0.51100000000E-03 0. -1.
         22    1    1    0    0    0 -0.27543370206E+02  0.55747403593E+02  0.63085849747E+01  0.62499667952E+02  0.00000000000E+00 0. -1.
</event>
<event>
 4    1  0.1988088E-002  0.9118800E+02  0.7818608E-02  0.1130116E+00
         25   -1    0    0    0    0  0.00000000000E+00  0.00000000000E+00  0.99999998245E-14  0.12500000000E+03  0.12500000000E+03 0.  0.
        -11    1    1    0    0    0  0.69106188931E+01  0.20064041033E+02 -0.54726442667E+02  0.58696728387E+02  0.51100000000E-03 0.  1.
         11    1    1    0    0    0 -0.81602459705E+00 -0.65723256039E+00 -0.40098268661E+01  0.41444616706E+01  0.51100000000E-03 0. -1.
         22    1    1    0    0    0 -0.60945942961E+01 -0.19406808473E+02  0.58736269533E+02  0.62158809942E+02  0.00000000000E+00 0.  1.
</event>
<event>
 4    1  0.1988088E-002  0.9118800E+02  0.7818608E-02  0.1130116E+00
         25   -1    0    0    0    0  0.00000000000E+00  0.00000000000E+00  0.99999998245E-14  0.12500000000E+03  0.12500000000E+03 0.  0.
        -11    1    1    0    0    0 -0.41255684690E+01 -0.13214976684E+02  0.39760815088E+01  0.14403650523E+02  0.51100000000E-03 0.  1.
         11    1    1    0    0    0 -0.13963235215E+02 -0.41604138211E+02  0.19825876274E+02  0.48155390396E+02  0.51100000000E-03 0. -1.
         22    1    1    0    0    0  0.18088803684E+02  0.54819114895E+02 -0.23801957783E+02  0.62440959081E+02  0.00000000000E+00 0.  1.
</event>
<event>
 4    1  0.1988088E-002  0.9118800E+02  0.7818608E-02  0.1130116E+00
         25   -1    0    0    0    0  0.00000000000E+00  0.00000000000E+00  0.99999998245E-14  0.12500000000E+03  0.12500000000E+03 0.  0.
        -11    1    1    0    0    0 -0.49322996480E+02 -0.47240895507E+00 -0.33065470704E+02  0.59382712174E+02  0.51100000000E-03 0. -1.
         11    1    1    0    0    0 -0.25921327270E+01 -0.27112228968E-01 -0.17313613025E+01  0.31172903889E+01  0.51100000000E-03 0.  1.
         22    1    1    0    0    0  0.51915129207E+02  0.49952118404E+00  0.34796832006E+02  0.62499997437E+02  0.00000000000E+00 0. -1.
</event>
<event>
 4    1  0.1988088E-002  0.9118800E+02  0.7818608E-02  0.1130116E+00
         25   -1    0    0    0    0  0.00000000000E+00  0.00000000000E+00  0.99999998245E-14  0.12500000000E+03  0.12500000000E+03 0.  0.
        -11    1    1    0    0    0 -0.29069309160E+01  0.94576014070E-01 -0.82559931451E+01  0.87533202298E+01  0.51100000000E-03 0.  1.
         11    1    1    0    0    0 -0.18596442496E+02 -0.17114242802E-01 -0.50427638286E+02  0.53747322443E+02  0.51100000000E-03 0. -1.
         22    1    1    0    0    0  0.21503373412E+02 -0.77461771269E-01  0.58683631431E+02  0.62499357327E+02  0.00000000000E+00 0. -1.
</event>
<event>
 4    1  0.1988088E-002  0.9118800E+02  0.7818608E-02  0.1130116E+00
         25   -1    0    0    0    0  0.00000000000E+00  0.00000000000E+00  0.99999998245E-14  0.12500000000E+03  0.12500000000E+03 0.  0.
        -11    1    1    0    0    0  0.61728413072E+01  0.18430851395E+02  0.13042769952E+02  0.23407565043E+02  0.51100000000E-03 0.  1.
         11    1    1    0    0    0  0.10350783730E+02  0.30790268848E+02  0.21749474388E+02  0.39092441929E+02  0.51100000000E-03 0. -1.
         22    1    1    0    0    0 -0.16523625037E+02 -0.49221120243E+02 -0.34792244340E+02  0.62499993028E+02  0.00000000000E+00 0. -1.
</event>
<event>
 4    1  0.1988088E-002  0.9118800E+02  0.7818608E-02  0.1130116E+00
         25   -1    0    0    0    0  0.00000000000E+00  0.00000000000E+00  0.99999998245E-14  0.12500000000E+03  0.12500000000E+03 0.  0.
        -11    1    1    0    0    0 -0.19492455218E+02 -0.71579034914E+01  0.38973297197E+02  0.44160041752E+02  0.51100000000E-03 0.  1.
         11    1    1    0    0    0 -0.81765034388E+01 -0.33502741020E+01  0.16072701519E+02  0.18341517915E+02  0.51100000000E-03 0. -1.
         22    1    1    0    0    0  0.27668958657E+02  0.10508177593E+02 -0.55045998716E+02  0.62498440334E+02  0.00000000000E+00 0.  1.
</event>
<event>
 4    1  0.1988088E-002  0.9118800E+02  0.7818608E-02  0.1130116E+00
         25   -1    0    0    0    0  0.00000000000E+00  0.00000000000E+00  0.99999998245E-14  0.12500000000E+03  0.12500000000E+03 0.  0.
        -11    1    1    0    0    0 -0.13972767254E+02  0.25240708069E+02 -0.55823496616E+01  0.29385271762E+02  0.51100000000E-03 0.  1.
         11    1    1    0    0    0 -0.15750833475E+02  0.28450076804E+02 -0.62521968502E+01  0.33114733745E+02  0.51100000000E-03 0. -1.
         22    1    1    0    0    0  0.29723600728E+02 -0.53690784872E+02  0.11834546512E+02  0.62499994493E+02  0.00000000000E+00 0.  1.
</event>
<event>
 4    1  0.1988088E-002  0.9118800E+02  0.7818608E-02  0.1130116E+00
         25   -1    0    0    0    0  0.00000000000E+00  0.00000000000E+00  0.99999998245E-14  0.12500000000E+03  0.12500000000E+03 0.  0.
        -11    1    1    0    0    0 -0.61781493032E+01  0.15256266673E+02  0.54498455572E+01  0.17338512580E+02  0.51100000000E-03 0.  1.
         11    1    1    0    0    0 -0.15989824195E+02  0.39790868001E+02  0.14162425057E+02  0.45161509472E+02  0.51100000000E-03 0. -1.
         22    1    1    0    0    0  0.22167973498E+02 -0.55047134674E+02 -0.19612270614E+02  0.62499977948E+02  0.00000000000E+00 0. -1.
</event>
<event>
 4    1  0.1988088E-002  0.9118800E+02  0.7818608E-02  0.1130116E+00
         25   -1    0    0    0    0  0.00000000000E+00  0.00000000000E+00  0.99999998245E-14  0.12500000000E+03  0.12500000000E+03 0.  0.
        -11    1    1    0    0    0  0.47254883259E+02  0.64856139570E+01 -0.16921206246E+02  0.50610417913E+02  0.51100000000E-03 0.  1.
         11    1    1    0    0    0  0.11101436076E+02  0.15232552917E+01 -0.39749179309E+01  0.11889582098E+02  0.51100000000E-03 0.  1.
         22    1    1    0    0    0 -0.58356319336E+02 -0.80088692487E+01  0.20896124177E+02  0.62499999989E+02  0.00000000000E+00 0.  1.
</event>
<event>
 4    1  0.1988088E-002  0.9118800E+02  0.7818608E-02  0.1130116E+00
         25   -1    0    0    0    0  0.00000000000E+00  0.00000000000E+00  0.99999998245E-14  0.12500000000E+03  0.12500000000E+03 0.  0.
        -11    1    1    0    0    0 -0.41600781359E+02 -0.54725592453E+01 -0.17836430538E+02  0.45592896036E+02  0.51100000000E-03 0.  1.
         11    1    1    0    0    0 -0.15388065546E+02 -0.20177970244E+01 -0.67074481642E+01  0.16907215241E+02  0.51100000000E-03 0. -1.
         22    1    1    0    0    0  0.56988846905E+02  0.74903562697E+01  0.24543878702E+02  0.62499888723E+02  0.00000000000E+00 0.  1.
</event>
<event>
 4    1  0.1988088E-002  0.9118800E+02  0.7818608E-02  0.1130116E+00
         25   -1    0    0    0    0  0.00000000000E+00  0.00000000000E+00  0.99999998245E-14  0.12500000000E+03  0.12500000000E+03 0.  0.
        -11    1    1    0    0    0 -0.30074721748E+02 -0.38891662437E+00  0.27526124966E+02  0.40771653146E+02  0.51100000000E-03 0.  1.
         11    1    1    0    0    0 -0.16067374203E+02  0.10571962870E-01  0.14627952189E+02  0.21728727782E+02  0.51100000000E-03 0. -1.
         22    1    1    0    0    0  0.46142095950E+02  0.37834466150E+00 -0.42154077155E+02  0.62499619072E+02  0.00000000000E+00 0.  1.
</event>
<event>
 4    1  0.1988088E-002  0.9118800E+02  0.7818608E-02  0.1130116E+00
         25   -1    0    0    0    0  0.00000000000E+00  0.00000000000E+00  0.99999998245E-14  0.12500000000E+03  0.12500000000E+03 0.  0.
        -11    1    1    0    0    0  0.10301363583E+01 -0.68084211759E+00 -0.55423040123E+00  0.13534764514E+01  0.51100000000E-03 0. -1.
         11    1    1    0    0    0  0.47358739714E+02 -0.27669076925E+02 -0.27030036586E+02  0.61147779381E+02  0.51100000000E-03 0.  1.
         22    1    1    0    0    0 -0.48388876072E+02  0.28349919043E+02  0.27584266987E+02  0.62498744167E+02  0.00000000000E+00 0.  1.
</event>
<event>
 4    1  0.1988088E-002  0.9118800E+02  0.7818608E-02  0.1130116E+00
         25   -1    0    0    0    0  0.00000000000E+00  0.00000000000E+00  0.99999998245E-14  0.12500000000E+03  0.12500000000E+03 0.  0.
        -11    1    1    0    0    0  0.20702002162E+00  0.12240960949E+00 -0.44627871427E+00  0.50695794083E+00  0.51100000000E-03 0.  1.
         11    1    1    0    0    0  0.25016119031E+02 -0.28594424756E+02 -0.49066423227E+02  0.62056113534E+02  0.51100000000E-03 0. -1.
         22    1    1    0    0    0 -0.25223139052E+02  0.28472015146E+02  0.49512701941E+02  0.62436928525E+02  0.00000000000E+00 0. -1.
</event>
<event>
 4    1  0.1988088E-002  0.9118800E+02  0.7818608E-02  0.1130116E+00
         25   -1    0    0    0    0  0.00000000000E+00  0.00000000000E+00  0.99999998245E-14  0.12500000000E+03  0.12500000000E+03 0.  0.
        -11    1    1    0    0    0 -0.26925460978E+02  0.97596398849E+01 -0.17189343005E+02  0.33402163594E+02  0.51100000000E-03 0. -1.
         11    1    1    0    0    0 -0.20673955174E+02  0.79890110268E+01 -0.19025800051E+02  0.29209891947E+02  0.51100000000E-03 0.  1.
         22    1    1    0    0    0  0.47599416152E+02 -0.17748650912E+02  0.36215143057E+02  0.62387944459E+02  0.00000000000E+00 0.  1.
</event>
<event>
 4    1  0.1988088E-002  0.9118800E+02  0.7818608E-02  0.1130116E+00
         25   -1    0    0    0    0  0.00000000000E+00  0.00000000000E+00  0.99999998245E-14  0.12500000000E+03  0.12500000000E+03 0.  0.
        -11    1    1    0    0    0 -0.70664382313E+01 -0.13012632279E+01 -0.10516658498E+02  0.12736873301E+02  0.51100000000E-03 0.  1.
         11    1    1    0    0    0 -0.27391097880E+02 -0.53611498721E+01 -0.41199132241E+02  0.49763266259E+02  0.51100000000E-03 0. -1.
         22    1    1    0    0    0  0.34457536111E+02  0.66624131000E+01  0.51715790740E+02  0.62499860440E+02  0.00000000000E+00 0. -1.
</event>
<event>
 4    1  0.1988088E-002  0.9118800E+02  0.7818608E-02  0.1130116E+00
         25   -1    0    0    0    0  0.00000000000E+00  0.00000000000E+00  0.99999998245E-14  0.12500000000E+03  0.12500000000E+03 0.  0.
        -11    1    1    0    0    0 -0.67188037895E+01  0.10966286347E+02  0.59669197356E+02  0.61039453422E+02  0.51100000000E-03 0. -1.
         11    1    1    0    0    0 -0.16082241945E+00  0.26263362246E+00  0.14277100331E+01  0.14605466339E+01  0.51100000000E-03 0. -1.
         22    1    1    0    0    0  0.68796262089E+01 -0.11228919970E+02 -0.61096907390E+02  0.62499999944E+02  0.00000000000E+00 0. -1.
</event>
<event>
 4    1  0.1988088E-002  0.9118800E+02  0.7818608E-02  0.1130116E+00
         25   -1    0    0    0    0  0.00000000000E+00  0.00000000000E+00  0.99999998245E-14  0.12500000000E+03  0.12500000000E+03 0.  0.
        -11    1    1    0    0    0  0.24223225044E+02 -0.11699393099E+02 -0.35388404097E+02  0.44451991802E+02  0.51100000000E-03 0. -1.
         11    1    1    0    0    0  0.98356270508E+01 -0.47494583350E+01 -0.14367800327E+02  0.18048008213E+02  0.51100000000E-03 0.  1.
         22    1    1    0    0    0 -0.34058852095E+02  0.16448851434E+02  0.49756204423E+02  0.62499999985E+02  0.00000000000E+00 0. -1.
</event>
<event>
 4    1  0.1988088E-002  0.9118800E+02  0.7818608E-02  0.1130116E+00
         25   -1    0    0    0    0  0.00000000000E+00  0.00000000000E+00  0.99999998245E-14  0.12500000000E+03  0.12500000000E+03 0.  0.
        -11    1    1    0    0    0 -0.28762442305E+02 -0.14282328388E+02  0.13773740860E+00  0.32113579112E+02  0.51100000000E-03 0. -1.
         11    1    1    0    0    0 -0.27220047443E+02 -0.13505007915E+02  0.13559808039E+00  0.30386421452E+02  0.51100000000E-03 0.  1.
         22    1    1    0    0    0  0.55982489748E+02  0.27787336303E+02 -0.27333548898E+00  0.62499999436E+02  0.00000000000E+00 0.  1.
</event>
<event>
 4    1  0.1988088E-002  0.9118800E+02  0.7818608E-02  0.1130116E+00
         25   -1    0    0    0    0  0.00000000000E+00  0.00000000000E+00  0.99999998245E-14  0.12500000000E+03  0.12500000000E+03 0.  0.
        -11    1    1    0    0    0  0.96088166287E+01 -0.96121850353E+01  0.20978029096E+02  0.24996022947E+02  0.51100000000E-03 0. -1.
         11    1    1    0    0    0 -0.12448426435E+02 -0.15358362711E+02 -0.54576167969E+02  0.58046539400E+02  0.51100000000E-03 0.  1.
         22    1    1    0    0    0  0.28396098064E+01  0.24970547746E+02  0.33598138874E+02  0.41957437653E+02  0.00000000000E+00 0.  1.
</event>
<event>
 4    1  0.1988088E-002  0.9118800E+02  0.7818608E-02  0.1130116E+00
         25   -1    0    0    0    0  0.00000000000E+00  0.00000000000E+00  0.99999998245E-14  0.12500000000E+03  0.12500000000E+03 0.  0.
        -11    1    1    0    0    0  0.17420159914E+02 -0.33369686245E+02 -0.37006398427E+02  0.52787038715E+02  0.51100000000E-03 0.  1.
         11    1    1    0    0    0  0.32084400376E+01 -0.61383395183E+01 -0.68094289514E+01  0.97129615680E+01  0.51100000000E-03 0. -1.
         22    1    1    0    0    0 -0.20628599952E+02  0.39508025764E+02  0.43815827378E+02  0.62499999717E+02  0.00000000000E+00 0.  1.
</event>
<event>
 4    1  0.1988088E-002  0.9118800E+02  0.7818608E-02  0.1130116E+00
         25   -1    0    0    0    0  0.00000000000E+00  0.00000000000E+00  0.99999998245E-14  0.12500000000E+03  0.12500000000E+03 0.  0.
        -11    1    1    0    0    0 -0.16182151367E+02 -0.48455999678E+02  0.16371197351E+02  0.53645708408E+02  0.51100000000E-03 0. -1.
         11    1    1    0    0    0 -0.26717644431E+01 -0.79979199493E+01  0.27006354778E+01  0.88542916713E+01  0.51100000000E-03 0.  1.
         22    1    1    0    0    0  0.18853915810E+02  0.56453919627E+02 -0.19071832829E+02  0.62499999921E+02  0.00000000000E+00 0. -1.
</event>
<event>
 4    1  0.1988088E-002  0.9118800E+02  0.7818608E-02  0.1130116E+00
         25   -1    0    0    0    0  0.00000000000E+00  0.00000000000E+00  0.99999998245E-14  0.12500000000E+03  0.12500000000E+03 0.  0.
        -11    1    1    0    0    0  0.43122683014E+02  0.18760322680E+02  0.11170450025E+02  0.48335229920E+02  0.51100000000E-03 0. -1.
         11    1    1    0    0    0  0.12638105539E+02  0.54958990476E+01  0.32732392294E+01  0.14164770145E+02  0.51100000000E-03 0.  1.
         22    1    1    0    0    0 -0.55760788553E+02 -0.24256221728E+02 -0.14443689254E+02  0.62499999935E+02  0.00000000000E+00 0. -1.
</event>
<event>
 4    1  0.1988088E-002  0.9118800E+02  0.7818608E-02  0.1130116E+00
         25   -1    0    0    0    0  0.00000000000E+00  0.00000000000E+00  0.99999998245E-14  0.12500000000E+03  0.12500000000E+03 0.  0.
        -11    1    1    0    0    0 -0.41998066676E+02  0.25327942418E+01  0.10192168834E+02  0.43291257281E+02  0.51100000000E-03 0. -1.
         11    1    1    0    0    0 -0.19092962079E+02  0.94561319509E+00  0.23074799449E+01  0.19255125271E+02  0.51100000000E-03 0.  1.
         22    1    1    0    0    0  0.61091028755E+02 -0.34784074369E+01 -0.12499648779E+02  0.62453617447E+02  0.00000000000E+00 0. -1.
</event>
<event>
 4    1  0.1988088E-002  0.9118800E+02  0.7818608E-02  0.1130116E+00
         25   -1    0    0    0    0  0.00000000000E+00  0.00000000000E+00  0.99999998245E-14  0.12500000000E+03  0.12500000000E+03 0.  0.
        -11    1    1    0    0    0  0.15857137726E+02 -0.19709648347E+00 -0.32331938120E+01  0.16184597813E+02  0.51100000000E-03 0. -1.
         11    1    1    0    0    0  0.39521012014E+02  0.29729491098E+01 -0.24730282577E+02  0.46715475954E+02  0.51100000000E-03 0.  1.
         22    1    1    0    0    0 -0.55378149740E+02 -0.27758526264E+01  0.27963476389E+02  0.62099926233E+02  0.00000000000E+00 0.  1.
</event>
<event>
 4    1  0.1988088E-002  0.9118800E+02  0.7818608E-02  0.1130116E+00
         25   -1    0    0    0    0  0.00000000000E+00  0.00000000000E+00  0.99999998245E-14  0.12500000000E+03  0.12500000000E+03 0.  0.
        -11    1    1    0    0    0  0.14291952673E+02 -0.91164017839E+01 -0.31481825497E+02  0.35755755195E+02  0.51100000000E-03 0.  1.
         11    1    1    0    0    0  0.98766387614E+01 -0.44407874472E+01 -0.24495942932E+02  0.26782826713E+02  0.51100000000E-03 0. -1.
         22    1    1    0    0    0 -0.24168591434E+02  0.13557189231E+02  0.55977768429E+02  0.62461418092E+02  0.00000000000E+00 0. -1.
</event>
<event>
 4    1  0.1988088E-002  0.9118800E+02  0.7818608E-02  0.1130116E+00
         25   -1    0    0    0    0  0.00000000000E+00  0.00000000000E+00  0.99999998245E-14  0.12500000000E+03  0.12500000000E+03 0.  0.
        -11    1    1    0    0    0  0.33084494868E+01 -0.23927253942E+02 -0.46101595627E+02  0.52046291307E+02  0.51100000000E-03 0.  1.
         11    1    1    0    0    0  0.66674856220E+00 -0.48208357839E+01 -0.92517639045E+01  0.10453714503E+02  0.51100000000E-03 0. -1.
         22    1    1    0    0    0 -0.39751980490E+01  0.28748089726E+02  0.55353359531E+02  0.62499994190E+02  0.00000000000E+00 0.  1.
</event>
<event>
 4    1  0.1988088E-002  0.9118800E+02  0.7818608E-02  0.1130116E+00
         25   -1    0    0    0    0  0.00000000000E+00  0.00000000000E+00  0.99999998245E-14  0.12500000000E+03  0.12500000000E+03 0.  0.
        -11    1    1    0    0    0 -0.66999188331E+00 -0.19118481232E+01  0.60548984639E+01  0.63848138610E+01  0.51100000000E-03 0. -1.
         11    1    1    0    0    0 -0.63799402900E+01 -0.16851762148E+02  0.53143591482E+02  0.56115299531E+02  0.51100000000E-03 0.  1.
         22    1    1    0    0    0  0.70499321733E+01  0.18763610272E+02 -0.59198489946E+02  0.62499886608E+02  0.00000000000E+00 0.  1.
</event>
<event>
 4    1  0.1988088E-002  0.9118800E+02  0.7818608E-02  0.1130116E+00
         25   -1    0    0    0    0  0.00000000000E+00  0.00000000000E+00  0.99999998245E-14  0.12500000000E+03  0.12500000000E+03 0.  0.
        -11    1    1    0    0    0  0.19442815388E+02 -0.55843369633E+02 -0.22276728697E+01  0.59173199414E+02  0.51100000000E-03 0. -1.
         11    1    1    0    0    0  0.33565207077E+01 -0.17647513494E+01 -0.41486490522E+00  0.38147990428E+01  0.51100000000E-03 0.  1.
         22    1    1    0    0    0 -0.22799336095E+02  0.57608120983E+02  0.26425377749E+01  0.62012001543E+02  0.00000000000E+00 0. -1.
</event>
<event>
 4    1  0.1988088E-002  0.9118800E+02  0.7818608E-02  0.1130116E+00
         25   -1    0    0    0    0  0.00000000000E+00  0.00000000000E+00  0.99999998245E-14  0.12500000000E+03  0.12500000000E+03 0.  0.
        -11    1    1    0    0    0  0.25157418203E+01 -0.31609728465E+01 -0.14311776899E+01  0.42859043484E+01  0.51100000000E-03 0.  1.
         11    1    1    0    0    0  0.34181558681E+02 -0.42921996919E+02 -0.19447472142E+02  0.58214095770E+02  0.51100000000E-03 0. -1.
         22    1    1    0    0    0 -0.36697300501E+02  0.46082969765E+02  0.20878649831E+02  0.62499999882E+02  0.00000000000E+00 0. -1.
</event>
<event>
 4    1  0.1988088E-002  0.9118800E+02  0.7818608E-02  0.1130116E+00
         25   -1    0    0    0    0  0.00000000000E+00  0.00000000000E+00  0.99999998245E-14  0.12500000000E+03  0.12500000000E+03 0.  0.
        -11    1    1    0    0    0 -0.40307138807E+02  0.11183361010E+02 -0.41545918719E+02  0.58955884904E+02  0.51100000000E-03 0. -1.
         11    1    1    0    0    0 -0.24242660765E+01  0.67382455628E+00 -0.24959265141E+01  0.35441155409E+01  0.51100000000E-03 0. -1.
         22    1    1    0    0    0  0.42731404883E+02 -0.11857185566E+02  0.44041845234E+02  0.62499999555E+02  0.00000000000E+00 0. -1.
</event>
<event>
 4    1  0.1988088E-002  0.9118800E+02  0.7818608E-02  0.1130116E+00
         25   -1    0    0    0    0  0.00000000000E+00  0.00000000000E+00  0.99999998245E-14  0.12500000000E+03  0.12500000000E+03 0.  0.
        -11    1    1    0    0    0 -0.39190703974E+02  0.80848967683E+01  0.44418835628E+02  0.59785531632E+02  0.51100000000E-03 0. -1.
         11    1    1    0    0    0 -0.17793980992E+01  0.36734805098E+00  0.20167142204E+01  0.27144683999E+01  0.51100000000E-03 0. -1.
         22    1    1    0    0    0  0.40970102073E+02 -0.84522448192E+01 -0.46435549848E+02  0.62499999968E+02  0.00000000000E+00 0. -1.
</event>
<event>
 4    1  0.1988088E-002  0.9118800E+02  0.7818608E-02  0.1130116E+00
         25   -1    0    0    0    0  0.00000000000E+00  0.00000000000E+00  0.99999998245E-14  0.12500000000E+03  0.12500000000E+03 0.  0.
        -11    1    1    0    0    0  0.94649894778E+01 -0.11607130583E+02 -0.39864630334E+02  0.42585211731E+02  0.51100000000E-03 0.  1.
         11    1    1    0    0    0  0.10541807692E+02 -0.39583124712E+01 -0.16865396792E+02  0.20279042291E+02  0.51100000000E-03 0. -1.
         22    1    1    0    0    0 -0.20006797170E+02  0.15565443054E+02  0.56730027127E+02  0.62135745978E+02  0.00000000000E+00 0.  1.
</event>
<event>
 4    1  0.1988088E-002  0.9118800E+02  0.7818608E-02  0.1130116E+00
         25   -1    0    0    0    0  0.00000000000E+00  0.00000000000E+00  0.99999998245E-14  0.12500000000E+03  0.12500000000E+03 0.  0.
        -11    1    1    0    0    0  0.25457055561E+02 -0.32578206305E+01  0.42766275292E+02  0.49876140345E+02  0.51100000000E-03 0.  1.
         11    1    1    0    0    0  0.63455247241E+01 -0.12354557559E+01  0.10846251516E+02  0.12626686310E+02  0.51100000000E-03 0. -1.
         22    1    1    0    0    0 -0.31802580285E+02  0.44932763864E+01 -0.53612526808E+02  0.62497173346E+02  0.00000000000E+00 0.  1.
</event>
<event>
 4    1  0.1988088E-002  0.9118800E+02  0.7818608E-02  0.1130116E+00
         25   -1    0    0    0    0  0.00000000000E+00  0.00000000000E+00  0.99999998245E-14  0.12500000000E+03  0.12500000000E+03 0.  0.
        -11    1    1    0    0    0 -0.90649626130E+01  0.28575017770E+02 -0.21720633944E+02  0.37020144880E+02  0.51100000000E-03 0. -1.
         11    1    1    0    0    0 -0.75854364631E+01  0.19497440654E+02 -0.14564455379E+02  0.25491418147E+02  0.51100000000E-03 0.  1.
         22    1    1    0    0    0  0.16650399076E+02 -0.48072458424E+02  0.36285089323E+02  0.62488436974E+02  0.00000000000E+00 0.  1.
</event>
<event>
 4    1  0.1988088E-002  0.9118800E+02  0.7818608E-02  0.1130116E+00
         25   -1    0    0    0    0  0.00000000000E+00  0.00000000000E+00  0.99999998245E-14  0.12500000000E+03  0.12500000000E+03 0.  0.
        -11    1    1    0    0    0 -0.46884912870E+00  0.51932717095E+00 -0.23154603434E+00  0.73697628396E+00  0.51100000000E-03 0.  1.
         11    1    1    0    0    0 -0.39239652116E+02  0.43601360951E+02 -0.19334999770E+02  0.61763024467E+02  0.51100000000E-03 0. -1.
         22    1    1    0    0    0  0.39708501245E+02 -0.44120688122E+02  0.19566545804E+02  0.62499999249E+02  0.00000000000E+00 0. -1.
</event>
<event>
 4    1  0.1988088E-002  0.9118800E+02  0.7818608E-02  0.1130116E+00
         25   -1    0    0    0    0  0.00000000000E+00  0.00000000000E+00  0.99999998245E-14  0.12500000000E+03  0.12500000000E+03 0.  0.
        -11    1    1    0    0    0  0.25768092126E+02 -0.26378269451E+02  0.31998229810E+02  0.48823092715E+02  0.51100000000E-03 0.  1.
         11    1    1    0    0    0  0.78112035232E+01 -0.60954788608E+01  0.94753399283E+01  0.13709552511E+02  0.51100000000E-03 0. -1.
         22    1    1    0    0    0 -0.33579295649E+02  0.32473748312E+02 -0.41473569738E+02  0.62467354774E+02  0.00000000000E+00 0.  1.
</event>
<event>
 4    1  0.1988088E-002  0.9118800E+02  0.7818608E-02  0.1130116E+00
         25   -1    0    0    0    0  0.00000000000E+00  0.00000000000E+00  0.99999998245E-14  0.12500000000E+03  0.12500000000E+03 0.  0.
        -11    1    1    0    0    0  0.11630894675E-01 -0.35761179181E+01 -0.11211020142E+02  0.11767571012E+02  0.51100000000E-03 0. -1.
         11    1    1    0    0    0  0.17968341632E+00 -0.15471825295E+02 -0.48315334787E+02  0.50732447604E+02  0.51100000000E-03 0.  1.
         22    1    1    0    0    0 -0.19131431100E+00  0.19047943213E+02  0.59526354929E+02  0.62499981384E+02  0.00000000000E+00 0.  1.
</event>
<event>
 4    1  0.1988088E-002  0.9118800E+02  0.7818608E-02  0.1130116E+00
         25   -1    0    0    0    0  0.00000000000E+00  0.00000000000E+00  0.99999998245E-14  0.12500000000E+03  0.12500000000E+03 0.  0.
        -11    1    1    0    0    0 -0.55014378523E+02  0.51522411568E+01  0.16893546053E+02  0.57779921528E+02  0.51100000000E-03 0.  1.
         11    1    1    0    0    0 -0.44938818345E+01  0.42241164190E+00  0.13804840893E+01  0.47200786137E+01  0.51100000000E-03 0. -1.
         22    1    1    0    0    0  0.59508260358E+02 -0.55746527987E+01 -0.18274030142E+02  0.62499999858E+02  0.00000000000E+00 0.  1.
</event>
<event>
 4    1  0.1988088E-002  0.9118800E+02  0.7818608E-02  0.1130116E+00
         25   -1    0    0    0    0  0.00000000000E+00  0.00000000000E+00  0.99999998245E-14  0.12500000000E+03  0.12500000000E+03 0.  0.
        -11    1    1    0    0    0  0.39153672871E+01 -0.11333428000E+01  0.13629002876E+02  0.14225480187E+02  0.51100000000E-03 0. -1.
         11    1    1    0    0    0  0.13309443746E+02 -0.38257016403E+01  0.46245562870E+02  0.48274520933E+02  0.51100000000E-03 0.  1.
         22    1    1    0    0    0 -0.17224811033E+02  0.49590444403E+01 -0.59874565745E+02  0.62499998881E+02  0.00000000000E+00 0.  1.
</event>
<event>
 4    1  0.1988088E-002  0.9118800E+02  0.7818608E-02  0.1130116E+00
         25   -1    0    0    0    0  0.00000000000E+00  0.00000000000E+00  0.99999998245E-14  0.12500000000E+03  0.12500000000E+03 0.  0.
        -11    1    1    0    0    0  0.11838010708E+00 -0.19408509609E-01  0.66529402856E-01  0.13717493416E+00  0.51100000000E-03 0.  1.
         11    1    1    0    0    0  0.59168392866E+02  0.10768980608E+02  0.16520042137E+02  0.62368112447E+02  0.51100000000E-03 0. -1.
         22    1    1    0    0    0 -0.59286772973E+02 -0.10749572098E+02 -0.16586571539E+02  0.62494712619E+02  0.00000000000E+00 0. -1.
</event>
<event>
 4    1  0.1988088E-002  0.9118800E+02  0.7818608E-02  0.1130116E+00
         25   -1    0    0    0    0  0.00000000000E+00  0.00000000000E+00  0.99999998245E-14  0.12500000000E+03  0.12500000000E+03 0.  0.
        -11    1    1    0    0    0 -0.49659775608E+01  0.83359771721E+01  0.23606406313E+01  0.99860939811E+01  0.51100000000E-03 0. -1.
         11    1    1    0    0    0 -0.26618599944E+02  0.43178074631E+02  0.13600801304E+02  0.52515500456E+02  0.51100000000E-03 0.  1.
         22    1    1    0    0    0  0.31584577504E+02 -0.51514051803E+02 -0.15961441935E+02  0.62498405563E+02  0.00000000000E+00 0.  1.
</event>
<event>
 4    1  0.1988088E-002  0.9118800E+02  0.7818608E-02  0.1130116E+00
         25   -1    0    0    0    0  0.00000000000E+00  0.00000000000E+00  0.99999998245E-14  0.12500000000E+03  0.12500000000E+03 0.  0.
        -11    1    1    0    0    0 -0.49919132921E+01 -0.54266630725E+01  0.27154995946E+02  0.28138259994E+02  0.51100000000E-03 0.  1.
         11    1    1    0    0    0 -0.60981490745E+01 -0.66161483692E+01  0.33162755656E+02  0.34361740414E+02  0.51100000000E-03 0. -1.
         22    1    1    0    0    0  0.11090062367E+02  0.12042811442E+02 -0.60317751601E+02  0.62499999592E+02  0.00000000000E+00 0. -1.
</event>
<event>
 4    1  0.1988088E-002  0.9118800E+02  0.7818608E-02  0.1130116E+00
         25   -1    0    0    0    0  0.00000000000E+00  0.00000000000E+00  0.99999998245E-14  0.12500000000E+03  0.12500000000E+03 0.  0.
        -11    1    1    0    0    0  0.20506537073E+02  0.33636065134E+02  0.30397689491E+01  0.39511303901E+02  0.51100000000E-03 0. -1.
         11    1    1    0    0    0  0.11692345633E+02  0.19719151839E+02  0.17175898333E+01  0.22989258595E+02  0.51100000000E-03 0.  1.
         22    1    1    0    0    0 -0.32198882706E+02 -0.53355216973E+02 -0.47573587825E+01  0.62499437504E+02  0.00000000000E+00 0. -1.
</event>
<event>
 4    1  0.1988088E-002  0.9118800E+02  0.7818608E-02  0.1130116E+00
         25   -1    0    0    0    0  0.00000000000E+00  0.00000000000E+00  0.99999998245E-14  0.12500000000E+03  0.12500000000E+03 0.  0.
        -11    1    1    0    0    0 -0.29580754095E+02 -0.17304802944E+02 -0.13221561509E+02  0.36732640890E+02  0.51100000000E-03 0. -1.
         11    1    1    0    0    0 -0.20780373905E+02 -0.12138540014E+02 -0.92081630788E+01  0.25767389485E+02  0.51100000000E-03 0.  1.
         22    1    1    0    0    0  0.50361128001E+02  0.29443342958E+02  0.22429724587E+02  0.62499969625E+02  0.00000000000E+00 0. -1.
</event>
<event>
 4    1  0.1988088E-002  0.9118800E+02  0.7818608E-02  0.1130116E+00
         25   -1    0    0    0    0  0.00000000000E+00  0.00000000000E+00  0.99999998245E-14  0.12500000000E+03  0.12500000000E+03 0.  0.
        -11    1    1    0    0    0  0.24714873048E+00  0.51664123618E+00 -0.16075654290E+01  0.17065367068E+01  0.51100000000E-03 0.  1.
         11    1    1    0    0    0  0.75817027816E+01  0.15695531462E+02 -0.58242139726E+02  0.60794561969E+02  0.51100000000E-03 0. -1.
         22    1    1    0    0    0 -0.78288515121E+01 -0.16212172699E+02  0.59849705155E+02  0.62498901324E+02  0.00000000000E+00 0. -1.
</event>
<event>
 4    1  0.1988088E-002  0.9118800E+02  0.7818608E-02  0.1130116E+00
         25   -1    0    0    0    0  0.00000000000E+00  0.00000000000E+00  0.99999998245E-14  0.12500000000E+03  0.12500000000E+03 0.  0.
        -11    1    1    0    0    0  0.23867636707E+02  0.22409449803E+02  0.30179731468E+02  0.44527112125E+02  0.51100000000E-03 0. -1.
         11    1    1    0    0    0  0.96949306033E+01  0.90305755864E+01  0.12144283707E+02  0.17972940823E+02  0.51100000000E-03 0.  1.
         22    1    1    0    0    0 -0.33562567311E+02 -0.31440025389E+02 -0.42324015175E+02  0.62499947052E+02  0.00000000000E+00 0. -1.
</event>
<event>
 4    1  0.1988088E-002  0.9118800E+02  0.7818608E-02  0.1130116E+00
         25   -1    0    0    0    0  0.00000000000E+00  0.00000000000E+00  0.99999998245E-14  0.12500000000E+03  0.12500000000E+03 0.  0.
        -11    1    1    0    0    0  0.25498640837E+02 -0.76970324549E+01  0.31336489818E+02  0.41126640849E+02  0.51100000000E-03 0.  1.
         11    1    1    0    0    0  0.11798937843E+01 -0.11382319708E+02  0.19948190820E+02  0.22997383950E+02  0.51100000000E-03 0. -1.
         22    1    1    0    0    0 -0.26678534621E+02  0.19079352163E+02 -0.51284680639E+02  0.60875975201E+02  0.00000000000E+00 0. -1.
</event>
<event>
 4    1  0.1988088E-002  0.9118800E+02  0.7818608E-02  0.1130116E+00
         25   -1    0    0    0    0  0.00000000000E+00  0.00000000000E+00  0.99999998245E-14  0.12500000000E+03  0.12500000000E+03 0.  0.
        -11    1    1    0    0    0  0.29924516137E+01 -0.48102657522E+01  0.28957876915E+01  0.63623116775E+01  0.51100000000E-03 0. -1.
         11    1    1    0    0    0  0.26027801375E+02 -0.42607497537E+02  0.25663280630E+02  0.56137770384E+02  0.51100000000E-03 0.  1.
         22    1    1    0    0    0 -0.29020252988E+02  0.47417763289E+02 -0.28559068321E+02  0.62499917938E+02  0.00000000000E+00 0.  1.
</event>
<event>
 4    1  0.1988088E-002  0.9118800E+02  0.7818608E-02  0.1130116E+00
         25   -1    0    0    0    0  0.00000000000E+00  0.00000000000E+00  0.99999998245E-14  0.12500000000E+03  0.12500000000E+03 0.  0.
        -11    1    1    0    0    0  0.18780169380E+02  0.50116742236E+02  0.18541960449E+02  0.56640859032E+02  0.51100000000E-03 0. -1.
         11    1    1    0    0    0  0.19863762885E+01  0.51751860389E+01  0.18979925837E+01  0.58592335169E+01  0.51100000000E-03 0.  1.
         22    1    1    0    0    0 -0.20766545669E+02 -0.55291928275E+02 -0.20439953033E+02  0.62499907451E+02  0.00000000000E+00 0. -1.
</event>
<event>
 4    1  0.1988088E-002  0.9118800E+02  0.7818608E-02  0.1130116E+00
         25   -1    0    0    0    0  0.00000000000E+00  0.00000000000E+00  0.99999998245E-14  0.12500000000E+03  0.12500000000E+03 0.  0.
        -11    1    1    0    0    0 -0.37246752038E+01 -0.14360208800E+01  0.49005001013E+01  0.63206220300E+01  0.51100000000E-03 0. -1.
         11    1    1    0    0    0 -0.11682927830E+02 -0.24097530871E+02  0.49705424385E+02  0.56460703239E+02  0.51100000000E-03 0.  1.
         22    1    1    0    0    0  0.15407603034E+02  0.25533551751E+02 -0.54605924486E+02  0.62218674731E+02  0.00000000000E+00 0.  1.
</event>
<event>
 4    1  0.1988088E-002  0.9118800E+02  0.7818608E-02  0.1130116E+00
         25   -1    0    0    0    0  0.00000000000E+00  0.00000000000E+00  0.99999998245E-14  0.12500000000E+03  0.12500000000E+03 0.  0.
        -11    1    1    0    0    0  0.29103771638E+02  0.38746892414E+02 -0.94726014432E+01  0.49376931594E+02  0.51100000000E-03 0. -1.
         11    1    1    0    0    0  0.77399860344E+01  0.10298137552E+02 -0.25012035108E+01  0.13123072815E+02  0.51100000000E-03 0.  1.
         22    1    1    0    0    0 -0.36843757673E+02 -0.49045029965E+02  0.11973804954E+02  0.62499995591E+02  0.00000000000E+00 0. -1.
</event>
<event>
 4    1  0.1988088E-002  0.9118800E+02  0.7818608E-02  0.1130116E+00
         25   -1    0    0    0    0  0.00000000000E+00  0.00000000000E+00  0.99999998245E-14  0.12500000000E+03  0.12500000000E+03 0.  0.
        -11    1    1    0    0    0  0.27561448103E+02 -0.37722227995E+02 -0.34436561566E+02  0.58038579231E+02  0.51100000000E-03 0. -1.
         11    1    1    0    0    0  0.19547569755E+01 -0.24536597981E+01 -0.32118703232E+01  0.44897252112E+01  0.51100000000E-03 0.  1.
         22    1    1    0    0    0 -0.29516205078E+02  0.40175887793E+02  0.37648431889E+02  0.62471695558E+02  0.00000000000E+00 0. -1.
</event>
<event>
 4    1  0.1988088E-002  0.9118800E+02  0.7818608E-02  0.1130116E+00
         25   -1    0    0    0    0  0.00000000000E+00  0.00000000000E+00  0.99999998245E-14  0.12500000000E+03  0.12500000000E+03 0.  0.
        -11    1    1    0    0    0 -0.43186579966E+01 -0.87171594205E+00 -0.51238299181E+01  0.67575386692E+01  0.51100000000E-03 0. -1.
         11    1    1    0    0    0 -0.22414822416E+02  0.50284418045E+02 -0.17364899077E+02  0.57727694241E+02  0.51100000000E-03 0.  1.
         22    1    1    0    0    0  0.26733480413E+02 -0.49412702103E+02  0.22488728995E+02  0.60514767090E+02  0.00000000000E+00 0.  1.
</event>
<event>
 4    1  0.1988088E-002  0.9118800E+02  0.7818608E-02  0.1130116E+00
         25   -1    0    0    0    0  0.00000000000E+00  0.00000000000E+00  0.99999998245E-14  0.12500000000E+03  0.12500000000E+03 0.  0.
        -11    1    1    0    0    0 -0.18125068528E+02 -0.19966438585E+02  0.24364862037E+01  0.27076064045E+02  0.51100000000E-03 0. -1.
         11    1    1    0    0    0 -0.23714555963E+02 -0.26121134667E+02  0.31876948507E+01  0.35423935969E+02  0.51100000000E-03 0.  1.
         22    1    1    0    0    0  0.41839624491E+02  0.46087573251E+02 -0.56241810543E+01  0.62499999986E+02  0.00000000000E+00 0. -1.
</event>
<event>
 4    1  0.1988088E-002  0.9118800E+02  0.7818608E-02  0.1130116E+00
         25   -1    0    0    0    0  0.00000000000E+00  0.00000000000E+00  0.99999998245E-14  0.12500000000E+03  0.12500000000E+03 0.  0.
        -11    1    1    0    0    0  0.17971910428E+02  0.18548195144E+01  0.11825592016E+02  0.21593391273E+02  0.51100000000E-03 0.  1.
         11    1    1    0    0    0  0.34002564989E+02  0.34810058293E+01  0.22473544352E+02  0.40906625667E+02  0.51100000000E-03 0. -1.
         22    1    1    0    0    0 -0.51974475417E+02 -0.53358253437E+01 -0.34299136368E+02  0.62499983061E+02  0.00000000000E+00 0. -1.
</event>
<event>
 4    1  0.1988088E-002  0.9118800E+02  0.7818608E-02  0.1130116E+00
         25   -1    0    0    0    0  0.00000000000E+00  0.00000000000E+00  0.99999998245E-14  0.12500000000E+03  0.12500000000E+03 0.  0.
        -11    1    1    0    0    0 -0.23893290695E+02  0.20966330384E+01 -0.17430131335E+02  0.29649531007E+02  0.51100000000E-03 0. -1.
         11    1    1    0    0    0 -0.26476074480E+02  0.23212172705E+01 -0.19307582739E+02  0.32850469114E+02  0.51100000000E-03 0.  1.
         22    1    1    0    0    0  0.50369365175E+02 -0.44178503089E+01  0.36737714074E+02  0.62499999879E+02  0.00000000000E+00 0.  1.
</event>
<event>
 4    1  0.1988088E-002  0.9118800E+02  0.7818608E-02  0.1130116E+00
         25   -1    0    0    0    0  0.00000000000E+00  0.00000000000E+00  0.99999998245E-14  0.12500000000E+03  0.12500000000E+03 0.  0.
        -11    1    1    0    0    0  0.16604188285E+02  0.34113068877E+02 -0.19512562430E+02  0.42663106189E+02  0.51100000000E-03 0. -1.
         11    1    1    0    0    0  0.77439361084E+01  0.15848373728E+02 -0.90754123699E+01  0.19836900116E+02  0.51100000000E-03 0.  1.
         22    1    1    0    0    0 -0.24348124393E+02 -0.49961442606E+02  0.28587974800E+02  0.62499993695E+02  0.00000000000E+00 0. -1.
</event>
<event>
 4    1  0.1988088E-002  0.9118800E+02  0.7818608E-02  0.1130116E+00
         25   -1    0    0    0    0  0.00000000000E+00  0.00000000000E+00  0.99999998245E-14  0.12500000000E+03  0.12500000000E+03 0.  0.
        -11    1    1    0    0    0  0.20260552300E+02  0.66878461060E+01 -0.41842359055E+02  0.46968077207E+02  0.51100000000E-03 0. -1.
         11    1    1    0    0    0 -0.15299587468E+02 -0.26681921139E+02 -0.69913575937E+00  0.30765095212E+02  0.51100000000E-03 0.  1.
         22    1    1    0    0    0 -0.49609648323E+01  0.19994075033E+02  0.42541494814E+02  0.47266827580E+02  0.00000000000E+00 0. -1.
</event>
<event>
 4    1  0.1988088E-002  0.9118800E+02  0.7818608E-02  0.1130116E+00
         25   -1    0    0    0    0  0.00000000000E+00  0.00000000000E+00  0.99999998245E-14  0.12500000000E+03  0.12500000000E+03 0.  0.
        -11    1    1    0    0    0 -0.24766905392E+01 -0.17897814862E+01 -0.63699647058E+01  0.70649674033E+01  0.51100000000E-03 0.  1.
         11    1    1    0    0    0  0.69371167286E+01  0.57069239260E+02 -0.13448163873E+02  0.59041297158E+02  0.51100000000E-03 0. -1.
         22    1    1    0    0    0 -0.44604261894E+01 -0.55279457774E+02  0.19818128579E+02  0.58893735439E+02  0.00000000000E+00 0. -1.
</event>
<event>
 4    1  0.1988088E-002  0.9118800E+02  0.7818608E-02  0.1130116E+00
         25   -1    0    0    0    0  0.00000000000E+00  0.00000000000E+00  0.99999998245E-14  0.12500000000E+03  0.12500000000E+03 0.  0.
        -11    1    1    0    0    0  0.87703344605E+01  0.23173307812E+02 -0.40271734230E+02  0.47283544068E+02  0.51100000000E-03 0. -1.
         11    1    1    0    0    0  0.33179234518E+01  0.64493332262E+01 -0.13397309360E+02  0.15234513890E+02  0.51100000000E-03 0.  1.
         22    1    1    0    0    0 -0.12088257912E+02 -0.29622641038E+02  0.53669043590E+02  0.62481942042E+02  0.00000000000E+00 0. -1.
</event>
<event>
 4    1  0.1988088E-002  0.9118800E+02  0.7818608E-02  0.1130116E+00
         25   -1    0    0    0    0  0.00000000000E+00  0.00000000000E+00  0.99999998245E-14  0.12500000000E+03  0.12500000000E+03 0.  0.
        -11    1    1    0    0    0 -0.72408019848E+01  0.65027965168E+01  0.10722013009E+02  0.14480232704E+02  0.51100000000E-03 0. -1.
         11    1    1    0    0    0 -0.10131554071E+02  0.20524566287E+02  0.42546109051E+02  0.48312292481E+02  0.51100000000E-03 0.  1.
         22    1    1    0    0    0  0.17372356056E+02 -0.27027362804E+02 -0.53268122060E+02  0.62207474815E+02  0.00000000000E+00 0.  1.
</event>
<event>
 4    1  0.1988088E-002  0.9118800E+02  0.7818608E-02  0.1130116E+00
         25   -1    0    0    0    0  0.00000000000E+00  0.00000000000E+00  0.99999998245E-14  0.12500000000E+03  0.12500000000E+03 0.  0.
        -11    1    1    0    0    0  0.77219472983E+00 -0.56641728413E+01 -0.17487253697E+01  0.59780581594E+01  0.51100000000E-03 0. -1.
         11    1    1    0    0    0  0.35675825561E+02 -0.35419726605E+02 -0.26964927315E+02  0.57047601769E+02  0.51100000000E-03 0.  1.
         22    1    1    0    0    0 -0.36448020291E+02  0.41083899446E+02  0.28713652685E+02  0.61974340072E+02  0.00000000000E+00 0. -1.
</event>
<event>
 4    1  0.1988088E-002  0.9118800E+02  0.7818608E-02  0.1130116E+00
         25   -1    0    0    0    0  0.00000000000E+00  0.00000000000E+00  0.99999998245E-14  0.12500000000E+03  0.12500000000E+03 0.  0.
        -11    1    1    0    0    0 -0.19305380217E+02  0.82480270151E+01  0.10410930665E+02  0.23433205768E+02  0.51100000000E-03 0. -1.
         11    1    1    0    0    0 -0.32182777086E+02  0.13733191226E+02  0.17374776254E+02  0.39066795778E+02  0.51100000000E-03 0.  1.
         22    1    1    0    0    0  0.51488157303E+02 -0.21981218241E+02 -0.27785706919E+02  0.62499998455E+02  0.00000000000E+00 0.  1.
</event>
<event>
 4    1  0.1988088E-002  0.9118800E+02  0.7818608E-02  0.1130116E+00
         25   -1    0    0    0    0  0.00000000000E+00  0.00000000000E+00  0.99999998245E-14  0.12500000000E+03  0.12500000000E+03 0.  0.
        -11    1    1    0    0    0  0.93414243126E+01  0.36360829139E+02 -0.27535469322E+02  0.46557213994E+02  0.51100000000E-03 0. -1.
         11    1    1    0    0    0  0.41537945730E+01  0.12689581480E+02  0.23978761084E+02  0.27445591101E+02  0.51100000000E-03 0.  1.
         22    1    1    0    0    0 -0.13495218886E+02 -0.49050410619E+02  0.35567082378E+01  0.50997194905E+02  0.00000000000E+00 0. -1.
</event>
<event>
 4    1  0.1988088E-002  0.9118800E+02  0.7818608E-02  0.1130116E+00
         25   -1    0    0    0    0  0.00000000000E+00  0.00000000000E+00  0.99999998245E-14  0.12500000000E+03  0.12500000000E+03 0.  0.
        -11    1    1    0    0    0 -0.26464675117E+02 -0.35001922187E+02 -0.11454209229E+02  0.45350992218E+02  0.51100000000E-03 0. -1.
         11    1    1    0    0    0 -0.10015163484E+02 -0.13229323793E+02 -0.43324354858E+01  0.17149008867E+02  0.51100000000E-03 0.  1.
         22    1    1    0    0    0  0.36479838601E+02  0.48231245979E+02  0.15786644714E+02  0.62499998915E+02  0.00000000000E+00 0. -1.
</event>
<event>
 4    1  0.1988088E-002  0.9118800E+02  0.7818608E-02  0.1130116E+00
         25   -1    0    0    0    0  0.00000000000E+00  0.00000000000E+00  0.99999998245E-14  0.12500000000E+03  0.12500000000E+03 0.  0.
        -11    1    1    0    0    0  0.19559237905E+02 -0.22453792792E+02  0.26515588759E+02  0.39872459740E+02  0.51100000000E-03 0.  1.
         11    1    1    0    0    0  0.11100157408E+02 -0.12742746537E+02  0.15047075946E+02  0.22627540268E+02  0.51100000000E-03 0.  1.
         22    1    1    0    0    0 -0.30659395313E+02  0.35196539329E+02 -0.41562664705E+02  0.62499999993E+02  0.00000000000E+00 0.  1.
</event>
<event>
 4    1  0.1988088E-002  0.9118800E+02  0.7818608E-02  0.1130116E+00
         25   -1    0    0    0    0  0.00000000000E+00  0.00000000000E+00  0.99999998245E-14  0.12500000000E+03  0.12500000000E+03 0.  0.
        -11    1    1    0    0    0  0.16164142361E+02  0.41776064943E+01  0.19769183493E+02  0.25875712754E+02  0.51100000000E-03 0. -1.
         11    1    1    0    0    0  0.60988046717E+01  0.14062342615E+02  0.34468776489E+02  0.37723221643E+02  0.51100000000E-03 0.  1.
         22    1    1    0    0    0 -0.22262947033E+02 -0.18239949109E+02 -0.54237959982E+02  0.61401065602E+02  0.00000000000E+00 0.  1.
</event>
<event>
 4    1  0.1988088E-002  0.9118800E+02  0.7818608E-02  0.1130116E+00
         25   -1    0    0    0    0  0.00000000000E+00  0.00000000000E+00  0.99999998245E-14  0.12500000000E+03  0.12500000000E+03 0.  0.
        -11    1    1    0    0    0  0.33154994525E+01 -0.31197499858E+01 -0.57206359788E+00  0.45883148992E+01  0.51100000000E-03 0.  1.
         11    1    1    0    0    0  0.42052207359E+02 -0.39146343344E+02 -0.72761619794E+01  0.57911716210E+02  0.51100000000E-03 0. -1.
         22    1    1    0    0    0 -0.45367706811E+02  0.42266093330E+02  0.78482255773E+01  0.62499968891E+02  0.00000000000E+00 0. -1.
</event>
<event>
 4    1  0.1988088E-002  0.9118800E+02  0.7818608E-02  0.1130116E+00
         25   -1    0    0    0    0  0.00000000000E+00  0.00000000000E+00  0.99999998245E-14  0.12500000000E+03  0.12500000000E+03 0.  0.
        -11    1    1    0    0    0 -0.50416343693E+01  0.18790936049E+02  0.12841178090E+02  0.23311224973E+02  0.51100000000E-03 0. -1.
         11    1    1    0    0    0 -0.84733103681E+01  0.31592287782E+02  0.21584495736E+02  0.39188775081E+02  0.51100000000E-03 0.  1.
         22    1    1    0    0    0  0.13514944737E+02 -0.50383223832E+02 -0.34425673826E+02  0.62499999946E+02  0.00000000000E+00 0. -1.
</event>
<event>
 4    1  0.1988088E-002  0.9118800E+02  0.7818608E-02  0.1130116E+00
         25   -1    0    0    0    0  0.00000000000E+00  0.00000000000E+00  0.99999998245E-14  0.12500000000E+03  0.12500000000E+03 0.  0.
        -11    1    1    0    0    0 -0.27323753859E+02  0.23451744546E+02  0.16813222286E+01  0.36047173147E+02  0.51100000000E-03 0.  1.
         11    1    1    0    0    0 -0.19272724037E+02  0.18127813897E+02  0.51374594668E+00  0.26463549717E+02  0.51100000000E-03 0. -1.
         22    1    1    0    0    0  0.46596477896E+02 -0.41579558442E+02 -0.21950681752E+01  0.62489277135E+02  0.00000000000E+00 0. -1.
</event>
<event>
 4    1  0.1988088E-002  0.9118800E+02  0.7818608E-02  0.1130116E+00
         25   -1    0    0    0    0  0.00000000000E+00  0.00000000000E+00  0.99999998245E-14  0.12500000000E+03  0.12500000000E+03 0.  0.
        -11    1    1    0    0    0 -0.46911753589E+02 -0.23656514742E+02 -0.31939095163E+02  0.61485356912E+02  0.51100000000E-03 0. -1.
         11    1    1    0    0    0 -0.84783644435E+00 -0.44518571933E+00 -0.36090320429E+00  0.10233612974E+01  0.51100000000E-03 0.  1.
         22    1    1    0    0    0  0.47759590033E+02  0.24101700462E+02  0.32299998367E+02  0.62491281790E+02  0.00000000000E+00 0. -1.
</event>
<event>
 4    1  0.1988088E-002  0.9118800E+02  0.7818608E-02  0.1130116E+00
         25   -1    0    0    0    0  0.00000000000E+00  0.00000000000E+00  0.99999998245E-14  0.12500000000E+03  0.12500000000E+03 0.  0.
        -11    1    1    0    0    0 -0.57877578131E+00 -0.19924326719E+01 -0.90318073226E+00  0.22628532992E+01  0.51100000000E-03 0. -1.
         11    1    1    0    0    0 -0.15466813164E+02 -0.53032525468E+02 -0.24017553078E+02  0.60237147368E+02  0.51100000000E-03 0. -1.
         22    1    1    0    0    0  0.16045588945E+02  0.55024958140E+02  0.24920733810E+02  0.62499999332E+02  0.00000000000E+00 0. -1.
</event>
<event>
 4    1  0.1988088E-002  0.9118800E+02  0.7818608E-02  0.1130116E+00
         25   -1    0    0    0    0  0.00000000000E+00  0.00000000000E+00  0.99999998245E-14  0.12500000000E+03  0.12500000000E+03 0.  0.
        -11    1    1    0    0    0 -0.33675816018E+02 -0.43561720831E+02  0.18401693280E+01  0.55091472386E+02  0.51100000000E-03 0. -1.
         11    1    1    0    0    0 -0.45320215990E+01 -0.58552090516E+01  0.25220438539E+00  0.74085288772E+01  0.51100000000E-03 0.  1.
         22    1    1    0    0    0  0.38207837617E+02  0.49416929883E+02 -0.20923737133E+01  0.62499998737E+02  0.00000000000E+00 0. -1.
</event>
<event>
 4    1  0.1988088E-002  0.9118800E+02  0.7818608E-02  0.1130116E+00
         25   -1    0    0    0    0  0.00000000000E+00  0.00000000000E+00  0.99999998245E-14  0.12500000000E+03  0.12500000000E+03 0.  0.
        -11    1    1    0    0    0  0.40846607852E+00 -0.20782128816E+01  0.36904232984E+01  0.42550014925E+01  0.51100000000E-03 0.  1.
         11    1    1    0    0    0  0.21949721736E+01 -0.19558633715E+02  0.54852942056E+02  0.58276953490E+02  0.51100000000E-03 0. -1.
         22    1    1    0    0    0 -0.26034382522E+01  0.21636846596E+02 -0.58543365354E+02  0.62468045018E+02  0.00000000000E+00 0. -1.
</event>
<event>
 4    1  0.1988088E-002  0.9118800E+02  0.7818608E-02  0.1130116E+00
         25   -1    0    0    0    0  0.00000000000E+00  0.00000000000E+00  0.99999998245E-14  0.12500000000E+03  0.12500000000E+03 0.  0.
        -11    1    1    0    0    0 -0.39169675379E+02 -0.90214645629E+01  0.15237162088E+02  0.42986293175E+02  0.51100000000E-03 0.  1.
         11    1    1    0    0    0 -0.12295735932E+02 -0.13557085291E+02 -0.18099561183E+02  0.25740508911E+02  0.51100000000E-03 0. -1.
         22    1    1    0    0    0  0.51465411311E+02  0.22578549854E+02  0.28623990942E+01  0.56273197915E+02  0.00000000000E+00 0.  1.
</event>
<event>
 4    1  0.1988088E-002  0.9118800E+02  0.7818608E-02  0.1130116E+00
         25   -1    0    0    0    0  0.00000000000E+00  0.00000000000E+00  0.99999998245E-14  0.12500000000E+03  0.12500000000E+03 0.  0.
        -11    1    1    0    0    0 -0.91158295289E+01  0.19191443688E+01 -0.87811239466E+00  0.93569516803E+01  0.51100000000E-03 0. -1.
         11    1    1    0    0    0 -0.51760121037E+02  0.10953011919E+02 -0.50105140670E+01  0.53143050828E+02  0.51100000000E-03 0.  1.
         22    1    1    0    0    0  0.60875950566E+02 -0.12872156287E+02  0.58886264617E+01  0.62499997491E+02  0.00000000000E+00 0.  1.
</event>
<event>
 4    1  0.1988088E-002  0.9118800E+02  0.7818608E-02  0.1130116E+00
         25   -1    0    0    0    0  0.00000000000E+00  0.00000000000E+00  0.99999998245E-14  0.12500000000E+03  0.12500000000E+03 0.  0.
        -11    1    1    0    0    0 -0.44047320043E+01  0.27558572327E+02 -0.25161566408E+02  0.37576335600E+02  0.51100000000E-03 0. -1.
         11    1    1    0    0    0 -0.33340711854E+01  0.18663517409E+02 -0.16183895494E+02  0.24927121502E+02  0.51100000000E-03 0.  1.
         22    1    1    0    0    0  0.77388031898E+01 -0.46222089736E+02  0.41345461902E+02  0.62496542899E+02  0.00000000000E+00 0.  1.
</event>
<event>
 4    1  0.1988088E-002  0.9118800E+02  0.7818608E-02  0.1130116E+00
         25   -1    0    0    0    0  0.00000000000E+00  0.00000000000E+00  0.99999998245E-14  0.12500000000E+03  0.12500000000E+03 0.  0.
        -11    1    1    0    0    0  0.10654860086E+02 -0.11462419572E+01  0.34682612252E-01  0.10716394786E+02  0.51100000000E-03 0.  1.
         11    1    1    0    0    0  0.51486458256E+02 -0.55369181634E+01  0.17006992047E+00  0.51783605229E+02  0.51100000000E-03 0. -1.
         22    1    1    0    0    0 -0.62141318342E+02  0.66831601205E+01 -0.20475253272E+00  0.62499999984E+02  0.00000000000E+00 0. -1.
</event>
<event>
 4    1  0.1988088E-002  0.9118800E+02  0.7818608E-02  0.1130116E+00
         25   -1    0    0    0    0  0.00000000000E+00  0.00000000000E+00  0.99999998245E-14  0.12500000000E+03  0.12500000000E+03 0.  0.
        -11    1    1    0    0    0 -0.19530040292E+02 -0.19372255254E+02  0.14044114341E+02  0.30885982181E+02  0.51100000000E-03 0. -1.
         11    1    1    0    0    0 -0.19989539568E+02 -0.19836411570E+02  0.14365975134E+02  0.31614018376E+02  0.51100000000E-03 0.  1.
         22    1    1    0    0    0  0.39519579859E+02  0.39208666823E+02 -0.28410089475E+02  0.62499999442E+02  0.00000000000E+00 0.  1.
</event>
<event>
 4    1  0.1988088E-002  0.9118800E+02  0.7818608E-02  0.1130116E+00
         25   -1    0    0    0    0  0.00000000000E+00  0.00000000000E+00  0.99999998245E-14  0.12500000000E+03  0.12500000000E+03 0.  0.
        -11    1    1    0    0    0 -0.11500782819E+01  0.43144494072E+01  0.31065930755E+01  0.54394921215E+01  0.51100000000E-03 0. -1.
         11    1    1    0    0    0 -0.12063447861E+02  0.45360343178E+02  0.32447116505E+02  0.57060519427E+02  0.51100000000E-03 0.  1.
         22    1    1    0    0    0  0.13213526143E+02 -0.49674792585E+02 -0.35553709581E+02  0.62499988452E+02  0.00000000000E+00 0.  1.
</event>
<event>
 4    1  0.1988088E-002  0.9118800E+02  0.7818608E-02  0.1130116E+00
         25   -1    0    0    0    0  0.00000000000E+00  0.00000000000E+00  0.99999998245E-14  0.12500000000E+03  0.12500000000E+03 0.  0.
        -11    1    1    0    0    0 -0.89285881294E-01 -0.42652331831E-01  0.28367348725E-01  0.10293763939E+00  0.51100000000E-03 0. -1.
         11    1    1    0    0    0 -0.51352372420E+02 -0.22372377365E+02  0.27493775462E+02  0.62397893486E+02  0.51100000000E-03 0.  1.
         22    1    1    0    0    0  0.51441658301E+02  0.22415029697E+02 -0.27522142810E+02  0.62499168874E+02  0.00000000000E+00 0.  1.
</event>
<event>
 4    1  0.1988088E-002  0.9118800E+02  0.7818608E-02  0.1130116E+00
         25   -1    0    0    0    0  0.00000000000E+00  0.00000000000E+00  0.99999998245E-14  0.12500000000E+03  0.12500000000E+03 0.  0.
        -11    1    1    0    0    0 -0.24329928488E+02 -0.19053090259E+02  0.50842059998E+02  0.59496896841E+02  0.51100000000E-03 0.  1.
         11    1    1    0    0    0 -0.10759522327E+01 -0.10203906342E+01  0.26140966447E+01  0.30053904543E+01  0.51100000000E-03 0. -1.
         22    1    1    0    0    0  0.25405880721E+02  0.20073480893E+02 -0.53456156642E+02  0.62497712705E+02  0.00000000000E+00 0.  1.
</event>
<event>
 4    1  0.1988088E-002  0.9118800E+02  0.7818608E-02  0.1130116E+00
         25   -1    0    0    0    0  0.00000000000E+00  0.00000000000E+00  0.99999998245E-14  0.12500000000E+03  0.12500000000E+03 0.  0.
        -11    1    1    0    0    0  0.45368476977E+02  0.78456360820E+01  0.23634989017E+02  0.51753892751E+02  0.51100000000E-03 0.  1.
         11    1    1    0    0    0  0.94202343682E+01  0.16288855701E+01  0.49076203163E+01  0.10746107257E+02  0.51100000000E-03 0. -1.
         22    1    1    0    0    0 -0.54788711345E+02 -0.94745216521E+01 -0.28542609334E+02  0.62499999992E+02  0.00000000000E+00 0.  1.
</event>
<event>
 4    1  0.1988088E-002  0.9118800E+02  0.7818608E-02  0.1130116E+00
         25   -1    0    0    0    0  0.00000000000E+00  0.00000000000E+00  0.99999998245E-14  0.12500000000E+03  0.12500000000E+03 0.  0.
        -11    1    1    0    0    0 -0.74008794909E+01 -0.56237633649E+01 -0.42992929333E+02  0.43986267227E+02  0.51100000000E-03 0. -1.
         11    1    1    0    0    0 -0.32016570800E+01 -0.24318368563E+01 -0.18072027506E+02  0.18513849329E+02  0.51100000000E-03 0.  1.
         22    1    1    0    0    0  0.10602536571E+02  0.80556002212E+01  0.61064956839E+02  0.62499883444E+02  0.00000000000E+00 0. -1.
</event>
<event>
 4    1  0.1988088E-002  0.9118800E+02  0.7818608E-02  0.1130116E+00
         25   -1    0    0    0    0  0.00000000000E+00  0.00000000000E+00  0.99999998245E-14  0.12500000000E+03  0.12500000000E+03 0.  0.
        -11    1    1    0    0    0  0.23890797738E+02 -0.31448403648E+02  0.25920643059E+02  0.47240364578E+02  0.51100000000E-03 0.  1.
         11    1    1    0    0    0  0.64359301103E+01 -0.11704270066E+02  0.75005720459E+01  0.15318933234E+02  0.51100000000E-03 0. -1.
         22    1    1    0    0    0 -0.30326727848E+02  0.43152673714E+02 -0.33421215105E+02  0.62440702188E+02  0.00000000000E+00 0.  1.
</event>
<event>
 4    1  0.1988088E-002  0.9118800E+02  0.7818608E-02  0.1130116E+00
         25   -1    0    0    0    0  0.00000000000E+00  0.00000000000E+00  0.99999998245E-14  0.12500000000E+03  0.12500000000E+03 0.  0.
        -11    1    1    0    0    0 -0.15735718793E+01  0.82196269471E+00 -0.15940062742E+01  0.23859185640E+01  0.51100000000E-03 0.  1.
         11    1    1    0    0    0 -0.42538938571E+02  0.21157812286E+02 -0.36835623044E+02  0.60117197546E+02  0.51100000000E-03 0. -1.
         22    1    1    0    0    0  0.44112510451E+02 -0.21979774980E+02  0.38429629318E+02  0.62496883890E+02  0.00000000000E+00 0. -1.
</event>
<event>
 4    1  0.1988088E-002  0.9118800E+02  0.7818608E-02  0.1130116E+00
         25   -1    0    0    0    0  0.00000000000E+00  0.00000000000E+00  0.99999998245E-14  0.12500000000E+03  0.12500000000E+03 0.  0.
        -11    1    1    0    0    0 -0.21559707941E+00 -0.66205955019E+01 -0.39501927002E+01  0.77125086405E+01  0.51100000000E-03 0.  1.
         11    1    1    0    0    0 -0.15306516233E+01 -0.47029872159E+02 -0.28062741149E+02  0.54787491372E+02  0.51100000000E-03 0.  1.
         22    1    1    0    0    0  0.17462487027E+01  0.53650467661E+02  0.32012933850E+02  0.62499999988E+02  0.00000000000E+00 0.  1.
</event>
<event>
 4    1  0.1988088E-002  0.9118800E+02  0.7818608E-02  0.1130116E+00
         25   -1    0    0    0    0  0.00000000000E+00  0.00000000000E+00  0.99999998245E-14  0.12500000000E+03  0.12500000000E+03 0.  0.
        -11    1    1    0    0    0  0.57694285558E+01  0.19096403588E+00  0.35302887475E+01  0.67665140231E+01  0.51100000000E-03 0. -1.
         11    1    1    0    0    0  0.47428992415E+02  0.15386018068E+01  0.29229208069E+02  0.55733501789E+02  0.51100000000E-03 0.  1.
         22    1    1    0    0    0 -0.53198420971E+02 -0.17295658427E+01 -0.32759496817E+02  0.62499984188E+02  0.00000000000E+00 0.  1.
</event>
<event>
 4    1  0.1988088E-002  0.9118800E+02  0.7818608E-02  0.1130116E+00
         25   -1    0    0    0    0  0.00000000000E+00  0.00000000000E+00  0.99999998245E-14  0.12500000000E+03  0.12500000000E+03 0.  0.
        -11    1    1    0    0    0  0.27963611379E+01 -0.43955497056E+01 -0.85501420260E+01  0.10012263568E+02  0.51100000000E-03 0. -1.
         11    1    1    0    0    0  0.50927819889E+02  0.12294209978E+02 -0.16857284345E+02  0.55035974357E+02  0.51100000000E-03 0.  1.
         22    1    1    0    0    0 -0.53724181027E+02 -0.78986602723E+01  0.25407426371E+02  0.59951762075E+02  0.00000000000E+00 0.  1.
</event>
<event>
 4    1  0.1988088E-002  0.9118800E+02  0.7818608E-02  0.1130116E+00
         25   -1    0    0    0    0  0.00000000000E+00  0.00000000000E+00  0.99999998245E-14  0.12500000000E+03  0.12500000000E+03 0.  0.
        -11    1    1    0    0    0  0.11199886055E+02 -0.16388260095E+02 -0.42478234149E+02  0.46887235931E+02  0.51100000000E-03 0.  1.
         11    1    1    0    0    0  0.37512904946E+01 -0.55008161931E+01 -0.14121909733E+02  0.15612799042E+02  0.51100000000E-03 0. -1.
         22    1    1    0    0    0 -0.14951176550E+02  0.21889076288E+02  0.56600143881E+02  0.62499965027E+02  0.00000000000E+00 0.  1.
</event>
<event>
 4    1  0.1988088E-002  0.9118800E+02  0.7818608E-02  0.1130116E+00
         25   -1    0    0    0    0  0.00000000000E+00  0.00000000000E+00  0.99999998245E-14  0.12500000000E+03  0.12500000000E+03 0.  0.
        -11    1    1    0    0    0 -0.10036264027E+02 -0.94927139197E+01  0.29556262474E+02  0.32625310188E+02  0.51100000000E-03 0.  1.
         11    1    1    0    0    0  0.13117805472E+02 -0.21713220190E+02  0.20966912503E+02  0.32911277270E+02  0.51100000000E-03 0. -1.
         22    1    1    0    0    0 -0.30815414452E+01  0.31205934110E+02 -0.50523174977E+02  0.59463412541E+02  0.00000000000E+00 0. -1.
</event>
<event>
 4    1  0.1988088E-002  0.9118800E+02  0.7818608E-02  0.1130116E+00
         25   -1    0    0    0    0  0.00000000000E+00  0.00000000000E+00  0.99999998245E-14  0.12500000000E+03  0.12500000000E+03 0.  0.
        -11    1    1    0    0    0 -0.23990712478E+02  0.14721077040E+02 -0.35808644737E+01  0.28374054787E+02  0.51100000000E-03 0. -1.
         11    1    1    0    0    0 -0.28854159798E+02  0.17705006018E+02 -0.43070130048E+01  0.34125945218E+02  0.51100000000E-03 0. -1.
         22    1    1    0    0    0  0.52844872276E+02 -0.32426083058E+02  0.78878774784E+01  0.62499999995E+02  0.00000000000E+00 0. -1.
</event>
<event>
 4    1  0.1988088E-002  0.9118800E+02  0.7818608E-02  0.1130116E+00
         25   -1    0    0    0    0  0.00000000000E+00  0.00000000000E+00  0.99999998245E-14  0.12500000000E+03  0.12500000000E+03 0.  0.
        -11    1    1    0    0    0 -0.30605388815E+01 -0.35140534128E+01  0.15443473157E+01  0.49092238212E+01  0.51100000000E-03 0.  1.
         11    1    1    0    0    0 -0.35904876916E+02 -0.41217790808E+02  0.18128183674E+02  0.57590776249E+02  0.51100000000E-03 0. -1.
         22    1    1    0    0    0  0.38965415797E+02  0.44731844221E+02 -0.19672530990E+02  0.62499999929E+02  0.00000000000E+00 0. -1.
</event>
<event>
 4    1  0.1988088E-002  0.9118800E+02  0.7818608E-02  0.1130116E+00
         25   -1    0    0    0    0  0.00000000000E+00  0.00000000000E+00  0.99999998245E-14  0.12500000000E+03  0.12500000000E+03 0.  0.
        -11    1    1    0    0    0 -0.20758132404E+01  0.27574700320E+01 -0.23800494094E+01  0.41925263313E+01  0.51100000000E-03 0. -1.
         11    1    1    0    0    0 -0.32710596413E+02  0.35351236175E+02 -0.32876535689E+02  0.58314317418E+02  0.51100000000E-03 0.  1.
         22    1    1    0    0    0  0.34786409653E+02 -0.38108706207E+02  0.35256585098E+02  0.62493156250E+02  0.00000000000E+00 0.  1.
</event>
<event>
 4    1  0.1988088E-002  0.9118800E+02  0.7818608E-02  0.1130116E+00
         25   -1    0    0    0    0  0.00000000000E+00  0.00000000000E+00  0.99999998245E-14  0.12500000000E+03  0.12500000000E+03 0.  0.
        -11    1    1    0    0    0 -0.18433839654E+02  0.28108551454E+02  0.20135949220E+02  0.39183587897E+02  0.51100000000E-03 0.  1.
         11    1    1    0    0    0 -0.11000350083E+02  0.16692916191E+02  0.11999777938E+02  0.23316428194E+02  0.51100000000E-03 0. -1.
         22    1    1    0    0    0  0.29434189736E+02 -0.44801467645E+02 -0.32135727159E+02  0.62499983909E+02  0.00000000000E+00 0.  1.
</event>
<event>
 4    1  0.1988088E-002  0.9118800E+02  0.7818608E-02  0.1130116E+00
         25   -1    0    0    0    0  0.00000000000E+00  0.00000000000E+00  0.99999998245E-14  0.12500000000E+03  0.12500000000E+03 0.  0.
        -11    1    1    0    0    0  0.20378149375E+01 -0.17882662069E+01 -0.24420163659E+01  0.36488395332E+01  0.51100000000E-03 0. -1.
         11    1    1    0    0    0  0.32842740665E+02 -0.29025957073E+02 -0.39272237960E+02  0.58851172231E+02  0.51100000000E-03 0.  1.
         22    1    1    0    0    0 -0.34880555602E+02  0.30814223280E+02  0.41714254326E+02  0.62499988235E+02  0.00000000000E+00 0.  1.
</event>
<event>
 4    1  0.1988088E-002  0.9118800E+02  0.7818608E-02  0.1130116E+00
         25   -1    0    0    0    0  0.00000000000E+00  0.00000000000E+00  0.99999998245E-14  0.12500000000E+03  0.12500000000E+03 0.  0.
        -11    1    1    0    0    0 -0.19512080609E+02  0.13444636257E+02 -0.16721241702E+02  0.29001369935E+02  0.51100000000E-03 0. -1.
         11    1    1    0    0    0 -0.25522096826E+02  0.34700157150E+01 -0.22290056252E+02  0.34062663481E+02  0.51100000000E-03 0.  1.
         22    1    1    0    0    0  0.45034177434E+02 -0.16914651972E+02  0.39011297955E+02  0.61935966584E+02  0.00000000000E+00 0.  1.
</event>
<event>
 4    1  0.1988088E-002  0.9118800E+02  0.7818608E-02  0.1130116E+00
         25   -1    0    0    0    0  0.00000000000E+00  0.00000000000E+00  0.99999998245E-14  0.12500000000E+03  0.12500000000E+03 0.  0.
        -11    1    1    0    0    0  0.13322444132E+02  0.62508866464E+01  0.20415010339E+01  0.14856945455E+02  0.51100000000E-03 0.  1.
         11    1    1    0    0    0  0.44818056106E+02  0.16335570070E+02  0.73052198102E+00  0.47707888920E+02  0.51100000000E-03 0. -1.
         22    1    1    0    0    0 -0.58140500238E+02 -0.22586456717E+02 -0.27720230149E+01  0.62435165624E+02  0.00000000000E+00 0. -1.
</event>
<event>
 4    1  0.1988088E-002  0.9118800E+02  0.7818608E-02  0.1130116E+00
         25   -1    0    0    0    0  0.00000000000E+00  0.00000000000E+00  0.99999998245E-14  0.12500000000E+03  0.12500000000E+03 0.  0.
        -11    1    1    0    0    0 -0.25677420534E+02 -0.98194861590E+01  0.11053357531E+02  0.29629865789E+02  0.51100000000E-03 0.  1.
         11    1    1    0    0    0 -0.11233427845E+02 -0.19137437524E+02  0.27010286635E+02  0.34956930651E+02  0.51100000000E-03 0. -1.
         22    1    1    0    0    0  0.36910848379E+02  0.28956923683E+02 -0.38063644166E+02  0.60413203560E+02  0.00000000000E+00 0. -1.
</event>
<event>
 4    1  0.1988088E-002  0.9118800E+02  0.7818608E-02  0.1130116E+00
         25   -1    0    0    0    0  0.00000000000E+00  0.00000000000E+00  0.99999998245E-14  0.12500000000E+03  0.12500000000E+03 0.  0.
        -11    1    1    0    0    0 -0.64906074095E+00 -0.90740281944E+00  0.20052573606E+01  0.22947150293E+01  0.51100000000E-03 0. -1.
         11    1    1    0    0    0 -0.13431719661E+02 -0.25797898747E+02  0.52716640701E+02  0.60207863937E+02  0.51100000000E-03 0.  1.
         22    1    1    0    0    0  0.14080780402E+02  0.26705301567E+02 -0.54721898061E+02  0.62497421034E+02  0.00000000000E+00 0.  1.
</event>
<event>
 4    1  0.1988088E-002  0.9118800E+02  0.7818608E-02  0.1130116E+00
         25   -1    0    0    0    0  0.00000000000E+00  0.00000000000E+00  0.99999998245E-14  0.12500000000E+03  0.12500000000E+03 0.  0.
        -11    1    1    0    0    0 -0.41758700652E+02  0.44732887551E+01 -0.33955926493E+02  0.54007447048E+02  0.51100000000E-03 0. -1.
         11    1    1    0    0    0  0.14462911888E+02 -0.95087853202E+01 -0.92605191302E+01  0.19630334520E+02  0.51100000000E-03 0.  1.
         22    1    1    0    0    0  0.27295788764E+02  0.50354965652E+01  0.43216445623E+02  0.51362218431E+02  0.00000000000E+00 0. -1.
</event>
<event>
 4    1  0.1988088E-002  0.9118800E+02  0.7818608E-02  0.1130116E+00
         25   -1    0    0    0    0  0.00000000000E+00  0.00000000000E+00  0.99999998245E-14  0.12500000000E+03  0.12500000000E+03 0.  0.
        -11    1    1    0    0    0  0.21039271739E+02 -0.38183941487E+02 -0.82426580028E+01  0.44368972875E+02  0.51100000000E-03 0.  1.
         11    1    1    0    0    0  0.20670603182E+02 -0.36871037141E+01  0.40318382723E+01  0.21380465145E+02  0.51100000000E-03 0. -1.
         22    1    1    0    0    0 -0.41709874921E+02  0.41871045201E+02  0.42108197305E+01  0.59250561980E+02  0.00000000000E+00 0. -1.
</event>
<event>
 4    1  0.1988088E-002  0.9118800E+02  0.7818608E-02  0.1130116E+00
         25   -1    0    0    0    0  0.00000000000E+00  0.00000000000E+00  0.99999998245E-14  0.12500000000E+03  0.12500000000E+03 0.  0.
        -11    1    1    0    0    0 -0.42996593997E+01 -0.15330749347E+02 -0.75145285342E+00  0.15940000883E+02  0.51100000000E-03 0. -1.
         11    1    1    0    0    0 -0.10211115904E+02 -0.44202087320E+02 -0.10968848490E+02  0.46673408370E+02  0.51100000000E-03 0.  1.
         22    1    1    0    0    0  0.14510775303E+02  0.59532836667E+02  0.11720301343E+02  0.62386590747E+02  0.00000000000E+00 0.  1.
</event>
<event>
 4    1  0.1988088E-002  0.9118800E+02  0.7818608E-02  0.1130116E+00
         25   -1    0    0    0    0  0.00000000000E+00  0.00000000000E+00  0.99999998245E-14  0.12500000000E+03  0.12500000000E+03 0.  0.
        -11    1    1    0    0    0  0.88900057297E+01  0.26729922984E+02  0.18901499494E+02  0.33923261458E+02  0.51100000000E-03 0. -1.
         11    1    1    0    0    0  0.73700651479E+01  0.22552203033E+02  0.15928416077E+02  0.28576811595E+02  0.51100000000E-03 0.  1.
         22    1    1    0    0    0 -0.16260070878E+02 -0.49282126017E+02 -0.34829915571E+02  0.62499926947E+02  0.00000000000E+00 0. -1.
</event>
<event>
 4    1  0.1988088E-002  0.9118800E+02  0.7818608E-02  0.1130116E+00
         25   -1    0    0    0    0  0.00000000000E+00  0.00000000000E+00  0.99999998245E-14  0.12500000000E+03  0.12500000000E+03 0.  0.
        -11    1    1    0    0    0 -0.12785547708E+02 -0.14320202820E+01 -0.74780200956E+01  0.14880917212E+02  0.51100000000E-03 0.  1.
         11    1    1    0    0    0 -0.40919406105E+02 -0.45414230292E+01 -0.23928120096E+02  0.47619084942E+02  0.51100000000E-03 0. -1.
         22    1    1    0    0    0  0.53704953812E+02  0.59734433113E+01  0.31406140192E+02  0.62499997846E+02  0.00000000000E+00 0. -1.
</event>
<event>
 4    1  0.1988088E-002  0.9118800E+02  0.7818608E-02  0.1130116E+00
         25   -1    0    0    0    0  0.00000000000E+00  0.00000000000E+00  0.99999998245E-14  0.12500000000E+03  0.12500000000E+03 0.  0.
        -11    1    1    0    0    0 -0.40748521021E+02  0.13502179618E+02  0.37972923563E+02  0.57312247767E+02  0.51100000000E-03 0. -1.
         11    1    1    0    0    0 -0.36938255859E+01  0.12404988016E+01  0.34248832277E+01  0.51877750645E+01  0.51100000000E-03 0.  1.
         22    1    1    0    0    0  0.44442346607E+02 -0.14742678420E+02 -0.41397806791E+02  0.62499977169E+02  0.00000000000E+00 0. -1.
</event>
<event>
 4    1  0.1988088E-002  0.9118800E+02  0.7818608E-02  0.1130116E+00
         25   -1    0    0    0    0  0.00000000000E+00  0.00000000000E+00  0.99999998245E-14  0.12500000000E+03  0.12500000000E+03 0.  0.
        -11    1    1    0    0    0 -0.27004013199E+01  0.40090040662E+00 -0.60908172781E+01  0.66746493391E+01  0.51100000000E-03 0. -1.
         11    1    1    0    0    0 -0.23228110327E+02 -0.24327344291E+02  0.51075156941E+02  0.61155837386E+02  0.51100000000E-03 0.  1.
         22    1    1    0    0    0  0.25928511647E+02  0.23926443884E+02 -0.44984339663E+02  0.57169513275E+02  0.00000000000E+00 0.  1.
</event>
<event>
 4    1  0.1988088E-002  0.9118800E+02  0.7818608E-02  0.1130116E+00
         25   -1    0    0    0    0  0.00000000000E+00  0.00000000000E+00  0.99999998245E-14  0.12500000000E+03  0.12500000000E+03 0.  0.
        -11    1    1    0    0    0  0.94806283500E+00 -0.24600046540E+01 -0.43593028008E+02  0.43672674949E+02  0.51100000000E-03 0. -1.
         11    1    1    0    0    0  0.19955433946E+00 -0.73101544783E+00 -0.18813487886E+02  0.18828742183E+02  0.51100000000E-03 0.  1.
         22    1    1    0    0    0 -0.11476171745E+01  0.31910201019E+01  0.62406515894E+02  0.62498582868E+02  0.00000000000E+00 0. -1.
</event>
<event>
 4    1  0.1988088E-002  0.9118800E+02  0.7818608E-02  0.1130116E+00
         25   -1    0    0    0    0  0.00000000000E+00  0.00000000000E+00  0.99999998245E-14  0.12500000000E+03  0.12500000000E+03 0.  0.
        -11    1    1    0    0    0 -0.38100114804E+02  0.14565435346E+02  0.16577686854E+02  0.44029426031E+02  0.51100000000E-03 0. -1.
         11    1    1    0    0    0 -0.15983811786E+02  0.61063922885E+01  0.69564246233E+01  0.18470574160E+02  0.51100000000E-03 0.  1.
         22    1    1    0    0    0  0.54083926590E+02 -0.20671827635E+02 -0.23534111477E+02  0.62499999809E+02  0.00000000000E+00 0. -1.
</event>
<event>
 4    1  0.1988088E-002  0.9118800E+02  0.7818608E-02  0.1130116E+00
         25   -1    0    0    0    0  0.00000000000E+00  0.00000000000E+00  0.99999998245E-14  0.12500000000E+03  0.12500000000E+03 0.  0.
        -11    1    1    0    0    0  0.52501561720E+02  0.55551761857E+01 -0.32946042629E+02  0.62231147271E+02  0.51100000000E-03 0. -1.
         11    1    1    0    0    0  0.22356067246E+00  0.30725836309E-01 -0.14626590146E+00  0.26891899587E+00  0.51100000000E-03 0.  1.
         22    1    1    0    0    0 -0.52725122393E+02 -0.55859020220E+01  0.33092308531E+02  0.62499933733E+02  0.00000000000E+00 0. -1.
</event>
<event>
 4    1  0.1988088E-002  0.9118800E+02  0.7818608E-02  0.1130116E+00
         25   -1    0    0    0    0  0.00000000000E+00  0.00000000000E+00  0.99999998245E-14  0.12500000000E+03  0.12500000000E+03 0.  0.
        -11    1    1    0    0    0 -0.46802886036E+02 -0.31307010321E+02  0.18107043699E+02  0.59148153550E+02  0.51100000000E-03 0. -1.
         11    1    1    0    0    0 -0.26525372285E+01 -0.17714987910E+01  0.10299140588E+01  0.33518479895E+01  0.51100000000E-03 0.  1.
         22    1    1    0    0    0  0.49455423265E+02  0.33078509112E+02 -0.19136957758E+02  0.62499998461E+02  0.00000000000E+00 0. -1.
</event>
<event>
 4    1  0.1988088E-002  0.9118800E+02  0.7818608E-02  0.1130116E+00
         25   -1    0    0    0    0  0.00000000000E+00  0.00000000000E+00  0.99999998245E-14  0.12500000000E+03  0.12500000000E+03 0.  0.
        -11    1    1    0    0    0 -0.12294133136E+02 -0.11386541627E+02 -0.26235394049E+02  0.31130289767E+02  0.51100000000E-03 0.  1.
         11    1    1    0    0    0 -0.12386056784E+02 -0.11473381453E+02 -0.26438718538E+02  0.31369710276E+02  0.51100000000E-03 0. -1.
         22    1    1    0    0    0  0.24680189920E+02  0.22859923080E+02  0.52674112587E+02  0.62499999957E+02  0.00000000000E+00 0. -1.
</event>
<event>
 4    1  0.1988088E-002  0.9118800E+02  0.7818608E-02  0.1130116E+00
         25   -1    0    0    0    0  0.00000000000E+00  0.00000000000E+00  0.99999998245E-14  0.12500000000E+03  0.12500000000E+03 0.  0.
        -11    1    1    0    0    0 -0.35829536619E+01  0.84711177579E+01  0.35365812488E+01  0.98541767897E+01  0.51100000000E-03 0. -1.
         11    1    1    0    0    0 -0.18992028426E+02  0.45433994053E+02  0.18618484830E+02  0.52645920421E+02  0.51100000000E-03 0.  1.
         22    1    1    0    0    0  0.22574982088E+02 -0.53905111811E+02 -0.22155066079E+02  0.62499902789E+02  0.00000000000E+00 0.  1.
</event>
<event>
 4    1  0.1988088E-002  0.9118800E+02  0.7818608E-02  0.1130116E+00
         25   -1    0    0    0    0  0.00000000000E+00  0.00000000000E+00  0.99999998245E-14  0.12500000000E+03  0.12500000000E+03 0.  0.
        -11    1    1    0    0    0 -0.59543432344E+01 -0.10533086595E+02 -0.30870885469E+01  0.12487202750E+02  0.51100000000E-03 0.  1.
         11    1    1    0    0    0  0.46964254190E+02 -0.10282062111E+02  0.32400177753E+02  0.57975283454E+02  0.51100000000E-03 0. -1.
         22    1    1    0    0    0 -0.41009910956E+02  0.20815148706E+02 -0.29313089206E+02  0.54537513796E+02  0.00000000000E+00 0. -1.
</event>
<event>
 4    1  0.1988088E-002  0.9118800E+02  0.7818608E-02  0.1130116E+00
         25   -1    0    0    0    0  0.00000000000E+00  0.00000000000E+00  0.99999998245E-14  0.12500000000E+03  0.12500000000E+03 0.  0.
        -11    1    1    0    0    0  0.34510603691E+01  0.12426454682E+02 -0.42243711645E+02  0.44168515568E+02  0.51100000000E-03 0.  1.
         11    1    1    0    0    0  0.21201766906E+01  0.72040339563E+01 -0.16777967225E+02  0.18381878003E+02  0.51100000000E-03 0. -1.
         22    1    1    0    0    0 -0.55712370597E+01 -0.19630488639E+02  0.59021678870E+02  0.62449606430E+02  0.00000000000E+00 0.  1.
</event>
<event>
 4    1  0.1988088E-002  0.9118800E+02  0.7818608E-02  0.1130116E+00
         25   -1    0    0    0    0  0.00000000000E+00  0.00000000000E+00  0.99999998245E-14  0.12500000000E+03  0.12500000000E+03 0.  0.
        -11    1    1    0    0    0  0.25693528001E+02 -0.54270485473E+02  0.73440826354E+01  0.60492797296E+02  0.51100000000E-03 0. -1.
         11    1    1    0    0    0  0.85210163887E+00 -0.18008503285E+01  0.24438452329E+00  0.20072028211E+01  0.51100000000E-03 0.  1.
         22    1    1    0    0    0 -0.26545629640E+02  0.56071335802E+02 -0.75884671587E+01  0.62499999883E+02  0.00000000000E+00 0. -1.
</event>
<event>
 4    1  0.1988088E-002  0.9118800E+02  0.7818608E-02  0.1130116E+00
         25   -1    0    0    0    0  0.00000000000E+00  0.00000000000E+00  0.99999998245E-14  0.12500000000E+03  0.12500000000E+03 0.  0.
        -11    1    1    0    0    0 -0.11965356875E+02  0.21196715810E+02  0.39368799919E+02  0.46285774636E+02  0.51100000000E-03 0. -1.
         11    1    1    0    0    0 -0.15707603632E+02 -0.12137220475E+02  0.93614201801E+01  0.21947143795E+02  0.51100000000E-03 0.  1.
         22    1    1    0    0    0  0.27672960507E+02 -0.90594953350E+01 -0.48730220099E+02  0.56767081569E+02  0.00000000000E+00 0. -1.
</event>
<event>
 4    1  0.1988088E-002  0.9118800E+02  0.7818608E-02  0.1130116E+00
         25   -1    0    0    0    0  0.00000000000E+00  0.00000000000E+00  0.99999998245E-14  0.12500000000E+03  0.12500000000E+03 0.  0.
        -11    1    1    0    0    0 -0.11706719891E+02 -0.76130838870E+01  0.23773850149E+02  0.27571766139E+02  0.51100000000E-03 0. -1.
         11    1    1    0    0    0 -0.14612070967E+02 -0.95715240944E+01  0.30246821532E+02  0.34928454081E+02  0.51100000000E-03 0.  1.
         22    1    1    0    0    0  0.26318790858E+02  0.17184607981E+02 -0.54020671681E+02  0.62499779780E+02  0.00000000000E+00 0. -1.
</event>
<event>
 4    1  0.1988088E-002  0.9118800E+02  0.7818608E-02  0.1130116E+00
         25   -1    0    0    0    0  0.00000000000E+00  0.00000000000E+00  0.99999998245E-14  0.12500000000E+03  0.12500000000E+03 0.  0.
        -11    1    1    0    0    0 -0.60274855850E+01  0.41174191894E+02 -0.11493290099E+01  0.41628903637E+02  0.51100000000E-03 0. -1.
         11    1    1    0    0    0  0.49131231247E+00  0.20887463682E+02  0.25429196425E+01  0.21047421871E+02  0.51100000000E-03 0.  1.
         22    1    1    0    0    0  0.55361732726E+01 -0.62061655576E+02 -0.13935906325E+01  0.62323674492E+02  0.00000000000E+00 0. -1.
</event>
<event>
 4    1  0.1988088E-002  0.9118800E+02  0.7818608E-02  0.1130116E+00
         25   -1    0    0    0    0  0.00000000000E+00  0.00000000000E+00  0.99999998245E-14  0.12500000000E+03  0.12500000000E+03 0.  0.
        -11    1    1    0    0    0  0.93801329184E+01 -0.75613792756E+01 -0.46818434166E+02  0.48343842712E+02  0.51100000000E-03 0. -1.
         11    1    1    0    0    0  0.44983058344E+01  0.31151171011E+01 -0.13518694886E+02  0.14584026248E+02  0.51100000000E-03 0.  1.
         22    1    1    0    0    0 -0.13878438753E+02  0.44462621746E+01  0.60337129052E+02  0.62072131040E+02  0.00000000000E+00 0. -1.
</event>
<event>
 4    1  0.1988088E-002  0.9118800E+02  0.7818608E-02  0.1130116E+00
         25   -1    0    0    0    0  0.00000000000E+00  0.00000000000E+00  0.99999998245E-14  0.12500000000E+03  0.12500000000E+03 0.  0.
        -11    1    1    0    0    0 -0.29159579960E+02  0.17839897646E+02 -0.79883703329E+01  0.35104944271E+02  0.51100000000E-03 0. -1.
         11    1    1    0    0    0 -0.22756062014E+02  0.13918944346E+02 -0.62380858896E+01  0.27395055866E+02  0.51100000000E-03 0. -1.
         22    1    1    0    0    0  0.51915641974E+02 -0.31758841992E+02  0.14226456222E+02  0.62499999863E+02  0.00000000000E+00 0. -1.
</event>
<event>
 4    1  0.1988088E-002  0.9118800E+02  0.7818608E-02  0.1130116E+00
         25   -1    0    0    0    0  0.00000000000E+00  0.00000000000E+00  0.99999998245E-14  0.12500000000E+03  0.12500000000E+03 0.  0.
        -11    1    1    0    0    0 -0.17258496877E+01  0.87631531917E-01  0.65362912345E+01  0.67608682722E+01  0.51100000000E-03 0. -1.
         11    1    1    0    0    0 -0.13286389794E+02  0.20275302986E+01  0.54095787733E+02  0.55740409791E+02  0.51100000000E-03 0.  1.
         22    1    1    0    0    0  0.15012239482E+02 -0.21151618305E+01 -0.60632078968E+02  0.62498721937E+02  0.00000000000E+00 0.  1.
</event>
<event>
 4    1  0.1988088E-002  0.9118800E+02  0.7818608E-02  0.1130116E+00
         25   -1    0    0    0    0  0.00000000000E+00  0.00000000000E+00  0.99999998245E-14  0.12500000000E+03  0.12500000000E+03 0.  0.
        -11    1    1    0    0    0 -0.20073088197E+02  0.30642213980E+02 -0.49194856370E+02  0.61335210450E+02  0.51100000000E-03 0. -1.
         11    1    1    0    0    0 -0.37907311193E+00  0.57358904377E+00 -0.94025941101E+00  0.11648127903E+01  0.51100000000E-03 0.  1.
         22    1    1    0    0    0  0.20452161309E+02 -0.31215803023E+02  0.50135115781E+02  0.62499976760E+02  0.00000000000E+00 0. -1.
</event>
<event>
 4    1  0.1988088E-002  0.9118800E+02  0.7818608E-02  0.1130116E+00
         25   -1    0    0    0    0  0.00000000000E+00  0.00000000000E+00  0.99999998245E-14  0.12500000000E+03  0.12500000000E+03 0.  0.
        -11    1    1    0    0    0  0.19267305204E+02 -0.10411300563E+02 -0.32451698675E+02  0.39150184883E+02  0.51100000000E-03 0.  1.
         11    1    1    0    0    0  0.11488179774E+02 -0.62129131087E+01 -0.19355498163E+02  0.23349815271E+02  0.51100000000E-03 0. -1.
         22    1    1    0    0    0 -0.30755484978E+02  0.16624213672E+02  0.51807196838E+02  0.62499999845E+02  0.00000000000E+00 0.  1.
</event>
<event>
 4    1  0.1988088E-002  0.9118800E+02  0.7818608E-02  0.1130116E+00
         25   -1    0    0    0    0  0.00000000000E+00  0.00000000000E+00  0.99999998245E-14  0.12500000000E+03  0.12500000000E+03 0.  0.
        -11    1    1    0    0    0  0.26084456643E+02  0.48958416432E+02  0.18901553765E+02  0.58605410611E+02  0.51100000000E-03 0.  1.
         11    1    1    0    0    0 -0.44327508230E+01  0.38336954574E+00  0.56416248108E+01  0.71849970657E+01  0.51100000000E-03 0. -1.
         22    1    1    0    0    0 -0.21651705820E+02 -0.49341785978E+02 -0.24543178576E+02  0.59209592323E+02  0.00000000000E+00 0.  1.
</event>
<event>
 4    1  0.1988088E-002  0.9118800E+02  0.7818608E-02  0.1130116E+00
         25   -1    0    0    0    0  0.00000000000E+00  0.00000000000E+00  0.99999998245E-14  0.12500000000E+03  0.12500000000E+03 0.  0.
        -11    1    1    0    0    0  0.91002618825E+00  0.64516989466E+00 -0.74513184484E+00  0.13414967699E+01  0.51100000000E-03 0. -1.
         11    1    1    0    0    0  0.41926307965E+02  0.28742094277E+02 -0.34006560394E+02  0.61158559769E+02  0.51100000000E-03 0.  1.
         22    1    1    0    0    0 -0.42836334153E+02 -0.29387264171E+02  0.34751692239E+02  0.62499943461E+02  0.00000000000E+00 0.  1.
</event>
<event>
 4    1  0.1988088E-002  0.9118800E+02  0.7818608E-02  0.1130116E+00
         25   -1    0    0    0    0  0.00000000000E+00  0.00000000000E+00  0.99999998245E-14  0.12500000000E+03  0.12500000000E+03 0.  0.
        -11    1    1    0    0    0  0.58606966192E+01  0.64717494991E+01  0.51417894221E+00  0.87461812631E+01  0.51100000000E-03 0.  1.
         11    1    1    0    0    0  0.23462122458E+02  0.41814904293E+02  0.25220155236E+02  0.54175766185E+02  0.51100000000E-03 0. -1.
         22    1    1    0    0    0 -0.29322819077E+02 -0.48286653792E+02 -0.25734334178E+02  0.62078052552E+02  0.00000000000E+00 0. -1.
</event>
<event>
 4    1  0.1988088E-002  0.9118800E+02  0.7818608E-02  0.1130116E+00
         25   -1    0    0    0    0  0.00000000000E+00  0.00000000000E+00  0.99999998245E-14  0.12500000000E+03  0.12500000000E+03 0.  0.
        -11    1    1    0    0    0  0.63752713952E+01  0.14633335706E+02 -0.16212553093E+02  0.22751384074E+02  0.51100000000E-03 0.  1.
         11    1    1    0    0    0  0.11139896005E+02  0.25566268116E+02 -0.28323508268E+02  0.39748615941E+02  0.51100000000E-03 0.  1.
         22    1    1    0    0    0 -0.17515167400E+02 -0.40199603822E+02  0.44536061361E+02  0.62499999984E+02  0.00000000000E+00 0.  1.
</event>
<event>
 4    1  0.1988088E-002  0.9118800E+02  0.7818608E-02  0.1130116E+00
         25   -1    0    0    0    0  0.00000000000E+00  0.00000000000E+00  0.99999998245E-14  0.12500000000E+03  0.12500000000E+03 0.  0.
        -11    1    1    0    0    0  0.14700978609E+01  0.84335662263E+01  0.96816883429E+01  0.12923672715E+02  0.51100000000E-03 0. -1.
         11    1    1    0    0    0  0.42466490045E+02  0.25910662510E+02  0.13710847014E+02  0.51601865611E+02  0.51100000000E-03 0.  1.
         22    1    1    0    0    0 -0.43936587906E+02 -0.34344228737E+02 -0.23392535356E+02  0.60474461674E+02  0.00000000000E+00 0.  1.
</event>
<event>
 4    1  0.1988088E-002  0.9118800E+02  0.7818608E-02  0.1130116E+00
         25   -1    0    0    0    0  0.00000000000E+00  0.00000000000E+00  0.99999998245E-14  0.12500000000E+03  0.12500000000E+03 0.  0.
        -11    1    1    0    0    0  0.11063896507E+02 -0.50423801342E+02  0.18224818068E+02  0.54745899770E+02  0.51100000000E-03 0. -1.
         11    1    1    0    0    0  0.15585240142E+01 -0.71596630862E+01  0.25371875554E+01  0.77541662068E+01  0.51100000000E-03 0.  1.
         22    1    1    0    0    0 -0.12622420522E+02  0.57583464428E+02 -0.20762005624E+02  0.62499934023E+02  0.00000000000E+00 0. -1.
</event>
<event>
 4    1  0.1988088E-002  0.9118800E+02  0.7818608E-02  0.1130116E+00
         25   -1    0    0    0    0  0.00000000000E+00  0.00000000000E+00  0.99999998245E-14  0.12500000000E+03  0.12500000000E+03 0.  0.
        -11    1    1    0    0    0 -0.32436252906E+02 -0.12491425611E+02 -0.12518909133E+01  0.34780935115E+02  0.51100000000E-03 0.  1.
         11    1    1    0    0    0 -0.26745865041E+02 -0.54932401606E+01 -0.59555820402E+01  0.27946125706E+02  0.51100000000E-03 0. -1.
         22    1    1    0    0    0  0.59182117947E+02  0.17984665772E+02  0.72074729535E+01  0.62272939179E+02  0.00000000000E+00 0.  1.
</event>
<event>
 4    1  0.1988088E-002  0.9118800E+02  0.7818608E-02  0.1130116E+00
         25   -1    0    0    0    0  0.00000000000E+00  0.00000000000E+00  0.99999998245E-14  0.12500000000E+03  0.12500000000E+03 0.  0.
        -11    1    1    0    0    0  0.36914250494E+01  0.49225385348E+01 -0.17077684494E+01  0.63854896335E+01  0.51100000000E-03 0.  1.
         11    1    1    0    0    0  0.32448036407E+02  0.43255487940E+02 -0.14997532474E+02  0.56114510460E+02  0.51100000000E-03 0. -1.
         22    1    1    0    0    0 -0.36139461456E+02 -0.48178026475E+02  0.16705300923E+02  0.62499999906E+02  0.00000000000E+00 0. -1.
</event>
<event>
 4    1  0.1988088E-002  0.9118800E+02  0.7818608E-02  0.1130116E+00
         25   -1    0    0    0    0  0.00000000000E+00  0.00000000000E+00  0.99999998245E-14  0.12500000000E+03  0.12500000000E+03 0.  0.
        -11    1    1    0    0    0  0.17143376904E+02  0.27627565194E+02  0.83567497592E+01  0.33571014239E+02  0.51100000000E-03 0.  1.
         11    1    1    0    0    0  0.14773523423E+02  0.23807230635E+02  0.72003467044E+01  0.28928985771E+02  0.51100000000E-03 0.  1.
         22    1    1    0    0    0 -0.31916900327E+02 -0.51434795828E+02 -0.15557096464E+02  0.62499999990E+02  0.00000000000E+00 0.  1.
</event>
<event>
 4    1  0.1988088E-002  0.9118800E+02  0.7818608E-02  0.1130116E+00
         25   -1    0    0    0    0  0.00000000000E+00  0.00000000000E+00  0.99999998245E-14  0.12500000000E+03  0.12500000000E+03 0.  0.
        -11    1    1    0    0    0  0.22139303263E+01 -0.31802273040E+01 -0.94941402287E+00  0.39895764741E+01  0.51100000000E-03 0. -1.
         11    1    1    0    0    0  0.31738380315E+02 -0.47126377430E+02 -0.13974050270E+02  0.58510634212E+02  0.51100000000E-03 0.  1.
         22    1    1    0    0    0 -0.33952310641E+02  0.50306604734E+02  0.14923464293E+02  0.62499789314E+02  0.00000000000E+00 0.  1.
</event>
<event>
 4    1  0.1988088E-002  0.9118800E+02  0.7818608E-02  0.1130116E+00
         25   -1    0    0    0    0  0.00000000000E+00  0.00000000000E+00  0.99999998245E-14  0.12500000000E+03  0.12500000000E+03 0.  0.
        -11    1    1    0    0    0  0.20679145673E+02  0.77540877068E+01 -0.40990814332E+02  0.46561784779E+02  0.51100000000E-03 0.  1.
         11    1    1    0    0    0  0.74053577683E+01  0.25586593106E+01 -0.13881361885E+02  0.15939832784E+02  0.51100000000E-03 0. -1.
         22    1    1    0    0    0 -0.28084503441E+02 -0.10312747017E+02  0.54872176216E+02  0.62498382438E+02  0.00000000000E+00 0. -1.
</event>
<event>
 4    1  0.1988088E-002  0.9118800E+02  0.7818608E-02  0.1130116E+00
         25   -1    0    0    0    0  0.00000000000E+00  0.00000000000E+00  0.99999998245E-14  0.12500000000E+03  0.12500000000E+03 0.  0.
        -11    1    1    0    0    0  0.12166887437E+02 -0.25965804846E+02  0.26889645211E+02  0.39310420896E+02  0.51100000000E-03 0.  1.
         11    1    1    0    0    0 -0.81932065731E+00  0.34505451419E+02  0.17773679647E+02  0.38822688630E+02  0.51100000000E-03 0. -1.
         22    1    1    0    0    0 -0.11347566779E+02 -0.85396465734E+01 -0.44663324858E+02  0.46866890475E+02  0.00000000000E+00 0.  1.
</event>
<event>
 4    1  0.1988088E-002  0.9118800E+02  0.7818608E-02  0.1130116E+00
         25   -1    0    0    0    0  0.00000000000E+00  0.00000000000E+00  0.99999998245E-14  0.12500000000E+03  0.12500000000E+03 0.  0.
        -11    1    1    0    0    0 -0.30451379828E+01 -0.93880092020E+01 -0.56698061033E+01  0.11382191512E+02  0.51100000000E-03 0.  1.
         11    1    1    0    0    0  0.56250879209E+02 -0.71524294750E+01  0.10587478153E+02  0.57683735603E+02  0.51100000000E-03 0. -1.
         22    1    1    0    0    0 -0.53205741227E+02  0.16540438677E+02 -0.49176720494E+01  0.55934072885E+02  0.00000000000E+00 0. -1.
</event>
<event>
 4    1  0.1988088E-002  0.9118800E+02  0.7818608E-02  0.1130116E+00
         25   -1    0    0    0    0  0.00000000000E+00  0.00000000000E+00  0.99999998245E-14  0.12500000000E+03  0.12500000000E+03 0.  0.
        -11    1    1    0    0    0  0.69418748526E+00  0.21816544393E+01  0.16565458245E+01  0.28258904238E+01  0.51100000000E-03 0. -1.
         11    1    1    0    0    0  0.14630326625E+02  0.46018489022E+02  0.35060687224E+02  0.59674111455E+02  0.51100000000E-03 0.  1.
         22    1    1    0    0    0 -0.15324514110E+02 -0.48200143462E+02 -0.36717233049E+02  0.62499998121E+02  0.00000000000E+00 0.  1.
</event>
<event>
 4    1  0.1988088E-002  0.9118800E+02  0.7818608E-02  0.1130116E+00
         25   -1    0    0    0    0  0.00000000000E+00  0.00000000000E+00  0.99999998245E-14  0.12500000000E+03  0.12500000000E+03 0.  0.
        -11    1    1    0    0    0  0.24800783173E+01 -0.19145119494E+02  0.33374262905E+02  0.38555515994E+02  0.51100000000E-03 0.  1.
         11    1    1    0    0    0  0.15235234916E+01 -0.11906004002E+02  0.20718697964E+02  0.23944487899E+02  0.51100000000E-03 0. -1.
         22    1    1    0    0    0 -0.40036018089E+01  0.31051123497E+02 -0.54092960869E+02  0.62499996107E+02  0.00000000000E+00 0.  1.
</event>
<event>
 4    1  0.1988088E-002  0.9118800E+02  0.7818608E-02  0.1130116E+00
         25   -1    0    0    0    0  0.00000000000E+00  0.00000000000E+00  0.99999998245E-14  0.12500000000E+03  0.12500000000E+03 0.  0.
        -11    1    1    0    0    0  0.37547446342E+01 -0.28075854571E+02  0.59807300402E+01  0.28950316911E+02  0.51100000000E-03 0. -1.
         11    1    1    0    0    0  0.43510543351E+01 -0.32536025703E+02  0.69322863135E+01  0.33549683100E+02  0.51100000000E-03 0.  1.
         22    1    1    0    0    0 -0.81057989693E+01  0.60611880274E+02 -0.12913016354E+02  0.62499999989E+02  0.00000000000E+00 0. -1.
</event>
<event>
 4    1  0.1988088E-002  0.9118800E+02  0.7818608E-02  0.1130116E+00
         25   -1    0    0    0    0  0.00000000000E+00  0.00000000000E+00  0.99999998245E-14  0.12500000000E+03  0.12500000000E+03 0.  0.
        -11    1    1    0    0    0 -0.95680155496E+01 -0.15614385158E+02  0.13279106050E+02  0.22620579196E+02  0.51100000000E-03 0.  1.
         11    1    1    0    0    0 -0.16717382833E+02 -0.27718177516E+02  0.23294056949E+02  0.39879585542E+02  0.51100000000E-03 0. -1.
         22    1    1    0    0    0  0.26285398383E+02  0.43332562674E+02 -0.36573162999E+02  0.62499835262E+02  0.00000000000E+00 0. -1.
</event>
<event>
 4    1  0.1988088E-002  0.9118800E+02  0.7818608E-02  0.1130116E+00
         25   -1    0    0    0    0  0.00000000000E+00  0.00000000000E+00  0.99999998245E-14  0.12500000000E+03  0.12500000000E+03 0.  0.
        -11    1    1    0    0    0  0.14620429858E+02  0.21596040700E+02 -0.72753247032E+01  0.27075381677E+02  0.51100000000E-03 0.  1.
         11    1    1    0    0    0  0.21378765986E+01  0.21975591207E+02 -0.30652120045E+02  0.37776309888E+02  0.51100000000E-03 0. -1.
         22    1    1    0    0    0 -0.16758306457E+02 -0.43571631907E+02  0.37927444748E+02  0.60148308434E+02  0.00000000000E+00 0.  1.
</event>
<event>
 4    1  0.1988088E-002  0.9118800E+02  0.7818608E-02  0.1130116E+00
         25   -1    0    0    0    0  0.00000000000E+00  0.00000000000E+00  0.99999998245E-14  0.12500000000E+03  0.12500000000E+03 0.  0.
        -11    1    1    0    0    0  0.29465618189E+01  0.33349755301E+02  0.71032125993E+01  0.34224903720E+02  0.51100000000E-03 0. -1.
         11    1    1    0    0    0  0.11102711920E+01  0.28183740221E+02  0.26965601022E+01  0.28334208152E+02  0.51100000000E-03 0.  1.
         22    1    1    0    0    0 -0.40568330109E+01 -0.61533495522E+02 -0.97997727015E+01  0.62440888128E+02  0.00000000000E+00 0.  1.
</event>
<event>
 4    1  0.1988088E-002  0.9118800E+02  0.7818608E-02  0.1130116E+00
         25   -1    0    0    0    0  0.00000000000E+00  0.00000000000E+00  0.99999998245E-14  0.12500000000E+03  0.12500000000E+03 0.  0.
        -11    1    1    0    0    0  0.20668034289E+02  0.21155194274E+02  0.48014455607E+02  0.56392356164E+02  0.51100000000E-03 0.  1.
         11    1    1    0    0    0  0.22646034593E+01  0.23614203429E+01  0.51577054403E+01  0.61079178559E+01  0.51100000000E-03 0. -1.
         22    1    1    0    0    0 -0.22932637749E+02 -0.23516614617E+02 -0.53172161048E+02  0.62499725980E+02  0.00000000000E+00 0.  1.
</event>
<event>
 4    1  0.1988088E-002  0.9118800E+02  0.7818608E-02  0.1130116E+00
         25   -1    0    0    0    0  0.00000000000E+00  0.00000000000E+00  0.99999998245E-14  0.12500000000E+03  0.12500000000E+03 0.  0.
        -11    1    1    0    0    0  0.14705204076E+01  0.28781104583E+02 -0.47916351755E+01  0.29214280399E+02  0.51100000000E-03 0. -1.
         11    1    1    0    0    0  0.26652716276E+02  0.23353706542E+02  0.84708989996E+01  0.36435134475E+02  0.51100000000E-03 0.  1.
         22    1    1    0    0    0 -0.28123236683E+02 -0.52134811125E+02 -0.36792638242E+01  0.59350585126E+02  0.00000000000E+00 0. -1.
</event>
<event>
 4    1  0.1988088E-002  0.9118800E+02  0.7818608E-02  0.1130116E+00
         25   -1    0    0    0    0  0.00000000000E+00  0.00000000000E+00  0.99999998245E-14  0.12500000000E+03  0.12500000000E+03 0.  0.
        -11    1    1    0    0    0  0.11241837382E+02  0.51833697659E+02  0.90210880815E+01  0.53800475380E+02  0.51100000000E-03 0. -1.
         11    1    1    0    0    0  0.55446149201E+00  0.87919656858E+01 -0.21325439507E+00  0.88120125888E+01  0.51100000000E-03 0.  1.
         22    1    1    0    0    0 -0.11796298874E+02 -0.60625663345E+02 -0.88078336865E+01  0.62387512031E+02  0.00000000000E+00 0. -1.
</event>
<event>
 4    1  0.1988088E-002  0.9118800E+02  0.7818608E-02  0.1130116E+00
         25   -1    0    0    0    0  0.00000000000E+00  0.00000000000E+00  0.99999998245E-14  0.12500000000E+03  0.12500000000E+03 0.  0.
        -11    1    1    0    0    0  0.31680662636E+02 -0.26788258137E+02  0.16446236294E+02  0.44629069535E+02  0.51100000000E-03 0. -1.
         11    1    1    0    0    0  0.12685415607E+02 -0.10726341964E+02  0.65875622292E+01  0.17870930514E+02  0.51100000000E-03 0.  1.
         22    1    1    0    0    0 -0.44366078243E+02  0.37514600102E+02 -0.23033798523E+02  0.62499999951E+02  0.00000000000E+00 0. -1.
</event>
<event>
 4    1  0.1988088E-002  0.9118800E+02  0.7818608E-02  0.1130116E+00
         25   -1    0    0    0    0  0.00000000000E+00  0.00000000000E+00  0.99999998245E-14  0.12500000000E+03  0.12500000000E+03 0.  0.
        -11    1    1    0    0    0 -0.10427545641E+02 -0.11921382584E+02  0.41107575804E+02  0.44053216223E+02  0.51100000000E-03 0.  1.
         11    1    1    0    0    0 -0.43667593906E+01 -0.49913492419E+01  0.17213415611E+02  0.18446783787E+02  0.51100000000E-03 0. -1.
         22    1    1    0    0    0  0.14794305032E+02  0.16912731826E+02 -0.58320991415E+02  0.62499999990E+02  0.00000000000E+00 0. -1.
</event>
<event>
 4    1  0.1988088E-002  0.9118800E+02  0.7818608E-02  0.1130116E+00
         25   -1    0    0    0    0  0.00000000000E+00  0.00000000000E+00  0.99999998245E-14  0.12500000000E+03  0.12500000000E+03 0.  0.
        -11    1    1    0    0    0 -0.14843908638E+01 -0.74958675379E+00 -0.22654013957E+01  0.28102206822E+01  0.51100000000E-03 0. -1.
         11    1    1    0    0    0 -0.36065955577E+02 -0.43328157045E+02 -0.20479070813E+02  0.59978952027E+02  0.51100000000E-03 0.  1.
         22    1    1    0    0    0  0.37550346441E+02  0.44077743798E+02  0.22744472209E+02  0.62210827291E+02  0.00000000000E+00 0.  1.
</event>
<event>
 4    1  0.1988088E-002  0.9118800E+02  0.7818608E-02  0.1130116E+00
         25   -1    0    0    0    0  0.00000000000E+00  0.00000000000E+00  0.99999998245E-14  0.12500000000E+03  0.12500000000E+03 0.  0.
        -11    1    1    0    0    0  0.11641061298E+02  0.95457302564E+01 -0.50216312180E+01  0.15869847341E+02  0.51100000000E-03 0.  1.
         11    1    1    0    0    0 -0.32701221140E+02  0.70815366152E+01 -0.42781021453E+02  0.54311452031E+02  0.51100000000E-03 0. -1.
         22    1    1    0    0    0  0.21060159842E+02 -0.16627266872E+02  0.47802652671E+02  0.54818700629E+02  0.00000000000E+00 0. -1.
</event>
<event>
 4    1  0.1988088E-002  0.9118800E+02  0.7818608E-02  0.1130116E+00
         25   -1    0    0    0    0  0.00000000000E+00  0.00000000000E+00  0.99999998245E-14  0.12500000000E+03  0.12500000000E+03 0.  0.
        -11    1    1    0    0    0 -0.49189719306E+01 -0.91229406030E+01  0.41569480848E+01  0.11167119044E+02  0.51100000000E-03 0. -1.
         11    1    1    0    0    0 -0.22481448861E+02 -0.42376673797E+02  0.18274235392E+02  0.51333670280E+02  0.51100000000E-03 0.  1.
         22    1    1    0    0    0  0.27400420791E+02  0.51499614400E+02 -0.22431183477E+02  0.62499210676E+02  0.00000000000E+00 0.  1.
</event>
<event>
 4    1  0.1988088E-002  0.9118800E+02  0.7818608E-02  0.1130116E+00
         25   -1    0    0    0    0  0.00000000000E+00  0.00000000000E+00  0.99999998245E-14  0.12500000000E+03  0.12500000000E+03 0.  0.
        -11    1    1    0    0    0 -0.25567865419E+02  0.11682262654E+02  0.48801278102E+02  0.56318342904E+02  0.51100000000E-03 0. -1.
         11    1    1    0    0    0 -0.29484613323E+01  0.13852801018E+01  0.52553731116E+01  0.61831522699E+01  0.51100000000E-03 0.  1.
         22    1    1    0    0    0  0.28516326752E+02 -0.13067542755E+02 -0.54056651214E+02  0.62498504826E+02  0.00000000000E+00 0. -1.
</event>
<event>
 4    1  0.1988088E-002  0.9118800E+02  0.7818608E-02  0.1130116E+00
         25   -1    0    0    0    0  0.00000000000E+00  0.00000000000E+00  0.99999998245E-14  0.12500000000E+03  0.12500000000E+03 0.  0.
        -11    1    1    0    0    0 -0.59686562875E+01 -0.57577152654E+01 -0.49368917669E+01  0.96513752147E+01  0.51100000000E-03 0.  1.
         11    1    1    0    0    0 -0.33077437157E+02 -0.31722661472E+02 -0.26317058945E+02  0.52849140878E+02  0.51100000000E-03 0. -1.
         22    1    1    0    0    0  0.39046093444E+02  0.37480376738E+02  0.31253950712E+02  0.62499483908E+02  0.00000000000E+00 0. -1.
</event>
<event>
 4    1  0.1988088E-002  0.9118800E+02  0.7818608E-02  0.1130116E+00
         25   -1    0    0    0    0  0.00000000000E+00  0.00000000000E+00  0.99999998245E-14  0.12500000000E+03  0.12500000000E+03 0.  0.
        -11    1    1    0    0    0 -0.74082232274E+00  0.65438671522E+01 -0.10864027637E+01  0.66746749918E+01  0.51100000000E-03 0.  1.
         11    1    1    0    0    0  0.18473739930E+02  0.49766105411E+02 -0.18358631630E+02  0.56169241319E+02  0.51100000000E-03 0. -1.
         22    1    1    0    0    0 -0.17732917607E+02 -0.56309972564E+02  0.19445034393E+02  0.62156083689E+02  0.00000000000E+00 0. -1.
</event>
<event>
 4    1  0.1988088E-002  0.9118800E+02  0.7818608E-02  0.1130116E+00
         25   -1    0    0    0    0  0.00000000000E+00  0.00000000000E+00  0.99999998245E-14  0.12500000000E+03  0.12500000000E+03 0.  0.
        -11    1    1    0    0    0  0.15811647268E+02  0.19649393057E+01 -0.20470660650E+01  0.16064235293E+02  0.51100000000E-03 0.  1.
         11    1    1    0    0    0  0.45668193061E+02  0.55066272657E+01 -0.63562760674E+01  0.46436074845E+02  0.51100000000E-03 0. -1.
         22    1    1    0    0    0 -0.61479840329E+02 -0.74715665714E+01  0.84033421324E+01  0.62499689862E+02  0.00000000000E+00 0. -1.
</event>
<event>
 4    1  0.1988088E-002  0.9118800E+02  0.7818608E-02  0.1130116E+00
         25   -1    0    0    0    0  0.00000000000E+00  0.00000000000E+00  0.99999998245E-14  0.12500000000E+03  0.12500000000E+03 0.  0.
        -11    1    1    0    0    0  0.18666788263E+01 -0.21707317027E+02 -0.69441439487E+01  0.22867296250E+02  0.51100000000E-03 0.  1.
         11    1    1    0    0    0 -0.51136439105E+01 -0.36360009641E+02 -0.15418098223E+02  0.39823578546E+02  0.51100000000E-03 0. -1.
         22    1    1    0    0    0  0.32469650842E+01  0.58067326668E+02  0.22362242172E+02  0.62309125203E+02  0.00000000000E+00 0.  1.
</event>
<event>
 4    1  0.1988088E-002  0.9118800E+02  0.7818608E-02  0.1130116E+00
         25   -1    0    0    0    0  0.00000000000E+00  0.00000000000E+00  0.99999998245E-14  0.12500000000E+03  0.12500000000E+03 0.  0.
        -11    1    1    0    0    0  0.66042330911E-01 -0.21704757051E+01  0.11024180286E+01  0.24352930310E+01  0.51100000000E-03 0. -1.
         11    1    1    0    0    0 -0.15172840891E+02 -0.34494453273E+02  0.46988428195E+02  0.60232838152E+02  0.51100000000E-03 0.  1.
         22    1    1    0    0    0  0.15106798560E+02  0.36664928978E+02 -0.48090846224E+02  0.62331868817E+02  0.00000000000E+00 0.  1.
</event>
<event>
 4    1  0.1988088E-002  0.9118800E+02  0.7818608E-02  0.1130116E+00
         25   -1    0    0    0    0  0.00000000000E+00  0.00000000000E+00  0.99999998245E-14  0.12500000000E+03  0.12500000000E+03 0.  0.
        -11    1    1    0    0    0 -0.28171484668E+01  0.27792700714E+01  0.12056201870E+02  0.12689076854E+02  0.51100000000E-03 0. -1.
         11    1    1    0    0    0 -0.11080617080E+02  0.10873825478E+02  0.47329780186E+02  0.49810924987E+02  0.51100000000E-03 0.  1.
         22    1    1    0    0    0  0.13897765546E+02 -0.13653095549E+02 -0.59385982055E+02  0.62499998159E+02  0.00000000000E+00 0.  1.
</event>
<event>
 4    1  0.1988088E-002  0.9118800E+02  0.7818608E-02  0.1130116E+00
         25   -1    0    0    0    0  0.00000000000E+00  0.00000000000E+00  0.99999998245E-14  0.12500000000E+03  0.12500000000E+03 0.  0.
        -11    1    1    0    0    0 -0.33364087113E+02  0.66986326937E+01  0.74640864980E+01  0.34838865888E+02  0.51100000000E-03 0. -1.
         11    1    1    0    0    0  0.29881490948E+02  0.20344036267E+02 -0.35772485047E+02  0.50857192211E+02  0.51100000000E-03 0.  1.
         22    1    1    0    0    0  0.34825961650E+01 -0.27042668961E+02  0.28308398549E+02  0.39303941901E+02  0.00000000000E+00 0.  1.
</event>
<event>
 4    1  0.1988088E-002  0.9118800E+02  0.7818608E-02  0.1130116E+00
         25   -1    0    0    0    0  0.00000000000E+00  0.00000000000E+00  0.99999998245E-14  0.12500000000E+03  0.12500000000E+03 0.  0.
        -11    1    1    0    0    0  0.22944452023E+02 -0.44872489100E+02  0.30337191113E+01  0.50489519790E+02  0.51100000000E-03 0.  1.
         11    1    1    0    0    0  0.54582725492E+01 -0.10674138759E+02  0.72225860501E+00  0.12010480224E+02  0.51100000000E-03 0.  1.
         22    1    1    0    0    0 -0.28402724572E+02  0.55546627859E+02 -0.37559777163E+01  0.62499999986E+02  0.00000000000E+00 0.  1.
</event>
<event>
 4    1  0.1988088E-002  0.9118800E+02  0.7818608E-02  0.1130116E+00
         25   -1    0    0    0    0  0.00000000000E+00  0.00000000000E+00  0.99999998245E-14  0.12500000000E+03  0.12500000000E+03 0.  0.
        -11    1    1    0    0    0 -0.25858989998E+02 -0.53247456521E+02 -0.12951394871E+02  0.60594699595E+02  0.51100000000E-03 0. -1.
         11    1    1    0    0    0 -0.93209987365E+00 -0.16366473656E+01 -0.30829716027E+00  0.19085261785E+01  0.51100000000E-03 0.  1.
         22    1    1    0    0    0  0.26791089872E+02  0.54884103886E+02  0.13259692031E+02  0.62496774226E+02  0.00000000000E+00 0. -1.
</event>
<event>
 4    1  0.1988088E-002  0.9118800E+02  0.7818608E-02  0.1130116E+00
         25   -1    0    0    0    0  0.00000000000E+00  0.00000000000E+00  0.99999998245E-14  0.12500000000E+03  0.12500000000E+03 0.  0.
        -11    1    1    0    0    0 -0.10014576217E+01 -0.16678883937E+01 -0.11914772452E+02  0.12072554489E+02  0.51100000000E-03 0. -1.
         11    1    1    0    0    0 -0.39953591634E+01 -0.70516563339E+01 -0.49771905834E+02  0.50427486181E+02  0.51100000000E-03 0.  1.
         22    1    1    0    0    0  0.49968167851E+01  0.87195447276E+01  0.61686678286E+02  0.62499959330E+02  0.00000000000E+00 0.  1.
</event>
<event>
 4    1  0.1988088E-002  0.9118800E+02  0.7818608E-02  0.1130116E+00
         25   -1    0    0    0    0  0.00000000000E+00  0.00000000000E+00  0.99999998245E-14  0.12500000000E+03  0.12500000000E+03 0.  0.
        -11    1    1    0    0    0 -0.50641195772E+02 -0.22402866688E+02 -0.21025461057E+02  0.59232500859E+02  0.51100000000E-03 0. -1.
         11    1    1    0    0    0 -0.27928323275E+01 -0.12372250789E+01 -0.11601350897E+01  0.32674993486E+01  0.51100000000E-03 0.  1.
         22    1    1    0    0    0  0.53434028100E+02  0.23640091767E+02  0.22185596146E+02  0.62499999793E+02  0.00000000000E+00 0. -1.
</event>
<event>
 4    1  0.1988088E-002  0.9118800E+02  0.7818608E-02  0.1130116E+00
         25   -1    0    0    0    0  0.00000000000E+00  0.00000000000E+00  0.99999998245E-14  0.12500000000E+03  0.12500000000E+03 0.  0.
        -11    1    1    0    0    0 -0.25787012132E+02  0.13073633410E+02  0.80146347974E+01  0.30002070869E+02  0.51100000000E-03 0.  1.
         11    1    1    0    0    0 -0.25924750193E+02  0.16771059966E+02  0.10294805335E+02  0.32547567376E+02  0.51100000000E-03 0. -1.
         22    1    1    0    0    0  0.51711762324E+02 -0.29844693376E+02 -0.18309440132E+02  0.62450361755E+02  0.00000000000E+00 0. -1.
</event>
<event>
 4    1  0.1988088E-002  0.9118800E+02  0.7818608E-02  0.1130116E+00
         25   -1    0    0    0    0  0.00000000000E+00  0.00000000000E+00  0.99999998245E-14  0.12500000000E+03  0.12500000000E+03 0.  0.
        -11    1    1    0    0    0  0.69440760951E+01 -0.40283023845E+02  0.27245703676E+02  0.49125050351E+02  0.51100000000E-03 0.  1.
         11    1    1    0    0    0 -0.93404929628E+01 -0.12165840861E+02  0.24851679976E+01  0.15537971325E+02  0.51100000000E-03 0. -1.
         22    1    1    0    0    0  0.23964168677E+01  0.52448864707E+02 -0.29730871674E+02  0.60336978324E+02  0.00000000000E+00 0.  1.
</event>
<event>
 4    1  0.1988088E-002  0.9118800E+02  0.7818608E-02  0.1130116E+00
         25   -1    0    0    0    0  0.00000000000E+00  0.00000000000E+00  0.99999998245E-14  0.12500000000E+03  0.12500000000E+03 0.  0.
        -11    1    1    0    0    0 -0.33663692670E+01  0.51890790020E+01  0.35756548953E+01  0.71445287544E+01  0.51100000000E-03 0. -1.
         11    1    1    0    0    0 -0.26083269572E+02  0.40202686314E+02  0.27706231426E+02  0.55355471261E+02  0.51100000000E-03 0. -1.
         22    1    1    0    0    0  0.29449638839E+02 -0.45391765316E+02 -0.31281886322E+02  0.62499999985E+02  0.00000000000E+00 0. -1.
</event>
<event>
 4    1  0.1988088E-002  0.9118800E+02  0.7818608E-02  0.1130116E+00
         25   -1    0    0    0    0  0.00000000000E+00  0.00000000000E+00  0.99999998245E-14  0.12500000000E+03  0.12500000000E+03 0.  0.
        -11    1    1    0    0    0 -0.19486705846E+02  0.32062954505E+02  0.45092582223E+02  0.58660938692E+02  0.51100000000E-03 0.  1.
         11    1    1    0    0    0 -0.12137227158E+01  0.20137906863E+01  0.30361903399E+01  0.38401728868E+01  0.51100000000E-03 0. -1.
         22    1    1    0    0    0  0.20700428562E+02 -0.34076745191E+02 -0.48128772563E+02  0.62498888422E+02  0.00000000000E+00 0.  1.
</event>
<event>
 4    1  0.1988088E-002  0.9118800E+02  0.7818608E-02  0.1130116E+00
         25   -1    0    0    0    0  0.00000000000E+00  0.00000000000E+00  0.99999998245E-14  0.12500000000E+03  0.12500000000E+03 0.  0.
        -11    1    1    0    0    0  0.14005068077E+02  0.46913523494E+01 -0.35652256551E+00  0.14774228485E+02  0.51100000000E-03 0. -1.
         11    1    1    0    0    0  0.45118106056E+02  0.15505888719E+02 -0.13008407193E+01  0.47725970560E+02  0.51100000000E-03 0.  1.
         22    1    1    0    0    0 -0.59123174134E+02 -0.20197241068E+02  0.16573632848E+01  0.62499800955E+02  0.00000000000E+00 0.  1.
</event>
<event>
 4    1  0.1988088E-002  0.9118800E+02  0.7818608E-02  0.1130116E+00
         25   -1    0    0    0    0  0.00000000000E+00  0.00000000000E+00  0.99999998245E-14  0.12500000000E+03  0.12500000000E+03 0.  0.
        -11    1    1    0    0    0  0.10967565240E+01  0.87062033769E+00  0.27412255942E+00  0.14268840471E+01  0.51100000000E-03 0. -1.
         11    1    1    0    0    0  0.60253849203E+02  0.59326450435E+01 -0.90772450676E+01  0.61221883336E+02  0.51100000000E-03 0.  1.
         22    1    1    0    0    0 -0.61350605727E+02 -0.68032653812E+01  0.88031225082E+01  0.62351232616E+02  0.00000000000E+00 0.  1.
</event>
<event>
 4    1  0.1988088E-002  0.9118800E+02  0.7818608E-02  0.1130116E+00
         25   -1    0    0    0    0  0.00000000000E+00  0.00000000000E+00  0.99999998245E-14  0.12500000000E+03  0.12500000000E+03 0.  0.
        -11    1    1    0    0    0  0.14211713707E+01  0.52655473680E+01  0.13749028886E+02  0.14791264744E+02  0.51100000000E-03 0.  1.
         11    1    1    0    0    0  0.45828338612E+01  0.16981522555E+02  0.44348043321E+02  0.47708735271E+02  0.51100000000E-03 0. -1.
         22    1    1    0    0    0 -0.60040052319E+01 -0.22247069923E+02 -0.58097072208E+02  0.62499999985E+02  0.00000000000E+00 0. -1.
</event>
<event>
 4    1  0.1988088E-002  0.9118800E+02  0.7818608E-02  0.1130116E+00
         25   -1    0    0    0    0  0.00000000000E+00  0.00000000000E+00  0.99999998245E-14  0.12500000000E+03  0.12500000000E+03 0.  0.
        -11    1    1    0    0    0  0.21036600143E+02  0.18231258838E+02 -0.17170233494E+02  0.32706792305E+02  0.51100000000E-03 0. -1.
         11    1    1    0    0    0  0.19162854653E+02  0.16607730859E+02 -0.15639805059E+02  0.29793207704E+02  0.51100000000E-03 0. -1.
         22    1    1    0    0    0 -0.40199454796E+02 -0.34838989697E+02  0.32810038553E+02  0.62499999991E+02  0.00000000000E+00 0. -1.
</event>
<event>
 4    1  0.1988088E-002  0.9118800E+02  0.7818608E-02  0.1130116E+00
         25   -1    0    0    0    0  0.00000000000E+00  0.00000000000E+00  0.99999998245E-14  0.12500000000E+03  0.12500000000E+03 0.  0.
        -11    1    1    0    0    0 -0.20430467172E+02  0.16898768525E+00  0.21810428266E+02  0.29885235939E+02  0.51100000000E-03 0. -1.
         11    1    1    0    0    0 -0.22288402102E+02  0.14745593047E+00  0.23810262074E+02  0.32614769535E+02  0.51100000000E-03 0.  1.
         22    1    1    0    0    0  0.42718869274E+02 -0.31644361572E+00 -0.45620690341E+02  0.62499994526E+02  0.00000000000E+00 0.  1.
</event>
<event>
 4    1  0.1988088E-002  0.9118800E+02  0.7818608E-02  0.1130116E+00
         25   -1    0    0    0    0  0.00000000000E+00  0.00000000000E+00  0.99999998245E-14  0.12500000000E+03  0.12500000000E+03 0.  0.
        -11    1    1    0    0    0  0.16978510680E+02 -0.14595088377E+02 -0.46138970282E+02  0.51284412921E+02  0.51100000000E-03 0. -1.
         11    1    1    0    0    0  0.12338594064E+01 -0.24635855980E+01 -0.11013535328E+02  0.11352956607E+02  0.51100000000E-03 0.  1.
         22    1    1    0    0    0 -0.18212370087E+02  0.17058673975E+02  0.57152505610E+02  0.62362630473E+02  0.00000000000E+00 0. -1.
</event>
<event>
 4    1  0.1988088E-002  0.9118800E+02  0.7818608E-02  0.1130116E+00
         25   -1    0    0    0    0  0.00000000000E+00  0.00000000000E+00  0.99999998245E-14  0.12500000000E+03  0.12500000000E+03 0.  0.
        -11    1    1    0    0    0 -0.21705605842E+02 -0.27499224068E+02  0.59251171936E+01  0.35530939522E+02  0.51100000000E-03 0.  1.
         11    1    1    0    0    0 -0.17140374495E+02 -0.20927828930E+02  0.49623366238E+00  0.27055733397E+02  0.51100000000E-03 0. -1.
         22    1    1    0    0    0  0.38845980337E+02  0.48427052998E+02 -0.64213508560E+01  0.62413327080E+02  0.00000000000E+00 0.  1.
</event>
<event>
 4    1  0.1988088E-002  0.9118800E+02  0.7818608E-02  0.1130116E+00
         25   -1    0    0    0    0  0.00000000000E+00  0.00000000000E+00  0.99999998245E-14  0.12500000000E+03  0.12500000000E+03 0.  0.
        -11    1    1    0    0    0 -0.13450019856E-01 -0.77119000297E+00 -0.27950617733E+01  0.28995319453E+01  0.51100000000E-03 0. -1.
         11    1    1    0    0    0 -0.20705325536E-01 -0.15877641470E+02 -0.57446648302E+02  0.59600480944E+02  0.51100000000E-03 0.  1.
         22    1    1    0    0    0  0.34155345392E-01  0.16648831473E+02  0.60241710076E+02  0.62499987111E+02  0.00000000000E+00 0.  1.
</event>
<event>
 4    1  0.1988088E-002  0.9118800E+02  0.7818608E-02  0.1130116E+00
         25   -1    0    0    0    0  0.00000000000E+00  0.00000000000E+00  0.99999998245E-14  0.12500000000E+03  0.12500000000E+03 0.  0.
        -11    1    1    0    0    0  0.21640500081E+02  0.25596849238E+02  0.43026166177E+02  0.54541368802E+02  0.51100000000E-03 0. -1.
         11    1    1    0    0    0  0.31506958447E+01  0.37290800570E+01  0.62854552409E+01  0.79586349473E+01  0.51100000000E-03 0.  1.
         22    1    1    0    0    0 -0.24791195925E+02 -0.29325929295E+02 -0.49311621418E+02  0.62499996250E+02  0.00000000000E+00 0. -1.
</event>
<event>
 4    1  0.1988088E-002  0.9118800E+02  0.7818608E-02  0.1130116E+00
         25   -1    0    0    0    0  0.00000000000E+00  0.00000000000E+00  0.99999998245E-14  0.12500000000E+03  0.12500000000E+03 0.  0.
        -11    1    1    0    0    0 -0.27244273183E+02  0.30715597479E+02  0.30841242728E-01  0.41057268555E+02  0.51100000000E-03 0.  1.
         11    1    1    0    0    0 -0.14224266039E+02  0.16045591311E+02  0.57831625341E-02  0.21442732536E+02  0.51100000000E-03 0. -1.
         22    1    1    0    0    0  0.41468539222E+02 -0.46761188790E+02 -0.36624405262E-01  0.62499998909E+02  0.00000000000E+00 0. -1.
</event>
<event>
 4    1  0.1988088E-002  0.9118800E+02  0.7818608E-02  0.1130116E+00
         25   -1    0    0    0    0  0.00000000000E+00  0.00000000000E+00  0.99999998245E-14  0.12500000000E+03  0.12500000000E+03 0.  0.
        -11    1    1    0    0    0 -0.28918728188E+01  0.15057437748E+02 -0.34205685537E+02  0.37484907406E+02  0.51100000000E-03 0. -1.
         11    1    1    0    0    0 -0.19202239356E+01  0.10064777874E+02 -0.22820341023E+02  0.25015095008E+02  0.51100000000E-03 0.  1.
         22    1    1    0    0    0  0.48120967544E+01 -0.25122215622E+02  0.57026026560E+02  0.62499997585E+02  0.00000000000E+00 0. -1.
</event>
<event>
 4    1  0.1988088E-002  0.9118800E+02  0.7818608E-02  0.1130116E+00
         25   -1    0    0    0    0  0.00000000000E+00  0.00000000000E+00  0.99999998245E-14  0.12500000000E+03  0.12500000000E+03 0.  0.
        -11    1    1    0    0    0 -0.21514473323E+02  0.19187639809E+02 -0.43454757151E+01  0.29153408776E+02  0.51100000000E-03 0.  1.
         11    1    1    0    0    0 -0.24609679801E+02  0.21945646950E+02 -0.49746749928E+01  0.33346591302E+02  0.51100000000E-03 0. -1.
         22    1    1    0    0    0  0.46124153124E+02 -0.41133286758E+02  0.93201507079E+01  0.62499999922E+02  0.00000000000E+00 0.  1.
</event>
<event>
 4    1  0.1988088E-002  0.9118800E+02  0.7818608E-02  0.1130116E+00
         25   -1    0    0    0    0  0.00000000000E+00  0.00000000000E+00  0.99999998245E-14  0.12500000000E+03  0.12500000000E+03 0.  0.
        -11    1    1    0    0    0 -0.81205241601E+01  0.38802457970E+01  0.25307818528E+01  0.93490147678E+01  0.51100000000E-03 0. -1.
         11    1    1    0    0    0 -0.46329652441E+02  0.20278518042E+02  0.16367796500E+02  0.53155994505E+02  0.51100000000E-03 0.  1.
         22    1    1    0    0    0  0.54450176602E+02 -0.24158763839E+02 -0.18898578353E+02  0.62494990727E+02  0.00000000000E+00 0.  1.
</event>
<event>
 4    1  0.1988088E-002  0.9118800E+02  0.7818608E-02  0.1130116E+00
         25   -1    0    0    0    0  0.00000000000E+00  0.00000000000E+00  0.99999998245E-14  0.12500000000E+03  0.12500000000E+03 0.  0.
        -11    1    1    0    0    0 -0.40147226777E+02  0.46500102305E+01 -0.46480777395E+02  0.61594521514E+02  0.51100000000E-03 0. -1.
         11    1    1    0    0    0 -0.27846740803E+00 -0.54779041194E-01 -0.90553640331E+00  0.94896853453E+00  0.51100000000E-03 0.  1.
         22    1    1    0    0    0  0.40425694185E+02 -0.45952311893E+01  0.47386313798E+02  0.62456509952E+02  0.00000000000E+00 0. -1.
</event>
<event>
 4    1  0.1988088E-002  0.9118800E+02  0.7818608E-02  0.1130116E+00
         25   -1    0    0    0    0  0.00000000000E+00  0.00000000000E+00  0.99999998245E-14  0.12500000000E+03  0.12500000000E+03 0.  0.
        -11    1    1    0    0    0 -0.37751011294E+02  0.18993135655E+02  0.30316879646E+02  0.52009530352E+02  0.51100000000E-03 0.  1.
         11    1    1    0    0    0 -0.76142019477E+01  0.38309352995E+01  0.61153754465E+01  0.10490469660E+02  0.51100000000E-03 0.  1.
         22    1    1    0    0    0  0.45365213241E+02 -0.22824070955E+02 -0.36432255092E+02  0.62499999988E+02  0.00000000000E+00 0.  1.
</event>
<event>
 4    1  0.1988088E-002  0.9118800E+02  0.7818608E-02  0.1130116E+00
         25   -1    0    0    0    0  0.00000000000E+00  0.00000000000E+00  0.99999998245E-14  0.12500000000E+03  0.12500000000E+03 0.  0.
        -11    1    1    0    0    0  0.14097912634E+02  0.18572652408E+02 -0.17327689541E+02  0.29050703661E+02  0.51100000000E-03 0.  1.
         11    1    1    0    0    0  0.16246907201E+02  0.21379783055E+02 -0.19944883357E+02  0.33449297294E+02  0.51100000000E-03 0. -1.
         22    1    1    0    0    0 -0.30344819835E+02 -0.39952435463E+02  0.37272572898E+02  0.62499999045E+02  0.00000000000E+00 0. -1.
</event>
<event>
 4    1  0.1988088E-002  0.9118800E+02  0.7818608E-02  0.1130116E+00
         25   -1    0    0    0    0  0.00000000000E+00  0.00000000000E+00  0.99999998245E-14  0.12500000000E+03  0.12500000000E+03 0.  0.
        -11    1    1    0    0    0 -0.25761691938E+01 -0.36884400492E+00  0.16936140781E+01  0.31049996009E+01  0.51100000000E-03 0.  1.
         11    1    1    0    0    0 -0.55976685208E+02  0.14922945305E+02  0.13904062454E+02  0.59576895995E+02  0.51100000000E-03 0. -1.
         22    1    1    0    0    0  0.58552854402E+02 -0.14554101300E+02 -0.15597676532E+02  0.62318104404E+02  0.00000000000E+00 0. -1.
</event>
<event>
 4    1  0.1988088E-002  0.9118800E+02  0.7818608E-02  0.1130116E+00
         25   -1    0    0    0    0  0.00000000000E+00  0.00000000000E+00  0.99999998245E-14  0.12500000000E+03  0.12500000000E+03 0.  0.
        -11    1    1    0    0    0 -0.76088519674E+01  0.47502450810E+01  0.13627753954E+02  0.16314874645E+02  0.51100000000E-03 0.  1.
         11    1    1    0    0    0 -0.21538810528E+02  0.13446064698E+02  0.38579123757E+02  0.46185125364E+02  0.51100000000E-03 0.  1.
         22    1    1    0    0    0  0.29147662495E+02 -0.18196309779E+02 -0.52206877711E+02  0.62499999991E+02  0.00000000000E+00 0.  1.
</event>
<event>
 4    1  0.1988088E-002  0.9118800E+02  0.7818608E-02  0.1130116E+00
         25   -1    0    0    0    0  0.00000000000E+00  0.00000000000E+00  0.99999998245E-14  0.12500000000E+03  0.12500000000E+03 0.  0.
        -11    1    1    0    0    0  0.27022664994E+02  0.13873491552E+02 -0.25875806382E+01  0.30485960129E+02  0.51100000000E-03 0. -1.
         11    1    1    0    0    0  0.28415982613E+02  0.14499040798E+02 -0.26852012036E+01  0.32014068121E+02  0.51100000000E-03 0.  1.
         22    1    1    0    0    0 -0.55438647606E+02 -0.28372532349E+02  0.52727818418E+01  0.62499971749E+02  0.00000000000E+00 0. -1.
</event>
<event>
 4    1  0.1988088E-002  0.9118800E+02  0.7818608E-02  0.1130116E+00
         25   -1    0    0    0    0  0.00000000000E+00  0.00000000000E+00  0.99999998245E-14  0.12500000000E+03  0.12500000000E+03 0.  0.
        -11    1    1    0    0    0  0.20784231424E+02  0.31908984378E+01  0.35870265985E+02  0.41579346926E+02  0.51100000000E-03 0.  1.
         11    1    1    0    0    0  0.10456445326E+02  0.16082558989E+01  0.18048545429E+02  0.20920653151E+02  0.51100000000E-03 0. -1.
         22    1    1    0    0    0 -0.31240676750E+02 -0.47991543367E+01 -0.53918811414E+02  0.62499999923E+02  0.00000000000E+00 0.  1.
</event>
<event>
 4    1  0.1988088E-002  0.9118800E+02  0.7818608E-02  0.1130116E+00
         25   -1    0    0    0    0  0.00000000000E+00  0.00000000000E+00  0.99999998245E-14  0.12500000000E+03  0.12500000000E+03 0.  0.
        -11    1    1    0    0    0 -0.27291763770E+02  0.92419847313E+01 -0.33156916962E+02  0.43927619946E+02  0.51100000000E-03 0.  1.
         11    1    1    0    0    0 -0.37491375046E+01  0.95553670003E+01 -0.16582426797E+02  0.19502254979E+02  0.51100000000E-03 0. -1.
         22    1    1    0    0    0  0.31040901275E+02 -0.18797351732E+02  0.49739343759E+02  0.61570125074E+02  0.00000000000E+00 0. -1.
</event>
<event>
 4    1  0.1988088E-002  0.9118800E+02  0.7818608E-02  0.1130116E+00
         25   -1    0    0    0    0  0.00000000000E+00  0.00000000000E+00  0.99999998245E-14  0.12500000000E+03  0.12500000000E+03 0.  0.
        -11    1    1    0    0    0 -0.60087336818E+01  0.12607177737E+02 -0.24718852972E+02  0.28391327962E+02  0.51100000000E-03 0. -1.
         11    1    1    0    0    0 -0.20630345307E+02  0.24980871918E+02 -0.15072606776E+02  0.35732878202E+02  0.51100000000E-03 0.  1.
         22    1    1    0    0    0  0.26639078989E+02 -0.37588049655E+02  0.39791459748E+02  0.60875793836E+02  0.00000000000E+00 0.  1.
</event>
<event>
 4    1  0.1988088E-002  0.9118800E+02  0.7818608E-02  0.1130116E+00
         25   -1    0    0    0    0  0.00000000000E+00  0.00000000000E+00  0.99999998245E-14  0.12500000000E+03  0.12500000000E+03 0.  0.
        -11    1    1    0    0    0  0.69225035184E+01  0.22205485989E+02  0.13516364843E+02  0.26901612996E+02  0.51100000000E-03 0.  1.
         11    1    1    0    0    0 -0.29124710470E+01  0.35205409056E+02  0.87452353294E+01  0.36392065833E+02  0.51100000000E-03 0. -1.
         22    1    1    0    0    0 -0.40100324714E+01 -0.57410895044E+02 -0.22261600173E+02  0.61706321171E+02  0.00000000000E+00 0. -1.
</event>
<event>
 4    1  0.1988088E-002  0.9118800E+02  0.7818608E-02  0.1130116E+00
         25   -1    0    0    0    0  0.00000000000E+00  0.00000000000E+00  0.99999998245E-14  0.12500000000E+03  0.12500000000E+03 0.  0.
        -11    1    1    0    0    0  0.61207079836E+01 -0.22587800375E+02 -0.19371559024E+02  0.30379748045E+02  0.51100000000E-03 0. -1.
         11    1    1    0    0    0  0.64630804665E+01 -0.23883461512E+02 -0.20482174206E+02  0.32120252231E+02  0.51100000000E-03 0.  1.
         22    1    1    0    0    0 -0.12583788450E+02  0.46471261887E+02  0.39853733230E+02  0.62499999724E+02  0.00000000000E+00 0. -1.
</event>
<event>
 4    1  0.1988088E-002  0.9118800E+02  0.7818608E-02  0.1130116E+00
         25   -1    0    0    0    0  0.00000000000E+00  0.00000000000E+00  0.99999998245E-14  0.12500000000E+03  0.12500000000E+03 0.  0.
        -11    1    1    0    0    0  0.22090545704E+01 -0.22446806787E+02  0.16180668479E+02  0.27758838047E+02  0.51100000000E-03 0. -1.
         11    1    1    0    0    0  0.57817301898E+01 -0.29796760839E+02  0.17047618389E+02  0.34812306064E+02  0.51100000000E-03 0.  1.
         22    1    1    0    0    0 -0.79907847603E+01  0.52243567627E+02 -0.33228286868E+02  0.62428855889E+02  0.00000000000E+00 0.  1.
</event>
<event>
 4    1  0.1988088E-002  0.9118800E+02  0.7818608E-02  0.1130116E+00
         25   -1    0    0    0    0  0.00000000000E+00  0.00000000000E+00  0.99999998245E-14  0.12500000000E+03  0.12500000000E+03 0.  0.
        -11    1    1    0    0    0  0.32678337072E+01 -0.13078444600E+01 -0.74333881957E+01  0.82246248911E+01  0.51100000000E-03 0.  1.
         11    1    1    0    0    0  0.21534055136E+02 -0.84593989025E+01 -0.49097265698E+02  0.54275394607E+02  0.51100000000E-03 0. -1.
         22    1    1    0    0    0 -0.24801888844E+02  0.97672433625E+01  0.56530653894E+02  0.62499980502E+02  0.00000000000E+00 0. -1.
</event>
<event>
 4    1  0.1988088E-002  0.9118800E+02  0.7818608E-02  0.1130116E+00
         25   -1    0    0    0    0  0.00000000000E+00  0.00000000000E+00  0.99999998245E-14  0.12500000000E+03  0.12500000000E+03 0.  0.
        -11    1    1    0    0    0  0.21921775287E+02 -0.22090734481E+02  0.28288152008E+02  0.42056917694E+02  0.51100000000E-03 0.  1.
         11    1    1    0    0    0  0.10658673525E+02 -0.10739859116E+02  0.13746553311E+02  0.20443082530E+02  0.51100000000E-03 0. -1.
         22    1    1    0    0    0 -0.32580448812E+02  0.32830593597E+02 -0.42034705319E+02  0.62499999776E+02  0.00000000000E+00 0. -1.
</event>
<event>
 4    1  0.1988088E-002  0.9118800E+02  0.7818608E-02  0.1130116E+00
         25   -1    0    0    0    0  0.00000000000E+00  0.00000000000E+00  0.99999998245E-14  0.12500000000E+03  0.12500000000E+03 0.  0.
        -11    1    1    0    0    0  0.54005322068E+01  0.49536888438E-01 -0.77969782987E+01  0.94847811188E+01  0.51100000000E-03 0. -1.
         11    1    1    0    0    0  0.50564675180E+02  0.17423365069E+02  0.17106056233E+02  0.56151377423E+02  0.51100000000E-03 0.  1.
         22    1    1    0    0    0 -0.55965207387E+02 -0.17472901958E+02 -0.93090779342E+01  0.59363841458E+02  0.00000000000E+00 0.  1.
</event>
<event>
 4    1  0.1988088E-002  0.9118800E+02  0.7818608E-02  0.1130116E+00
         25   -1    0    0    0    0  0.00000000000E+00  0.00000000000E+00  0.99999998245E-14  0.12500000000E+03  0.12500000000E+03 0.  0.
        -11    1    1    0    0    0  0.85590280896E+01  0.13216802509E+02 -0.92461040106E+01  0.18260100494E+02  0.51100000000E-03 0. -1.
         11    1    1    0    0    0 -0.14909271524E+02  0.33867016852E+02 -0.27973028009E+02  0.46386975587E+02  0.51100000000E-03 0.  1.
         22    1    1    0    0    0  0.63502434343E+01 -0.47083819361E+02  0.37219132020E+02  0.60352923919E+02  0.00000000000E+00 0.  1.
</event>
<event>
 4    1  0.1988088E-002  0.9118800E+02  0.7818608E-02  0.1130116E+00
         25   -1    0    0    0    0  0.00000000000E+00  0.00000000000E+00  0.99999998245E-14  0.12500000000E+03  0.12500000000E+03 0.  0.
        -11    1    1    0    0    0 -0.99145985916E+01 -0.41808660011E+02 -0.27917635043E+02  0.51241171570E+02  0.51100000000E-03 0. -1.
         11    1    1    0    0    0 -0.21196237859E+01 -0.92988276980E+01 -0.59846458656E+01  0.11259528762E+02  0.51100000000E-03 0.  1.
         22    1    1    0    0    0  0.12034222377E+02  0.51107487709E+02  0.33902280909E+02  0.62499299668E+02  0.00000000000E+00 0. -1.
</event>
<event>
 4    1  0.1988088E-002  0.9118800E+02  0.7818608E-02  0.1130116E+00
         25   -1    0    0    0    0  0.00000000000E+00  0.00000000000E+00  0.99999998245E-14  0.12500000000E+03  0.12500000000E+03 0.  0.
        -11    1    1    0    0    0  0.41352431140E+01  0.26915244849E+02 -0.82197762221E+01  0.28444601637E+02  0.51100000000E-03 0.  1.
         11    1    1    0    0    0  0.49500150466E+01  0.32224698973E+02 -0.98405429301E+01  0.34055398372E+02  0.51100000000E-03 0.  1.
         22    1    1    0    0    0 -0.90852581606E+01 -0.59139943821E+02  0.18060319152E+02  0.62499999991E+02  0.00000000000E+00 0.  1.
</event>
<event>
 4    1  0.1988088E-002  0.9118800E+02  0.7818608E-02  0.1130116E+00
         25   -1    0    0    0    0  0.00000000000E+00  0.00000000000E+00  0.99999998245E-14  0.12500000000E+03  0.12500000000E+03 0.  0.
        -11    1    1    0    0    0  0.38607205958E+01 -0.63331271486E+01 -0.84745869747E+01  0.11261984179E+02  0.51100000000E-03 0.  1.
         11    1    1    0    0    0  0.19591036304E+02 -0.54580515784E+01 -0.47633541992E+02  0.51793371714E+02  0.51100000000E-03 0. -1.
         22    1    1    0    0    0 -0.23451756900E+02  0.11791178727E+02  0.56108128967E+02  0.61944644107E+02  0.00000000000E+00 0. -1.
</event>
<event>
 4    1  0.1988088E-002  0.9118800E+02  0.7818608E-02  0.1130116E+00
         25   -1    0    0    0    0  0.00000000000E+00  0.00000000000E+00  0.99999998245E-14  0.12500000000E+03  0.12500000000E+03 0.  0.
        -11    1    1    0    0    0 -0.21467364852E+02 -0.39938209324E+02  0.81733411195E+01  0.46072896838E+02  0.51100000000E-03 0. -1.
         11    1    1    0    0    0 -0.21515827972E+02  0.58337830111E+01  0.41872851849E+01  0.22682531495E+02  0.51100000000E-03 0.  1.
         22    1    1    0    0    0  0.42983192823E+02  0.34104426313E+02 -0.12360626304E+02  0.56244571668E+02  0.00000000000E+00 0. -1.
</event>
<event>
 4    1  0.1988088E-002  0.9118800E+02  0.7818608E-02  0.1130116E+00
         25   -1    0    0    0    0  0.00000000000E+00  0.00000000000E+00  0.99999998245E-14  0.12500000000E+03  0.12500000000E+03 0.  0.
        -11    1    1    0    0    0  0.16901762089E+01  0.29590126469E+02  0.15031150562E+02  0.33232029242E+02  0.51100000000E-03 0. -1.
         11    1    1    0    0    0  0.18563151440E+01  0.26097042485E+02  0.13120692019E+02  0.29268653739E+02  0.51100000000E-03 0.  1.
         22    1    1    0    0    0 -0.35464913528E+01 -0.55687168955E+02 -0.28151842580E+02  0.62499317018E+02  0.00000000000E+00 0.  1.
</event>
<event>
 4    1  0.1988088E-002  0.9118800E+02  0.7818608E-02  0.1130116E+00
         25   -1    0    0    0    0  0.00000000000E+00  0.00000000000E+00  0.99999998245E-14  0.12500000000E+03  0.12500000000E+03 0.  0.
        -11    1    1    0    0    0 -0.82767977831E+01  0.33036676454E+01 -0.25800271260E+00  0.89155015066E+01  0.51100000000E-03 0. -1.
         11    1    1    0    0    0 -0.49728088734E+02  0.19899888143E+02 -0.15525084977E+01  0.53584499998E+02  0.51100000000E-03 0.  1.
         22    1    1    0    0    0  0.58004886517E+02 -0.23203555788E+02  0.18105112103E+01  0.62499998495E+02  0.00000000000E+00 0.  1.
</event>
<event>
 4    1  0.1988088E-002  0.9118800E+02  0.7818608E-02  0.1130116E+00
         25   -1    0    0    0    0  0.00000000000E+00  0.00000000000E+00  0.99999998245E-14  0.12500000000E+03  0.12500000000E+03 0.  0.
        -11    1    1    0    0    0  0.11092825320E+01  0.70876023086E+00 -0.21889616787E+01  0.25542909569E+01  0.51100000000E-03 0.  1.
         11    1    1    0    0    0  0.26008018854E+02  0.16649146112E+02 -0.51379732813E+02  0.59945709230E+02  0.51100000000E-03 0. -1.
         22    1    1    0    0    0 -0.27117301386E+02 -0.17357906343E+02  0.53568694492E+02  0.62499999813E+02  0.00000000000E+00 0. -1.
</event>
<event>
 4    1  0.1988088E-002  0.9118800E+02  0.7818608E-02  0.1130116E+00
         25   -1    0    0    0    0  0.00000000000E+00  0.00000000000E+00  0.99999998245E-14  0.12500000000E+03  0.12500000000E+03 0.  0.
        -11    1    1    0    0    0  0.18210888654E+02 -0.26134856390E+02  0.12608776129E+02  0.34258552507E+02  0.51100000000E-03 0.  1.
         11    1    1    0    0    0  0.15975911835E+02 -0.20390725486E+02  0.11287430360E+02  0.28256283004E+02  0.51100000000E-03 0. -1.
         22    1    1    0    0    0 -0.34186800490E+02  0.46525581877E+02 -0.23896206489E+02  0.62485164489E+02  0.00000000000E+00 0.  1.
</event>
<event>
 4    1  0.1988088E-002  0.9118800E+02  0.7818608E-02  0.1130116E+00
         25   -1    0    0    0    0  0.00000000000E+00  0.00000000000E+00  0.99999998245E-14  0.12500000000E+03  0.12500000000E+03 0.  0.
        -11    1    1    0    0    0  0.29108104621E+01 -0.15883122913E+02 -0.43172996005E+02  0.46093969186E+02  0.51100000000E-03 0. -1.
         11    1    1    0    0    0  0.28723530902E+02  0.15181326506E+02  0.12420629899E+02  0.34781977363E+02  0.51100000000E-03 0.  1.
         22    1    1    0    0    0 -0.31634341364E+02  0.70179640769E+00  0.30752366106E+02  0.44124053450E+02  0.00000000000E+00 0. -1.
</event>
<event>
 4    1  0.1988088E-002  0.9118800E+02  0.7818608E-02  0.1130116E+00
         25   -1    0    0    0    0  0.00000000000E+00  0.00000000000E+00  0.99999998245E-14  0.12500000000E+03  0.12500000000E+03 0.  0.
        -11    1    1    0    0    0  0.28797778130E+01  0.20174542493E-01  0.14022735830E+01  0.32031076671E+01  0.51100000000E-03 0. -1.
         11    1    1    0    0    0  0.55780714164E+02  0.34480586050E+01  0.19851919152E+02  0.59308312024E+02  0.51100000000E-03 0.  1.
         22    1    1    0    0    0 -0.58660491977E+02 -0.34682331475E+01 -0.21254192735E+02  0.62488580309E+02  0.00000000000E+00 0.  1.
</event>
<event>
 4    1  0.1988088E-002  0.9118800E+02  0.7818608E-02  0.1130116E+00
         25   -1    0    0    0    0  0.00000000000E+00  0.00000000000E+00  0.99999998245E-14  0.12500000000E+03  0.12500000000E+03 0.  0.
        -11    1    1    0    0    0 -0.25944025225E+02 -0.21927891869E+02 -0.11193908336E+02  0.35766303567E+02  0.51100000000E-03 0. -1.
         11    1    1    0    0    0 -0.19395310509E+02 -0.16387599814E+02 -0.83641517646E+01  0.26733696572E+02  0.51100000000E-03 0.  1.
         22    1    1    0    0    0  0.45339335734E+02  0.38315491683E+02  0.19558060101E+02  0.62499999861E+02  0.00000000000E+00 0.  1.
</event>
<event>
 4    1  0.1988088E-002  0.9118800E+02  0.7818608E-02  0.1130116E+00
         25   -1    0    0    0    0  0.00000000000E+00  0.00000000000E+00  0.99999998245E-14  0.12500000000E+03  0.12500000000E+03 0.  0.
        -11    1    1    0    0    0 -0.62232515249E+01  0.99739832947E+01 -0.41689770410E+00  0.11763630658E+02  0.51100000000E-03 0.  1.
         11    1    1    0    0    0 -0.26847761540E+02  0.43014304450E+02 -0.17738512408E+01  0.50736369948E+02  0.51100000000E-03 0. -1.
         22    1    1    0    0    0  0.33071013065E+02 -0.52988287745E+02  0.21907489449E+01  0.62499999394E+02  0.00000000000E+00 0. -1.
</event>
<event>
 4    1  0.1988088E-002  0.9118800E+02  0.7818608E-02  0.1130116E+00
         25   -1    0    0    0    0  0.00000000000E+00  0.00000000000E+00  0.99999998245E-14  0.12500000000E+03  0.12500000000E+03 0.  0.
        -11    1    1    0    0    0  0.85730121466E+01  0.98610606897E+01  0.64679369777E+01  0.14579823874E+02  0.51100000000E-03 0.  1.
         11    1    1    0    0    0  0.20894325334E+02  0.27509131180E+02  0.33613708510E+02  0.48199652795E+02  0.51100000000E-03 0. -1.
         22    1    1    0    0    0 -0.29467337480E+02 -0.37370191870E+02 -0.40081645488E+02  0.62220523331E+02  0.00000000000E+00 0. -1.
</event>
<event>
 4    1  0.1988088E-002  0.9118800E+02  0.7818608E-02  0.1130116E+00
         25   -1    0    0    0    0  0.00000000000E+00  0.00000000000E+00  0.99999998245E-14  0.12500000000E+03  0.12500000000E+03 0.  0.
        -11    1    1    0    0    0  0.13119781046E+02 -0.40891212986E+02 -0.24191271647E+02  0.49289325197E+02  0.51100000000E-03 0.  1.
         11    1    1    0    0    0  0.35182301669E+01 -0.10947596805E+02 -0.65034083835E+01  0.13210682805E+02  0.51100000000E-03 0. -1.
         22    1    1    0    0    0 -0.16638011213E+02  0.51838809791E+02  0.30694680031E+02  0.62499991999E+02  0.00000000000E+00 0.  1.
</event>
<event>
 4    1  0.1988088E-002  0.9118800E+02  0.7818608E-02  0.1130116E+00
         25   -1    0    0    0    0  0.00000000000E+00  0.00000000000E+00  0.99999998245E-14  0.12500000000E+03  0.12500000000E+03 0.  0.
        -11    1    1    0    0    0 -0.18713003230E+01  0.36880510024E+02 -0.22620165499E+02  0.43305261482E+02  0.51100000000E-03 0. -1.
         11    1    1    0    0    0 -0.83183085664E+00  0.16346920649E+02 -0.10026177308E+02  0.19194738575E+02  0.51100000000E-03 0.  1.
         22    1    1    0    0    0  0.27031311796E+01 -0.53227430674E+02  0.32646342807E+02  0.62499999943E+02  0.00000000000E+00 0. -1.
</event>
<event>
 4    1  0.1988088E-002  0.9118800E+02  0.7818608E-02  0.1130116E+00
         25   -1    0    0    0    0  0.00000000000E+00  0.00000000000E+00  0.99999998245E-14  0.12500000000E+03  0.12500000000E+03 0.  0.
        -11    1    1    0    0    0  0.46772901886E+01 -0.19047660324E+01  0.55826852673E+01  0.75280510228E+01  0.51100000000E-03 0.  1.
         11    1    1    0    0    0  0.34340424377E+02 -0.13781566464E+02  0.40653691986E+02  0.54971983709E+02  0.51100000000E-03 0. -1.
         22    1    1    0    0    0 -0.39017714565E+02  0.15686332497E+02 -0.46236377253E+02  0.62499965268E+02  0.00000000000E+00 0. -1.
</event>
<event>
 4    1  0.1988088E-002  0.9118800E+02  0.7818608E-02  0.1130116E+00
         25   -1    0    0    0    0  0.00000000000E+00  0.00000000000E+00  0.99999998245E-14  0.12500000000E+03  0.12500000000E+03 0.  0.
        -11    1    1    0    0    0  0.10688831500E+02  0.15994628227E+02  0.20420342963E+02  0.28054761770E+02  0.51100000000E-03 0. -1.
         11    1    1    0    0    0  0.13447905432E+02  0.19200495273E+02  0.25239693846E+02  0.34446296244E+02  0.51100000000E-03 0.  1.
         22    1    1    0    0    0 -0.24136736932E+02 -0.35195123500E+02 -0.45660036809E+02  0.62498941986E+02  0.00000000000E+00 0.  1.
</event>
<event>
 4    1  0.1988088E-002  0.9118800E+02  0.7818608E-02  0.1130116E+00
         25   -1    0    0    0    0  0.00000000000E+00  0.00000000000E+00  0.99999998245E-14  0.12500000000E+03  0.12500000000E+03 0.  0.
        -11    1    1    0    0    0  0.69631527822E+01  0.11576648442E+02  0.14097396302E+02  0.19525390356E+02  0.51100000000E-03 0. -1.
         11    1    1    0    0    0  0.15413002555E+02  0.26208768330E+02  0.30372818701E+02  0.42976369103E+02  0.51100000000E-03 0.  1.
         22    1    1    0    0    0 -0.22376155337E+02 -0.37785416772E+02 -0.44470215003E+02  0.62498240541E+02  0.00000000000E+00 0.  1.
</event>
<event>
 4    1  0.1988088E-002  0.9118800E+02  0.7818608E-02  0.1130116E+00
         25   -1    0    0    0    0  0.00000000000E+00  0.00000000000E+00  0.99999998245E-14  0.12500000000E+03  0.12500000000E+03 0.  0.
        -11    1    1    0    0    0  0.18810877221E+01 -0.26290447641E+02  0.36746325646E+02  0.45221881616E+02  0.51100000000E-03 0. -1.
         11    1    1    0    0    0  0.72136180106E+00 -0.10046156095E+02  0.14038794932E+02  0.17278118490E+02  0.51100000000E-03 0.  1.
         22    1    1    0    0    0 -0.26024495231E+01  0.36336603736E+02 -0.50785120578E+02  0.62499999894E+02  0.00000000000E+00 0.  1.
</event>
<event>
 4    1  0.1988088E-002  0.9118800E+02  0.7818608E-02  0.1130116E+00
         25   -1    0    0    0    0  0.00000000000E+00  0.00000000000E+00  0.99999998245E-14  0.12500000000E+03  0.12500000000E+03 0.  0.
        -11    1    1    0    0    0  0.30561279456E+02 -0.33720843719E+01 -0.10434128724E+02  0.32468966683E+02  0.51100000000E-03 0. -1.
         11    1    1    0    0    0  0.28267536989E+02 -0.31180557985E+01 -0.96481627642E+01  0.30031033355E+02  0.51100000000E-03 0.  1.
         22    1    1    0    0    0 -0.58828816445E+02  0.64901401704E+01  0.20082291488E+02  0.62499999961E+02  0.00000000000E+00 0. -1.
</event>
<event>
 4    1  0.1988088E-002  0.9118800E+02  0.7818608E-02  0.1130116E+00
         25   -1    0    0    0    0  0.00000000000E+00  0.00000000000E+00  0.99999998245E-14  0.12500000000E+03  0.12500000000E+03 0.  0.
        -11    1    1    0    0    0  0.17626755571E+02 -0.91813549582E+01  0.10988012074E+02  0.22709826077E+02  0.51100000000E-03 0. -1.
         11    1    1    0    0    0  0.31134180875E+02 -0.15915121810E+02  0.18991017228E+02  0.39790539787E+02  0.51100000000E-03 0.  1.
         22    1    1    0    0    0 -0.48760936446E+02  0.25096476768E+02 -0.29979029302E+02  0.62499634136E+02  0.00000000000E+00 0.  1.
</event>
<event>
 4    1  0.1988088E-002  0.9118800E+02  0.7818608E-02  0.1130116E+00
         25   -1    0    0    0    0  0.00000000000E+00  0.00000000000E+00  0.99999998245E-14  0.12500000000E+03  0.12500000000E+03 0.  0.
        -11    1    1    0    0    0 -0.31805361640E+01  0.25445146415E-01 -0.12576273130E+01  0.34202462580E+01  0.51100000000E-03 0. -1.
         11    1    1    0    0    0 -0.52865719085E+02 -0.87147145758E+01 -0.24947590296E+02  0.59102561419E+02  0.51100000000E-03 0.  1.
         22    1    1    0    0    0  0.56046255249E+02  0.86892694294E+01  0.26205217609E+02  0.62477192323E+02  0.00000000000E+00 0.  1.
</event>
<event>
 4    1  0.1988088E-002  0.9118800E+02  0.7818608E-02  0.1130116E+00
         25   -1    0    0    0    0  0.00000000000E+00  0.00000000000E+00  0.99999998245E-14  0.12500000000E+03  0.12500000000E+03 0.  0.
        -11    1    1    0    0    0 -0.13640243292E+02  0.57615717478E+01 -0.50007451616E+02  0.52153592047E+02  0.51100000000E-03 0.  1.
         11    1    1    0    0    0 -0.27109820965E+01  0.11402887607E+01 -0.99196012484E+01  0.10346408632E+02  0.51100000000E-03 0. -1.
         22    1    1    0    0    0  0.16351225388E+02 -0.69018605084E+01  0.59927052864E+02  0.62499999321E+02  0.00000000000E+00 0.  1.
</event>
<event>
 4    1  0.1988088E-002  0.9118800E+02  0.7818608E-02  0.1130116E+00
         25   -1    0    0    0    0  0.00000000000E+00  0.00000000000E+00  0.99999998245E-14  0.12500000000E+03  0.12500000000E+03 0.  0.
        -11    1    1    0    0    0 -0.96171137471E+01 -0.23472016901E+01  0.56814922939E+01  0.11413920779E+02  0.51100000000E-03 0. -1.
         11    1    1    0    0    0 -0.43039795422E+02 -0.10509466332E+02  0.25434516387E+02  0.51086079284E+02  0.51100000000E-03 0.  1.
         22    1    1    0    0    0  0.52656909169E+02  0.12856668022E+02 -0.31116008681E+02  0.62499999937E+02  0.00000000000E+00 0.  1.
</event>
<event>
 4    1  0.1988088E-002  0.9118800E+02  0.7818608E-02  0.1130116E+00
         25   -1    0    0    0    0  0.00000000000E+00  0.00000000000E+00  0.99999998245E-14  0.12500000000E+03  0.12500000000E+03 0.  0.
        -11    1    1    0    0    0  0.68508318508E+01  0.14340787392E+02 -0.25820155782E+02  0.30319507334E+02  0.51100000000E-03 0. -1.
         11    1    1    0    0    0  0.72729783036E+01  0.15216251097E+02 -0.27407181627E+02  0.32180492785E+02  0.51100000000E-03 0. -1.
         22    1    1    0    0    0 -0.14123810154E+02 -0.29557038489E+02  0.53227337409E+02  0.62499999882E+02  0.00000000000E+00 0. -1.
</event>
<event>
 4    1  0.1988088E-002  0.9118800E+02  0.7818608E-02  0.1130116E+00
         25   -1    0    0    0    0  0.00000000000E+00  0.00000000000E+00  0.99999998245E-14  0.12500000000E+03  0.12500000000E+03 0.  0.
        -11    1    1    0    0    0 -0.29615762615E+01 -0.12913289180E+02 -0.36319295234E+01  0.13737353593E+02  0.51100000000E-03 0.  1.
         11    1    1    0    0    0 -0.11506613704E+02 -0.45677306056E+02 -0.12613373727E+02  0.48763876430E+02  0.51100000000E-03 0. -1.
         22    1    1    0    0    0  0.14468189966E+02  0.58590595236E+02  0.16245303250E+02  0.62498769977E+02  0.00000000000E+00 0. -1.
</event>
<event>
 4    1  0.1988088E-002  0.9118800E+02  0.7818608E-02  0.1130116E+00
         25   -1    0    0    0    0  0.00000000000E+00  0.00000000000E+00  0.99999998245E-14  0.12500000000E+03  0.12500000000E+03 0.  0.
        -11    1    1    0    0    0 -0.72917362853E+01 -0.80146012637E+00 -0.25158884940E+00  0.73399627791E+01  0.51100000000E-03 0.  1.
         11    1    1    0    0    0 -0.54804430925E+02 -0.59332973593E+01 -0.19750781791E+01  0.55160045328E+02  0.51100000000E-03 0. -1.
         22    1    1    0    0    0  0.62096167210E+02  0.67347574856E+01  0.22266670285E+01  0.62499991893E+02  0.00000000000E+00 0. -1.
</event>
<event>
 4    1  0.1988088E-002  0.9118800E+02  0.7818608E-02  0.1130116E+00
         25   -1    0    0    0    0  0.00000000000E+00  0.00000000000E+00  0.99999998245E-14  0.12500000000E+03  0.12500000000E+03 0.  0.
        -11    1    1    0    0    0  0.28263913496E+02 -0.37060577898E+02  0.24767215707E+02  0.52780206654E+02  0.51100000000E-03 0.  1.
         11    1    1    0    0    0  0.52006221280E+01 -0.68291719282E+01  0.45596424470E+01  0.97197941978E+01  0.51100000000E-03 0. -1.
         22    1    1    0    0    0 -0.33464535624E+02  0.43889749826E+02 -0.29326858154E+02  0.62499999148E+02  0.00000000000E+00 0.  1.
</event>
<event>
 4    1  0.1988088E-002  0.9118800E+02  0.7818608E-02  0.1130116E+00
         25   -1    0    0    0    0  0.00000000000E+00  0.00000000000E+00  0.99999998245E-14  0.12500000000E+03  0.12500000000E+03 0.  0.
        -11    1    1    0    0    0  0.26478542871E+02 -0.40612899227E+02  0.18240236086E+01  0.48516470178E+02  0.51100000000E-03 0. -1.
         11    1    1    0    0    0  0.76312801992E+01 -0.11705873882E+02  0.52458172614E+00  0.13983529850E+02  0.51100000000E-03 0.  1.
         22    1    1    0    0    0 -0.34109823070E+02  0.52318773109E+02 -0.23486053347E+01  0.62499999972E+02  0.00000000000E+00 0. -1.
</event>
<event>
 4    1  0.1988088E-002  0.9118800E+02  0.7818608E-02  0.1130116E+00
         25   -1    0    0    0    0  0.00000000000E+00  0.00000000000E+00  0.99999998245E-14  0.12500000000E+03  0.12500000000E+03 0.  0.
        -11    1    1    0    0    0  0.41958652132E+01  0.10945028767E+02 -0.13269317287E+02  0.17705189102E+02  0.51100000000E-03 0.  1.
         11    1    1    0    0    0  0.10602701147E+02  0.27684788954E+02 -0.33581398354E+02  0.44794811382E+02  0.51100000000E-03 0. -1.
         22    1    1    0    0    0 -0.14798566360E+02 -0.38629817721E+02  0.46850715641E+02  0.62499999517E+02  0.00000000000E+00 0. -1.
</event>
<event>
 4    1  0.1988088E-002  0.9118800E+02  0.7818608E-02  0.1130116E+00
         25   -1    0    0    0    0  0.00000000000E+00  0.00000000000E+00  0.99999998245E-14  0.12500000000E+03  0.12500000000E+03 0.  0.
        -11    1    1    0    0    0  0.44443410863E+01  0.17547360968E+02  0.16917062694E+02  0.24775977380E+02  0.51100000000E-03 0.  1.
         11    1    1    0    0    0  0.67645538735E+01  0.26717312051E+02  0.25759035925E+02  0.37724022643E+02  0.51100000000E-03 0. -1.
         22    1    1    0    0    0 -0.11208894960E+02 -0.44264673020E+02 -0.42676098619E+02  0.62499999977E+02  0.00000000000E+00 0.  1.
</event>
<event>
 4    1  0.1988088E-002  0.9118800E+02  0.7818608E-02  0.1130116E+00
         25   -1    0    0    0    0  0.00000000000E+00  0.00000000000E+00  0.99999998245E-14  0.12500000000E+03  0.12500000000E+03 0.  0.
        -11    1    1    0    0    0 -0.47127924473E+01  0.25898810205E+02 -0.43268138910E+02  0.50646723760E+02  0.51100000000E-03 0. -1.
         11    1    1    0    0    0 -0.12427393680E+01  0.54244811285E+01 -0.10476289913E+02  0.11862632391E+02  0.51100000000E-03 0.  1.
         22    1    1    0    0    0  0.59555318154E+01 -0.31323291333E+02  0.53744428823E+02  0.62490643849E+02  0.00000000000E+00 0. -1.
</event>
<event>
 4    1  0.1988088E-002  0.9118800E+02  0.7818608E-02  0.1130116E+00
         25   -1    0    0    0    0  0.00000000000E+00  0.00000000000E+00  0.99999998245E-14  0.12500000000E+03  0.12500000000E+03 0.  0.
        -11    1    1    0    0    0  0.12516801202E+02 -0.18131966177E+02 -0.31399283695E+02  0.38358226323E+02  0.51100000000E-03 0.  1.
         11    1    1    0    0    0  0.76961295407E+01 -0.11499287323E+02 -0.19783170322E+02  0.24142034858E+02  0.51100000000E-03 0. -1.
         22    1    1    0    0    0 -0.20212930742E+02  0.29631253501E+02  0.51182454017E+02  0.62499738819E+02  0.00000000000E+00 0.  1.
</event>
<event>
 4    1  0.1988088E-002  0.9118800E+02  0.7818608E-02  0.1130116E+00
         25   -1    0    0    0    0  0.00000000000E+00  0.00000000000E+00  0.99999998245E-14  0.12500000000E+03  0.12500000000E+03 0.  0.
        -11    1    1    0    0    0  0.35178991866E+02 -0.16802139618E+02 -0.88767749851E+01  0.39983377782E+02  0.51100000000E-03 0. -1.
         11    1    1    0    0    0  0.19785049276E+02 -0.95143126492E+01 -0.50029039974E+01  0.22516646480E+02  0.51100000000E-03 0.  1.
         22    1    1    0    0    0 -0.54964041142E+02  0.26316452267E+02  0.13879678982E+02  0.62499975738E+02  0.00000000000E+00 0. -1.
</event>
<event>
 4    1  0.1988088E-002  0.9118800E+02  0.7818608E-02  0.1130116E+00
         25   -1    0    0    0    0  0.00000000000E+00  0.00000000000E+00  0.99999998245E-14  0.12500000000E+03  0.12500000000E+03 0.  0.
        -11    1    1    0    0    0 -0.70142839018E+01 -0.12462603040E+02  0.32607314580E+02  0.35605527907E+02  0.51100000000E-03 0. -1.
         11    1    1    0    0    0 -0.52630482562E+01 -0.94202866716E+01  0.24634762495E+02  0.26894479013E+02  0.51100000000E-03 0.  1.
         22    1    1    0    0    0  0.12277332158E+02  0.21882889712E+02 -0.57242077075E+02  0.62499993080E+02  0.00000000000E+00 0. -1.
</event>
<event>
 4    1  0.1988088E-002  0.9118800E+02  0.7818608E-02  0.1130116E+00
         25   -1    0    0    0    0  0.00000000000E+00  0.00000000000E+00  0.99999998245E-14  0.12500000000E+03  0.12500000000E+03 0.  0.
        -11    1    1    0    0    0 -0.14964396301E+01 -0.49401171874E+01  0.21649702399E+01  0.55974267117E+01  0.51100000000E-03 0.  1.
         11    1    1    0    0    0 -0.15228575074E+02 -0.50191232475E+02  0.22064308733E+02  0.56902574953E+02  0.51100000000E-03 0. -1.
         22    1    1    0    0    0  0.16725014704E+02  0.55131349662E+02 -0.24229278973E+02  0.62499998336E+02  0.00000000000E+00 0. -1.
</event>
<event>
 4    1  0.1988088E-002  0.9118800E+02  0.7818608E-02  0.1130116E+00
         25   -1    0    0    0    0  0.00000000000E+00  0.00000000000E+00  0.99999998245E-14  0.12500000000E+03  0.12500000000E+03 0.  0.
        -11    1    1    0    0    0  0.13903437779E+02 -0.25184253671E+02 -0.29944018979E+01  0.28922632281E+02  0.51100000000E-03 0.  1.
         11    1    1    0    0    0  0.26997106817E+02 -0.20530843200E+01 -0.27219309757E+02  0.38392053288E+02  0.51100000000E-03 0. -1.
         22    1    1    0    0    0 -0.40900544596E+02  0.27237337991E+02  0.30213711655E+02  0.57685314432E+02  0.00000000000E+00 0. -1.
</event>
<event>
 4    1  0.1988088E-002  0.9118800E+02  0.7818608E-02  0.1130116E+00
         25   -1    0    0    0    0  0.00000000000E+00  0.00000000000E+00  0.99999998245E-14  0.12500000000E+03  0.12500000000E+03 0.  0.
        -11    1    1    0    0    0 -0.24617939802E+02 -0.45114827184E+02  0.45643611548E+01  0.51596743938E+02  0.51100000000E-03 0.  1.
         11    1    1    0    0    0 -0.52033935425E+01 -0.95331821364E+01  0.96131761226E+00  0.10903256294E+02  0.51100000000E-03 0. -1.
         22    1    1    0    0    0  0.29821333345E+02  0.54648009321E+02 -0.55256787670E+01  0.62499999768E+02  0.00000000000E+00 0.  1.
</event>
<event>
 4    1  0.1988088E-002  0.9118800E+02  0.7818608E-02  0.1130116E+00
         25   -1    0    0    0    0  0.00000000000E+00  0.00000000000E+00  0.99999998245E-14  0.12500000000E+03  0.12500000000E+03 0.  0.
        -11    1    1    0    0    0  0.69761745627E+00 -0.16414792731E+01 -0.30704628183E-01  0.17838350133E+01  0.51100000000E-03 0. -1.
         11    1    1    0    0    0  0.22742210300E+02 -0.56296121799E+02  0.17107577716E+00  0.60716478209E+02  0.51100000000E-03 0.  1.
         22    1    1    0    0    0 -0.23439827756E+02  0.57937601072E+02 -0.14037114898E+00  0.62499686778E+02  0.00000000000E+00 0.  1.
</event>
<event>
 4    1  0.1988088E-002  0.9118800E+02  0.7818608E-02  0.1130116E+00
         25   -1    0    0    0    0  0.00000000000E+00  0.00000000000E+00  0.99999998245E-14  0.12500000000E+03  0.12500000000E+03 0.  0.
        -11    1    1    0    0    0  0.48319238750E+01  0.35587956721E+00  0.29858409181E+00  0.48542034693E+01  0.51100000000E-03 0. -1.
         11    1    1    0    0    0  0.57404093173E+02  0.44693997930E+01  0.28028846623E+01  0.57646002552E+02  0.51100000000E-03 0.  1.
         22    1    1    0    0    0 -0.62236017048E+02 -0.48252793602E+01 -0.31014687541E+01  0.62499793979E+02  0.00000000000E+00 0.  1.
</event>
<event>
 4    1  0.1988088E-002  0.9118800E+02  0.7818608E-02  0.1130116E+00
         25   -1    0    0    0    0  0.00000000000E+00  0.00000000000E+00  0.99999998245E-14  0.12500000000E+03  0.12500000000E+03 0.  0.
        -11    1    1    0    0    0  0.78242445413E+01  0.20170566866E+02  0.44755227880E+02  0.49710169917E+02  0.51100000000E-03 0.  1.
         11    1    1    0    0    0  0.37779815455E-01  0.47927618516E+01  0.11928651952E+02  0.12855533094E+02  0.51100000000E-03 0. -1.
         22    1    1    0    0    0 -0.78620243568E+01 -0.24963328718E+02 -0.56683879832E+02  0.62434296989E+02  0.00000000000E+00 0.  1.
</event>
<event>
 4    1  0.1988088E-002  0.9118800E+02  0.7818608E-02  0.1130116E+00
         25   -1    0    0    0    0  0.00000000000E+00  0.00000000000E+00  0.99999998245E-14  0.12500000000E+03  0.12500000000E+03 0.  0.
        -11    1    1    0    0    0  0.19751575243E+02  0.61258817159E+01  0.49761684386E+01  0.21270011847E+02  0.51100000000E-03 0.  1.
         11    1    1    0    0    0  0.40831711665E+02  0.72403066842E+01 -0.42458401664E+01  0.41685463622E+02  0.51100000000E-03 0. -1.
         22    1    1    0    0    0 -0.60583286908E+02 -0.13366188400E+02 -0.73032827223E+00  0.62044524531E+02  0.00000000000E+00 0.  1.
</event>
<event>
 4    1  0.1988088E-002  0.9118800E+02  0.7818608E-02  0.1130116E+00
         25   -1    0    0    0    0  0.00000000000E+00  0.00000000000E+00  0.99999998245E-14  0.12500000000E+03  0.12500000000E+03 0.  0.
        -11    1    1    0    0    0  0.54922903342E+01  0.62781389571E+01 -0.32891529945E+01  0.89665383266E+01  0.51100000000E-03 0. -1.
         11    1    1    0    0    0  0.26928732250E+02  0.35342953033E+02 -0.30035117208E+02  0.53631979412E+02  0.51100000000E-03 0.  1.
         22    1    1    0    0    0 -0.32421022584E+02 -0.41621091990E+02  0.33324270202E+02  0.62401482261E+02  0.00000000000E+00 0.  1.
</event>
<event>
 4    1  0.1988088E-002  0.9118800E+02  0.7818608E-02  0.1130116E+00
         25   -1    0    0    0    0  0.00000000000E+00  0.00000000000E+00  0.99999998245E-14  0.12500000000E+03  0.12500000000E+03 0.  0.
        -11    1    1    0    0    0 -0.58658355399E+01 -0.12530189730E+01 -0.15871987918E+00  0.60002729429E+01  0.51100000000E-03 0. -1.
         11    1    1    0    0    0 -0.50561255699E+02 -0.24231125200E+02  0.78283300153E+01  0.56611577945E+02  0.51100000000E-03 0.  1.
         22    1    1    0    0    0  0.56427091239E+02  0.25484144174E+02 -0.76696101361E+01  0.62388149112E+02  0.00000000000E+00 0.  1.
</event>
<event>
 4    1  0.1988088E-002  0.9118800E+02  0.7818608E-02  0.1130116E+00
         25   -1    0    0    0    0  0.00000000000E+00  0.00000000000E+00  0.99999998245E-14  0.12500000000E+03  0.12500000000E+03 0.  0.
        -11    1    1    0    0    0  0.16457637220E+02 -0.39142605005E+01 -0.68784939187E+01  0.18261679468E+02  0.51100000000E-03 0.  1.
         11    1    1    0    0    0  0.39867307329E+02 -0.94832479558E+01 -0.16664177709E+02  0.44238320543E+02  0.51100000000E-03 0. -1.
         22    1    1    0    0    0 -0.56324944549E+02  0.13397508456E+02  0.23542671628E+02  0.62499999989E+02  0.00000000000E+00 0. -1.
</event>
<event>
 4    1  0.1988088E-002  0.9118800E+02  0.7818608E-02  0.1130116E+00
         25   -1    0    0    0    0  0.00000000000E+00  0.00000000000E+00  0.99999998245E-14  0.12500000000E+03  0.12500000000E+03 0.  0.
        -11    1    1    0    0    0 -0.89866295563E-01 -0.19864521347E-01  0.16673887369E+00  0.19045383537E+00  0.51100000000E-03 0. -1.
         11    1    1    0    0    0 -0.35501824252E+02  0.34899970265E+01  0.51089597522E+02  0.62311367981E+02  0.51100000000E-03 0.  1.
         22    1    1    0    0    0  0.35591690547E+02 -0.34701325051E+01 -0.51256336395E+02  0.62498178184E+02  0.00000000000E+00 0.  1.
</event>
<event>
 4    1  0.1988088E-002  0.9118800E+02  0.7818608E-02  0.1130116E+00
         25   -1    0    0    0    0  0.00000000000E+00  0.00000000000E+00  0.99999998245E-14  0.12500000000E+03  0.12500000000E+03 0.  0.
        -11    1    1    0    0    0  0.61772405432E+01 -0.14522902178E+01 -0.18845859104E+02  0.19885518682E+02  0.51100000000E-03 0. -1.
         11    1    1    0    0    0  0.13248062867E+02 -0.31254508421E+01 -0.40382105606E+02  0.42614481882E+02  0.51100000000E-03 0.  1.
         22    1    1    0    0    0 -0.19425303410E+02  0.45777410599E+01  0.59227964710E+02  0.62499999436E+02  0.00000000000E+00 0.  1.
</event>
<event>
 4    1  0.1988088E-002  0.9118800E+02  0.7818608E-02  0.1130116E+00
         25   -1    0    0    0    0  0.00000000000E+00  0.00000000000E+00  0.99999998245E-14  0.12500000000E+03  0.12500000000E+03 0.  0.
        -11    1    1    0    0    0 -0.35331217028E+02 -0.16563002678E+02  0.22411334881E+01  0.39085171535E+02  0.51100000000E-03 0. -1.
         11    1    1    0    0    0 -0.19921073031E+02 -0.11921514355E+02  0.35396800898E+01  0.23484058223E+02  0.51100000000E-03 0.  1.
         22    1    1    0    0    0  0.55252290059E+02  0.28484517033E+02 -0.57808135779E+01  0.62430770242E+02  0.00000000000E+00 0. -1.
</event>
<event>
 4    1  0.1988088E-002  0.9118800E+02  0.7818608E-02  0.1130116E+00
         25   -1    0    0    0    0  0.00000000000E+00  0.00000000000E+00  0.99999998245E-14  0.12500000000E+03  0.12500000000E+03 0.  0.
        -11    1    1    0    0    0 -0.15557142333E+02 -0.15173739441E+02  0.29556058970E+01  0.21931772675E+02  0.51100000000E-03 0.  1.
         11    1    1    0    0    0 -0.28774460204E+02 -0.28071480302E+02  0.54592596975E+01  0.40568227508E+02  0.51100000000E-03 0. -1.
         22    1    1    0    0    0  0.44331602537E+02  0.43245219743E+02 -0.84148655945E+01  0.62499999817E+02  0.00000000000E+00 0. -1.
</event>
<event>
 4    1  0.1988088E-002  0.9118800E+02  0.7818608E-02  0.1130116E+00
         25   -1    0    0    0    0  0.00000000000E+00  0.00000000000E+00  0.99999998245E-14  0.12500000000E+03  0.12500000000E+03 0.  0.
        -11    1    1    0    0    0 -0.24481207690E+01 -0.91434587039E+01 -0.94019209460E+00  0.95121024913E+01  0.51100000000E-03 0.  1.
         11    1    1    0    0    0 -0.13631626401E+02 -0.50937767502E+02 -0.52191872313E+01  0.52987897788E+02  0.51100000000E-03 0. -1.
         22    1    1    0    0    0  0.16079747170E+02  0.60081226205E+02  0.61593793259E+01  0.62499999721E+02  0.00000000000E+00 0. -1.
</event>
<event>
 4    1  0.1988088E-002  0.9118800E+02  0.7818608E-02  0.1130116E+00
         25   -1    0    0    0    0  0.00000000000E+00  0.00000000000E+00  0.99999998245E-14  0.12500000000E+03  0.12500000000E+03 0.  0.
        -11    1    1    0    0    0  0.31568586025E+01  0.17553882335E+01  0.11004383844E+02  0.11582038169E+02  0.51100000000E-03 0. -1.
         11    1    1    0    0    0  0.12539108052E+02  0.12706230538E+02  0.47712424372E+02  0.50942643874E+02  0.51100000000E-03 0.  1.
         22    1    1    0    0    0 -0.15695966654E+02 -0.14461618772E+02 -0.58716808216E+02  0.62475317957E+02  0.00000000000E+00 0.  1.
</event>
<event>
 4    1  0.1988088E-002  0.9118800E+02  0.7818608E-02  0.1130116E+00
         25   -1    0    0    0    0  0.00000000000E+00  0.00000000000E+00  0.99999998245E-14  0.12500000000E+03  0.12500000000E+03 0.  0.
        -11    1    1    0    0    0  0.17748616222E+02  0.18042427541E+02  0.10517895778E+02  0.27407457037E+02  0.51100000000E-03 0. -1.
         11    1    1    0    0    0  0.22726878840E+02  0.23100166852E+02  0.13466916581E+02  0.35092542981E+02  0.51100000000E-03 0.  1.
         22    1    1    0    0    0 -0.40475495062E+02 -0.41142594393E+02 -0.23984812359E+02  0.62499999982E+02  0.00000000000E+00 0.  1.
</event>
<event>
 4    1  0.1988088E-002  0.9118800E+02  0.7818608E-02  0.1130116E+00
         25   -1    0    0    0    0  0.00000000000E+00  0.00000000000E+00  0.99999998245E-14  0.12500000000E+03  0.12500000000E+03 0.  0.
        -11    1    1    0    0    0  0.20622298741E+01  0.28150012796E+01  0.62102498160E+01  0.71234982485E+01  0.51100000000E-03 0.  1.
         11    1    1    0    0    0  0.15674921216E+02  0.21891250497E+02  0.48390442423E+02  0.55376573762E+02  0.51100000000E-03 0. -1.
         22    1    1    0    0    0 -0.17737151090E+02 -0.24706251777E+02 -0.54600692239E+02  0.62499927989E+02  0.00000000000E+00 0. -1.
</event>
<event>
 4    1  0.1988088E-002  0.9118800E+02  0.7818608E-02  0.1130116E+00
         25   -1    0    0    0    0  0.00000000000E+00  0.00000000000E+00  0.99999998245E-14  0.12500000000E+03  0.12500000000E+03 0.  0.
        -11    1    1    0    0    0  0.45099709229E-01 -0.27545099995E+00  0.14799017198E+00  0.31592497412E+00  0.51100000000E-03 0.  1.
         11    1    1    0    0    0  0.19426710813E+02 -0.57184773548E+02  0.14838582316E+02  0.62190666053E+02  0.51100000000E-03 0. -1.
         22    1    1    0    0    0 -0.19471810522E+02  0.57460224548E+02 -0.14986572488E+02  0.62493408973E+02  0.00000000000E+00 0. -1.
</event>
<event>
 4    1  0.1988088E-002  0.9118800E+02  0.7818608E-02  0.1130116E+00
         25   -1    0    0    0    0  0.00000000000E+00  0.00000000000E+00  0.99999998245E-14  0.12500000000E+03  0.12500000000E+03 0.  0.
        -11    1    1    0    0    0 -0.15930691374E+02 -0.32815622212E+01  0.11729628733E+02  0.20053422868E+02  0.51100000000E-03 0.  1.
         11    1    1    0    0    0 -0.33585902124E+02 -0.64643300931E+01  0.25138957139E+02  0.42447232552E+02  0.51100000000E-03 0. -1.
         22    1    1    0    0    0  0.49516593498E+02  0.97458923143E+01 -0.36868585872E+02  0.62499344579E+02  0.00000000000E+00 0. -1.
</event>
<event>
 4    1  0.1988088E-002  0.9118800E+02  0.7818608E-02  0.1130116E+00
         25   -1    0    0    0    0  0.00000000000E+00  0.00000000000E+00  0.99999998245E-14  0.12500000000E+03  0.12500000000E+03 0.  0.
        -11    1    1    0    0    0 -0.23839021368E+02 -0.16990059423E+02  0.10550792888E+02  0.31117202474E+02  0.51100000000E-03 0. -1.
         11    1    1    0    0    0  0.24402681031E+01 -0.31258762452E+02  0.15552866931E+02  0.34999382972E+02  0.51100000000E-03 0.  1.
         22    1    1    0    0    0  0.21398753265E+02  0.48248821874E+02 -0.26103659819E+02  0.58883414554E+02  0.00000000000E+00 0. -1.
</event>
<event>
 4    1  0.1988088E-002  0.9118800E+02  0.7818608E-02  0.1130116E+00
         25   -1    0    0    0    0  0.00000000000E+00  0.00000000000E+00  0.99999998245E-14  0.12500000000E+03  0.12500000000E+03 0.  0.
        -11    1    1    0    0    0 -0.35720003138E+01 -0.31306024074E+01  0.82863844573E+01  0.95511269131E+01  0.51100000000E-03 0.  1.
         11    1    1    0    0    0 -0.19829307140E+02 -0.17342834506E+02  0.45930468134E+02  0.52948873771E+02  0.51100000000E-03 0. -1.
         22    1    1    0    0    0  0.23401307454E+02  0.20473436913E+02 -0.54216852591E+02  0.62499999316E+02  0.00000000000E+00 0. -1.
</event>
<event>
 4    1  0.1988088E-002  0.9118800E+02  0.7818608E-02  0.1130116E+00
         25   -1    0    0    0    0  0.00000000000E+00  0.00000000000E+00  0.99999998245E-14  0.12500000000E+03  0.12500000000E+03 0.  0.
        -11    1    1    0    0    0  0.17185992862E+02  0.10333862037E+02  0.13377921262E+02  0.24106344243E+02  0.51100000000E-03 0. -1.
         11    1    1    0    0    0  0.27395413873E+02  0.16486677886E+02  0.21254513403E+02  0.38393666004E+02  0.51100000000E-03 0.  1.
         22    1    1    0    0    0 -0.44581406735E+02 -0.26820539923E+02 -0.34632434665E+02  0.62499989752E+02  0.00000000000E+00 0. -1.
</event>
<event>
 4    1  0.1988088E-002  0.9118800E+02  0.7818608E-02  0.1130116E+00
         25   -1    0    0    0    0  0.00000000000E+00  0.00000000000E+00  0.99999998245E-14  0.12500000000E+03  0.12500000000E+03 0.  0.
        -11    1    1    0    0    0  0.32791630687E+02  0.15411570484E+02  0.20952601105E+02  0.41854737381E+02  0.51100000000E-03 0.  1.
         11    1    1    0    0    0  0.84152985177E+00 -0.37984425314E+02 -0.10362642585E+01  0.38007875273E+02  0.51100000000E-03 0. -1.
         22    1    1    0    0    0 -0.33633160539E+02  0.22572854830E+02 -0.19916336847E+02  0.45137387346E+02  0.00000000000E+00 0. -1.
</event>
<event>
 4    1  0.1988088E-002  0.9118800E+02  0.7818608E-02  0.1130116E+00
         25   -1    0    0    0    0  0.00000000000E+00  0.00000000000E+00  0.99999998245E-14  0.12500000000E+03  0.12500000000E+03 0.  0.
        -11    1    1    0    0    0 -0.94029003891E+01  0.48955519023E+01  0.28620626888E+01  0.10980544943E+02  0.51100000000E-03 0. -1.
         11    1    1    0    0    0 -0.43060683318E+02  0.32028022382E+00  0.29463011086E+02  0.52176566098E+02  0.51100000000E-03 0.  1.
         22    1    1    0    0    0  0.52463583707E+02 -0.52158321261E+01 -0.32325073775E+02  0.61842888959E+02  0.00000000000E+00 0.  1.
</event>
<event>
 4    1  0.1988088E-002  0.9118800E+02  0.7818608E-02  0.1130116E+00
         25   -1    0    0    0    0  0.00000000000E+00  0.00000000000E+00  0.99999998245E-14  0.12500000000E+03  0.12500000000E+03 0.  0.
        -11    1    1    0    0    0 -0.29632217548E+02 -0.18142535693E+02 -0.15604051065E+02  0.38088138943E+02  0.51100000000E-03 0. -1.
         11    1    1    0    0    0 -0.18990612438E+02 -0.11624924803E+02 -0.10007833952E+02  0.24411861422E+02  0.51100000000E-03 0.  1.
         22    1    1    0    0    0  0.48622829986E+02  0.29767460496E+02  0.25611885018E+02  0.62499999635E+02  0.00000000000E+00 0.  1.
</event>
<event>
 4    1  0.1988088E-002  0.9118800E+02  0.7818608E-02  0.1130116E+00
         25   -1    0    0    0    0  0.00000000000E+00  0.00000000000E+00  0.99999998245E-14  0.12500000000E+03  0.12500000000E+03 0.  0.
        -11    1    1    0    0    0  0.23339017176E+02  0.78152604774E+00 -0.14002832204E+02  0.27228657986E+02  0.51100000000E-03 0.  1.
         11    1    1    0    0    0  0.30232407058E+02  0.10119891008E+01 -0.18139597825E+02  0.35271342021E+02  0.51100000000E-03 0. -1.
         22    1    1    0    0    0 -0.53571424234E+02 -0.17935151485E+01  0.32142430029E+02  0.62499999993E+02  0.00000000000E+00 0.  1.
</event>
<event>
 4    1  0.1988088E-002  0.9118800E+02  0.7818608E-02  0.1130116E+00
         25   -1    0    0    0    0  0.00000000000E+00  0.00000000000E+00  0.99999998245E-14  0.12500000000E+03  0.12500000000E+03 0.  0.
        -11    1    1    0    0    0 -0.22477357759E+02 -0.28201459295E+02  0.25643851643E+02  0.44251113495E+02  0.51100000000E-03 0.  1.
         11    1    1    0    0    0 -0.92696696629E+01 -0.11629972192E+02  0.10575387926E+02  0.18248886511E+02  0.51100000000E-03 0.  1.
         22    1    1    0    0    0  0.31747027421E+02  0.39831431486E+02 -0.36219239569E+02  0.62499999995E+02  0.00000000000E+00 0.  1.
</event>
<event>
 4    1  0.1988088E-002  0.9118800E+02  0.7818608E-02  0.1130116E+00
         25   -1    0    0    0    0  0.00000000000E+00  0.00000000000E+00  0.99999998245E-14  0.12500000000E+03  0.12500000000E+03 0.  0.
        -11    1    1    0    0    0 -0.29921726527E+02 -0.32284600179E+02  0.39355268272E+01  0.44193817427E+02  0.51100000000E-03 0.  1.
         11    1    1    0    0    0  0.13783947543E+02 -0.20945259877E+02 -0.52595694231E+00  0.25079428864E+02  0.51100000000E-03 0. -1.
         22    1    1    0    0    0  0.16137778984E+02  0.53229860057E+02 -0.34095698849E+01  0.55726753709E+02  0.00000000000E+00 0.  1.
</event>
<event>
 4    1  0.1988088E-002  0.9118800E+02  0.7818608E-02  0.1130116E+00
         25   -1    0    0    0    0  0.00000000000E+00  0.00000000000E+00  0.99999998245E-14  0.12500000000E+03  0.12500000000E+03 0.  0.
        -11    1    1    0    0    0  0.22583442657E+01 -0.57665370951E+01  0.15011456317E+02  0.16238746562E+02  0.51100000000E-03 0.  1.
         11    1    1    0    0    0  0.66290800588E+01 -0.16782393430E+02  0.42597360033E+02  0.46261523037E+02  0.51100000000E-03 0. -1.
         22    1    1    0    0    0 -0.88874243245E+01  0.22548930525E+02 -0.57608816350E+02  0.62499730401E+02  0.00000000000E+00 0. -1.
</event>
<event>
 4    1  0.1988088E-002  0.9118800E+02  0.7818608E-02  0.1130116E+00
         25   -1    0    0    0    0  0.00000000000E+00  0.00000000000E+00  0.99999998245E-14  0.12500000000E+03  0.12500000000E+03 0.  0.
        -11    1    1    0    0    0  0.23980156998E+01 -0.23169530030E+01 -0.15426200010E+02  0.15782471211E+02  0.51100000000E-03 0.  1.
         11    1    1    0    0    0  0.28800824981E+01 -0.88863489321E+01 -0.45804307687E+02  0.46747156871E+02  0.51100000000E-03 0. -1.
         22    1    1    0    0    0 -0.52780981979E+01  0.11203301935E+02  0.61230507697E+02  0.62470371919E+02  0.00000000000E+00 0. -1.
</event>
<event>
 4    1  0.1988088E-002  0.9118800E+02  0.7818608E-02  0.1130116E+00
         25   -1    0    0    0    0  0.00000000000E+00  0.00000000000E+00  0.99999998245E-14  0.12500000000E+03  0.12500000000E+03 0.  0.
        -11    1    1    0    0    0 -0.49689709562E+02 -0.26425571718E+02 -0.17890323624E+02  0.59054565924E+02  0.51100000000E-03 0. -1.
         11    1    1    0    0    0 -0.28816595530E+01 -0.15550675304E+01 -0.10721124310E+01  0.34455220402E+01  0.51100000000E-03 0.  1.
         22    1    1    0    0    0  0.52571369114E+02  0.27980639248E+02  0.18962436055E+02  0.62499912035E+02  0.00000000000E+00 0. -1.
</event>
<event>
 4    1  0.1988088E-002  0.9118800E+02  0.7818608E-02  0.1130116E+00
         25   -1    0    0    0    0  0.00000000000E+00  0.00000000000E+00  0.99999998245E-14  0.12500000000E+03  0.12500000000E+03 0.  0.
        -11    1    1    0    0    0  0.48332300088E+02  0.15836988480E+02 -0.41268310211E+01  0.51027954794E+02  0.51100000000E-03 0.  1.
         11    1    1    0    0    0  0.11066770960E+02  0.29599068095E+01 -0.74236510161E+00  0.11479789807E+02  0.51100000000E-03 0. -1.
         22    1    1    0    0    0 -0.59399071049E+02 -0.18796895289E+02  0.48691961227E+01  0.62492255399E+02  0.00000000000E+00 0.  1.
</event>
<event>
 4    1  0.1988088E-002  0.9118800E+02  0.7818608E-02  0.1130116E+00
         25   -1    0    0    0    0  0.00000000000E+00  0.00000000000E+00  0.99999998245E-14  0.12500000000E+03  0.12500000000E+03 0.  0.
        -11    1    1    0    0    0 -0.13382394943E+02  0.23819619642E+02 -0.92776422286E+01  0.28853724541E+02  0.51100000000E-03 0. -1.
         11    1    1    0    0    0 -0.15656417351E+02  0.27744444513E+02 -0.10825668291E+02  0.33646288054E+02  0.51100000000E-03 0.  1.
         22    1    1    0    0    0  0.29038812295E+02 -0.51564064155E+02  0.20103310520E+02  0.62499987404E+02  0.00000000000E+00 0.  1.
</event>
<event>
 4    1  0.1988088E-002  0.9118800E+02  0.7818608E-02  0.1130116E+00
         25   -1    0    0    0    0  0.00000000000E+00  0.00000000000E+00  0.99999998245E-14  0.12500000000E+03  0.12500000000E+03 0.  0.
        -11    1    1    0    0    0  0.32295007371E+02  0.39567985680E+02 -0.55377808835E+01  0.51373728785E+02  0.51100000000E-03 0.  1.
         11    1    1    0    0    0  0.68750103502E+01  0.86816214920E+01 -0.10835687898E+01  0.11127014003E+02  0.51100000000E-03 0. -1.
         22    1    1    0    0    0 -0.39170017721E+02 -0.48249607172E+02  0.66213496733E+01  0.62499257212E+02  0.00000000000E+00 0.  1.
</event>
<event>
 4    1  0.1988088E-002  0.9118800E+02  0.7818608E-02  0.1130116E+00
         25   -1    0    0    0    0  0.00000000000E+00  0.00000000000E+00  0.99999998245E-14  0.12500000000E+03  0.12500000000E+03 0.  0.
        -11    1    1    0    0    0  0.17961078558E+01 -0.50840130545E+01 -0.37523201074E+00  0.54049969002E+01  0.51100000000E-03 0.  1.
         11    1    1    0    0    0  0.29002398618E+02 -0.48492646860E+02 -0.85797323422E+01  0.57151445585E+02  0.51100000000E-03 0. -1.
         22    1    1    0    0    0 -0.30798506473E+02  0.53576659915E+02  0.89549643529E+01  0.62443557515E+02  0.00000000000E+00 0. -1.
</event>
<event>
 4    1  0.1988088E-002  0.9118800E+02  0.7818608E-02  0.1130116E+00
         25   -1    0    0    0    0  0.00000000000E+00  0.00000000000E+00  0.99999998245E-14  0.12500000000E+03  0.12500000000E+03 0.  0.
        -11    1    1    0    0    0 -0.26545288074E+02  0.50565119292E+02 -0.30888233890E+01  0.57192870518E+02  0.51100000000E-03 0.  1.
         11    1    1    0    0    0 -0.24703878307E+01  0.46882455039E+01 -0.28843208034E+00  0.53071324898E+01  0.51100000000E-03 0. -1.
         22    1    1    0    0    0  0.29015675904E+02 -0.55253364796E+02  0.33772554693E+01  0.62499996992E+02  0.00000000000E+00 0.  1.
</event>
<event>
 4    1  0.1988088E-002  0.9118800E+02  0.7818608E-02  0.1130116E+00
         25   -1    0    0    0    0  0.00000000000E+00  0.00000000000E+00  0.99999998245E-14  0.12500000000E+03  0.12500000000E+03 0.  0.
        -11    1    1    0    0    0  0.35284059917E+01 -0.27564408052E+01  0.87832543914E+00  0.45627919735E+01  0.51100000000E-03 0. -1.
         11    1    1    0    0    0  0.45020763287E+02 -0.35133726369E+02  0.97746572768E+01  0.57937826855E+02  0.51100000000E-03 0.  1.
         22    1    1    0    0    0 -0.48549169279E+02  0.37890167174E+02 -0.10652982716E+02  0.62499381172E+02  0.00000000000E+00 0.  1.
</event>
<event>
 4    1  0.1988088E-002  0.9118800E+02  0.7818608E-02  0.1130116E+00
         25   -1    0    0    0    0  0.00000000000E+00  0.00000000000E+00  0.99999998245E-14  0.12500000000E+03  0.12500000000E+03 0.  0.
        -11    1    1    0    0    0  0.38065496762E+02  0.12609069856E+02  0.35437381291E+02  0.53514284817E+02  0.51100000000E-03 0. -1.
         11    1    1    0    0    0  0.63325973094E+01  0.21527718000E+01  0.60008321997E+01  0.89858890744E+01  0.51100000000E-03 0.  1.
         22    1    1    0    0    0 -0.44398094072E+02 -0.14761841656E+02 -0.41438213491E+02  0.62499826109E+02  0.00000000000E+00 0. -1.
</event>
<event>
 4    1  0.1988088E-002  0.9118800E+02  0.7818608E-02  0.1130116E+00
         25   -1    0    0    0    0  0.00000000000E+00  0.00000000000E+00  0.99999998245E-14  0.12500000000E+03  0.12500000000E+03 0.  0.
        -11    1    1    0    0    0 -0.24110890579E+02 -0.94667026522E+01  0.14447214321E+02  0.29659324090E+02  0.51100000000E-03 0. -1.
         11    1    1    0    0    0 -0.26689676556E+02 -0.10631776255E+02  0.15910486801E+02  0.32840783966E+02  0.51100000000E-03 0.  1.
         22    1    1    0    0    0  0.50800567135E+02  0.20098478907E+02 -0.30357701122E+02  0.62499891944E+02  0.00000000000E+00 0.  1.
</event>
<event>
 4    1  0.1988088E-002  0.9118800E+02  0.7818608E-02  0.1130116E+00
         25   -1    0    0    0    0  0.00000000000E+00  0.00000000000E+00  0.99999998245E-14  0.12500000000E+03  0.12500000000E+03 0.  0.
        -11    1    1    0    0    0  0.46546644915E+01 -0.17489259147E+02 -0.98716302421E+00  0.18124971121E+02  0.51100000000E-03 0. -1.
         11    1    1    0    0    0  0.11396474875E+02 -0.42818583637E+02 -0.24150454244E+01  0.44375028889E+02  0.51100000000E-03 0. -1.
         22    1    1    0    0    0 -0.16051139366E+02  0.60307842785E+02  0.34022084486E+01  0.62499999989E+02  0.00000000000E+00 0. -1.
</event>
<event>
 4    1  0.1988088E-002  0.9118800E+02  0.7818608E-02  0.1130116E+00
         25   -1    0    0    0    0  0.00000000000E+00  0.00000000000E+00  0.99999998245E-14  0.12500000000E+03  0.12500000000E+03 0.  0.
        -11    1    1    0    0    0  0.24944786997E+01 -0.32288431667E+01  0.99137390164E-01  0.40813821999E+01  0.51100000000E-03 0.  1.
         11    1    1    0    0    0  0.35907290187E+02 -0.46045866480E+02  0.17850093191E+01  0.58418674814E+02  0.51100000000E-03 0. -1.
         22    1    1    0    0    0 -0.38401768887E+02  0.49274709647E+02 -0.18841467092E+01  0.62499942986E+02  0.00000000000E+00 0. -1.
</event>
<event>
 4    1  0.1988088E-002  0.9118800E+02  0.7818608E-02  0.1130116E+00
         25   -1    0    0    0    0  0.00000000000E+00  0.00000000000E+00  0.99999998245E-14  0.12500000000E+03  0.12500000000E+03 0.  0.
        -11    1    1    0    0    0  0.47762791242E+02  0.10269643786E+02 -0.28385741575E+00  0.48855198148E+02  0.51100000000E-03 0.  1.
         11    1    1    0    0    0  0.13311476208E+02  0.22388560662E+01  0.26577184392E+01  0.13757592191E+02  0.51100000000E-03 0. -1.
         22    1    1    0    0    0 -0.61074267451E+02 -0.12508499853E+02 -0.23738610235E+01  0.62387209661E+02  0.00000000000E+00 0.  1.
</event>
<event>
 4    1  0.1988088E-002  0.9118800E+02  0.7818608E-02  0.1130116E+00
         25   -1    0    0    0    0  0.00000000000E+00  0.00000000000E+00  0.99999998245E-14  0.12500000000E+03  0.12500000000E+03 0.  0.
        -11    1    1    0    0    0 -0.15098271966E+02 -0.16266016523E+02  0.65405124531E+01  0.23136970702E+02  0.51100000000E-03 0. -1.
         11    1    1    0    0    0 -0.25290244127E+02 -0.27799901800E+02  0.11709477454E+02  0.39364233139E+02  0.51100000000E-03 0.  1.
         22    1    1    0    0    0  0.40388516092E+02  0.44065918323E+02 -0.18249989907E+02  0.62498796159E+02  0.00000000000E+00 0.  1.
</event>
<event>
 4    1  0.1988088E-002  0.9118800E+02  0.7818608E-02  0.1130116E+00
         25   -1    0    0    0    0  0.00000000000E+00  0.00000000000E+00  0.99999998245E-14  0.12500000000E+03  0.12500000000E+03 0.  0.
        -11    1    1    0    0    0  0.18107452000E+02 -0.15325385194E+02 -0.24161599596E+02  0.33860451039E+02  0.51100000000E-03 0.  1.
         11    1    1    0    0    0  0.15969017598E+02 -0.10192452105E+02 -0.21537224468E+02  0.28683577898E+02  0.51100000000E-03 0. -1.
         22    1    1    0    0    0 -0.34076469598E+02  0.25517837298E+02  0.45698824064E+02  0.62455971064E+02  0.00000000000E+00 0.  1.
</event>
<event>
 4    1  0.1988088E-002  0.9118800E+02  0.7818608E-02  0.1130116E+00
         25   -1    0    0    0    0  0.00000000000E+00  0.00000000000E+00  0.99999998245E-14  0.12500000000E+03  0.12500000000E+03 0.  0.
        -11    1    1    0    0    0  0.20474483035E+02  0.43653277856E+02 -0.11624204731E+02  0.49597734414E+02  0.51100000000E-03 0.  1.
         11    1    1    0    0    0  0.53248388586E+01  0.11356172469E+02 -0.30252101718E+01  0.12902265648E+02  0.51100000000E-03 0.  1.
         22    1    1    0    0    0 -0.25799321894E+02 -0.55009450325E+02  0.14649414902E+02  0.62499999938E+02  0.00000000000E+00 0.  1.
</event>
<event>
 4    1  0.1988088E-002  0.9118800E+02  0.7818608E-02  0.1130116E+00
         25   -1    0    0    0    0  0.00000000000E+00  0.00000000000E+00  0.99999998245E-14  0.12500000000E+03  0.12500000000E+03 0.  0.
        -11    1    1    0    0    0 -0.21491535817E+01 -0.12331955811E+01  0.20070333901E+01  0.31887012637E+01  0.51100000000E-03 0. -1.
         11    1    1    0    0    0 -0.39941107349E+02 -0.23007691275E+02  0.37325385472E+02  0.59311300061E+02  0.51100000000E-03 0.  1.
         22    1    1    0    0    0  0.42090260931E+02  0.24240886856E+02 -0.39332418862E+02  0.62499998675E+02  0.00000000000E+00 0.  1.
</event>
<event>
 4    1  0.1988088E-002  0.9118800E+02  0.7818608E-02  0.1130116E+00
         25   -1    0    0    0    0  0.00000000000E+00  0.00000000000E+00  0.99999998245E-14  0.12500000000E+03  0.12500000000E+03 0.  0.
        -11    1    1    0    0    0 -0.71891170662E+01 -0.11353588486E+02  0.40623070601E+01  0.14038864434E+02  0.51100000000E-03 0.  1.
         11    1    1    0    0    0 -0.24815247665E+02 -0.39192622203E+02  0.14022250498E+02  0.48461135574E+02  0.51100000000E-03 0.  1.
         22    1    1    0    0    0  0.32004364731E+02  0.50546210689E+02 -0.18084557558E+02  0.62499999992E+02  0.00000000000E+00 0.  1.
</event>
<event>
 4    1  0.1988088E-002  0.9118800E+02  0.7818608E-02  0.1130116E+00
         25   -1    0    0    0    0  0.00000000000E+00  0.00000000000E+00  0.99999998245E-14  0.12500000000E+03  0.12500000000E+03 0.  0.
        -11    1    1    0    0    0  0.14436818781E+02  0.28510985417E+01  0.81389583236E+01  0.16816454510E+02  0.51100000000E-03 0. -1.
         11    1    1    0    0    0  0.39229946437E+02  0.77313816822E+01  0.22095778758E+02  0.45683546265E+02  0.51100000000E-03 0.  1.
         22    1    1    0    0    0 -0.53666765218E+02 -0.10582480224E+02 -0.30234737082E+02  0.62499999225E+02  0.00000000000E+00 0.  1.
</event>
<event>
 4    1  0.1988088E-002  0.9118800E+02  0.7818608E-02  0.1130116E+00
         25   -1    0    0    0    0  0.00000000000E+00  0.00000000000E+00  0.99999998245E-14  0.12500000000E+03  0.12500000000E+03 0.  0.
        -11    1    1    0    0    0  0.15536426377E+02 -0.10619944696E+02  0.11785011280E+02  0.22204735104E+02  0.51100000000E-03 0. -1.
         11    1    1    0    0    0  0.27893616533E+02 -0.18070395261E+02  0.22797847902E+02  0.40303038314E+02  0.51100000000E-03 0.  1.
         22    1    1    0    0    0 -0.43430042910E+02  0.28690339956E+02 -0.34582859182E+02  0.62492226582E+02  0.00000000000E+00 0.  1.
</event>
<event>
 4    1  0.1988088E-002  0.9118800E+02  0.7818608E-02  0.1130116E+00
         25   -1    0    0    0    0  0.00000000000E+00  0.00000000000E+00  0.99999998245E-14  0.12500000000E+03  0.12500000000E+03 0.  0.
        -11    1    1    0    0    0 -0.18532693545E+02  0.10551856130E+02 -0.79131558342E+01  0.22746877442E+02  0.51100000000E-03 0.  1.
         11    1    1    0    0    0 -0.32387382916E+02  0.18446140892E+02 -0.13824184511E+02  0.39753122691E+02  0.51100000000E-03 0. -1.
         22    1    1    0    0    0  0.50920076462E+02 -0.28997997022E+02  0.21737340345E+02  0.62499999868E+02  0.00000000000E+00 0. -1.
</event>
<event>
 4    1  0.1988088E-002  0.9118800E+02  0.7818608E-02  0.1130116E+00
         25   -1    0    0    0    0  0.00000000000E+00  0.00000000000E+00  0.99999998245E-14  0.12500000000E+03  0.12500000000E+03 0.  0.
        -11    1    1    0    0    0 -0.43259487733E+02 -0.31196605925E+02 -0.28401914238E+02  0.60425824222E+02  0.51100000000E-03 0.  1.
         11    1    1    0    0    0  0.72341356458E+01 -0.11453555938E+01 -0.17617927863E+01  0.75331581731E+01  0.51100000000E-03 0. -1.
         22    1    1    0    0    0  0.36025352087E+02  0.32341961519E+02  0.30163707025E+02  0.57041017605E+02  0.00000000000E+00 0.  1.
</event>
<event>
 4    1  0.1988088E-002  0.9118800E+02  0.7818608E-02  0.1130116E+00
         25   -1    0    0    0    0  0.00000000000E+00  0.00000000000E+00  0.99999998245E-14  0.12500000000E+03  0.12500000000E+03 0.  0.
        -11    1    1    0    0    0  0.37752677486E+02  0.10298764269E+02 -0.17708867104E+02  0.42952685331E+02  0.51100000000E-03 0.  1.
         11    1    1    0    0    0  0.15450124109E+02 -0.24254112310E+01 -0.12804169577E+02  0.20212266410E+02  0.51100000000E-03 0. -1.
         22    1    1    0    0    0 -0.53202801595E+02 -0.78733530378E+01  0.30513036681E+02  0.61835048258E+02  0.00000000000E+00 0.  1.
</event>
<event>
 4    1  0.1988088E-002  0.9118800E+02  0.7818608E-02  0.1130116E+00
         25   -1    0    0    0    0  0.00000000000E+00  0.00000000000E+00  0.99999998245E-14  0.12500000000E+03  0.12500000000E+03 0.  0.
        -11    1    1    0    0    0  0.11226543714E+02  0.52340197896E+02 -0.47589090342E+01  0.53741779046E+02  0.51100000000E-03 0.  1.
         11    1    1    0    0    0 -0.13697756728E+01  0.62793886973E+01 -0.82009501160E+01  0.10419337353E+02  0.51100000000E-03 0. -1.
         22    1    1    0    0    0 -0.98567680416E+01 -0.58619586594E+02  0.12959859150E+02  0.60838883601E+02  0.00000000000E+00 0.  1.
</event>
<event>
 4    1  0.1988088E-002  0.9118800E+02  0.7818608E-02  0.1130116E+00
         25   -1    0    0    0    0  0.00000000000E+00  0.00000000000E+00  0.99999998245E-14  0.12500000000E+03  0.12500000000E+03 0.  0.
        -11    1    1    0    0    0  0.48124523079E+01 -0.68019563967E+01  0.18219187053E+02  0.20034098062E+02  0.51100000000E-03 0. -1.
         11    1    1    0    0    0  0.48374522952E+01  0.41207954367E+02  0.25346192996E+02  0.48620221590E+02  0.51100000000E-03 0.  1.
         22    1    1    0    0    0 -0.96499046031E+01 -0.34405997970E+02 -0.43565380048E+02  0.56345680348E+02  0.00000000000E+00 0.  1.
</event>
<event>
 4    1  0.1988088E-002  0.9118800E+02  0.7818608E-02  0.1130116E+00
         25   -1    0    0    0    0  0.00000000000E+00  0.00000000000E+00  0.99999998245E-14  0.12500000000E+03  0.12500000000E+03 0.  0.
        -11    1    1    0    0    0 -0.86051049309E+01  0.12316995949E+02 -0.57210714798E+02  0.59150841989E+02  0.51100000000E-03 0. -1.
         11    1    1    0    0    0 -0.48539258448E+00  0.68951191034E+00 -0.32412743577E+01  0.33491629340E+01  0.51100000000E-03 0.  1.
         22    1    1    0    0    0  0.90904975154E+01 -0.13006507860E+02  0.60451989155E+02  0.62499995077E+02  0.00000000000E+00 0.  1.
</event>
<event>
 4    1  0.1988088E-002  0.9118800E+02  0.7818608E-02  0.1130116E+00
         25   -1    0    0    0    0  0.00000000000E+00  0.00000000000E+00  0.99999998245E-14  0.12500000000E+03  0.12500000000E+03 0.  0.
        -11    1    1    0    0    0  0.37668071651E+01 -0.35664622666E+01  0.12389013946E+02  0.13431163618E+02  0.51100000000E-03 0.  1.
         11    1    1    0    0    0  0.13770135251E+02 -0.13029736492E+02  0.45258811906E+02  0.49068836478E+02  0.51100000000E-03 0. -1.
         22    1    1    0    0    0 -0.17536942416E+02  0.16596198759E+02 -0.57647825852E+02  0.62499999904E+02  0.00000000000E+00 0. -1.
</event>
<event>
 4    1  0.1988088E-002  0.9118800E+02  0.7818608E-02  0.1130116E+00
         25   -1    0    0    0    0  0.00000000000E+00  0.00000000000E+00  0.99999998245E-14  0.12500000000E+03  0.12500000000E+03 0.  0.
        -11    1    1    0    0    0  0.58865067174E+01 -0.83120430578E+01 -0.92800446363E+01  0.13778978549E+02  0.51100000000E-03 0.  1.
         11    1    1    0    0    0  0.17342485445E+02 -0.28938964371E+02 -0.35177835932E+02  0.48741210504E+02  0.51100000000E-03 0. -1.
         22    1    1    0    0    0 -0.23228992163E+02  0.37251007428E+02  0.44457880569E+02  0.62479810947E+02  0.00000000000E+00 0. -1.
</event>
<event>
 4    1  0.1988088E-002  0.9118800E+02  0.7818608E-02  0.1130116E+00
         25   -1    0    0    0    0  0.00000000000E+00  0.00000000000E+00  0.99999998245E-14  0.12500000000E+03  0.12500000000E+03 0.  0.
        -11    1    1    0    0    0  0.63528643971E+01 -0.86274797091E+01 -0.39505917539E+01  0.11419258629E+02  0.51100000000E-03 0.  1.
         11    1    1    0    0    0  0.28399964333E+02 -0.38603534400E+02 -0.17676293127E+02  0.51080741785E+02  0.51100000000E-03 0. -1.
         22    1    1    0    0    0 -0.34752828730E+02  0.47231014109E+02  0.21626884881E+02  0.62499999586E+02  0.00000000000E+00 0. -1.
</event>
<event>
 4    1  0.1988088E-002  0.9118800E+02  0.7818608E-02  0.1130116E+00
         25   -1    0    0    0    0  0.00000000000E+00  0.00000000000E+00  0.99999998245E-14  0.12500000000E+03  0.12500000000E+03 0.  0.
        -11    1    1    0    0    0  0.21746683236E+02 -0.77795232173E+01 -0.29907903293E+02  0.37787853775E+02  0.51100000000E-03 0.  1.
         11    1    1    0    0    0  0.14191977469E+02 -0.50973852434E+01 -0.19577921639E+02  0.24712154434E+02  0.51100000000E-03 0. -1.
         22    1    1    0    0    0 -0.35938660705E+02  0.12876908461E+02  0.49485824932E+02  0.62499991792E+02  0.00000000000E+00 0.  1.
</event>
<event>
 4    1  0.1988088E-002  0.9118800E+02  0.7818608E-02  0.1130116E+00
         25   -1    0    0    0    0  0.00000000000E+00  0.00000000000E+00  0.99999998245E-14  0.12500000000E+03  0.12500000000E+03 0.  0.
        -11    1    1    0    0    0  0.61952236259E+01 -0.76234712318E+01 -0.16388396840E+02  0.19107005538E+02  0.51100000000E-03 0. -1.
         11    1    1    0    0    0  0.85181292250E+01 -0.19757266874E+02 -0.37758654238E+02  0.43458302889E+02  0.51100000000E-03 0.  1.
         22    1    1    0    0    0 -0.14713352851E+02  0.27380738106E+02  0.54147051078E+02  0.62434691573E+02  0.00000000000E+00 0.  1.
</event>
<event>
 4    1  0.1988088E-002  0.9118800E+02  0.7818608E-02  0.1130116E+00
         25   -1    0    0    0    0  0.00000000000E+00  0.00000000000E+00  0.99999998245E-14  0.12500000000E+03  0.12500000000E+03 0.  0.
        -11    1    1    0    0    0  0.11732878177E+02  0.53278600870E+01  0.30913087542E+01  0.13251517403E+02  0.51100000000E-03 0.  1.
         11    1    1    0    0    0  0.43576303592E+02  0.19926081386E+02  0.11378625563E+02  0.49248513420E+02  0.51100000000E-03 0. -1.
         22    1    1    0    0    0 -0.55309181769E+02 -0.25253941473E+02 -0.14469934317E+02  0.62499969176E+02  0.00000000000E+00 0. -1.
</event>
<event>
 4    1  0.1988088E-002  0.9118800E+02  0.7818608E-02  0.1130116E+00
         25   -1    0    0    0    0  0.00000000000E+00  0.00000000000E+00  0.99999998245E-14  0.12500000000E+03  0.12500000000E+03 0.  0.
        -11    1    1    0    0    0  0.12632976589E+02 -0.16372590705E+02 -0.85454739402E+01  0.22375856386E+02  0.51100000000E-03 0. -1.
         11    1    1    0    0    0  0.17784978659E+02 -0.33288573305E+02 -0.13888642578E+02  0.40216028788E+02  0.51100000000E-03 0.  1.
         22    1    1    0    0    0 -0.30417955247E+02  0.49661164009E+02  0.22434116518E+02  0.62408114826E+02  0.00000000000E+00 0. -1.
</event>
<event>
 4    1  0.1988088E-002  0.9118800E+02  0.7818608E-02  0.1130116E+00
         25   -1    0    0    0    0  0.00000000000E+00  0.00000000000E+00  0.99999998245E-14  0.12500000000E+03  0.12500000000E+03 0.  0.
        -11    1    1    0    0    0 -0.15570616434E+02 -0.51264872254E+01 -0.10397742866E+02  0.19412316306E+02  0.51100000000E-03 0.  1.
         11    1    1    0    0    0 -0.34783841857E+02 -0.11055824156E+02 -0.22900446820E+02  0.43088018832E+02  0.51100000000E-03 0. -1.
         22    1    1    0    0    0  0.50354458291E+02  0.16182311382E+02  0.33298189686E+02  0.62499664861E+02  0.00000000000E+00 0.  1.
</event>
<event>
 4    1  0.1988088E-002  0.9118800E+02  0.7818608E-02  0.1130116E+00
         25   -1    0    0    0    0  0.00000000000E+00  0.00000000000E+00  0.99999998245E-14  0.12500000000E+03  0.12500000000E+03 0.  0.
        -11    1    1    0    0    0  0.10830797949E+02 -0.54654069280E+01 -0.15913789063E+01  0.12235576986E+02  0.51100000000E-03 0.  1.
         11    1    1    0    0    0  0.44482623243E+02 -0.22469746816E+02 -0.65512585909E+01  0.50264423621E+02  0.51100000000E-03 0. -1.
         22    1    1    0    0    0 -0.55313421192E+02  0.27935153744E+02  0.81426374972E+01  0.62499999393E+02  0.00000000000E+00 0. -1.
</event>
<event>
 4    1  0.1988088E-002  0.9118800E+02  0.7818608E-02  0.1130116E+00
         25   -1    0    0    0    0  0.00000000000E+00  0.00000000000E+00  0.99999998245E-14  0.12500000000E+03  0.12500000000E+03 0.  0.
        -11    1    1    0    0    0  0.36663751261E+02 -0.18404578507E+02  0.99858876188E+01  0.42221761194E+02  0.51100000000E-03 0.  1.
         11    1    1    0    0    0  0.17608733498E+02 -0.88390298969E+01  0.47969807618E+01  0.20278238819E+02  0.51100000000E-03 0. -1.
         22    1    1    0    0    0 -0.54272484759E+02  0.27243608404E+02 -0.14782868381E+02  0.62499999987E+02  0.00000000000E+00 0.  1.
</event>
<event>
 4    1  0.1988088E-002  0.9118800E+02  0.7818608E-02  0.1130116E+00
         25   -1    0    0    0    0  0.00000000000E+00  0.00000000000E+00  0.99999998245E-14  0.12500000000E+03  0.12500000000E+03 0.  0.
        -11    1    1    0    0    0  0.48266427091E+01  0.41894997297E+01 -0.30709029061E+02  0.31367066390E+02  0.51100000000E-03 0. -1.
         11    1    1    0    0    0  0.14266439032E+01  0.89126753293E+01 -0.29939738034E+02  0.31270737250E+02  0.51100000000E-03 0.  1.
         22    1    1    0    0    0 -0.62532866123E+01 -0.13102175059E+02  0.60648767095E+02  0.62362196360E+02  0.00000000000E+00 0. -1.
</event>
<event>
 4    1  0.1988088E-002  0.9118800E+02  0.7818608E-02  0.1130116E+00
         25   -1    0    0    0    0  0.00000000000E+00  0.00000000000E+00  0.99999998245E-14  0.12500000000E+03  0.12500000000E+03 0.  0.
        -11    1    1    0    0    0  0.26262505020E+02  0.84382018421E+00  0.79284321752E+01  0.27446151633E+02  0.51100000000E-03 0. -1.
         11    1    1    0    0    0  0.31547509430E+02  0.11406436489E+02  0.11319295064E+02  0.35404499511E+02  0.51100000000E-03 0.  1.
         22    1    1    0    0    0 -0.57810014451E+02 -0.12250256673E+02 -0.19247727239E+02  0.62149348856E+02  0.00000000000E+00 0.  1.
</event>
<event>
 4    1  0.1988088E-002  0.9118800E+02  0.7818608E-02  0.1130116E+00
         25   -1    0    0    0    0  0.00000000000E+00  0.00000000000E+00  0.99999998245E-14  0.12500000000E+03  0.12500000000E+03 0.  0.
        -11    1    1    0    0    0  0.44772078635E+02 -0.14536357853E+02  0.16613837018E+02  0.49918576760E+02  0.51100000000E-03 0.  1.
         11    1    1    0    0    0  0.60508517007E+01 -0.49690766330E+00  0.13015492179E+02  0.14361850871E+02  0.51100000000E-03 0. -1.
         22    1    1    0    0    0 -0.50822930336E+02  0.15033265516E+02 -0.29629329197E+02  0.60719572369E+02  0.00000000000E+00 0.  1.
</event>
<event>
 4    1  0.1988088E-002  0.9118800E+02  0.7818608E-02  0.1130116E+00
         25   -1    0    0    0    0  0.00000000000E+00  0.00000000000E+00  0.99999998245E-14  0.12500000000E+03  0.12500000000E+03 0.  0.
        -11    1    1    0    0    0  0.84368634750E+00 -0.10941438112E+01  0.42265545501E+01  0.44466527814E+01  0.51100000000E-03 0.  1.
         11    1    1    0    0    0  0.46945680933E+01 -0.18279159410E+02  0.54918264645E+02  0.58070495350E+02  0.51100000000E-03 0. -1.
         22    1    1    0    0    0 -0.55382544408E+01  0.19373303221E+02 -0.59144819195E+02  0.62482851868E+02  0.00000000000E+00 0. -1.
</event>
<event>
 4    1  0.1988088E-002  0.9118800E+02  0.7818608E-02  0.1130116E+00
         25   -1    0    0    0    0  0.00000000000E+00  0.00000000000E+00  0.99999998245E-14  0.12500000000E+03  0.12500000000E+03 0.  0.
        -11    1    1    0    0    0 -0.59264554024E+01  0.16253411464E+02 -0.13812523973E+02  0.22137797466E+02  0.51100000000E-03 0.  1.
         11    1    1    0    0    0 -0.10805896116E+02  0.29634148521E+02 -0.25182478915E+02  0.40362202542E+02  0.51100000000E-03 0.  1.
         22    1    1    0    0    0  0.16732351518E+02 -0.45887559985E+02  0.38995002889E+02  0.62499999992E+02  0.00000000000E+00 0.  1.
</event>
<event>
 4    1  0.1988088E-002  0.9118800E+02  0.7818608E-02  0.1130116E+00
         25   -1    0    0    0    0  0.00000000000E+00  0.00000000000E+00  0.99999998245E-14  0.12500000000E+03  0.12500000000E+03 0.  0.
        -11    1    1    0    0    0 -0.32555131745E+02 -0.28632419829E+02 -0.40719456511E+02  0.59478787874E+02  0.51100000000E-03 0. -1.
         11    1    1    0    0    0 -0.16469353804E+01 -0.14578804565E+01 -0.20712175484E+01  0.30212172988E+01  0.51100000000E-03 0.  1.
         22    1    1    0    0    0  0.34202067125E+02  0.30090300286E+02  0.42790674059E+02  0.62499994827E+02  0.00000000000E+00 0. -1.
</event>
<event>
 4    1  0.1988088E-002  0.9118800E+02  0.7818608E-02  0.1130116E+00
         25   -1    0    0    0    0  0.00000000000E+00  0.00000000000E+00  0.99999998245E-14  0.12500000000E+03  0.12500000000E+03 0.  0.
        -11    1    1    0    0    0  0.13548264252E+02  0.44147874456E+01  0.88398844293E+01  0.16768702079E+02  0.51100000000E-03 0.  1.
         11    1    1    0    0    0 -0.25984348545E+02 -0.51783129660E+02  0.23919096115E+01  0.57986206279E+02  0.51100000000E-03 0. -1.
         22    1    1    0    0    0  0.12436084293E+02  0.47368342215E+02 -0.11231794041E+02  0.50245091642E+02  0.00000000000E+00 0. -1.
</event>
<event>
 4    1  0.1988088E-002  0.9118800E+02  0.7818608E-02  0.1130116E+00
         25   -1    0    0    0    0  0.00000000000E+00  0.00000000000E+00  0.99999998245E-14  0.12500000000E+03  0.12500000000E+03 0.  0.
        -11    1    1    0    0    0  0.10001196572E+02  0.45774175661E+01  0.10177189320E+02  0.14985054793E+02  0.51100000000E-03 0. -1.
         11    1    1    0    0    0 -0.52217579028E+01 -0.54171219240E+02  0.11592064772E+02  0.55643182111E+02  0.51100000000E-03 0.  1.
         22    1    1    0    0    0 -0.47794386693E+01  0.49593801674E+02 -0.21769254091E+02  0.54371763096E+02  0.00000000000E+00 0.  1.
</event>
<event>
 4    1  0.1988088E-002  0.9118800E+02  0.7818608E-02  0.1130116E+00
         25   -1    0    0    0    0  0.00000000000E+00  0.00000000000E+00  0.99999998245E-14  0.12500000000E+03  0.12500000000E+03 0.  0.
        -11    1    1    0    0    0 -0.12047612128E+02  0.23712252668E+02 -0.28972459056E+02  0.39329623296E+02  0.51100000000E-03 0. -1.
         11    1    1    0    0    0 -0.70995612142E+01  0.13968951133E+02 -0.17068420920E+02  0.23170376737E+02  0.51100000000E-03 0.  1.
         22    1    1    0    0    0  0.19147173342E+02 -0.37681203801E+02  0.46040879976E+02  0.62499999967E+02  0.00000000000E+00 0. -1.
</event>
<event>
 4    1  0.1988088E-002  0.9118800E+02  0.7818608E-02  0.1130116E+00
         25   -1    0    0    0    0  0.00000000000E+00  0.00000000000E+00  0.99999998245E-14  0.12500000000E+03  0.12500000000E+03 0.  0.
        -11    1    1    0    0    0  0.43733947128E+01 -0.62385096887E+01 -0.19075657773E+02  0.20540844777E+02  0.51100000000E-03 0. -1.
         11    1    1    0    0    0  0.90545380968E+01 -0.12756882433E+02 -0.38933926092E+02  0.41959186250E+02  0.51100000000E-03 0.  1.
         22    1    1    0    0    0 -0.13427932810E+02  0.18995392122E+02  0.58009583865E+02  0.62499968973E+02  0.00000000000E+00 0.  1.
</event>
<event>
 4    1  0.1988088E-002  0.9118800E+02  0.7818608E-02  0.1130116E+00
         25   -1    0    0    0    0  0.00000000000E+00  0.00000000000E+00  0.99999998245E-14  0.12500000000E+03  0.12500000000E+03 0.  0.
        -11    1    1    0    0    0  0.39939585121E+01  0.40509028646E+01  0.13273079097E+01  0.58415122325E+01  0.51100000000E-03 0. -1.
         11    1    1    0    0    0 -0.91046855183E+01  0.16547591884E+02 -0.56750476726E+02  0.59810824308E+02  0.51100000000E-03 0.  1.
         22    1    1    0    0    0  0.51107270062E+01 -0.20598494748E+02  0.55423168816E+02  0.59347663459E+02  0.00000000000E+00 0.  1.
</event>
<event>
 4    1  0.1988088E-002  0.9118800E+02  0.7818608E-02  0.1130116E+00
         25   -1    0    0    0    0  0.00000000000E+00  0.00000000000E+00  0.99999998245E-14  0.12500000000E+03  0.12500000000E+03 0.  0.
        -11    1    1    0    0    0 -0.36143772992E+01  0.16215936768E+01 -0.72722520094E+01  0.82812401767E+01  0.51100000000E-03 0. -1.
         11    1    1    0    0    0 -0.68901466151E+01  0.10667216897E+02 -0.52905004483E+02  0.54407748863E+02  0.51100000000E-03 0.  1.
         22    1    1    0    0    0  0.10504523914E+02 -0.12288810574E+02  0.60177256492E+02  0.62311010961E+02  0.00000000000E+00 0.  1.
</event>
<event>
 4    1  0.1988088E-002  0.9118800E+02  0.7818608E-02  0.1130116E+00
         25   -1    0    0    0    0  0.00000000000E+00  0.00000000000E+00  0.99999998245E-14  0.12500000000E+03  0.12500000000E+03 0.  0.
        -11    1    1    0    0    0 -0.82649971329E+01  0.27226313769E+02 -0.46228158181E+02  0.54282823693E+02  0.51100000000E-03 0. -1.
         11    1    1    0    0    0  0.26327287108E+01  0.33645776481E+01 -0.75018546085E+01  0.86330450041E+01  0.51100000000E-03 0.  1.
         22    1    1    0    0    0  0.56322684221E+01 -0.30590891417E+02  0.53730012789E+02  0.62084131303E+02  0.00000000000E+00 0. -1.
</event>
<event>
 4    1  0.1988088E-002  0.9118800E+02  0.7818608E-02  0.1130116E+00
         25   -1    0    0    0    0  0.00000000000E+00  0.00000000000E+00  0.99999998245E-14  0.12500000000E+03  0.12500000000E+03 0.  0.
        -11    1    1    0    0    0  0.29600779723E+02 -0.36164525603E+02  0.11583253247E+01  0.46748484361E+02  0.51100000000E-03 0. -1.
         11    1    1    0    0    0  0.90906674524E+01 -0.12884685071E+02 -0.41535258492E+00  0.15774278498E+02  0.51100000000E-03 0.  1.
         22    1    1    0    0    0 -0.38691447175E+02  0.49049210674E+02 -0.74297273974E+00  0.62477237140E+02  0.00000000000E+00 0. -1.
</event>
<event>
 4    1  0.1988088E-002  0.9118800E+02  0.7818608E-02  0.1130116E+00
         25   -1    0    0    0    0  0.00000000000E+00  0.00000000000E+00  0.99999998245E-14  0.12500000000E+03  0.12500000000E+03 0.  0.
        -11    1    1    0    0    0 -0.23641288314E+01 -0.85998530533E+01  0.20254535448E+02  0.22131262597E+02  0.51100000000E-03 0.  1.
         11    1    1    0    0    0  0.82430625506E+01 -0.15180298300E+02  0.36868687241E+02  0.40714734874E+02  0.51100000000E-03 0. -1.
         22    1    1    0    0    0 -0.58789337192E+01  0.23780151353E+02 -0.57123222689E+02  0.62154002529E+02  0.00000000000E+00 0.  1.
</event>
<event>
 4    1  0.1988088E-002  0.9118800E+02  0.7818608E-02  0.1130116E+00
         25   -1    0    0    0    0  0.00000000000E+00  0.00000000000E+00  0.99999998245E-14  0.12500000000E+03  0.12500000000E+03 0.  0.
        -11    1    1    0    0    0 -0.25366934183E+00  0.27341009150E+02 -0.96884839039E+01  0.29007961839E+02  0.51100000000E-03 0.  1.
         11    1    1    0    0    0  0.39648639969E+02 -0.97498955781E+01 -0.18112062162E+02  0.44666787563E+02  0.51100000000E-03 0. -1.
         22    1    1    0    0    0 -0.39394970627E+02 -0.17591113572E+02  0.27800546066E+02  0.51325250598E+02  0.00000000000E+00 0.  1.
</event>
<event>
 4    1  0.1988088E-002  0.9118800E+02  0.7818608E-02  0.1130116E+00
         25   -1    0    0    0    0  0.00000000000E+00  0.00000000000E+00  0.99999998245E-14  0.12500000000E+03  0.12500000000E+03 0.  0.
        -11    1    1    0    0    0  0.43325873905E+01 -0.14138977769E+02  0.17799068806E+01  0.14894632409E+02  0.51100000000E-03 0.  1.
         11    1    1    0    0    0  0.13840991162E+02 -0.45191871444E+02  0.56914628254E+01  0.47605367663E+02  0.51100000000E-03 0. -1.
         22    1    1    0    0    0 -0.18173578553E+02  0.59330849213E+02 -0.74713697059E+01  0.62499999928E+02  0.00000000000E+00 0. -1.
</event>
<event>
 4    1  0.1988088E-002  0.9118800E+02  0.7818608E-02  0.1130116E+00
         25   -1    0    0    0    0  0.00000000000E+00  0.00000000000E+00  0.99999998245E-14  0.12500000000E+03  0.12500000000E+03 0.  0.
        -11    1    1    0    0    0  0.38304791247E+01  0.12641557408E+02  0.26476933412E+01  0.13471890154E+02  0.51100000000E-03 0. -1.
         11    1    1    0    0    0  0.13940249511E+02  0.46005949223E+02  0.96373043615E+01  0.49028109855E+02  0.51100000000E-03 0. -1.
         22    1    1    0    0    0 -0.17770728635E+02 -0.58647506631E+02 -0.12284997703E+02  0.62499999991E+02  0.00000000000E+00 0. -1.
</event>
<event>
 4    1  0.1988088E-002  0.9118800E+02  0.7818608E-02  0.1130116E+00
         25   -1    0    0    0    0  0.00000000000E+00  0.00000000000E+00  0.99999998245E-14  0.12500000000E+03  0.12500000000E+03 0.  0.
        -11    1    1    0    0    0 -0.13803707454E+00  0.21889047527E+00 -0.75330779689E-01  0.26952228405E+00  0.51100000000E-03 0.  1.
         11    1    1    0    0    0  0.37285196314E+02  0.46153098411E+02 -0.19044805069E+02  0.62313714040E+02  0.51100000000E-03 0. -1.
         22    1    1    0    0    0 -0.37147159239E+02 -0.46371988887E+02  0.19120135849E+02  0.62416763676E+02  0.00000000000E+00 0. -1.
</event>
<event>
 4    1  0.1988088E-002  0.9118800E+02  0.7818608E-02  0.1130116E+00
         25   -1    0    0    0    0  0.00000000000E+00  0.00000000000E+00  0.99999998245E-14  0.12500000000E+03  0.12500000000E+03 0.  0.
        -11    1    1    0    0    0  0.15147538870E+01  0.10859275681E+02  0.10224711039E+02  0.14992100044E+02  0.51100000000E-03 0.  1.
         11    1    1    0    0    0  0.23691602676E+01  0.33839512172E+02  0.33273329110E+02  0.47516733208E+02  0.51100000000E-03 0. -1.
         22    1    1    0    0    0 -0.38839141547E+01 -0.44698787853E+02 -0.43498040148E+02  0.62491166748E+02  0.00000000000E+00 0. -1.
</event>
<event>
 4    1  0.1988088E-002  0.9118800E+02  0.7818608E-02  0.1130116E+00
         25   -1    0    0    0    0  0.00000000000E+00  0.00000000000E+00  0.99999998245E-14  0.12500000000E+03  0.12500000000E+03 0.  0.
        -11    1    1    0    0    0 -0.14537610604E+02  0.46789390779E+02 -0.25078132889E+02  0.55040911702E+02  0.51100000000E-03 0. -1.
         11    1    1    0    0    0 -0.19696509438E+01  0.63416919840E+01 -0.33972661392E+01  0.74590883855E+01  0.51100000000E-03 0.  1.
         22    1    1    0    0    0  0.16507261547E+02 -0.53131082763E+02  0.28475399028E+02  0.62499999913E+02  0.00000000000E+00 0. -1.
</event>
<event>
 4    1  0.1988088E-002  0.9118800E+02  0.7818608E-02  0.1130116E+00
         25   -1    0    0    0    0  0.00000000000E+00  0.00000000000E+00  0.99999998245E-14  0.12500000000E+03  0.12500000000E+03 0.  0.
        -11    1    1    0    0    0  0.19732790436E+02 -0.43776213270E+01 -0.16458096454E+02  0.26065600434E+02  0.51100000000E-03 0. -1.
         11    1    1    0    0    0  0.27582275608E+02 -0.61182939675E+01 -0.23005434643E+02  0.36434399572E+02  0.51100000000E-03 0. -1.
         22    1    1    0    0    0 -0.47315066044E+02  0.10495915295E+02  0.39463531096E+02  0.62499999994E+02  0.00000000000E+00 0. -1.
</event>
<event>
 4    1  0.1988088E-002  0.9118800E+02  0.7818608E-02  0.1130116E+00
         25   -1    0    0    0    0  0.00000000000E+00  0.00000000000E+00  0.99999998245E-14  0.12500000000E+03  0.12500000000E+03 0.  0.
        -11    1    1    0    0    0 -0.31173122007E+01  0.56336416065E+01 -0.18396279841E+02  0.19490476273E+02  0.51100000000E-03 0. -1.
         11    1    1    0    0    0 -0.68846006840E+01  0.12432159336E+02 -0.40593876684E+02  0.43009523792E+02  0.51100000000E-03 0. -1.
         22    1    1    0    0    0  0.10001912885E+02 -0.18065800942E+02  0.58990156525E+02  0.62499999935E+02  0.00000000000E+00 0. -1.
</event>
<event>
 4    1  0.1988088E-002  0.9118800E+02  0.7818608E-02  0.1130116E+00
         25   -1    0    0    0    0  0.00000000000E+00  0.00000000000E+00  0.99999998245E-14  0.12500000000E+03  0.12500000000E+03 0.  0.
        -11    1    1    0    0    0 -0.29959867335E+02 -0.81267703328E+01  0.10910815186E+02  0.32904162883E+02  0.51100000000E-03 0. -1.
         11    1    1    0    0    0 -0.95064234289E+01  0.86867766264E+01  0.31577942971E+02  0.34102766122E+02  0.51100000000E-03 0.  1.
         22    1    1    0    0    0  0.39466290763E+02 -0.56000629363E+00 -0.42488758158E+02  0.57993070995E+02  0.00000000000E+00 0.  1.
</event>
<event>
 4    1  0.1988088E-002  0.9118800E+02  0.7818608E-02  0.1130116E+00
         25   -1    0    0    0    0  0.00000000000E+00  0.00000000000E+00  0.99999998245E-14  0.12500000000E+03  0.12500000000E+03 0.  0.
        -11    1    1    0    0    0  0.18526570230E+02 -0.52658794700E+02 -0.27703151269E+02  0.62318914097E+02  0.51100000000E-03 0.  1.
         11    1    1    0    0    0  0.18458955188E+00 -0.12614674506E+00  0.10553003619E+00  0.24723097220E+00  0.51100000000E-03 0. -1.
         22    1    1    0    0    0 -0.18711159781E+02  0.52784941445E+02  0.27597621233E+02  0.62433854930E+02  0.00000000000E+00 0.  1.
</event>
<event>
 4    1  0.1988088E-002  0.9118800E+02  0.7818608E-02  0.1130116E+00
         25   -1    0    0    0    0  0.00000000000E+00  0.00000000000E+00  0.99999998245E-14  0.12500000000E+03  0.12500000000E+03 0.  0.
        -11    1    1    0    0    0 -0.23957819833E+02  0.19732237141E+02  0.15629129931E+02  0.34750654906E+02  0.51100000000E-03 0.  1.
         11    1    1    0    0    0 -0.19130546519E+02  0.15757495447E+02  0.12479971173E+02  0.27749345103E+02  0.51100000000E-03 0.  1.
         22    1    1    0    0    0  0.43088366352E+02 -0.35489732587E+02 -0.28109101104E+02  0.62499999991E+02  0.00000000000E+00 0.  1.
</event>
<event>
 4    1  0.1988088E-002  0.9118800E+02  0.7818608E-02  0.1130116E+00
         25   -1    0    0    0    0  0.00000000000E+00  0.00000000000E+00  0.99999998245E-14  0.12500000000E+03  0.12500000000E+03 0.  0.
        -11    1    1    0    0    0  0.48954797244E+01 -0.67592681683E+01 -0.16722641143E+02  0.18689573429E+02  0.51100000000E-03 0. -1.
         11    1    1    0    0    0  0.11543467634E+02 -0.15817935031E+02 -0.39190503577E+02  0.43810435795E+02  0.51100000000E-03 0.  1.
         22    1    1    0    0    0 -0.16438947359E+02  0.22577203199E+02  0.55913144720E+02  0.62499990776E+02  0.00000000000E+00 0. -1.
</event>
<event>
 4    1  0.1988088E-002  0.9118800E+02  0.7818608E-02  0.1130116E+00
         25   -1    0    0    0    0  0.00000000000E+00  0.00000000000E+00  0.99999998245E-14  0.12500000000E+03  0.12500000000E+03 0.  0.
        -11    1    1    0    0    0 -0.59537843943E+01  0.19814221975E+02  0.24204058800E+02  0.31841598637E+02  0.51100000000E-03 0. -1.
         11    1    1    0    0    0 -0.57365210783E+01  0.19076257428E+02  0.23305070422E+02  0.30658401445E+02  0.51100000000E-03 0.  1.
         22    1    1    0    0    0  0.11690305473E+02 -0.38890479403E+02 -0.47509129222E+02  0.62499999918E+02  0.00000000000E+00 0.  1.
</event>
<event>
 4    1  0.1988088E-002  0.9118800E+02  0.7818608E-02  0.1130116E+00
         25   -1    0    0    0    0  0.00000000000E+00  0.00000000000E+00  0.99999998245E-14  0.12500000000E+03  0.12500000000E+03 0.  0.
        -11    1    1    0    0    0  0.15790352580E+00  0.66711663166E+00 -0.84303801733E+00  0.10865962836E+01  0.51100000000E-03 0.  1.
         11    1    1    0    0    0  0.89596084273E+01  0.37651911222E+02 -0.47682965588E+02  0.61413404150E+02  0.51100000000E-03 0.  1.
         22    1    1    0    0    0 -0.91175119531E+01 -0.38319027853E+02  0.48526003605E+02  0.62499999566E+02  0.00000000000E+00 0.  1.
</event>
<event>
 4    1  0.1988088E-002  0.9118800E+02  0.7818608E-02  0.1130116E+00
         25   -1    0    0    0    0  0.00000000000E+00  0.00000000000E+00  0.99999998245E-14  0.12500000000E+03  0.12500000000E+03 0.  0.
        -11    1    1    0    0    0  0.29883236918E+01  0.13679344856E+01  0.29899731490E+02  0.30079814937E+02  0.51100000000E-03 0. -1.
         11    1    1    0    0    0  0.32223924692E+01  0.14730027840E+01  0.32225996495E+02  0.32420185083E+02  0.51100000000E-03 0. -1.
         22    1    1    0    0    0 -0.62107161610E+01 -0.28409372696E+01 -0.62125727985E+02  0.62499999980E+02  0.00000000000E+00 0. -1.
</event>
<event>
 4    1  0.1988088E-002  0.9118800E+02  0.7818608E-02  0.1130116E+00
         25   -1    0    0    0    0  0.00000000000E+00  0.00000000000E+00  0.99999998245E-14  0.12500000000E+03  0.12500000000E+03 0.  0.
        -11    1    1    0    0    0 -0.76770428527E+00 -0.55021132638E+01  0.18243010567E+01  0.58472809787E+01  0.51100000000E-03 0.  1.
         11    1    1    0    0    0 -0.74326476801E+01 -0.53306582757E+02  0.17683171702E+02  0.56652719074E+02  0.51100000000E-03 0.  1.
         22    1    1    0    0    0  0.82003519654E+01  0.58808696021E+02 -0.19507472759E+02  0.62499999948E+02  0.00000000000E+00 0.  1.
</event>
<event>
 4    1  0.1988088E-002  0.9118800E+02  0.7818608E-02  0.1130116E+00
         25   -1    0    0    0    0  0.00000000000E+00  0.00000000000E+00  0.99999998245E-14  0.12500000000E+03  0.12500000000E+03 0.  0.
        -11    1    1    0    0    0 -0.30774462560E+02  0.45206426466E+02 -0.28583761452E+02  0.61706725393E+02  0.51100000000E-03 0. -1.
         11    1    1    0    0    0 -0.96711545097E+00 -0.79239289600E-02  0.14864421728E+01  0.17733825527E+01  0.51100000000E-03 0.  1.
         22    1    1    0    0    0  0.31741578011E+02 -0.45198502537E+02  0.27097319279E+02  0.61519892054E+02  0.00000000000E+00 0. -1.
</event>
<event>
 4    1  0.1988088E-002  0.9118800E+02  0.7818608E-02  0.1130116E+00
         25   -1    0    0    0    0  0.00000000000E+00  0.00000000000E+00  0.99999998245E-14  0.12500000000E+03  0.12500000000E+03 0.  0.
        -11    1    1    0    0    0 -0.75476285273E+01  0.27360313680E+01 -0.14260823823E+01  0.81539116536E+01  0.51100000000E-03 0.  1.
         11    1    1    0    0    0 -0.50421871462E+02  0.17825974138E+02 -0.96633494421E+01  0.54346212365E+02  0.51100000000E-03 0. -1.
         22    1    1    0    0    0  0.57969499990E+02 -0.20562005506E+02  0.11089431824E+02  0.62499875981E+02  0.00000000000E+00 0. -1.
</event>
<event>
 4    1  0.1988088E-002  0.9118800E+02  0.7818608E-02  0.1130116E+00
         25   -1    0    0    0    0  0.00000000000E+00  0.00000000000E+00  0.99999998245E-14  0.12500000000E+03  0.12500000000E+03 0.  0.
        -11    1    1    0    0    0 -0.44805690576E-01  0.25345804034E+01  0.42052311017E+01  0.49102010398E+01  0.51100000000E-03 0. -1.
         11    1    1    0    0    0  0.53825498217E+02 -0.10846181658E+02 -0.26882086999E+02  0.61134855169E+02  0.51100000000E-03 0.  1.
         22    1    1    0    0    0 -0.53780692527E+02  0.83116012544E+01  0.22676855897E+02  0.58954943791E+02  0.00000000000E+00 0.  1.
</event>
<event>
 4    1  0.1988088E-002  0.9118800E+02  0.7818608E-02  0.1130116E+00
         25   -1    0    0    0    0  0.00000000000E+00  0.00000000000E+00  0.99999998245E-14  0.12500000000E+03  0.12500000000E+03 0.  0.
        -11    1    1    0    0    0 -0.91968122328E+01 -0.62042517412E+00  0.19890045676E+01  0.94298686137E+01  0.51100000000E-03 0.  1.
         11    1    1    0    0    0 -0.51856694487E+02  0.11069334500E+01  0.11300172263E+02  0.53085176445E+02  0.51100000000E-03 0. -1.
         22    1    1    0    0    0  0.61053506720E+02 -0.48650827586E+00 -0.13289176831E+02  0.62484954941E+02  0.00000000000E+00 0. -1.
</event>
<event>
 4    1  0.1988088E-002  0.9118800E+02  0.7818608E-02  0.1130116E+00
         25   -1    0    0    0    0  0.00000000000E+00  0.00000000000E+00  0.99999998245E-14  0.12500000000E+03  0.12500000000E+03 0.  0.
        -11    1    1    0    0    0  0.17509877482E+02  0.12946224981E+02 -0.43643608534E+02  0.48774635998E+02  0.51100000000E-03 0. -1.
         11    1    1    0    0    0  0.49235559151E+01  0.36438535142E+01 -0.12282774608E+02  0.13725364244E+02  0.51100000000E-03 0.  1.
         22    1    1    0    0    0 -0.22433433397E+02 -0.16590078495E+02  0.55926383142E+02  0.62499999758E+02  0.00000000000E+00 0. -1.
</event>
<event>
 4    1  0.1988088E-002  0.9118800E+02  0.7818608E-02  0.1130116E+00
         25   -1    0    0    0    0  0.00000000000E+00  0.00000000000E+00  0.99999998245E-14  0.12500000000E+03  0.12500000000E+03 0.  0.
        -11    1    1    0    0    0 -0.43420321320E+01 -0.52568379430E+01 -0.99431716819E+01  0.12056295101E+02  0.51100000000E-03 0. -1.
         11    1    1    0    0    0  0.46179501782E+02 -0.18793693890E+02 -0.22597940101E+02  0.54739530615E+02  0.51100000000E-03 0.  1.
         22    1    1    0    0    0 -0.41837469650E+02  0.24050531833E+02  0.32541111782E+02  0.58204174285E+02  0.00000000000E+00 0.  1.
</event>
<event>
 4    1  0.1988088E-002  0.9118800E+02  0.7818608E-02  0.1130116E+00
         25   -1    0    0    0    0  0.00000000000E+00  0.00000000000E+00  0.99999998245E-14  0.12500000000E+03  0.12500000000E+03 0.  0.
        -11    1    1    0    0    0 -0.29396061326E+01 -0.48468330921E+02 -0.35021617444E+02  0.59869308290E+02  0.51100000000E-03 0.  1.
         11    1    1    0    0    0 -0.12916236475E+00 -0.21298004605E+01 -0.15387676353E+01  0.26306917369E+01  0.51100000000E-03 0.  1.
         22    1    1    0    0    0  0.30687684974E+01  0.50598131382E+02  0.36560385080E+02  0.62499999973E+02  0.00000000000E+00 0.  1.
</event>
<event>
 4    1  0.1988088E-002  0.9118800E+02  0.7818608E-02  0.1130116E+00
         25   -1    0    0    0    0  0.00000000000E+00  0.00000000000E+00  0.99999998245E-14  0.12500000000E+03  0.12500000000E+03 0.  0.
        -11    1    1    0    0    0  0.70836408490E+01  0.15387531248E+01  0.11664125545E+02  0.13733082459E+02  0.51100000000E-03 0. -1.
         11    1    1    0    0    0  0.25152567152E+02  0.54622223551E+01  0.41421307806E+02  0.48766917557E+02  0.51100000000E-03 0.  1.
         22    1    1    0    0    0 -0.32236208001E+02 -0.70009754799E+01 -0.53085433350E+02  0.62499999984E+02  0.00000000000E+00 0.  1.
</event>
<event>
 4    1  0.1988088E-002  0.9118800E+02  0.7818608E-02  0.1130116E+00
         25   -1    0    0    0    0  0.00000000000E+00  0.00000000000E+00  0.99999998245E-14  0.12500000000E+03  0.12500000000E+03 0.  0.
        -11    1    1    0    0    0  0.28249471697E+02  0.10756916721E+02  0.51034542353E+02  0.59314993231E+02  0.51100000000E-03 0. -1.
         11    1    1    0    0    0  0.99789977890E+00 -0.12637940228E+01  0.30621712491E+01  0.34597503263E+01  0.51100000000E-03 0.  1.
         22    1    1    0    0    0 -0.29247371476E+02 -0.94931226977E+01 -0.54096713603E+02  0.62225256443E+02  0.00000000000E+00 0. -1.
</event>
<event>
 4    1  0.1988088E-002  0.9118800E+02  0.7818608E-02  0.1130116E+00
         25   -1    0    0    0    0  0.00000000000E+00  0.00000000000E+00  0.99999998245E-14  0.12500000000E+03  0.12500000000E+03 0.  0.
        -11    1    1    0    0    0  0.17693382534E+02  0.33712158536E+00 -0.13307039178E+02  0.22141515947E+02  0.51100000000E-03 0.  1.
         11    1    1    0    0    0  0.32250373917E+02  0.60699681738E+00 -0.24255972096E+02  0.40358484182E+02  0.51100000000E-03 0. -1.
         22    1    1    0    0    0 -0.49943756451E+02 -0.94411840274E+00  0.37563011273E+02  0.62499999871E+02  0.00000000000E+00 0. -1.
</event>
<event>
 4    1  0.1988088E-002  0.9118800E+02  0.7818608E-02  0.1130116E+00
         25   -1    0    0    0    0  0.00000000000E+00  0.00000000000E+00  0.99999998245E-14  0.12500000000E+03  0.12500000000E+03 0.  0.
        -11    1    1    0    0    0 -0.73002253163E+01 -0.26425674825E+02 -0.17623119340E+02  0.32591163145E+02  0.51100000000E-03 0. -1.
         11    1    1    0    0    0 -0.74780631206E+01 -0.24049039408E+02 -0.16137838028E+02  0.29911662291E+02  0.51100000000E-03 0.  1.
         22    1    1    0    0    0  0.14778288437E+02  0.50474714234E+02  0.33760957368E+02  0.62497174564E+02  0.00000000000E+00 0.  1.
</event>
<event>
 4    1  0.1988088E-002  0.9118800E+02  0.7818608E-02  0.1130116E+00
         25   -1    0    0    0    0  0.00000000000E+00  0.00000000000E+00  0.99999998245E-14  0.12500000000E+03  0.12500000000E+03 0.  0.
        -11    1    1    0    0    0  0.44475353532E+02 -0.34879202766E+01  0.26517249295E+02  0.51897853232E+02  0.51100000000E-03 0.  1.
         11    1    1    0    0    0  0.85061590903E+01 -0.13349680258E+01  0.62326147290E+01  0.10629316475E+02  0.51100000000E-03 0. -1.
         22    1    1    0    0    0 -0.52981512622E+02  0.48228883023E+01 -0.32749864024E+02  0.62472830294E+02  0.00000000000E+00 0.  1.
</event>
<event>
 4    1  0.1988088E-002  0.9118800E+02  0.7818608E-02  0.1130116E+00
         25   -1    0    0    0    0  0.00000000000E+00  0.00000000000E+00  0.99999998245E-14  0.12500000000E+03  0.12500000000E+03 0.  0.
        -11    1    1    0    0    0  0.40580545138E+02  0.37834831373E+02 -0.20609293158E+02  0.59186130753E+02  0.51100000000E-03 0. -1.
         11    1    1    0    0    0  0.25235118648E+01  0.20880616693E+01 -0.63984134160E+00  0.33372909478E+01  0.51100000000E-03 0.  1.
         22    1    1    0    0    0 -0.43104057003E+02 -0.39922893043E+02  0.21249134500E+02  0.62476578299E+02  0.00000000000E+00 0. -1.
</event>
<event>
 4    1  0.1988088E-002  0.9118800E+02  0.7818608E-02  0.1130116E+00
         25   -1    0    0    0    0  0.00000000000E+00  0.00000000000E+00  0.99999998245E-14  0.12500000000E+03  0.12500000000E+03 0.  0.
        -11    1    1    0    0    0  0.37049912012E+00 -0.94670737187E-01  0.38314200703E+00  0.54132264424E+00  0.51100000000E-03 0. -1.
         11    1    1    0    0    0  0.41585122059E+02 -0.10147873288E+02  0.44794919513E+02  0.61958748562E+02  0.51100000000E-03 0.  1.
         22    1    1    0    0    0 -0.41955621179E+02  0.10242544025E+02 -0.45178061520E+02  0.62499928794E+02  0.00000000000E+00 0.  1.
</event>
<event>
 4    1  0.1988088E-002  0.9118800E+02  0.7818608E-02  0.1130116E+00
         25   -1    0    0    0    0  0.00000000000E+00  0.00000000000E+00  0.99999998245E-14  0.12500000000E+03  0.12500000000E+03 0.  0.
        -11    1    1    0    0    0 -0.13935735747E+02 -0.36501428302E+01  0.60606360581E+01  0.15628806199E+02  0.51100000000E-03 0.  1.
         11    1    1    0    0    0 -0.34617544117E+02 -0.21762920456E+02  0.23441450503E+02  0.47132798235E+02  0.51100000000E-03 0. -1.
         22    1    1    0    0    0  0.48553279865E+02  0.25413063287E+02 -0.29502086561E+02  0.62238395567E+02  0.00000000000E+00 0. -1.
</event>
<event>
 4    1  0.1988088E-002  0.9118800E+02  0.7818608E-02  0.1130116E+00
         25   -1    0    0    0    0  0.00000000000E+00  0.00000000000E+00  0.99999998245E-14  0.12500000000E+03  0.12500000000E+03 0.  0.
        -11    1    1    0    0    0  0.46253043594E+02  0.40728070024E+01 -0.32830971752E+02  0.56866549966E+02  0.51100000000E-03 0.  1.
         11    1    1    0    0    0  0.43015280246E+01  0.84386904770E-02 -0.36628003702E+01  0.56497186984E+01  0.51100000000E-03 0. -1.
         22    1    1    0    0    0 -0.50554571618E+02 -0.40812456928E+01  0.36493772123E+02  0.62483731336E+02  0.00000000000E+00 0.  1.
</event>
<event>
 4    1  0.1988088E-002  0.9118800E+02  0.7818608E-02  0.1130116E+00
         25   -1    0    0    0    0  0.00000000000E+00  0.00000000000E+00  0.99999998245E-14  0.12500000000E+03  0.12500000000E+03 0.  0.
        -11    1    1    0    0    0 -0.19604817527E+02  0.25569226735E+02 -0.28984126713E+02  0.43338364386E+02  0.51100000000E-03 0. -1.
         11    1    1    0    0    0 -0.86901943222E+01  0.11278504197E+02 -0.12823594922E+02  0.19161647144E+02  0.51100000000E-03 0.  1.
         22    1    1    0    0    0  0.28295011849E+02 -0.36847730932E+02  0.41807721635E+02  0.62499988470E+02  0.00000000000E+00 0. -1.
</event>
<event>
 4    1  0.1988088E-002  0.9118800E+02  0.7818608E-02  0.1130116E+00
         25   -1    0    0    0    0  0.00000000000E+00  0.00000000000E+00  0.99999998245E-14  0.12500000000E+03  0.12500000000E+03 0.  0.
        -11    1    1    0    0    0 -0.34465630554E+01 -0.20018358589E+01 -0.13281353844E+00  0.39879547888E+01  0.51100000000E-03 0. -1.
         11    1    1    0    0    0 -0.45774040944E+02 -0.34162193459E+02 -0.12908963226E+02  0.58557319083E+02  0.51100000000E-03 0.  1.
         22    1    1    0    0    0  0.49220604000E+02  0.36164029318E+02  0.13041776764E+02  0.62454726129E+02  0.00000000000E+00 0.  1.
</event>
<event>
 4    1  0.1988088E-002  0.9118800E+02  0.7818608E-02  0.1130116E+00
         25   -1    0    0    0    0  0.00000000000E+00  0.00000000000E+00  0.99999998245E-14  0.12500000000E+03  0.12500000000E+03 0.  0.
        -11    1    1    0    0    0  0.29849186761E+02  0.27570885995E+01  0.14202188573E+02  0.33170433346E+02  0.51100000000E-03 0. -1.
         11    1    1    0    0    0  0.26511666928E+02  0.19095257734E+01  0.12401330898E+02  0.29331003738E+02  0.51100000000E-03 0.  1.
         22    1    1    0    0    0 -0.56360853689E+02 -0.46666143729E+01 -0.26603519471E+02  0.62498562916E+02  0.00000000000E+00 0. -1.
</event>
<event>
 4    1  0.1988088E-002  0.9118800E+02  0.7818608E-02  0.1130116E+00
         25   -1    0    0    0    0  0.00000000000E+00  0.00000000000E+00  0.99999998245E-14  0.12500000000E+03  0.12500000000E+03 0.  0.
        -11    1    1    0    0    0 -0.24496496611E+02 -0.22993805593E+02  0.12329244005E+02  0.35788317925E+02  0.51100000000E-03 0. -1.
         11    1    1    0    0    0 -0.18264180221E+02 -0.17171279405E+02  0.92239422620E+01  0.26711687080E+02  0.51100000000E-03 0.  1.
         22    1    1    0    0    0  0.42760676833E+02  0.40165084999E+02 -0.21553186267E+02  0.62499994995E+02  0.00000000000E+00 0. -1.
</event>
<event>
 4    1  0.1988088E-002  0.9118800E+02  0.7818608E-02  0.1130116E+00
         25   -1    0    0    0    0  0.00000000000E+00  0.00000000000E+00  0.99999998245E-14  0.12500000000E+03  0.12500000000E+03 0.  0.
        -11    1    1    0    0    0 -0.10470262730E+02  0.88198938951E+01 -0.33651326140E+02  0.36329446475E+02  0.51100000000E-03 0. -1.
         11    1    1    0    0    0 -0.25143147370E+02 -0.31111172092E+02  0.15400431878E+02  0.42863226557E+02  0.51100000000E-03 0.  1.
         22    1    1    0    0    0  0.35613410100E+02  0.22291278197E+02  0.18250894261E+02  0.45807326968E+02  0.00000000000E+00 0. -1.
</event>
<event>
 4    1  0.1988088E-002  0.9118800E+02  0.7818608E-02  0.1130116E+00
         25   -1    0    0    0    0  0.00000000000E+00  0.00000000000E+00  0.99999998245E-14  0.12500000000E+03  0.12500000000E+03 0.  0.
        -11    1    1    0    0    0  0.23803147410E+01  0.29170569549E+01  0.29477631905E+01  0.47816762367E+01  0.51100000000E-03 0. -1.
         11    1    1    0    0    0  0.28604268202E+02  0.35467526932E+02  0.35429638724E+02  0.57718358660E+02  0.51100000000E-03 0.  1.
         22    1    1    0    0    0 -0.30984582943E+02 -0.38384583887E+02 -0.38377401914E+02  0.62499965104E+02  0.00000000000E+00 0.  1.
</event>
<event>
 4    1  0.1988088E-002  0.9118800E+02  0.7818608E-02  0.1130116E+00
         25   -1    0    0    0    0  0.00000000000E+00  0.00000000000E+00  0.99999998245E-14  0.12500000000E+03  0.12500000000E+03 0.  0.
        -11    1    1    0    0    0 -0.30807202212E+02 -0.29627377162E+02 -0.45521795627E+02  0.62442766299E+02  0.51100000000E-03 0.  1.
         11    1    1    0    0    0 -0.91053993917E-01  0.42321254141E-01  0.26023172497E+00  0.27893140763E+00  0.51100000000E-03 0. -1.
         22    1    1    0    0    0  0.30898256206E+02  0.29585055908E+02  0.45261563903E+02  0.62278302293E+02  0.00000000000E+00 0.  1.
</event>
<event>
 4    1  0.1988088E-002  0.9118800E+02  0.7818608E-02  0.1130116E+00
         25   -1    0    0    0    0  0.00000000000E+00  0.00000000000E+00  0.99999998245E-14  0.12500000000E+03  0.12500000000E+03 0.  0.
        -11    1    1    0    0    0 -0.67604227570E+01  0.43223912967E+01  0.47970457416E+01  0.93486913781E+01  0.51100000000E-03 0. -1.
         11    1    1    0    0    0 -0.37346269570E+02  0.24318173595E+02  0.28969867022E+02  0.53154215386E+02  0.51100000000E-03 0.  1.
         22    1    1    0    0    0  0.44106692327E+02 -0.28640564892E+02 -0.33766912763E+02  0.62497093236E+02  0.00000000000E+00 0.  1.
</event>
<event>
 4    1  0.1988088E-002  0.9118800E+02  0.7818608E-02  0.1130116E+00
         25   -1    0    0    0    0  0.00000000000E+00  0.00000000000E+00  0.99999998245E-14  0.12500000000E+03  0.12500000000E+03 0.  0.
        -11    1    1    0    0    0  0.16562988150E+01  0.95578922567E+00  0.13452225049E+01  0.23380510382E+01  0.51100000000E-03 0. -1.
         11    1    1    0    0    0  0.48659988283E+02  0.19976846833E+02  0.29226967879E+02  0.60175447823E+02  0.51100000000E-03 0.  1.
         22    1    1    0    0    0 -0.50316287098E+02 -0.20932636058E+02 -0.30572190384E+02  0.62486501139E+02  0.00000000000E+00 0.  1.
</event>
<event>
 4    1  0.1988088E-002  0.9118800E+02  0.7818608E-02  0.1130116E+00
         25   -1    0    0    0    0  0.00000000000E+00  0.00000000000E+00  0.99999998245E-14  0.12500000000E+03  0.12500000000E+03 0.  0.
        -11    1    1    0    0    0 -0.17236302320E+01 -0.14864171740E+02 -0.20465529032E+02  0.25352561636E+02  0.51100000000E-03 0.  1.
         11    1    1    0    0    0 -0.25227656085E+01 -0.21777427696E+02 -0.29988522416E+02  0.37147438409E+02  0.51100000000E-03 0. -1.
         22    1    1    0    0    0  0.42463958405E+01  0.36641599436E+02  0.50454051448E+02  0.62499999955E+02  0.00000000000E+00 0.  1.
</event>
<event>
 4    1  0.1988088E-002  0.9118800E+02  0.7818608E-02  0.1130116E+00
         25   -1    0    0    0    0  0.00000000000E+00  0.00000000000E+00  0.99999998245E-14  0.12500000000E+03  0.12500000000E+03 0.  0.
        -11    1    1    0    0    0 -0.99156121183E+01  0.10523209300E+02 -0.92480876535E+01  0.17163461864E+02  0.51100000000E-03 0.  1.
         11    1    1    0    0    0 -0.26443996711E+02  0.27672211178E+02 -0.24297709159E+02  0.45336683868E+02  0.51100000000E-03 0. -1.
         22    1    1    0    0    0  0.36359608829E+02 -0.38195420478E+02  0.33545796812E+02  0.62499854268E+02  0.00000000000E+00 0. -1.
</event>
<event>
 4    1  0.1988088E-002  0.9118800E+02  0.7818608E-02  0.1130116E+00
         25   -1    0    0    0    0  0.00000000000E+00  0.00000000000E+00  0.99999998245E-14  0.12500000000E+03  0.12500000000E+03 0.  0.
        -11    1    1    0    0    0  0.54839678039E+00 -0.24336969149E+02  0.34129397920E+02  0.41921409912E+02  0.51100000000E-03 0. -1.
         11    1    1    0    0    0  0.35398208231E+00 -0.11981503423E+02  0.16727214173E+02  0.20578664239E+02  0.51100000000E-03 0.  1.
         22    1    1    0    0    0 -0.90237886270E+00  0.36318472572E+02 -0.50856612093E+02  0.62499925849E+02  0.00000000000E+00 0. -1.
</event>
<event>
 4    1  0.1988088E-002  0.9118800E+02  0.7818608E-02  0.1130116E+00
         25   -1    0    0    0    0  0.00000000000E+00  0.00000000000E+00  0.99999998245E-14  0.12500000000E+03  0.12500000000E+03 0.  0.
        -11    1    1    0    0    0  0.98812177632E+01  0.16953389356E+02 -0.16683381111E+02  0.25756379417E+02  0.51100000000E-03 0.  1.
         11    1    1    0    0    0  0.31464211074E+01  0.30929383415E+02 -0.20496030772E+02  0.37237266306E+02  0.51100000000E-03 0. -1.
         22    1    1    0    0    0 -0.13027638871E+02 -0.47882772771E+02  0.37179411883E+02  0.62006354277E+02  0.00000000000E+00 0. -1.
</event>
<event>
 4    1  0.1988088E-002  0.9118800E+02  0.7818608E-02  0.1130116E+00
         25   -1    0    0    0    0  0.00000000000E+00  0.00000000000E+00  0.99999998245E-14  0.12500000000E+03  0.12500000000E+03 0.  0.
        -11    1    1    0    0    0 -0.30053408091E+02 -0.17819580616E+02 -0.93003162719E+01  0.36155783413E+02  0.51100000000E-03 0. -1.
         11    1    1    0    0    0 -0.21900328732E+02 -0.12979073868E+02 -0.67776839264E+01  0.26344216760E+02  0.51100000000E-03 0. -1.
         22    1    1    0    0    0  0.51953736823E+02  0.30798654484E+02  0.16078000198E+02  0.62499999826E+02  0.00000000000E+00 0. -1.
</event>
<event>
 4    1  0.1988088E-002  0.9118800E+02  0.7818608E-02  0.1130116E+00
         25   -1    0    0    0    0  0.00000000000E+00  0.00000000000E+00  0.99999998245E-14  0.12500000000E+03  0.12500000000E+03 0.  0.
        -11    1    1    0    0    0  0.91211490229E+01 -0.15060831512E+02  0.10443127639E+01  0.17638440825E+02  0.51100000000E-03 0. -1.
         11    1    1    0    0    0  0.12782808703E+02 -0.43077750497E+02 -0.43592036744E+01  0.45145270440E+02  0.51100000000E-03 0.  1.
         22    1    1    0    0    0 -0.21903957726E+02  0.58138582009E+02  0.33148909105E+01  0.62216288734E+02  0.00000000000E+00 0.  1.
</event>
<event>
 4    1  0.1988088E-002  0.9118800E+02  0.7818608E-02  0.1130116E+00
         25   -1    0    0    0    0  0.00000000000E+00  0.00000000000E+00  0.99999998245E-14  0.12500000000E+03  0.12500000000E+03 0.  0.
        -11    1    1    0    0    0 -0.94071514161E+01  0.33711735671E+01  0.87014476225E+01  0.13250452821E+02  0.51100000000E-03 0.  1.
         11    1    1    0    0    0  0.55911508135E+02 -0.18172189527E+02 -0.19168976074E+02  0.61836678906E+02  0.51100000000E-03 0. -1.
         22    1    1    0    0    0 -0.46504356719E+02  0.14801015960E+02  0.10467528452E+02  0.49912868272E+02  0.00000000000E+00 0. -1.
</event>
<event>
 4    1  0.1988088E-002  0.9118800E+02  0.7818608E-02  0.1130116E+00
         25   -1    0    0    0    0  0.00000000000E+00  0.00000000000E+00  0.99999998245E-14  0.12500000000E+03  0.12500000000E+03 0.  0.
        -11    1    1    0    0    0 -0.93266362298E+01 -0.74392829433E+01  0.22291659504E+01  0.12136649256E+02  0.51100000000E-03 0.  1.
         11    1    1    0    0    0 -0.38567669372E+02 -0.31017384770E+02  0.93235292353E+01  0.50363394210E+02  0.51100000000E-03 0. -1.
         22    1    1    0    0    0  0.47894305602E+02  0.38456667713E+02 -0.11552695186E+02  0.62499956534E+02  0.00000000000E+00 0.  1.
</event>
<event>
 4    1  0.1988088E-002  0.9118800E+02  0.7818608E-02  0.1130116E+00
         25   -1    0    0    0    0  0.00000000000E+00  0.00000000000E+00  0.99999998245E-14  0.12500000000E+03  0.12500000000E+03 0.  0.
        -11    1    1    0    0    0  0.63889672865E+01  0.20096999213E+02  0.43351752207E+02  0.48208740909E+02  0.51100000000E-03 0. -1.
         11    1    1    0    0    0  0.24495574972E+01  0.60253404283E+01  0.12730337933E+02  0.14295683382E+02  0.51100000000E-03 0.  1.
         22    1    1    0    0    0 -0.88385247837E+01 -0.26122339641E+02 -0.56082090140E+02  0.62495575709E+02  0.00000000000E+00 0. -1.
</event>
<event>
 4    1  0.1988088E-002  0.9118800E+02  0.7818608E-02  0.1130116E+00
         25   -1    0    0    0    0  0.00000000000E+00  0.00000000000E+00  0.99999998245E-14  0.12500000000E+03  0.12500000000E+03 0.  0.
        -11    1    1    0    0    0  0.23165078735E+01  0.24479350878E+00 -0.49244909804E+01  0.54476365762E+01  0.51100000000E-03 0.  1.
         11    1    1    0    0    0  0.24183664378E+02  0.25881309211E+01 -0.51608375920E+02  0.57052366382E+02  0.51100000000E-03 0. -1.
         22    1    1    0    0    0 -0.26500172251E+02 -0.28329244299E+01  0.56532866901E+02  0.62499997042E+02  0.00000000000E+00 0. -1.
</event>
<event>
 4    1  0.1988088E-002  0.9118800E+02  0.7818608E-02  0.1130116E+00
         25   -1    0    0    0    0  0.00000000000E+00  0.00000000000E+00  0.99999998245E-14  0.12500000000E+03  0.12500000000E+03 0.  0.
        -11    1    1    0    0    0  0.20105905369E+01  0.38091019693E+01  0.43035796829E+01  0.60887215792E+01  0.51100000000E-03 0. -1.
         11    1    1    0    0    0 -0.20041195395E+02 -0.53151683534E+02  0.21050228171E+02  0.60579394860E+02  0.51100000000E-03 0.  1.
         22    1    1    0    0    0  0.18030604859E+02  0.49342581564E+02 -0.25353807854E+02  0.58331883560E+02  0.00000000000E+00 0.  1.
</event>
<event>
 4    1  0.1988088E-002  0.9118800E+02  0.7818608E-02  0.1130116E+00
         25   -1    0    0    0    0  0.00000000000E+00  0.00000000000E+00  0.99999998245E-14  0.12500000000E+03  0.12500000000E+03 0.  0.
        -11    1    1    0    0    0 -0.33547105808E+02  0.10735227498E+02 -0.10245935773E+02  0.36682865450E+02  0.51100000000E-03 0. -1.
         11    1    1    0    0    0 -0.23975160452E+02  0.64003012892E+01 -0.71542908584E+01  0.25825492314E+02  0.51100000000E-03 0.  1.
         22    1    1    0    0    0  0.57522266260E+02 -0.17135528787E+02  0.17400226631E+02  0.62491642236E+02  0.00000000000E+00 0. -1.
</event>
<event>
 4    1  0.1988088E-002  0.9118800E+02  0.7818608E-02  0.1130116E+00
         25   -1    0    0    0    0  0.00000000000E+00  0.00000000000E+00  0.99999998245E-14  0.12500000000E+03  0.12500000000E+03 0.  0.
        -11    1    1    0    0    0  0.12417564005E+02 -0.11217410439E+01  0.24668746446E+02  0.27640572539E+02  0.51100000000E-03 0.  1.
         11    1    1    0    0    0 -0.31959448390E+02 -0.36681695291E+02 -0.99378150211E+00  0.48661491066E+02  0.51100000000E-03 0. -1.
         22    1    1    0    0    0  0.19541884385E+02  0.37803436335E+02 -0.23674964944E+02  0.48697936395E+02  0.00000000000E+00 0. -1.
</event>
<event>
 4    1  0.1988088E-002  0.9118800E+02  0.7818608E-02  0.1130116E+00
         25   -1    0    0    0    0  0.00000000000E+00  0.00000000000E+00  0.99999998245E-14  0.12500000000E+03  0.12500000000E+03 0.  0.
        -11    1    1    0    0    0 -0.27673227475E+02 -0.13471354758E+01  0.20386480921E+02  0.34398123459E+02  0.51100000000E-03 0.  1.
         11    1    1    0    0    0 -0.22609303516E+02 -0.11014716865E+01  0.16652976359E+02  0.28101876578E+02  0.51100000000E-03 0. -1.
         22    1    1    0    0    0  0.50282530991E+02  0.24486071622E+01 -0.37039457280E+02  0.62499999963E+02  0.00000000000E+00 0. -1.
</event>
<event>
 4    1  0.1988088E-002  0.9118800E+02  0.7818608E-02  0.1130116E+00
         25   -1    0    0    0    0  0.00000000000E+00  0.00000000000E+00  0.99999998245E-14  0.12500000000E+03  0.12500000000E+03 0.  0.
        -11    1    1    0    0    0  0.35665278865E+02  0.35534676080E+02  0.39970714997E+01  0.50504474073E+02  0.51100000000E-03 0. -1.
         11    1    1    0    0    0  0.84676407330E+01  0.84435747423E+01  0.94750162181E+00  0.11995526399E+02  0.51100000000E-03 0.  1.
         22    1    1    0    0    0 -0.44132919598E+02 -0.43978250822E+02 -0.49445731215E+01  0.62499999527E+02  0.00000000000E+00 0. -1.
</event>
<event>
 4    1  0.1988088E-002  0.9118800E+02  0.7818608E-02  0.1130116E+00
         25   -1    0    0    0    0  0.00000000000E+00  0.00000000000E+00  0.99999998245E-14  0.12500000000E+03  0.12500000000E+03 0.  0.
        -11    1    1    0    0    0  0.50349049103E+01  0.13145610356E+02 -0.15086658677E+01  0.14157450761E+02  0.51100000000E-03 0.  1.
         11    1    1    0    0    0  0.17153254165E+02  0.44909854244E+02 -0.50866136242E+01  0.48342556563E+02  0.51100000000E-03 0. -1.
         22    1    1    0    0    0 -0.22188159075E+02 -0.58055464599E+02  0.65952794918E+01  0.62499992676E+02  0.00000000000E+00 0.  1.
</event>
<event>
 4    1  0.1988088E-002  0.9118800E+02  0.7818608E-02  0.1130116E+00
         25   -1    0    0    0    0  0.00000000000E+00  0.00000000000E+00  0.99999998245E-14  0.12500000000E+03  0.12500000000E+03 0.  0.
        -11    1    1    0    0    0  0.20633569339E+01  0.30629360894E+02  0.15164220481E+02  0.34239871110E+02  0.51100000000E-03 0. -1.
         11    1    1    0    0    0  0.17073504353E+01  0.25279313658E+02  0.12517034234E+02  0.28260128995E+02  0.51100000000E-03 0.  1.
         22    1    1    0    0    0 -0.37707073692E+01 -0.55908674552E+02 -0.27681254715E+02  0.62499999895E+02  0.00000000000E+00 0.  1.
</event>
<event>
 4    1  0.1988088E-002  0.9118800E+02  0.7818608E-02  0.1130116E+00
         25   -1    0    0    0    0  0.00000000000E+00  0.00000000000E+00  0.99999998245E-14  0.12500000000E+03  0.12500000000E+03 0.  0.
        -11    1    1    0    0    0  0.25861206263E+02 -0.20868566084E+01  0.22431508265E+02  0.34297660608E+02  0.51100000000E-03 0. -1.
         11    1    1    0    0    0  0.21271639496E+02 -0.17147962072E+01  0.18437700528E+02  0.28202339866E+02  0.51100000000E-03 0.  1.
         22    1    1    0    0    0 -0.47132845758E+02  0.38016528156E+01 -0.40869208793E+02  0.62499999526E+02  0.00000000000E+00 0. -1.
</event>
<event>
 4    1  0.1988088E-002  0.9118800E+02  0.7818608E-02  0.1130116E+00
         25   -1    0    0    0    0  0.00000000000E+00  0.00000000000E+00  0.99999998245E-14  0.12500000000E+03  0.12500000000E+03 0.  0.
        -11    1    1    0    0    0 -0.25185277412E+01  0.30803718752E+02  0.28731530749E+02  0.42198494409E+02  0.51100000000E-03 0.  1.
         11    1    1    0    0    0 -0.33836271533E+01  0.13328044748E+02  0.15030116823E+02  0.20371306327E+02  0.51100000000E-03 0. -1.
         22    1    1    0    0    0  0.59021548945E+01 -0.44131763500E+02 -0.43761647571E+02  0.62430199264E+02  0.00000000000E+00 0.  1.
</event>
<event>
 4    1  0.1988088E-002  0.9118800E+02  0.7818608E-02  0.1130116E+00
         25   -1    0    0    0    0  0.00000000000E+00  0.00000000000E+00  0.99999998245E-14  0.12500000000E+03  0.12500000000E+03 0.  0.
        -11    1    1    0    0    0 -0.38444623014E+01 -0.89887341592E+00  0.14907853556E+01  0.42202257099E+01  0.51100000000E-03 0.  1.
         11    1    1    0    0    0 -0.51522417604E+02 -0.13779403292E+02  0.23506048769E+02  0.58283495090E+02  0.51100000000E-03 0. -1.
         22    1    1    0    0    0  0.55366879906E+02  0.14678276708E+02 -0.24996834125E+02  0.62496279200E+02  0.00000000000E+00 0. -1.
</event>
<event>
 4    1  0.1988088E-002  0.9118800E+02  0.7818608E-02  0.1130116E+00
         25   -1    0    0    0    0  0.00000000000E+00  0.00000000000E+00  0.99999998245E-14  0.12500000000E+03  0.12500000000E+03 0.  0.
        -11    1    1    0    0    0 -0.38775191449E+02  0.14278001631E+02 -0.11269397556E+02  0.42829617369E+02  0.51100000000E-03 0. -1.
         11    1    1    0    0    0 -0.16077811893E+02  0.39476294995E+01 -0.11380232663E+02  0.20089537318E+02  0.51100000000E-03 0.  1.
         22    1    1    0    0    0  0.54853003341E+02 -0.18225631131E+02  0.22649630219E+02  0.62080845313E+02  0.00000000000E+00 0.  1.
</event>
<event>
 4    1  0.1988088E-002  0.9118800E+02  0.7818608E-02  0.1130116E+00
         25   -1    0    0    0    0  0.00000000000E+00  0.00000000000E+00  0.99999998245E-14  0.12500000000E+03  0.12500000000E+03 0.  0.
        -11    1    1    0    0    0 -0.11656013666E+02 -0.98373404490E+01 -0.11257787807E+02  0.18957154540E+02  0.51100000000E-03 0. -1.
         11    1    1    0    0    0 -0.26357077940E+02 -0.29551351586E+02 -0.18534469996E+02  0.43720756128E+02  0.51100000000E-03 0.  1.
         22    1    1    0    0    0  0.38013091606E+02  0.39388692035E+02  0.29792257803E+02  0.62322089332E+02  0.00000000000E+00 0. -1.
</event>
<event>
 4    1  0.1988088E-002  0.9118800E+02  0.7818608E-02  0.1130116E+00
         25   -1    0    0    0    0  0.00000000000E+00  0.00000000000E+00  0.99999998245E-14  0.12500000000E+03  0.12500000000E+03 0.  0.
        -11    1    1    0    0    0  0.15954562563E+02  0.49888804780E+02 -0.14334225355E+02  0.54303875790E+02  0.51100000000E-03 0.  1.
         11    1    1    0    0    0  0.53161714916E+00  0.77821311982E+01 -0.28457419039E+01  0.83031578345E+01  0.51100000000E-03 0. -1.
         22    1    1    0    0    0 -0.16486179712E+02 -0.57670935979E+02  0.17179967259E+02  0.62392966376E+02  0.00000000000E+00 0.  1.
</event>
<event>
 4    1  0.1988088E-002  0.9118800E+02  0.7818608E-02  0.1130116E+00
         25   -1    0    0    0    0  0.00000000000E+00  0.00000000000E+00  0.99999998245E-14  0.12500000000E+03  0.12500000000E+03 0.  0.
        -11    1    1    0    0    0  0.37176195436E+01 -0.30535518204E+01  0.49807217149E+01  0.69247716824E+01  0.51100000000E-03 0.  1.
         11    1    1    0    0    0  0.29697383533E+02 -0.24770933656E+02  0.39913373660E+02  0.55575274540E+02  0.51100000000E-03 0. -1.
         22    1    1    0    0    0 -0.33415003077E+02  0.27824485477E+02 -0.44894095375E+02  0.62499953778E+02  0.00000000000E+00 0. -1.
</event>
<event>
 4    1  0.1988088E-002  0.9118800E+02  0.7818608E-02  0.1130116E+00
         25   -1    0    0    0    0  0.00000000000E+00  0.00000000000E+00  0.99999998245E-14  0.12500000000E+03  0.12500000000E+03 0.  0.
        -11    1    1    0    0    0  0.67826570792E+01  0.45346000917E+02  0.20534909849E+02  0.50238896873E+02  0.51100000000E-03 0. -1.
         11    1    1    0    0    0  0.16431852203E+01  0.11067965190E+02  0.50134618626E+01  0.12261105628E+02  0.51100000000E-03 0.  1.
         22    1    1    0    0    0 -0.84258422995E+01 -0.56413966106E+02 -0.25548371712E+02  0.62499997500E+02  0.00000000000E+00 0. -1.
</event>
<event>
 4    1  0.1988088E-002  0.9118800E+02  0.7818608E-02  0.1130116E+00
         25   -1    0    0    0    0  0.00000000000E+00  0.00000000000E+00  0.99999998245E-14  0.12500000000E+03  0.12500000000E+03 0.  0.
        -11    1    1    0    0    0  0.11856257570E+02 -0.38787687805E+02  0.10921939685E+02  0.42004099033E+02  0.51100000000E-03 0. -1.
         11    1    1    0    0    0  0.57839624989E+01 -0.18926835455E+02  0.53294122081E+01  0.20495900987E+02  0.51100000000E-03 0. -1.
         22    1    1    0    0    0 -0.17640220069E+02  0.57714523260E+02 -0.16251351893E+02  0.62499999980E+02  0.00000000000E+00 0. -1.
</event>
<event>
 4    1  0.1988088E-002  0.9118800E+02  0.7818608E-02  0.1130116E+00
         25   -1    0    0    0    0  0.00000000000E+00  0.00000000000E+00  0.99999998245E-14  0.12500000000E+03  0.12500000000E+03 0.  0.
        -11    1    1    0    0    0  0.28645326465E+01 -0.22281132535E+00  0.38115138817E+01  0.47731363380E+01  0.51100000000E-03 0. -1.
         11    1    1    0    0    0  0.38061602892E+02 -0.66774990173E+01  0.42901723603E+02  0.57739349635E+02  0.51100000000E-03 0.  1.
         22    1    1    0    0    0 -0.40926135539E+02  0.69003103427E+01 -0.46713237485E+02  0.62487514027E+02  0.00000000000E+00 0.  1.
</event>
<event>
 4    1  0.1988088E-002  0.9118800E+02  0.7818608E-02  0.1130116E+00
         25   -1    0    0    0    0  0.00000000000E+00  0.00000000000E+00  0.99999998245E-14  0.12500000000E+03  0.12500000000E+03 0.  0.
        -11    1    1    0    0    0  0.27469924935E+02 -0.18727966386E+02  0.28404121350E+01  0.33367670615E+02  0.51100000000E-03 0.  1.
         11    1    1    0    0    0  0.23287768122E+02 -0.17021644192E+02  0.42047263133E+01  0.29150235655E+02  0.51100000000E-03 0. -1.
         22    1    1    0    0    0 -0.50757693058E+02  0.35749610579E+02 -0.70451384483E+01  0.62482093730E+02  0.00000000000E+00 0. -1.
</event>
<event>
 4    1  0.1988088E-002  0.9118800E+02  0.7818608E-02  0.1130116E+00
         25   -1    0    0    0    0  0.00000000000E+00  0.00000000000E+00  0.99999998245E-14  0.12500000000E+03  0.12500000000E+03 0.  0.
        -11    1    1    0    0    0 -0.32996846867E+02 -0.11059077263E+02  0.46854247509E+02  0.58364506363E+02  0.51100000000E-03 0. -1.
         11    1    1    0    0    0 -0.52744247896E+01  0.69377753706E+01 -0.65420592061E+01  0.10897285115E+02  0.51100000000E-03 0.  1.
         22    1    1    0    0    0  0.38271271657E+02  0.41213018924E+01 -0.40312188303E+02  0.55738208522E+02  0.00000000000E+00 0. -1.
</event>
<event>
 4    1  0.1988088E-002  0.9118800E+02  0.7818608E-02  0.1130116E+00
         25   -1    0    0    0    0  0.00000000000E+00  0.00000000000E+00  0.99999998245E-14  0.12500000000E+03  0.12500000000E+03 0.  0.
        -11    1    1    0    0    0  0.10399338865E+02 -0.16794717027E+02  0.16248221598E+02  0.25577597116E+02  0.51100000000E-03 0. -1.
         11    1    1    0    0    0  0.72167250649E+01 -0.29451362121E+02  0.21508352015E+02  0.37176243195E+02  0.51100000000E-03 0.  1.
         22    1    1    0    0    0 -0.17616063930E+02  0.46246079149E+02 -0.37756573613E+02  0.62246159689E+02  0.00000000000E+00 0.  1.
</event>
<event>
 4    1  0.1988088E-002  0.9118800E+02  0.7818608E-02  0.1130116E+00
         25   -1    0    0    0    0  0.00000000000E+00  0.00000000000E+00  0.99999998245E-14  0.12500000000E+03  0.12500000000E+03 0.  0.
        -11    1    1    0    0    0 -0.24113953192E+01  0.33062516971E+02  0.77476461220E+01  0.34043661327E+02  0.51100000000E-03 0. -1.
         11    1    1    0    0    0 -0.36011378786E+01  0.27166224415E+02  0.77443161419E+01  0.28477120215E+02  0.51100000000E-03 0.  1.
         22    1    1    0    0    0  0.60125331978E+01 -0.60228741386E+02 -0.15491962264E+02  0.62479218458E+02  0.00000000000E+00 0. -1.
</event>
<event>
 4    1  0.1988088E-002  0.9118800E+02  0.7818608E-02  0.1130116E+00
         25   -1    0    0    0    0  0.00000000000E+00  0.00000000000E+00  0.99999998245E-14  0.12500000000E+03  0.12500000000E+03 0.  0.
        -11    1    1    0    0    0 -0.11836971461E+02  0.26465151377E+01  0.60230630892E+01  0.13542349316E+02  0.51100000000E-03 0.  1.
         11    1    1    0    0    0 -0.41692778901E+02  0.12222120743E+02  0.22586489607E+02  0.48967515364E+02  0.51100000000E-03 0. -1.
         22    1    1    0    0    0  0.53529750363E+02 -0.14868635880E+02 -0.28609552696E+02  0.62490135320E+02  0.00000000000E+00 0. -1.
</event>
<event>
 4    1  0.1988088E-002  0.9118800E+02  0.7818608E-02  0.1130116E+00
         25   -1    0    0    0    0  0.00000000000E+00  0.00000000000E+00  0.99999998245E-14  0.12500000000E+03  0.12500000000E+03 0.  0.
        -11    1    1    0    0    0  0.79173065449E+01  0.93528631287E+01 -0.40889919846E+01  0.12918190560E+02  0.51100000000E-03 0.  1.
         11    1    1    0    0    0  0.30367714635E+02  0.36029380711E+02 -0.15428887443E+02  0.49581901280E+02  0.51100000000E-03 0. -1.
         22    1    1    0    0    0 -0.38285021180E+02 -0.45382243840E+02  0.19517879428E+02  0.62499908160E+02  0.00000000000E+00 0. -1.
</event>
<event>
 4    1  0.1988088E-002  0.9118800E+02  0.7818608E-02  0.1130116E+00
         25   -1    0    0    0    0  0.00000000000E+00  0.00000000000E+00  0.99999998245E-14  0.12500000000E+03  0.12500000000E+03 0.  0.
        -11    1    1    0    0    0 -0.12988856590E+02  0.49500108715E+02 -0.75947873641E+01  0.51736369738E+02  0.51100000000E-03 0.  1.
         11    1    1    0    0    0 -0.26867969819E+01  0.10304226717E+02 -0.15684195704E+01  0.10763638161E+02  0.51100000000E-03 0. -1.
         22    1    1    0    0    0  0.15675653572E+02 -0.59804335431E+02  0.91632069345E+01  0.62499992101E+02  0.00000000000E+00 0.  1.
</event>
<event>
 4    1  0.1988088E-002  0.9118800E+02  0.7818608E-02  0.1130116E+00
         25   -1    0    0    0    0  0.00000000000E+00  0.00000000000E+00  0.99999998245E-14  0.12500000000E+03  0.12500000000E+03 0.  0.
        -11    1    1    0    0    0  0.19686649467E+01  0.81814301108E+01  0.10251677320E+02  0.13263043711E+02  0.51100000000E-03 0. -1.
         11    1    1    0    0    0 -0.19353046699E+02  0.47266795928E+02  0.59247043707E+01  0.51417823136E+02  0.51100000000E-03 0.  1.
         22    1    1    0    0    0  0.17384381752E+02 -0.55448226039E+02 -0.16176381691E+02  0.60319133154E+02  0.00000000000E+00 0.  1.
</event>
<event>
 4    1  0.1988088E-002  0.9118800E+02  0.7818608E-02  0.1130116E+00
         25   -1    0    0    0    0  0.00000000000E+00  0.00000000000E+00  0.99999998245E-14  0.12500000000E+03  0.12500000000E+03 0.  0.
        -11    1    1    0    0    0  0.62558908528E+01 -0.34111005867E+01 -0.21230364200E+02  0.22394198845E+02  0.51100000000E-03 0. -1.
         11    1    1    0    0    0  0.11205822353E+02 -0.61111037423E+01 -0.38020510842E+02  0.40105801182E+02  0.51100000000E-03 0. -1.
         22    1    1    0    0    0 -0.17461713206E+02  0.95222043290E+01  0.59250875042E+02  0.62499999973E+02  0.00000000000E+00 0. -1.
</event>
<event>
 4    1  0.1988088E-002  0.9118800E+02  0.7818608E-02  0.1130116E+00
         25   -1    0    0    0    0  0.00000000000E+00  0.00000000000E+00  0.99999998245E-14  0.12500000000E+03  0.12500000000E+03 0.  0.
        -11    1    1    0    0    0  0.94586271628E+01  0.10826707818E+01  0.15257768965E+02  0.17984363149E+02  0.51100000000E-03 0. -1.
         11    1    1    0    0    0  0.12869680837E+02 -0.26314568763E+02  0.35542214280E+02  0.46057944051E+02  0.51100000000E-03 0.  1.
         22    1    1    0    0    0 -0.22328308000E+02  0.25231897981E+02 -0.50799983245E+02  0.60957692800E+02  0.00000000000E+00 0.  1.
</event>
<event>
 4    1  0.1988088E-002  0.9118800E+02  0.7818608E-02  0.1130116E+00
         25   -1    0    0    0    0  0.00000000000E+00  0.00000000000E+00  0.99999998245E-14  0.12500000000E+03  0.12500000000E+03 0.  0.
        -11    1    1    0    0    0 -0.46336912633E+02  0.26807562755E+02 -0.51079794718E+01  0.53775890023E+02  0.51100000000E-03 0.  1.
         11    1    1    0    0    0 -0.75172333963E+01  0.43493015247E+01 -0.82757093604E+00  0.87241100178E+01  0.51100000000E-03 0. -1.
         22    1    1    0    0    0  0.53854146029E+02 -0.31156864280E+02  0.59355504078E+01  0.62499999959E+02  0.00000000000E+00 0.  1.
</event>
<event>
 4    1  0.1988088E-002  0.9118800E+02  0.7818608E-02  0.1130116E+00
         25   -1    0    0    0    0  0.00000000000E+00  0.00000000000E+00  0.99999998245E-14  0.12500000000E+03  0.12500000000E+03 0.  0.
        -11    1    1    0    0    0  0.20068076919E+00  0.13328000120E+01 -0.52928697174E+00  0.14480240339E+01  0.51100000000E-03 0. -1.
         11    1    1    0    0    0  0.86125148987E+01  0.56264725703E+02 -0.22078269436E+02  0.61051984021E+02  0.51100000000E-03 0.  1.
         22    1    1    0    0    0 -0.88131956679E+01 -0.57597525715E+02  0.22607556408E+02  0.62499991945E+02  0.00000000000E+00 0.  1.
</event>
<event>
 4    1  0.1988088E-002  0.9118800E+02  0.7818608E-02  0.1130116E+00
         25   -1    0    0    0    0  0.00000000000E+00  0.00000000000E+00  0.99999998245E-14  0.12500000000E+03  0.12500000000E+03 0.  0.
        -11    1    1    0    0    0 -0.64480217861E+01  0.34600188199E+02  0.81412410390E+01  0.36125196391E+02  0.51100000000E-03 0. -1.
         11    1    1    0    0    0 -0.62737707948E+01  0.25133534941E+02  0.50516656894E+01  0.26392690373E+02  0.51100000000E-03 0.  1.
         22    1    1    0    0    0  0.12721792581E+02 -0.59733723140E+02 -0.13192906728E+02  0.62482113237E+02  0.00000000000E+00 0. -1.
</event>
<event>
 4    1  0.1988088E-002  0.9118800E+02  0.7818608E-02  0.1130116E+00
         25   -1    0    0    0    0  0.00000000000E+00  0.00000000000E+00  0.99999998245E-14  0.12500000000E+03  0.12500000000E+03 0.  0.
        -11    1    1    0    0    0 -0.14751589497E+02 -0.35324106698E+02  0.36627376559E+02  0.52980813702E+02  0.51100000000E-03 0.  1.
         11    1    1    0    0    0 -0.26497829039E+01 -0.63475065919E+01  0.65804801346E+01  0.95191863326E+01  0.51100000000E-03 0. -1.
         22    1    1    0    0    0  0.17401372401E+02  0.41671613290E+02 -0.43207856694E+02  0.62499999965E+02  0.00000000000E+00 0.  1.
</event>
<event>
 4    1  0.1988088E-002  0.9118800E+02  0.7818608E-02  0.1130116E+00
         25   -1    0    0    0    0  0.00000000000E+00  0.00000000000E+00  0.99999998245E-14  0.12500000000E+03  0.12500000000E+03 0.  0.
        -11    1    1    0    0    0 -0.19118363115E+00  0.32127838721E+01 -0.44856112613E+01  0.55208006701E+01  0.51100000000E-03 0. -1.
         11    1    1    0    0    0 -0.74057346026E+01  0.27062040593E+02 -0.49627275595E+02  0.57009345105E+02  0.51100000000E-03 0.  1.
         22    1    1    0    0    0  0.75969182337E+01 -0.30274824465E+02  0.54112886856E+02  0.62469854225E+02  0.00000000000E+00 0.  1.
</event>
<event>
 4    1  0.1988088E-002  0.9118800E+02  0.7818608E-02  0.1130116E+00
         25   -1    0    0    0    0  0.00000000000E+00  0.00000000000E+00  0.99999998245E-14  0.12500000000E+03  0.12500000000E+03 0.  0.
        -11    1    1    0    0    0 -0.17994325317E+02 -0.52658926095E+02  0.27145771220E+02  0.61916485175E+02  0.51100000000E-03 0.  1.
         11    1    1    0    0    0 -0.15779796879E+00 -0.49617899099E+00  0.26361807573E+00  0.58359964104E+00  0.51100000000E-03 0. -1.
         22    1    1    0    0    0  0.18152123286E+02  0.53155105085E+02 -0.27409389295E+02  0.62499915184E+02  0.00000000000E+00 0.  1.
</event>
<event>
 4    1  0.1988088E-002  0.9118800E+02  0.7818608E-02  0.1130116E+00
         25   -1    0    0    0    0  0.00000000000E+00  0.00000000000E+00  0.99999998245E-14  0.12500000000E+03  0.12500000000E+03 0.  0.
        -11    1    1    0    0    0  0.12159283072E+02  0.57254721904E+01 -0.60162182830E+01  0.14724947515E+02  0.51100000000E-03 0. -1.
         11    1    1    0    0    0  0.39428230999E+02  0.18649465504E+02 -0.19495343985E+02  0.47775060446E+02  0.51100000000E-03 0.  1.
         22    1    1    0    0    0 -0.51587514070E+02 -0.24374937694E+02  0.25511562268E+02  0.62499992039E+02  0.00000000000E+00 0.  1.
</event>
<event>
 4    1  0.1988088E-002  0.9118800E+02  0.7818608E-02  0.1130116E+00
         25   -1    0    0    0    0  0.00000000000E+00  0.00000000000E+00  0.99999998245E-14  0.12500000000E+03  0.12500000000E+03 0.  0.
        -11    1    1    0    0    0  0.35813220301E+01  0.11356010579E+02 -0.28733507372E+01  0.12249121947E+02  0.51100000000E-03 0. -1.
         11    1    1    0    0    0  0.14391859188E+02  0.46561066563E+02 -0.12252439758E+02  0.50251177207E+02  0.51100000000E-03 0.  1.
         22    1    1    0    0    0 -0.17973181218E+02 -0.57917077142E+02  0.15125790495E+02  0.62499700846E+02  0.00000000000E+00 0.  1.
</event>
<event>
 4    1  0.1988088E-002  0.9118800E+02  0.7818608E-02  0.1130116E+00
         25   -1    0    0    0    0  0.00000000000E+00  0.00000000000E+00  0.99999998245E-14  0.12500000000E+03  0.12500000000E+03 0.  0.
        -11    1    1    0    0    0  0.42837519861E+01  0.58457712476E+01 -0.60662903247E+01  0.94511084600E+01  0.51100000000E-03 0. -1.
         11    1    1    0    0    0  0.24041233836E+02  0.32815654903E+02 -0.34049034715E+02  0.53048891565E+02  0.51100000000E-03 0.  1.
         22    1    1    0    0    0 -0.28324985822E+02 -0.38661426150E+02  0.40115325039E+02  0.62499999975E+02  0.00000000000E+00 0.  1.
</event>
<event>
 4    1  0.1988088E-002  0.9118800E+02  0.7818608E-02  0.1130116E+00
         25   -1    0    0    0    0  0.00000000000E+00  0.00000000000E+00  0.99999998245E-14  0.12500000000E+03  0.12500000000E+03 0.  0.
        -11    1    1    0    0    0 -0.51575686466E+01  0.17127144697E+01  0.14993454339E+02  0.15947964712E+02  0.51100000000E-03 0. -1.
         11    1    1    0    0    0 -0.15052455523E+02  0.49978699144E+01  0.43766846699E+02  0.46552035306E+02  0.51100000000E-03 0.  1.
         22    1    1    0    0    0  0.20210024170E+02 -0.67105843841E+01 -0.58760301037E+02  0.62499999982E+02  0.00000000000E+00 0.  1.
</event>
<event>
 4    1  0.1988088E-002  0.9118800E+02  0.7818608E-02  0.1130116E+00
         25   -1    0    0    0    0  0.00000000000E+00  0.00000000000E+00  0.99999998245E-14  0.12500000000E+03  0.12500000000E+03 0.  0.
        -11    1    1    0    0    0  0.69819630444E+01 -0.11983204562E+02 -0.66137491024E+01  0.15365112332E+02  0.51100000000E-03 0. -1.
         11    1    1    0    0    0  0.21480143510E+02 -0.36752257860E+02 -0.20237920064E+02  0.47134896115E+02  0.51100000000E-03 0.  1.
         22    1    1    0    0    0 -0.28462106554E+02  0.48735462423E+02  0.26851669166E+02  0.62499991552E+02  0.00000000000E+00 0.  1.
</event>
<event>
 4    1  0.1988088E-002  0.9118800E+02  0.7818608E-02  0.1130116E+00
         25   -1    0    0    0    0  0.00000000000E+00  0.00000000000E+00  0.99999998245E-14  0.12500000000E+03  0.12500000000E+03 0.  0.
        -11    1    1    0    0    0  0.75748115525E+01  0.92372649464E+01  0.27104934615E+02  0.29620640008E+02  0.51100000000E-03 0.  1.
         11    1    1    0    0    0 -0.30043773753E+00  0.24010391677E+01  0.33323850346E+02  0.33411588620E+02  0.51100000000E-03 0. -1.
         22    1    1    0    0    0 -0.72743738150E+01 -0.11638304114E+02 -0.60428784961E+02  0.61967771373E+02  0.00000000000E+00 0.  1.
</event>
<event>
 4    1  0.1988088E-002  0.9118800E+02  0.7818608E-02  0.1130116E+00
         25   -1    0    0    0    0  0.00000000000E+00  0.00000000000E+00  0.99999998245E-14  0.12500000000E+03  0.12500000000E+03 0.  0.
        -11    1    1    0    0    0  0.10435393990E+02  0.64604487317E+01  0.11847188767E+02  0.17058450325E+02  0.51100000000E-03 0.  1.
         11    1    1    0    0    0  0.27827610202E+02  0.17316108384E+02  0.31475602510E+02  0.45441578458E+02  0.51100000000E-03 0. -1.
         22    1    1    0    0    0 -0.38263004192E+02 -0.23776557116E+02 -0.43322791277E+02  0.62499971217E+02  0.00000000000E+00 0. -1.
</event>
<event>
 4    1  0.1988088E-002  0.9118800E+02  0.7818608E-02  0.1130116E+00
         25   -1    0    0    0    0  0.00000000000E+00  0.00000000000E+00  0.99999998245E-14  0.12500000000E+03  0.12500000000E+03 0.  0.
        -11    1    1    0    0    0  0.10721090266E+02  0.46235033799E+02  0.11946697832E+02  0.48942248786E+02  0.51100000000E-03 0. -1.
         11    1    1    0    0    0  0.18859466477E+01  0.13268899303E+02  0.22711774302E+01  0.13593334052E+02  0.51100000000E-03 0.  1.
         22    1    1    0    0    0 -0.12607036913E+02 -0.59503933102E+02 -0.14217875263E+02  0.62464417162E+02  0.00000000000E+00 0. -1.
</event>
<event>
 4    1  0.1988088E-002  0.9118800E+02  0.7818608E-02  0.1130116E+00
         25   -1    0    0    0    0  0.00000000000E+00  0.00000000000E+00  0.99999998245E-14  0.12500000000E+03  0.12500000000E+03 0.  0.
        -11    1    1    0    0    0 -0.35145560731E+01  0.70956367875E+01  0.45018389384E+01  0.91086069132E+01  0.51100000000E-03 0.  1.
         11    1    1    0    0    0 -0.19579425344E+02  0.42150364156E+02  0.26281806545E+02  0.53392325767E+02  0.51100000000E-03 0. -1.
         22    1    1    0    0    0  0.23093981417E+02 -0.49246000943E+02 -0.30783645483E+02  0.62499067320E+02  0.00000000000E+00 0. -1.
</event>
<event>
 4    1  0.1988088E-002  0.9118800E+02  0.7818608E-02  0.1130116E+00
         25   -1    0    0    0    0  0.00000000000E+00  0.00000000000E+00  0.99999998245E-14  0.12500000000E+03  0.12500000000E+03 0.  0.
        -11    1    1    0    0    0 -0.89746654582E-01 -0.47207187545E+00  0.85648705635E-01  0.48810068582E+00  0.51100000000E-03 0. -1.
         11    1    1    0    0    0 -0.12362226868E+02 -0.60405762619E+02  0.66234418317E+01  0.62012505132E+02  0.51100000000E-03 0.  1.
         22    1    1    0    0    0  0.12451973523E+02  0.60877834494E+02 -0.67090905373E+01  0.62499394183E+02  0.00000000000E+00 0.  1.
</event>
<event>
 4    1  0.1988088E-002  0.9118800E+02  0.7818608E-02  0.1130116E+00
         25   -1    0    0    0    0  0.00000000000E+00  0.00000000000E+00  0.99999998245E-14  0.12500000000E+03  0.12500000000E+03 0.  0.
        -11    1    1    0    0    0 -0.33931722503E+02  0.19501041799E+02 -0.24102837537E+01  0.39210481906E+02  0.51100000000E-03 0.  1.
         11    1    1    0    0    0 -0.20112553402E+02  0.11656387628E+02 -0.14204763172E+01  0.23289566980E+02  0.51100000000E-03 0. -1.
         22    1    1    0    0    0  0.54044275905E+02 -0.31157429427E+02  0.38307600709E+01  0.62499951114E+02  0.00000000000E+00 0. -1.
</event>
<event>
 4    1  0.1988088E-002  0.9118800E+02  0.7818608E-02  0.1130116E+00
         25   -1    0    0    0    0  0.00000000000E+00  0.00000000000E+00  0.99999998245E-14  0.12500000000E+03  0.12500000000E+03 0.  0.
        -11    1    1    0    0    0  0.17951538766E+02 -0.29060978546E+01  0.46410736423E+02  0.49846359992E+02  0.51100000000E-03 0.  1.
         11    1    1    0    0    0  0.45284505662E+01 -0.71203673885E+00  0.11794125543E+02  0.12653665810E+02  0.51100000000E-03 0. -1.
         22    1    1    0    0    0 -0.22479989333E+02  0.36181345934E+01 -0.58204861966E+02  0.62499974198E+02  0.00000000000E+00 0.  1.
</event>
<event>
 4    1  0.1988088E-002  0.9118800E+02  0.7818608E-02  0.1130116E+00
         25   -1    0    0    0    0  0.00000000000E+00  0.00000000000E+00  0.99999998245E-14  0.12500000000E+03  0.12500000000E+03 0.  0.
        -11    1    1    0    0    0  0.82745423254E+01 -0.34236344504E+00 -0.12934651798E+02  0.15358726537E+02  0.51100000000E-03 0. -1.
         11    1    1    0    0    0  0.25400818597E+02 -0.10504229959E+01 -0.39698799631E+02  0.47141273490E+02  0.51100000000E-03 0.  1.
         22    1    1    0    0    0 -0.33675360923E+02  0.13927864410E+01  0.52633451429E+02  0.62499999973E+02  0.00000000000E+00 0.  1.
</event>
<event>
 4    1  0.1988088E-002  0.9118800E+02  0.7818608E-02  0.1130116E+00
         25   -1    0    0    0    0  0.00000000000E+00  0.00000000000E+00  0.99999998245E-14  0.12500000000E+03  0.12500000000E+03 0.  0.
        -11    1    1    0    0    0 -0.37072245378E+02  0.43059625376E+02 -0.19290945469E+02  0.60005193877E+02  0.51100000000E-03 0.  1.
         11    1    1    0    0    0 -0.15568785564E+01  0.17655163076E+01 -0.82695014307E+00  0.24949479898E+01  0.51100000000E-03 0. -1.
         22    1    1    0    0    0  0.38629123934E+02 -0.44825141683E+02  0.20117895612E+02  0.62499858133E+02  0.00000000000E+00 0.  1.
</event>
<event>
 4    1  0.1988088E-002  0.9118800E+02  0.7818608E-02  0.1130116E+00
         25   -1    0    0    0    0  0.00000000000E+00  0.00000000000E+00  0.99999998245E-14  0.12500000000E+03  0.12500000000E+03 0.  0.
        -11    1    1    0    0    0  0.46286982834E-01  0.82676048862E-01  0.35637833835E+00  0.36875953547E+00  0.51100000000E-03 0.  1.
         11    1    1    0    0    0  0.65127453136E+01  0.17224678352E+02  0.59339902593E+02  0.62131549441E+02  0.51100000000E-03 0. -1.
         22    1    1    0    0    0 -0.65590322964E+01 -0.17307354401E+02 -0.59696280932E+02  0.62499691024E+02  0.00000000000E+00 0. -1.
</event>
<event>
 4    1  0.1988088E-002  0.9118800E+02  0.7818608E-02  0.1130116E+00
         25   -1    0    0    0    0  0.00000000000E+00  0.00000000000E+00  0.99999998245E-14  0.12500000000E+03  0.12500000000E+03 0.  0.
        -11    1    1    0    0    0 -0.60739863102E+00 -0.17797502130E+01  0.18590393180E+01  0.26443281499E+01  0.51100000000E-03 0.  1.
         11    1    1    0    0    0 -0.11860308897E+02 -0.41588081121E+02  0.41383422357E+02  0.59856687719E+02  0.51100000000E-03 0. -1.
         22    1    1    0    0    0  0.12467707528E+02  0.43367831334E+02 -0.43242461675E+02  0.62498984131E+02  0.00000000000E+00 0. -1.
</event>
<event>
 4    1  0.1988088E-002  0.9118800E+02  0.7818608E-02  0.1130116E+00
         25   -1    0    0    0    0  0.00000000000E+00  0.00000000000E+00  0.99999998245E-14  0.12500000000E+03  0.12500000000E+03 0.  0.
        -11    1    1    0    0    0 -0.30605637709E+02  0.45528216395E+01 -0.14900505874E+02  0.34343242712E+02  0.51100000000E-03 0.  1.
         11    1    1    0    0    0 -0.25092316089E+02  0.37329253443E+01 -0.12216542991E+02  0.28156757292E+02  0.51100000000E-03 0.  1.
         22    1    1    0    0    0  0.55697953797E+02 -0.82857469837E+01  0.27117048865E+02  0.62499999995E+02  0.00000000000E+00 0.  1.
</event>
<event>
 4    1  0.1988088E-002  0.9118800E+02  0.7818608E-02  0.1130116E+00
         25   -1    0    0    0    0  0.00000000000E+00  0.00000000000E+00  0.99999998245E-14  0.12500000000E+03  0.12500000000E+03 0.  0.
        -11    1    1    0    0    0 -0.10109458243E+02 -0.98202959910E+01  0.23686282424E+01  0.14291597508E+02  0.51100000000E-03 0. -1.
         11    1    1    0    0    0 -0.20611960363E+02 -0.41764703343E+02  0.13714766437E+02  0.48551397241E+02  0.51100000000E-03 0.  1.
         22    1    1    0    0    0  0.30721418606E+02  0.51584999334E+02 -0.16083394679E+02  0.62157005252E+02  0.00000000000E+00 0.  1.
</event>
<event>
 4    1  0.1988088E-002  0.9118800E+02  0.7818608E-02  0.1130116E+00
         25   -1    0    0    0    0  0.00000000000E+00  0.00000000000E+00  0.99999998245E-14  0.12500000000E+03  0.12500000000E+03 0.  0.
        -11    1    1    0    0    0 -0.47583073420E+02  0.19726155746E+02 -0.30163537608E+02  0.59691784175E+02  0.51100000000E-03 0.  1.
         11    1    1    0    0    0 -0.22183345837E+01  0.10623889138E+01 -0.13590206453E+01  0.28100917965E+01  0.51100000000E-03 0. -1.
         22    1    1    0    0    0  0.49801408004E+02 -0.20788544660E+02  0.31522558254E+02  0.62498124029E+02  0.00000000000E+00 0.  1.
</event>
<event>
 4    1  0.1988088E-002  0.9118800E+02  0.7818608E-02  0.1130116E+00
         25   -1    0    0    0    0  0.00000000000E+00  0.00000000000E+00  0.99999998245E-14  0.12500000000E+03  0.12500000000E+03 0.  0.
        -11    1    1    0    0    0 -0.25894354217E+02  0.13325569540E+02 -0.36914804509E+02  0.47019051203E+02  0.51100000000E-03 0. -1.
         11    1    1    0    0    0 -0.85268932410E+01  0.43870881125E+01 -0.12153407995E+02  0.15480948828E+02  0.51100000000E-03 0.  1.
         22    1    1    0    0    0  0.34421247458E+02 -0.17712657652E+02  0.49068212505E+02  0.62499999968E+02  0.00000000000E+00 0. -1.
</event>
<event>
 4    1  0.1988088E-002  0.9118800E+02  0.7818608E-02  0.1130116E+00
         25   -1    0    0    0    0  0.00000000000E+00  0.00000000000E+00  0.99999998245E-14  0.12500000000E+03  0.12500000000E+03 0.  0.
        -11    1    1    0    0    0  0.19364344603E+02 -0.45578704861E+01  0.12790994986E+02  0.23650826164E+02  0.51100000000E-03 0.  1.
         11    1    1    0    0    0  0.37649794086E+02 -0.11831203976E+02 -0.14384699395E+02  0.42004808763E+02  0.51100000000E-03 0. -1.
         22    1    1    0    0    0 -0.57014138689E+02  0.16389074462E+02  0.15937044097E+01  0.59344365073E+02  0.00000000000E+00 0. -1.
</event>
<event>
 4    1  0.1988088E-002  0.9118800E+02  0.7818608E-02  0.1130116E+00
         25   -1    0    0    0    0  0.00000000000E+00  0.00000000000E+00  0.99999998245E-14  0.12500000000E+03  0.12500000000E+03 0.  0.
        -11    1    1    0    0    0 -0.87439264925E+01 -0.19066187223E+01  0.13265936807E+01  0.90471706358E+01  0.51100000000E-03 0.  1.
         11    1    1    0    0    0 -0.51663207753E+02 -0.11255783115E+02  0.78374284660E+01  0.53452829430E+02  0.51100000000E-03 0. -1.
         22    1    1    0    0    0  0.60407134245E+02  0.13162401837E+02 -0.91640221467E+01  0.62499999934E+02  0.00000000000E+00 0. -1.
</event>
<event>
 4    1  0.1988088E-002  0.9118800E+02  0.7818608E-02  0.1130116E+00
         25   -1    0    0    0    0  0.00000000000E+00  0.00000000000E+00  0.99999998245E-14  0.12500000000E+03  0.12500000000E+03 0.  0.
        -11    1    1    0    0    0 -0.46502097501E+02  0.14410797270E+02 -0.23271443614E+02  0.53959950316E+02  0.51100000000E-03 0.  1.
         11    1    1    0    0    0 -0.73588135746E+01  0.22817557136E+01 -0.36842778846E+01  0.85400497747E+01  0.51100000000E-03 0. -1.
         22    1    1    0    0    0  0.53860911076E+02 -0.16692552984E+02  0.26955721499E+02  0.62499999909E+02  0.00000000000E+00 0.  1.
</event>
<event>
 4    1  0.1988088E-002  0.9118800E+02  0.7818608E-02  0.1130116E+00
         25   -1    0    0    0    0  0.00000000000E+00  0.00000000000E+00  0.99999998245E-14  0.12500000000E+03  0.12500000000E+03 0.  0.
        -11    1    1    0    0    0  0.15496812509E+02 -0.51791317082E+02 -0.45435430049E+01  0.54250672865E+02  0.51100000000E-03 0.  1.
         11    1    1    0    0    0  0.23592352259E+01 -0.78740633092E+01 -0.69609633816E+00  0.82493281073E+01  0.51100000000E-03 0. -1.
         22    1    1    0    0    0 -0.17856047735E+02  0.59665380391E+02  0.52396393430E+01  0.62499999027E+02  0.00000000000E+00 0. -1.
</event>
<event>
 4    1  0.1988088E-002  0.9118800E+02  0.7818608E-02  0.1130116E+00
         25   -1    0    0    0    0  0.00000000000E+00  0.00000000000E+00  0.99999998245E-14  0.12500000000E+03  0.12500000000E+03 0.  0.
        -11    1    1    0    0    0  0.81655005542E+01 -0.46418920856E+02 -0.22307162023E+02  0.52144041755E+02  0.51100000000E-03 0. -1.
         11    1    1    0    0    0  0.16481263288E+01 -0.91984075026E+01 -0.44631567942E+01  0.10356002598E+02  0.51100000000E-03 0.  1.
         22    1    1    0    0    0 -0.98136268830E+01  0.55617328358E+02  0.26770318818E+02  0.62499955647E+02  0.00000000000E+00 0. -1.
</event>
<event>
 4    1  0.1988088E-002  0.9118800E+02  0.7818608E-02  0.1130116E+00
         25   -1    0    0    0    0  0.00000000000E+00  0.00000000000E+00  0.99999998245E-14  0.12500000000E+03  0.12500000000E+03 0.  0.
        -11    1    1    0    0    0  0.46401469979E+01 -0.11395373728E+02  0.47063493393E-01  0.12303971789E+02  0.51100000000E-03 0.  1.
         11    1    1    0    0    0  0.10246206541E+02 -0.48324123676E+02  0.98147815843E+01  0.50364030968E+02  0.51100000000E-03 0. -1.
         22    1    1    0    0    0 -0.14886353539E+02  0.59719497404E+02 -0.98618450777E+01  0.62331997242E+02  0.00000000000E+00 0. -1.
</event>
<event>
 4    1  0.1988088E-002  0.9118800E+02  0.7818608E-02  0.1130116E+00
         25   -1    0    0    0    0  0.00000000000E+00  0.00000000000E+00  0.99999998245E-14  0.12500000000E+03  0.12500000000E+03 0.  0.
        -11    1    1    0    0    0 -0.12663563151E+02  0.10554522233E+01 -0.18072238820E+02  0.22092660032E+02  0.51100000000E-03 0. -1.
         11    1    1    0    0    0 -0.23173114892E+02  0.19658714995E+01 -0.33043841829E+02  0.40407343239E+02  0.51100000000E-03 0.  1.
         22    1    1    0    0    0  0.35836678043E+02 -0.30213237228E+01  0.51116080649E+02  0.62499996729E+02  0.00000000000E+00 0.  1.
</event>
<event>
 4    1  0.1988088E-002  0.9118800E+02  0.7818608E-02  0.1130116E+00
         25   -1    0    0    0    0  0.00000000000E+00  0.00000000000E+00  0.99999998245E-14  0.12500000000E+03  0.12500000000E+03 0.  0.
        -11    1    1    0    0    0 -0.24605999747E+01  0.69078504449E+01 -0.19492431277E+02  0.20826133279E+02  0.51100000000E-03 0. -1.
         11    1    1    0    0    0 -0.49230714779E+01  0.13903751060E+02 -0.38976421952E+02  0.41673881446E+02  0.51100000000E-03 0.  1.
         22    1    1    0    0    0  0.73836714526E+01 -0.20811601505E+02  0.58468853230E+02  0.62499985275E+02  0.00000000000E+00 0.  1.
</event>
<event>
 4    1  0.1988088E-002  0.9118800E+02  0.7818608E-02  0.1130116E+00
         25   -1    0    0    0    0  0.00000000000E+00  0.00000000000E+00  0.99999998245E-14  0.12500000000E+03  0.12500000000E+03 0.  0.
        -11    1    1    0    0    0 -0.26661646495E+01 -0.16333072555E+01  0.39772864112E+01  0.50591436021E+01  0.51100000000E-03 0. -1.
         11    1    1    0    0    0 -0.28978120785E+02 -0.18270922926E+02  0.46108580422E+02  0.57441790515E+02  0.51100000000E-03 0.  1.
         22    1    1    0    0    0  0.31644285434E+02  0.19904230181E+02 -0.50085866833E+02  0.62499065883E+02  0.00000000000E+00 0.  1.
</event>
<event>
 4    1  0.1988088E-002  0.9118800E+02  0.7818608E-02  0.1130116E+00
         25   -1    0    0    0    0  0.00000000000E+00  0.00000000000E+00  0.99999998245E-14  0.12500000000E+03  0.12500000000E+03 0.  0.
        -11    1    1    0    0    0 -0.24167476146E+02  0.28016323841E+02 -0.40805103154E+02  0.55082100074E+02  0.51100000000E-03 0. -1.
         11    1    1    0    0    0 -0.33044555102E+01  0.37952805134E+01 -0.54501255390E+01  0.74180488706E+01  0.51100000000E-03 0.  1.
         22    1    1    0    0    0  0.27471931656E+02 -0.31811604354E+02  0.46255228694E+02  0.62499851056E+02  0.00000000000E+00 0. -1.
</event>
<event>
 4    1  0.1988088E-002  0.9118800E+02  0.7818608E-02  0.1130116E+00
         25   -1    0    0    0    0  0.00000000000E+00  0.00000000000E+00  0.99999998245E-14  0.12500000000E+03  0.12500000000E+03 0.  0.
        -11    1    1    0    0    0 -0.32304509655E+02 -0.93029086424E+01  0.43908676436E+02  0.55300066183E+02  0.51100000000E-03 0.  1.
         11    1    1    0    0    0 -0.71583277795E+01  0.72929707934E+00  0.30062411356E+01  0.77981418848E+01  0.51100000000E-03 0. -1.
         22    1    1    0    0    0  0.39462837435E+02  0.85736115631E+01 -0.46914917571E+02  0.61901791932E+02  0.00000000000E+00 0.  1.
</event>
<event>
 4    1  0.1988088E-002  0.9118800E+02  0.7818608E-02  0.1130116E+00
         25   -1    0    0    0    0  0.00000000000E+00  0.00000000000E+00  0.99999998245E-14  0.12500000000E+03  0.12500000000E+03 0.  0.
        -11    1    1    0    0    0  0.11075021401E+02 -0.21254681448E+01  0.55160761711E+01  0.12553916140E+02  0.51100000000E-03 0. -1.
         11    1    1    0    0    0  0.47767619972E+02 -0.14807509972E+01  0.14897629048E+02  0.50058740424E+02  0.51100000000E-03 0.  1.
         22    1    1    0    0    0 -0.58842641373E+02  0.36062191421E+01 -0.20413705219E+02  0.62387343436E+02  0.00000000000E+00 0.  1.
</event>
<event>
 4    1  0.1988088E-002  0.9118800E+02  0.7818608E-02  0.1130116E+00
         25   -1    0    0    0    0  0.00000000000E+00  0.00000000000E+00  0.99999998245E-14  0.12500000000E+03  0.12500000000E+03 0.  0.
        -11    1    1    0    0    0 -0.51945226240E+02  0.12868585862E+02  0.12173479811E+02  0.54882607830E+02  0.51100000000E-03 0. -1.
         11    1    1    0    0    0 -0.71614925607E+01  0.18200264387E+01  0.18543556021E+01  0.76182745353E+01  0.51100000000E-03 0.  1.
         22    1    1    0    0    0  0.59106718801E+02 -0.14688612301E+02 -0.14027835413E+02  0.62499117635E+02  0.00000000000E+00 0. -1.
</event>
<event>
 4    1  0.1988088E-002  0.9118800E+02  0.7818608E-02  0.1130116E+00
         25   -1    0    0    0    0  0.00000000000E+00  0.00000000000E+00  0.99999998245E-14  0.12500000000E+03  0.12500000000E+03 0.  0.
        -11    1    1    0    0    0  0.11268306831E+02  0.11527440742E+02  0.76608244338E+01  0.17847825082E+02  0.51100000000E-03 0. -1.
         11    1    1    0    0    0  0.28361864691E+02  0.28793510827E+02  0.18983264124E+02  0.44652278235E+02  0.51100000000E-03 0.  1.
         22    1    1    0    0    0 -0.39630171523E+02 -0.40320951569E+02 -0.26644088557E+02  0.62499896683E+02  0.00000000000E+00 0.  1.
</event>
<event>
 4    1  0.1988088E-002  0.9118800E+02  0.7818608E-02  0.1130116E+00
         25   -1    0    0    0    0  0.00000000000E+00  0.00000000000E+00  0.99999998245E-14  0.12500000000E+03  0.12500000000E+03 0.  0.
        -11    1    1    0    0    0 -0.15208721761E+02 -0.22410749129E+02  0.36629860474E+01  0.27330648752E+02  0.51100000000E-03 0.  1.
         11    1    1    0    0    0 -0.17792119657E+02 -0.30374291321E+02  0.12491012912E+01  0.35223817928E+02  0.51100000000E-03 0. -1.
         22    1    1    0    0    0  0.33000841419E+02  0.52785040450E+02 -0.49120873386E+01  0.62445533320E+02  0.00000000000E+00 0. -1.
</event>
<event>
 4    1  0.1988088E-002  0.9118800E+02  0.7818608E-02  0.1130116E+00
         25   -1    0    0    0    0  0.00000000000E+00  0.00000000000E+00  0.99999998245E-14  0.12500000000E+03  0.12500000000E+03 0.  0.
        -11    1    1    0    0    0  0.44127090797E+01  0.35974233043E+02 -0.74241714124E+01  0.36996429096E+02  0.51100000000E-03 0. -1.
         11    1    1    0    0    0 -0.53494093027E+01  0.19388532000E+02 -0.18077008586E+02  0.27042736413E+02  0.51100000000E-03 0.  1.
         22    1    1    0    0    0  0.93670022306E+00 -0.55362765043E+02  0.25501179998E+02  0.60960834491E+02  0.00000000000E+00 0.  1.
</event>
<event>
 4    1  0.1988088E-002  0.9118800E+02  0.7818608E-02  0.1130116E+00
         25   -1    0    0    0    0  0.00000000000E+00  0.00000000000E+00  0.99999998245E-14  0.12500000000E+03  0.12500000000E+03 0.  0.
        -11    1    1    0    0    0 -0.27880499523E+00 -0.31112010607E+02  0.33647603875E+01  0.31294672853E+02  0.51100000000E-03 0.  1.
         11    1    1    0    0    0 -0.28911127920E+00 -0.31022069729E+02  0.33645356245E+01  0.31205328004E+02  0.51100000000E-03 0. -1.
         22    1    1    0    0    0  0.56791627443E+00  0.62134080336E+02 -0.67292960120E+01  0.62499999143E+02  0.00000000000E+00 0. -1.
</event>
<event>
 4    1  0.1988088E-002  0.9118800E+02  0.7818608E-02  0.1130116E+00
         25   -1    0    0    0    0  0.00000000000E+00  0.00000000000E+00  0.99999998245E-14  0.12500000000E+03  0.12500000000E+03 0.  0.
        -11    1    1    0    0    0  0.43252719804E+01  0.49439721496E+01  0.14813810054E+01  0.67338939897E+01  0.51100000000E-03 0.  1.
         11    1    1    0    0    0  0.35739078900E+02  0.41010337907E+02  0.12277198387E+02  0.55766111361E+02  0.51100000000E-03 0. -1.
         22    1    1    0    0    0 -0.40064350880E+02 -0.45954310057E+02 -0.13758579392E+02  0.62499994649E+02  0.00000000000E+00 0. -1.
</event>
<event>
 4    1  0.1988088E-002  0.9118800E+02  0.7818608E-02  0.1130116E+00
         25   -1    0    0    0    0  0.00000000000E+00  0.00000000000E+00  0.99999998245E-14  0.12500000000E+03  0.12500000000E+03 0.  0.
        -11    1    1    0    0    0  0.23220369817E+00 -0.61046905906E+01  0.10182492648E+01  0.61933833719E+01  0.51100000000E-03 0.  1.
         11    1    1    0    0    0  0.17249186261E+01 -0.55560953085E+02  0.89694983196E+01  0.56306720312E+02  0.51100000000E-03 0. -1.
         22    1    1    0    0    0 -0.19571223243E+01  0.61665643675E+02 -0.99877475844E+01  0.62499896316E+02  0.00000000000E+00 0. -1.
</event>
<event>
 4    1  0.1988088E-002  0.9118800E+02  0.7818608E-02  0.1130116E+00
         25   -1    0    0    0    0  0.00000000000E+00  0.00000000000E+00  0.99999998245E-14  0.12500000000E+03  0.12500000000E+03 0.  0.
        -11    1    1    0    0    0 -0.97027225174E+01  0.28242598228E+02  0.49985142105E+02  0.58226296554E+02  0.51100000000E-03 0. -1.
         11    1    1    0    0    0  0.34821352363E+01 -0.41856525192E+01  0.43873654762E+01  0.69924193880E+01  0.51100000000E-03 0.  1.
         22    1    1    0    0    0  0.62205872811E+01 -0.24056945708E+02 -0.54372507581E+02  0.59781284058E+02  0.00000000000E+00 0. -1.
</event>
<event>
 4    1  0.1988088E-002  0.9118800E+02  0.7818608E-02  0.1130116E+00
         25   -1    0    0    0    0  0.00000000000E+00  0.00000000000E+00  0.99999998245E-14  0.12500000000E+03  0.12500000000E+03 0.  0.
        -11    1    1    0    0    0 -0.22399893021E+02  0.13483418085E+02 -0.94329155931E+01  0.27794561833E+02  0.51100000000E-03 0. -1.
         11    1    1    0    0    0  0.24205338130E+02  0.36971102998E+02  0.14394535703E+02  0.46475407575E+02  0.51100000000E-03 0.  1.
         22    1    1    0    0    0 -0.18054451086E+01 -0.50454521083E+02 -0.49616201104E+01  0.50730030592E+02  0.00000000000E+00 0. -1.
</event>
<event>
 4    1  0.1988088E-002  0.9118800E+02  0.7818608E-02  0.1130116E+00
         25   -1    0    0    0    0  0.00000000000E+00  0.00000000000E+00  0.99999998245E-14  0.12500000000E+03  0.12500000000E+03 0.  0.
        -11    1    1    0    0    0 -0.28221949777E+01  0.29351134868E+01  0.24632139054E+01  0.47588967921E+01  0.51100000000E-03 0.  1.
         11    1    1    0    0    0 -0.33737904738E+02  0.29927581395E+02  0.36094826750E+02  0.57764546762E+02  0.51100000000E-03 0. -1.
         22    1    1    0    0    0  0.36560099716E+02 -0.32862694881E+02 -0.38558040656E+02  0.62476556446E+02  0.00000000000E+00 0. -1.
</event>
<event>
 4    1  0.1988088E-002  0.9118800E+02  0.7818608E-02  0.1130116E+00
         25   -1    0    0    0    0  0.00000000000E+00  0.00000000000E+00  0.99999998245E-14  0.12500000000E+03  0.12500000000E+03 0.  0.
        -11    1    1    0    0    0 -0.24080021238E+02 -0.27979000711E+02  0.15418415058E+02  0.40004992523E+02  0.51100000000E-03 0.  1.
         11    1    1    0    0    0 -0.11331321788E+02 -0.72421360946E+01  0.19762010579E+02  0.23903649325E+02  0.51100000000E-03 0. -1.
         22    1    1    0    0    0  0.35411343025E+02  0.35221136806E+02 -0.35180425637E+02  0.61091358151E+02  0.00000000000E+00 0. -1.
</event>
<event>
 4    1  0.1988088E-002  0.9118800E+02  0.7818608E-02  0.1130116E+00
         25   -1    0    0    0    0  0.00000000000E+00  0.00000000000E+00  0.99999998245E-14  0.12500000000E+03  0.12500000000E+03 0.  0.
        -11    1    1    0    0    0  0.36013337434E+02  0.29683699664E+01  0.36656371718E+02  0.51472917939E+02  0.51100000000E-03 0. -1.
         11    1    1    0    0    0  0.62226507549E+01 -0.25150659982E+01  0.90663907185E+01  0.11280353732E+02  0.51100000000E-03 0.  1.
         22    1    1    0    0    0 -0.42235988189E+02 -0.45330396815E+00 -0.45722762437E+02  0.62246728329E+02  0.00000000000E+00 0. -1.
</event>
<event>
 4    1  0.1988088E-002  0.9118800E+02  0.7818608E-02  0.1130116E+00
         25   -1    0    0    0    0  0.00000000000E+00  0.00000000000E+00  0.99999998245E-14  0.12500000000E+03  0.12500000000E+03 0.  0.
        -11    1    1    0    0    0 -0.23367444074E+02 -0.27337732241E+01  0.13560403575E+02  0.27155027232E+02  0.51100000000E-03 0.  1.
         11    1    1    0    0    0 -0.30404721411E+02 -0.36635632779E+01  0.17646550775E+02  0.35345007207E+02  0.51100000000E-03 0. -1.
         22    1    1    0    0    0  0.53772165485E+02  0.63973365021E+01 -0.31206954349E+02  0.62499965561E+02  0.00000000000E+00 0.  1.
</event>
<event>
 4    1  0.1988088E-002  0.9118800E+02  0.7818608E-02  0.1130116E+00
         25   -1    0    0    0    0  0.00000000000E+00  0.00000000000E+00  0.99999998245E-14  0.12500000000E+03  0.12500000000E+03 0.  0.
        -11    1    1    0    0    0 -0.74151886490E+01  0.93184405057E+00  0.18098741706E+02  0.19581057367E+02  0.51100000000E-03 0.  1.
         11    1    1    0    0    0 -0.80827456530E+01  0.37697360148E+01  0.42123357551E+02  0.43057158970E+02  0.51100000000E-03 0. -1.
         22    1    1    0    0    0  0.15497934302E+02 -0.47015800654E+01 -0.60222099257E+02  0.62361783663E+02  0.00000000000E+00 0. -1.
</event>
<event>
 4    1  0.1988088E-002  0.9118800E+02  0.7818608E-02  0.1130116E+00
         25   -1    0    0    0    0  0.00000000000E+00  0.00000000000E+00  0.99999998245E-14  0.12500000000E+03  0.12500000000E+03 0.  0.
        -11    1    1    0    0    0  0.18416261681E+02  0.17474020728E+02  0.23573530437E+02  0.34644067778E+02  0.51100000000E-03 0.  1.
         11    1    1    0    0    0  0.10186455379E+02  0.20127320278E+02  0.16867485831E+02  0.28167090253E+02  0.51100000000E-03 0. -1.
         22    1    1    0    0    0 -0.28602717059E+02 -0.37601341007E+02 -0.40441016268E+02  0.62188841969E+02  0.00000000000E+00 0. -1.
</event>
<event>
 4    1  0.1988088E-002  0.9118800E+02  0.7818608E-02  0.1130116E+00
         25   -1    0    0    0    0  0.00000000000E+00  0.00000000000E+00  0.99999998245E-14  0.12500000000E+03  0.12500000000E+03 0.  0.
        -11    1    1    0    0    0 -0.19657863557E+02  0.43488900507E+02  0.39057443448E+02  0.61670089638E+02  0.51100000000E-03 0. -1.
         11    1    1    0    0    0 -0.31363910602E+00  0.58913785301E+00  0.49493396874E+00  0.83091082145E+00  0.51100000000E-03 0.  1.
         22    1    1    0    0    0  0.19971502663E+02 -0.44078038360E+02 -0.39552377417E+02  0.62498999541E+02  0.00000000000E+00 0. -1.
</event>
<event>
 4    1  0.1988088E-002  0.9118800E+02  0.7818608E-02  0.1130116E+00
         25   -1    0    0    0    0  0.00000000000E+00  0.00000000000E+00  0.99999998245E-14  0.12500000000E+03  0.12500000000E+03 0.  0.
        -11    1    1    0    0    0  0.13130973533E+02 -0.10649318533E+01  0.28180258853E+02  0.31107612172E+02  0.51100000000E-03 0.  1.
         11    1    1    0    0    0  0.13395699370E+02 -0.12298519138E+01  0.28364366093E+02  0.31392587684E+02  0.51100000000E-03 0. -1.
         22    1    1    0    0    0 -0.26526672903E+02  0.22947837671E+01 -0.56544624946E+02  0.62499800145E+02  0.00000000000E+00 0.  1.
</event>
<event>
 4    1  0.1988088E-002  0.9118800E+02  0.7818608E-02  0.1130116E+00
         25   -1    0    0    0    0  0.00000000000E+00  0.00000000000E+00  0.99999998245E-14  0.12500000000E+03  0.12500000000E+03 0.  0.
        -11    1    1    0    0    0  0.31779359308E+02 -0.46325213017E+02  0.17287389868E+02  0.58777605325E+02  0.51100000000E-03 0.  1.
         11    1    1    0    0    0  0.25491839238E+01 -0.27887551233E+01  0.25100060932E+00  0.37866205754E+01  0.51100000000E-03 0. -1.
         22    1    1    0    0    0 -0.34328543231E+02  0.49113968140E+02 -0.17538390477E+02  0.62435774099E+02  0.00000000000E+00 0.  1.
</event>
<event>
 4    1  0.1988088E-002  0.9118800E+02  0.7818608E-02  0.1130116E+00
         25   -1    0    0    0    0  0.00000000000E+00  0.00000000000E+00  0.99999998245E-14  0.12500000000E+03  0.12500000000E+03 0.  0.
        -11    1    1    0    0    0  0.27580414031E+02  0.40113602541E+01  0.24413118873E+01  0.27977316762E+02  0.51100000000E-03 0. -1.
         11    1    1    0    0    0  0.34100816794E+02  0.47959418337E+01  0.24545651979E+01  0.34523783899E+02  0.51100000000E-03 0.  1.
         22    1    1    0    0    0 -0.61681230825E+02 -0.88073020878E+01 -0.48958770852E+01  0.62498899339E+02  0.00000000000E+00 0. -1.
</event>
<event>
 4    1  0.1988088E-002  0.9118800E+02  0.7818608E-02  0.1130116E+00
         25   -1    0    0    0    0  0.00000000000E+00  0.00000000000E+00  0.99999998245E-14  0.12500000000E+03  0.12500000000E+03 0.  0.
        -11    1    1    0    0    0  0.47141445079E+01 -0.76288342447E+01  0.14292387277E+02  0.16872895564E+02  0.51100000000E-03 0. -1.
         11    1    1    0    0    0  0.12906729194E+02 -0.20592611360E+02  0.38616021264E+02  0.45627145425E+02  0.51100000000E-03 0.  1.
         22    1    1    0    0    0 -0.17620873702E+02  0.28221445605E+02 -0.52908408541E+02  0.62499959011E+02  0.00000000000E+00 0.  1.
</event>
<event>
 4    1  0.1988088E-002  0.9118800E+02  0.7818608E-02  0.1130116E+00
         25   -1    0    0    0    0  0.00000000000E+00  0.00000000000E+00  0.99999998245E-14  0.12500000000E+03  0.12500000000E+03 0.  0.
        -11    1    1    0    0    0 -0.35146045044E+02 -0.43357077313E+02 -0.15851764906E+02  0.58020333386E+02  0.51100000000E-03 0. -1.
         11    1    1    0    0    0 -0.27129970594E+01 -0.33486592207E+01 -0.12221061524E+01  0.44796668771E+01  0.51100000000E-03 0.  1.
         22    1    1    0    0    0  0.37859042104E+02  0.46705736534E+02  0.17073871058E+02  0.62499999737E+02  0.00000000000E+00 0. -1.
</event>
<event>
 4    1  0.1988088E-002  0.9118800E+02  0.7818608E-02  0.1130116E+00
         25   -1    0    0    0    0  0.00000000000E+00  0.00000000000E+00  0.99999998245E-14  0.12500000000E+03  0.12500000000E+03 0.  0.
        -11    1    1    0    0    0 -0.32902714092E+02  0.24835615495E+01 -0.51666171601E+02  0.61303751605E+02  0.51100000000E-03 0.  1.
         11    1    1    0    0    0 -0.63989818204E+00  0.47889915754E-01 -0.10095792903E+01  0.11962498618E+01  0.51100000000E-03 0. -1.
         22    1    1    0    0    0  0.33542612274E+02 -0.25314514653E+01  0.52675750891E+02  0.62499998534E+02  0.00000000000E+00 0.  1.
</event>
<event>
 4    1  0.1988088E-002  0.9118800E+02  0.7818608E-02  0.1130116E+00
         25   -1    0    0    0    0  0.00000000000E+00  0.00000000000E+00  0.99999998245E-14  0.12500000000E+03  0.12500000000E+03 0.  0.
        -11    1    1    0    0    0 -0.75958084926E+00  0.84358863944E+01  0.68131594172E+01  0.10870155649E+02  0.51100000000E-03 0. -1.
         11    1    1    0    0    0 -0.36173497917E+01  0.40065709971E+02  0.32361929822E+02  0.51629844441E+02  0.51100000000E-03 0.  1.
         22    1    1    0    0    0  0.43769306410E+01 -0.48501596366E+02 -0.39175089239E+02  0.62499999910E+02  0.00000000000E+00 0.  1.
</event>
<event>
 4    1  0.1988088E-002  0.9118800E+02  0.7818608E-02  0.1130116E+00
         25   -1    0    0    0    0  0.00000000000E+00  0.00000000000E+00  0.99999998245E-14  0.12500000000E+03  0.12500000000E+03 0.  0.
        -11    1    1    0    0    0 -0.23480940721E+02  0.10587143674E+02 -0.24494887807E+02  0.35544925337E+02  0.51100000000E-03 0. -1.
         11    1    1    0    0    0 -0.25772887553E+02  0.13825752359E+02 -0.62442470615E-01  0.29247171837E+02  0.51100000000E-03 0.  1.
         22    1    1    0    0    0  0.49253828273E+02 -0.24412896033E+02  0.24557330278E+02  0.60207902826E+02  0.00000000000E+00 0.  1.
</event>
<event>
 4    1  0.1988088E-002  0.9118800E+02  0.7818608E-02  0.1130116E+00
         25   -1    0    0    0    0  0.00000000000E+00  0.00000000000E+00  0.99999998245E-14  0.12500000000E+03  0.12500000000E+03 0.  0.
        -11    1    1    0    0    0  0.42746494994E+01  0.90813734663E+01 -0.18496418355E+02  0.21044273914E+02  0.51100000000E-03 0. -1.
         11    1    1    0    0    0  0.29113648736E+01  0.23141713702E+02 -0.34423994562E+02  0.41581562745E+02  0.51100000000E-03 0.  1.
         22    1    1    0    0    0 -0.71860143730E+01 -0.32223087168E+02  0.52920412916E+02  0.62374163341E+02  0.00000000000E+00 0.  1.
</event>
<event>
 4    1  0.1988088E-002  0.9118800E+02  0.7818608E-02  0.1130116E+00
         25   -1    0    0    0    0  0.00000000000E+00  0.00000000000E+00  0.99999998245E-14  0.12500000000E+03  0.12500000000E+03 0.  0.
        -11    1    1    0    0    0 -0.60416649474E+02 -0.29750643073E+01  0.30185704999E-01  0.60489862396E+02  0.51100000000E-03 0. -1.
         11    1    1    0    0    0 -0.20098273787E+01 -0.48848452949E-01  0.11077276307E-01  0.20104514993E+01  0.51100000000E-03 0.  1.
         22    1    1    0    0    0  0.62426476852E+02  0.30239127602E+01 -0.41262981307E-01  0.62499686105E+02  0.00000000000E+00 0. -1.
</event>
<event>
 4    1  0.1988088E-002  0.9118800E+02  0.7818608E-02  0.1130116E+00
         25   -1    0    0    0    0  0.00000000000E+00  0.00000000000E+00  0.99999998245E-14  0.12500000000E+03  0.12500000000E+03 0.  0.
        -11    1    1    0    0    0  0.10222987104E+01  0.11503131106E+02 -0.44990389683E+02  0.46448921236E+02  0.51100000000E-03 0. -1.
         11    1    1    0    0    0  0.48391044931E+01  0.69613880021E+01 -0.14052142016E+02  0.16411598055E+02  0.51100000000E-03 0.  1.
         22    1    1    0    0    0 -0.58614032035E+01 -0.18464519108E+02  0.59042531699E+02  0.62139480709E+02  0.00000000000E+00 0. -1.
</event>
<event>
 4    1  0.1988088E-002  0.9118800E+02  0.7818608E-02  0.1130116E+00
         25   -1    0    0    0    0  0.00000000000E+00  0.00000000000E+00  0.99999998245E-14  0.12500000000E+03  0.12500000000E+03 0.  0.
        -11    1    1    0    0    0 -0.56975859960E+01 -0.58668467075E+01 -0.13206253473E+01  0.82841069549E+01  0.51100000000E-03 0. -1.
         11    1    1    0    0    0 -0.37297782374E+02 -0.38388181333E+02 -0.86363207591E+01  0.54215893174E+02  0.51100000000E-03 0.  1.
         22    1    1    0    0    0  0.42995368370E+02  0.44255028041E+02  0.99569461065E+01  0.62499999871E+02  0.00000000000E+00 0.  1.
</event>
<event>
 4    1  0.1988088E-002  0.9118800E+02  0.7818608E-02  0.1130116E+00
         25   -1    0    0    0    0  0.00000000000E+00  0.00000000000E+00  0.99999998245E-14  0.12500000000E+03  0.12500000000E+03 0.  0.
        -11    1    1    0    0    0 -0.28676453570E+02  0.25021656135E+02  0.38926287934E+02  0.54439674482E+02  0.51100000000E-03 0.  1.
         11    1    1    0    0    0 -0.42455481727E+01  0.37043168950E+01  0.57638706257E+01  0.80603255391E+01  0.51100000000E-03 0.  1.
         22    1    1    0    0    0  0.32922001743E+02 -0.28725973030E+02 -0.44690158560E+02  0.62499999979E+02  0.00000000000E+00 0.  1.
</event>
<event>
 4    1  0.1988088E-002  0.9118800E+02  0.7818608E-02  0.1130116E+00
         25   -1    0    0    0    0  0.00000000000E+00  0.00000000000E+00  0.99999998245E-14  0.12500000000E+03  0.12500000000E+03 0.  0.
        -11    1    1    0    0    0  0.12129666622E+02  0.66386798177E+01 -0.58563109990E+02  0.60173405538E+02  0.51100000000E-03 0.  1.
         11    1    1    0    0    0  0.46959964365E+00  0.25105370179E+00 -0.22648411507E+01  0.23265978350E+01  0.51100000000E-03 0. -1.
         22    1    1    0    0    0 -0.12599266266E+02 -0.68897335195E+01  0.60827951141E+02  0.62499996627E+02  0.00000000000E+00 0.  1.
</event>
<event>
 4    1  0.1988088E-002  0.9118800E+02  0.7818608E-02  0.1130116E+00
         25   -1    0    0    0    0  0.00000000000E+00  0.00000000000E+00  0.99999998245E-14  0.12500000000E+03  0.12500000000E+03 0.  0.
        -11    1    1    0    0    0  0.21505946018E+02 -0.26317401628E+02  0.40895470953E+02  0.53174720379E+02  0.51100000000E-03 0. -1.
         11    1    1    0    0    0  0.37710815661E+01 -0.46156672744E+01  0.71718477033E+01  0.93252796369E+01  0.51100000000E-03 0. -1.
         22    1    1    0    0    0 -0.25277027584E+02  0.30933068903E+02 -0.48067318656E+02  0.62499999984E+02  0.00000000000E+00 0. -1.
</event>
<event>
 4    1  0.1988088E-002  0.9118800E+02  0.7818608E-02  0.1130116E+00
         25   -1    0    0    0    0  0.00000000000E+00  0.00000000000E+00  0.99999998245E-14  0.12500000000E+03  0.12500000000E+03 0.  0.
        -11    1    1    0    0    0 -0.31522934486E+02 -0.67391044045E+01 -0.17104320455E+02  0.36492036190E+02  0.51100000000E-03 0. -1.
         11    1    1    0    0    0 -0.13970274029E+01  0.25836090961E+02 -0.21984109791E+02  0.33952265982E+02  0.51100000000E-03 0.  1.
         22    1    1    0    0    0  0.32919961889E+02 -0.19096986557E+02  0.39088430247E+02  0.54555697828E+02  0.00000000000E+00 0. -1.
</event>
<event>
 4    1  0.1988088E-002  0.9118800E+02  0.7818608E-02  0.1130116E+00
         25   -1    0    0    0    0  0.00000000000E+00  0.00000000000E+00  0.99999998245E-14  0.12500000000E+03  0.12500000000E+03 0.  0.
        -11    1    1    0    0    0  0.43938986369E+01 -0.40343178465E+01 -0.30906133560E+02  0.31476517558E+02  0.51100000000E-03 0.  1.
         11    1    1    0    0    0  0.44646870242E+01 -0.11100771924E+02 -0.28857662501E+02  0.31239802381E+02  0.51100000000E-03 0. -1.
         22    1    1    0    0    0 -0.88585856610E+01  0.15135089771E+02  0.59763796061E+02  0.62283680060E+02  0.00000000000E+00 0.  1.
</event>
<event>
 4    1  0.1988088E-002  0.9118800E+02  0.7818608E-02  0.1130116E+00
         25   -1    0    0    0    0  0.00000000000E+00  0.00000000000E+00  0.99999998245E-14  0.12500000000E+03  0.12500000000E+03 0.  0.
        -11    1    1    0    0    0 -0.19753995752E+02 -0.28312516094E+02 -0.11288754164E+02  0.36321548515E+02  0.51100000000E-03 0.  1.
         11    1    1    0    0    0 -0.23858340228E+02  0.95108580874E+01 -0.19352754378E+02  0.32159072161E+02  0.51100000000E-03 0. -1.
         22    1    1    0    0    0  0.43612335980E+02  0.18801658006E+02  0.30641508542E+02  0.56519379324E+02  0.00000000000E+00 0. -1.
</event>
<event>
 4    1  0.1988088E-002  0.9118800E+02  0.7818608E-02  0.1130116E+00
         25   -1    0    0    0    0  0.00000000000E+00  0.00000000000E+00  0.99999998245E-14  0.12500000000E+03  0.12500000000E+03 0.  0.
        -11    1    1    0    0    0 -0.72012509201E+00  0.25351129904E+02 -0.32569086340E+02  0.41278853579E+02  0.51100000000E-03 0. -1.
         11    1    1    0    0    0 -0.39724166419E+00  0.13019664570E+02 -0.16753146510E+02  0.21221154179E+02  0.51100000000E-03 0.  1.
         22    1    1    0    0    0  0.11173667562E+01 -0.38370794474E+02  0.49322232849E+02  0.62499992242E+02  0.00000000000E+00 0. -1.
</event>
<event>
 4    1  0.1988088E-002  0.9118800E+02  0.7818608E-02  0.1130116E+00
         25   -1    0    0    0    0  0.00000000000E+00  0.00000000000E+00  0.99999998245E-14  0.12500000000E+03  0.12500000000E+03 0.  0.
        -11    1    1    0    0    0 -0.16528214304E+01 -0.19099468368E+01  0.10555383892E+02  0.10853379426E+02  0.51100000000E-03 0.  1.
         11    1    1    0    0    0  0.41474636833E+01 -0.13956132452E+02  0.49699369298E+02  0.51788052646E+02  0.51100000000E-03 0. -1.
         22    1    1    0    0    0 -0.24946422529E+01  0.15866079289E+02 -0.60254753190E+02  0.62358567927E+02  0.00000000000E+00 0. -1.
</event>
<event>
 4    1  0.1988088E-002  0.9118800E+02  0.7818608E-02  0.1130116E+00
         25   -1    0    0    0    0  0.00000000000E+00  0.00000000000E+00  0.99999998245E-14  0.12500000000E+03  0.12500000000E+03 0.  0.
        -11    1    1    0    0    0 -0.80939994841E+01 -0.11832911596E+02 -0.89226699752E+01  0.16886227057E+02  0.51100000000E-03 0.  1.
         11    1    1    0    0    0 -0.21862941010E+02 -0.31964029108E+02 -0.24102467426E+02  0.45613772949E+02  0.51100000000E-03 0.  1.
         22    1    1    0    0    0  0.29956940495E+02  0.43796940704E+02  0.33025137401E+02  0.62499999993E+02  0.00000000000E+00 0.  1.
</event>
<event>
 4    1  0.1988088E-002  0.9118800E+02  0.7818608E-02  0.1130116E+00
         25   -1    0    0    0    0  0.00000000000E+00  0.00000000000E+00  0.99999998245E-14  0.12500000000E+03  0.12500000000E+03 0.  0.
        -11    1    1    0    0    0 -0.75875157592E+01  0.51319663792E+02 -0.67768141488E+01  0.52318290276E+02  0.51100000000E-03 0.  1.
         11    1    1    0    0    0  0.29065941603E+01  0.10057221244E+02  0.35039517805E+01  0.11039640715E+02  0.51100000000E-03 0. -1.
         22    1    1    0    0    0  0.46809215989E+01 -0.61376885036E+02  0.32728623683E+01  0.61642069010E+02  0.00000000000E+00 0.  1.
</event>
<event>
 4    1  0.1988088E-002  0.9118800E+02  0.7818608E-02  0.1130116E+00
         25   -1    0    0    0    0  0.00000000000E+00  0.00000000000E+00  0.99999998245E-14  0.12500000000E+03  0.12500000000E+03 0.  0.
        -11    1    1    0    0    0 -0.32297826846E+02  0.74957512223E+01  0.40123820878E+02  0.52050522644E+02  0.51100000000E-03 0. -1.
         11    1    1    0    0    0 -0.64306997757E+01  0.14726911677E+01  0.81037927773E+01  0.10449601740E+02  0.51100000000E-03 0.  1.
         22    1    1    0    0    0  0.38728526622E+02 -0.89684423900E+01 -0.48227613656E+02  0.62499875617E+02  0.00000000000E+00 0. -1.
</event>
<event>
 4    1  0.1988088E-002  0.9118800E+02  0.7818608E-02  0.1130116E+00
         25   -1    0    0    0    0  0.00000000000E+00  0.00000000000E+00  0.99999998245E-14  0.12500000000E+03  0.12500000000E+03 0.  0.
        -11    1    1    0    0    0 -0.23647564815E+01  0.15995516446E+01  0.13034006776E+01  0.31383900758E+01  0.51100000000E-03 0.  1.
         11    1    1    0    0    0 -0.47224227550E+02  0.30526906856E+02  0.19045443359E+02  0.59369593420E+02  0.51100000000E-03 0. -1.
         22    1    1    0    0    0  0.49588984032E+02 -0.32126458500E+02 -0.20348844036E+02  0.62492016504E+02  0.00000000000E+00 0. -1.
</event>
<event>
 4    1  0.1988088E-002  0.9118800E+02  0.7818608E-02  0.1130116E+00
         25   -1    0    0    0    0  0.00000000000E+00  0.00000000000E+00  0.99999998245E-14  0.12500000000E+03  0.12500000000E+03 0.  0.
        -11    1    1    0    0    0 -0.51200447535E+02  0.18093662138E+02 -0.19448803828E+02  0.57681213648E+02  0.51100000000E-03 0.  1.
         11    1    1    0    0    0 -0.42800320890E+01  0.14957617603E+01 -0.16324428228E+01  0.48188014856E+01  0.51100000000E-03 0. -1.
         22    1    1    0    0    0  0.55480479624E+02 -0.19589423898E+02  0.21081246651E+02  0.62499984866E+02  0.00000000000E+00 0.  1.
</event>
<event>
 4    1  0.1988088E-002  0.9118800E+02  0.7818608E-02  0.1130116E+00
         25   -1    0    0    0    0  0.00000000000E+00  0.00000000000E+00  0.99999998245E-14  0.12500000000E+03  0.12500000000E+03 0.  0.
        -11    1    1    0    0    0 -0.36912222118E+02 -0.23284994821E+02  0.32370791625E+02  0.54337567816E+02  0.51100000000E-03 0.  1.
         11    1    1    0    0    0 -0.56351783363E+01 -0.34479163717E+01  0.47946403726E+01  0.81628388905E+01  0.51100000000E-03 0. -1.
         22    1    1    0    0    0  0.42547400455E+02  0.26732911193E+02 -0.37165431997E+02  0.62499593293E+02  0.00000000000E+00 0.  1.
</event>
<event>
 4    1  0.1988088E-002  0.9118800E+02  0.7818608E-02  0.1130116E+00
         25   -1    0    0    0    0  0.00000000000E+00  0.00000000000E+00  0.99999998245E-14  0.12500000000E+03  0.12500000000E+03 0.  0.
        -11    1    1    0    0    0  0.53028330023E+01 -0.36237971996E+02 -0.20552715550E+02  0.41996723312E+02  0.51100000000E-03 0.  1.
         11    1    1    0    0    0  0.18514040376E+01 -0.17580581435E+02 -0.10397650762E+02  0.20508917137E+02  0.51100000000E-03 0. -1.
         22    1    1    0    0    0 -0.71542370400E+01  0.53818553430E+02  0.30950366311E+02  0.62494359552E+02  0.00000000000E+00 0.  1.
</event>
<event>
 4    1  0.1988088E-002  0.9118800E+02  0.7818608E-02  0.1130116E+00
         25   -1    0    0    0    0  0.00000000000E+00  0.00000000000E+00  0.99999998245E-14  0.12500000000E+03  0.12500000000E+03 0.  0.
        -11    1    1    0    0    0 -0.53868833169E+01 -0.42515575193E+01  0.27441224255E+01  0.73908363097E+01  0.51100000000E-03 0. -1.
         11    1    1    0    0    0 -0.43680090269E+02 -0.29915069153E+02  0.15381895269E+02  0.55131337284E+02  0.51100000000E-03 0.  1.
         22    1    1    0    0    0  0.49066973586E+02  0.34166626672E+02 -0.18126017695E+02  0.62477826407E+02  0.00000000000E+00 0.  1.
</event>
<event>
 4    1  0.1988088E-002  0.9118800E+02  0.7818608E-02  0.1130116E+00
         25   -1    0    0    0    0  0.00000000000E+00  0.00000000000E+00  0.99999998245E-14  0.12500000000E+03  0.12500000000E+03 0.  0.
        -11    1    1    0    0    0 -0.21528650248E+02 -0.14193017349E+02 -0.21058919473E+02  0.33292681067E+02  0.51100000000E-03 0. -1.
         11    1    1    0    0    0 -0.18896676981E+02 -0.12471370761E+02 -0.18451240315E+02  0.29207323722E+02  0.51100000000E-03 0.  1.
         22    1    1    0    0    0  0.40425327228E+02  0.26664388111E+02  0.39510159789E+02  0.62499995211E+02  0.00000000000E+00 0. -1.
</event>
<event>
 4    1  0.1988088E-002  0.9118800E+02  0.7818608E-02  0.1130116E+00
         25   -1    0    0    0    0  0.00000000000E+00  0.00000000000E+00  0.99999998245E-14  0.12500000000E+03  0.12500000000E+03 0.  0.
        -11    1    1    0    0    0  0.81281817661E+01  0.84094697730E+01 -0.63188696691E+01  0.13293405690E+02  0.51100000000E-03 0. -1.
         11    1    1    0    0    0  0.34466611858E+02  0.30461356549E+02 -0.17636809822E+02  0.49263562972E+02  0.51100000000E-03 0.  1.
         22    1    1    0    0    0 -0.42594793624E+02 -0.38870826322E+02  0.23955679491E+02  0.62443031338E+02  0.00000000000E+00 0.  1.
</event>
<event>
 4    1  0.1988088E-002  0.9118800E+02  0.7818608E-02  0.1130116E+00
         25   -1    0    0    0    0  0.00000000000E+00  0.00000000000E+00  0.99999998245E-14  0.12500000000E+03  0.12500000000E+03 0.  0.
        -11    1    1    0    0    0  0.47382827953E+02 -0.45746251762E+01 -0.31189495171E+02  0.56910844218E+02  0.51100000000E-03 0. -1.
         11    1    1    0    0    0  0.47267575107E+01 -0.69853611104E+00 -0.29069431785E+01  0.55928980116E+01  0.51100000000E-03 0.  1.
         22    1    1    0    0    0 -0.52109585464E+02  0.52731612873E+01  0.34096438350E+02  0.62496257770E+02  0.00000000000E+00 0. -1.
</event>
<event>
 4    1  0.1988088E-002  0.9118800E+02  0.7818608E-02  0.1130116E+00
         25   -1    0    0    0    0  0.00000000000E+00  0.00000000000E+00  0.99999998245E-14  0.12500000000E+03  0.12500000000E+03 0.  0.
        -11    1    1    0    0    0 -0.13148938682E+02  0.43157871937E+00 -0.18091288606E+01  0.13279826662E+02  0.51100000000E-03 0. -1.
         11    1    1    0    0    0 -0.48734496169E+02  0.16013879990E+01 -0.67089421800E+01  0.49220173363E+02  0.51100000000E-03 0.  1.
         22    1    1    0    0    0  0.61883434852E+02 -0.20329667183E+01  0.85180710405E+01  0.62499999976E+02  0.00000000000E+00 0.  1.
</event>
<event>
 4    1  0.1988088E-002  0.9118800E+02  0.7818608E-02  0.1130116E+00
         25   -1    0    0    0    0  0.00000000000E+00  0.00000000000E+00  0.99999998245E-14  0.12500000000E+03  0.12500000000E+03 0.  0.
        -11    1    1    0    0    0 -0.12356467675E+02 -0.10403583604E+02 -0.10259810506E+02  0.19135844823E+02  0.51100000000E-03 0. -1.
         11    1    1    0    0    0 -0.29856510227E+02 -0.21131525351E+02 -0.23322520208E+02  0.43380785098E+02  0.51100000000E-03 0.  1.
         22    1    1    0    0    0  0.42212977902E+02  0.31535108956E+02  0.33582330714E+02  0.62483370079E+02  0.00000000000E+00 0.  1.
</event>
<event>
 4    1  0.1988088E-002  0.9118800E+02  0.7818608E-02  0.1130116E+00
         25   -1    0    0    0    0  0.00000000000E+00  0.00000000000E+00  0.99999998245E-14  0.12500000000E+03  0.12500000000E+03 0.  0.
        -11    1    1    0    0    0 -0.11298739380E+02 -0.15840257562E+02  0.18019534300E+02  0.26519405873E+02  0.51100000000E-03 0. -1.
         11    1    1    0    0    0 -0.27352819520E+02 -0.18453292540E+02  0.15944281019E+02  0.36645884335E+02  0.51100000000E-03 0.  1.
         22    1    1    0    0    0  0.38651558900E+02  0.34293550103E+02 -0.33963815319E+02  0.61834709792E+02  0.00000000000E+00 0.  1.
</event>
<event>
 4    1  0.1988088E-002  0.9118800E+02  0.7818608E-02  0.1130116E+00
         25   -1    0    0    0    0  0.00000000000E+00  0.00000000000E+00  0.99999998245E-14  0.12500000000E+03  0.12500000000E+03 0.  0.
        -11    1    1    0    0    0  0.10596438995E+02 -0.84788103896E+01 -0.50795328304E+01  0.14490562412E+02  0.51100000000E-03 0.  1.
         11    1    1    0    0    0  0.23701407743E+02 -0.21928571402E+02 -0.36423503977E+02  0.48675359423E+02  0.51100000000E-03 0. -1.
         22    1    1    0    0    0 -0.34297846738E+02  0.30407381791E+02  0.41503036807E+02  0.61834078165E+02  0.00000000000E+00 0. -1.
</event>
<event>
 4    1  0.1988088E-002  0.9118800E+02  0.7818608E-02  0.1130116E+00
         25   -1    0    0    0    0  0.00000000000E+00  0.00000000000E+00  0.99999998245E-14  0.12500000000E+03  0.12500000000E+03 0.  0.
        -11    1    1    0    0    0  0.10712137070E+02  0.23302794999E+02 -0.20421040914E+02  0.32783975470E+02  0.51100000000E-03 0.  1.
         11    1    1    0    0    0  0.97049894462E+01  0.21122325683E+02 -0.18512229971E+02  0.29716024653E+02  0.51100000000E-03 0. -1.
         22    1    1    0    0    0 -0.20417126516E+02 -0.44425120682E+02  0.38933270885E+02  0.62499999877E+02  0.00000000000E+00 0. -1.
</event>
<event>
 4    1  0.1988088E-002  0.9118800E+02  0.7818608E-02  0.1130116E+00
         25   -1    0    0    0    0  0.00000000000E+00  0.00000000000E+00  0.99999998245E-14  0.12500000000E+03  0.12500000000E+03 0.  0.
        -11    1    1    0    0    0 -0.94903517764E+00 -0.21067702375E+01 -0.82882581029E+00  0.24548118231E+01  0.51100000000E-03 0. -1.
         11    1    1    0    0    0 -0.27250895134E+02 -0.49055077741E+02  0.22188952020E+02  0.60343695029E+02  0.51100000000E-03 0.  1.
         22    1    1    0    0    0  0.28199930311E+02  0.51161847978E+02 -0.21360126210E+02  0.62201493148E+02  0.00000000000E+00 0.  1.
</event>
<event>
 4    1  0.1988088E-002  0.9118800E+02  0.7818608E-02  0.1130116E+00
         25   -1    0    0    0    0  0.00000000000E+00  0.00000000000E+00  0.99999998245E-14  0.12500000000E+03  0.12500000000E+03 0.  0.
        -11    1    1    0    0    0  0.27663951264E+02  0.22860965826E+02 -0.25805683743E+02  0.44202389888E+02  0.51100000000E-03 0. -1.
         11    1    1    0    0    0  0.11841871336E+02  0.96277372973E+01 -0.10102554124E+02  0.18302591137E+02  0.51100000000E-03 0.  1.
         22    1    1    0    0    0 -0.39505822601E+02 -0.32488703124E+02  0.35908237867E+02  0.62495018976E+02  0.00000000000E+00 0.  1.
</event>
<event>
 4    1  0.1988088E-002  0.9118800E+02  0.7818608E-02  0.1130116E+00
         25   -1    0    0    0    0  0.00000000000E+00  0.00000000000E+00  0.99999998245E-14  0.12500000000E+03  0.12500000000E+03 0.  0.
        -11    1    1    0    0    0 -0.22886278044E+02  0.33959903445E+02 -0.45164656923E+02  0.60966408783E+02  0.51100000000E-03 0. -1.
         11    1    1    0    0    0 -0.57619591949E+00  0.85304042095E+00 -0.11367599752E+01  0.15335916013E+01  0.51100000000E-03 0.  1.
         22    1    1    0    0    0  0.23462473963E+02 -0.34812943866E+02  0.46301416898E+02  0.62499999615E+02  0.00000000000E+00 0. -1.
</event>
<event>
 4    1  0.1988088E-002  0.9118800E+02  0.7818608E-02  0.1130116E+00
         25   -1    0    0    0    0  0.00000000000E+00  0.00000000000E+00  0.99999998245E-14  0.12500000000E+03  0.12500000000E+03 0.  0.
        -11    1    1    0    0    0 -0.60528860053E+01  0.24347718561E+02 -0.60049523769E+01  0.25797447189E+02  0.51100000000E-03 0. -1.
         11    1    1    0    0    0 -0.86132766553E+01  0.34638444611E+02 -0.85479242216E+01  0.36702552889E+02  0.51100000000E-03 0.  1.
         22    1    1    0    0    0  0.14666162661E+02 -0.58986163172E+02  0.14552876599E+02  0.62499999922E+02  0.00000000000E+00 0. -1.
</event>
<event>
 4    1  0.1988088E-002  0.9118800E+02  0.7818608E-02  0.1130116E+00
         25   -1    0    0    0    0  0.00000000000E+00  0.00000000000E+00  0.99999998245E-14  0.12500000000E+03  0.12500000000E+03 0.  0.
        -11    1    1    0    0    0  0.50203209430E+02 -0.16128567537E+02 -0.49097887037E+00  0.52732665288E+02  0.51100000000E-03 0.  1.
         11    1    1    0    0    0  0.69939583585E+01  0.49838059065E+01 -0.98671612521E+01  0.13081079706E+02  0.51100000000E-03 0. -1.
         22    1    1    0    0    0 -0.57197167789E+02  0.11144761631E+02  0.10358140123E+02  0.59186255006E+02  0.00000000000E+00 0.  1.
</event>
<event>
 4    1  0.1988088E-002  0.9118800E+02  0.7818608E-02  0.1130116E+00
         25   -1    0    0    0    0  0.00000000000E+00  0.00000000000E+00  0.99999998245E-14  0.12500000000E+03  0.12500000000E+03 0.  0.
        -11    1    1    0    0    0  0.27058736374E+02 -0.24740893314E+02 -0.10538934082E+02  0.38149130370E+02  0.51100000000E-03 0. -1.
         11    1    1    0    0    0  0.17277717175E+02 -0.15785446096E+02 -0.67279311628E+01  0.24350870153E+02  0.51100000000E-03 0.  1.
         22    1    1    0    0    0 -0.44336453549E+02  0.40526339410E+02  0.17266865245E+02  0.62499999477E+02  0.00000000000E+00 0.  1.
</event>
<event>
 4    1  0.1988088E-002  0.9118800E+02  0.7818608E-02  0.1130116E+00
         25   -1    0    0    0    0  0.00000000000E+00  0.00000000000E+00  0.99999998245E-14  0.12500000000E+03  0.12500000000E+03 0.  0.
        -11    1    1    0    0    0 -0.12694592727E+02 -0.49629520141E+02  0.65991722083E+01  0.51650663385E+02  0.51100000000E-03 0.  1.
         11    1    1    0    0    0 -0.27033694957E+01 -0.10418017947E+02  0.13658516472E+01  0.10849371206E+02  0.51100000000E-03 0. -1.
         22    1    1    0    0    0  0.15397962223E+02  0.60047538089E+02 -0.79650238555E+01  0.62499965409E+02  0.00000000000E+00 0.  1.
</event>
<event>
 4    1  0.1988088E-002  0.9118800E+02  0.7818608E-02  0.1130116E+00
         25   -1    0    0    0    0  0.00000000000E+00  0.00000000000E+00  0.99999998245E-14  0.12500000000E+03  0.12500000000E+03 0.  0.
        -11    1    1    0    0    0  0.28408836450E+02 -0.39973325596E+01 -0.21676046411E+02  0.35956802476E+02  0.51100000000E-03 0.  1.
         11    1    1    0    0    0  0.11779714091E+02 -0.30203424768E+02  0.12088060692E+01  0.32441790089E+02  0.51100000000E-03 0. -1.
         22    1    1    0    0    0 -0.40188550541E+02  0.34200757328E+02  0.20467240342E+02  0.56601407435E+02  0.00000000000E+00 0.  1.
</event>
<event>
 4    1  0.1988088E-002  0.9118800E+02  0.7818608E-02  0.1130116E+00
         25   -1    0    0    0    0  0.00000000000E+00  0.00000000000E+00  0.99999998245E-14  0.12500000000E+03  0.12500000000E+03 0.  0.
        -11    1    1    0    0    0 -0.87036213930E+01  0.64789604673E+01 -0.12400056159E+01  0.10920969200E+02  0.51100000000E-03 0. -1.
         11    1    1    0    0    0 -0.41111990366E+02  0.30584818827E+02 -0.58965826271E+01  0.51579032382E+02  0.51100000000E-03 0.  1.
         22    1    1    0    0    0  0.49815611759E+02 -0.37063779294E+02  0.71365882430E+01  0.62499998418E+02  0.00000000000E+00 0.  1.
</event>
<event>
 4    1  0.1988088E-002  0.9118800E+02  0.7818608E-02  0.1130116E+00
         25   -1    0    0    0    0  0.00000000000E+00  0.00000000000E+00  0.99999998245E-14  0.12500000000E+03  0.12500000000E+03 0.  0.
        -11    1    1    0    0    0 -0.29364629747E+02 -0.43450130591E+02 -0.50201644641E+01  0.52682040394E+02  0.51100000000E-03 0. -1.
         11    1    1    0    0    0 -0.11067686143E+02  0.43922391911E+01 -0.83377204230E+01  0.14536265813E+02  0.51100000000E-03 0.  1.
         22    1    1    0    0    0  0.40432315891E+02  0.39057891400E+02  0.13357884887E+02  0.57781693793E+02  0.00000000000E+00 0. -1.
</event>
<event>
 4    1  0.1988088E-002  0.9118800E+02  0.7818608E-02  0.1130116E+00
         25   -1    0    0    0    0  0.00000000000E+00  0.00000000000E+00  0.99999998245E-14  0.12500000000E+03  0.12500000000E+03 0.  0.
        -11    1    1    0    0    0 -0.41127369122E+02 -0.11078720124E+01  0.40186265658E+01  0.41338084511E+02  0.51100000000E-03 0. -1.
         11    1    1    0    0    0 -0.21054806924E+02 -0.56590907090E+00  0.20497654777E+01  0.21161915945E+02  0.51100000000E-03 0.  1.
         22    1    1    0    0    0  0.62182176046E+02  0.16737810833E+01 -0.60683920435E+01  0.62499999544E+02  0.00000000000E+00 0. -1.
</event>
<event>
 4    1  0.1988088E-002  0.9118800E+02  0.7818608E-02  0.1130116E+00
         25   -1    0    0    0    0  0.00000000000E+00  0.00000000000E+00  0.99999998245E-14  0.12500000000E+03  0.12500000000E+03 0.  0.
        -11    1    1    0    0    0 -0.15855943962E+01  0.16498823663E+01 -0.29313256937E+01  0.37187218228E+01  0.51100000000E-03 0.  1.
         11    1    1    0    0    0 -0.24963920253E+02  0.24986309486E+02 -0.46986957520E+02  0.58781690631E+02  0.51100000000E-03 0. -1.
         22    1    1    0    0    0  0.26549514649E+02 -0.26636191852E+02  0.49918283214E+02  0.62499587547E+02  0.00000000000E+00 0. -1.
</event>
<event>
 4    1  0.1988088E-002  0.9118800E+02  0.7818608E-02  0.1130116E+00
         25   -1    0    0    0    0  0.00000000000E+00  0.00000000000E+00  0.99999998245E-14  0.12500000000E+03  0.12500000000E+03 0.  0.
        -11    1    1    0    0    0 -0.11395772062E+02  0.99728013651E+01  0.26520717847E+02  0.30539627754E+02  0.51100000000E-03 0. -1.
         11    1    1    0    0    0 -0.16390396675E+01 -0.26272049417E+01  0.32970967727E+02  0.33116059095E+02  0.51100000000E-03 0.  1.
         22    1    1    0    0    0  0.13034811730E+02 -0.73455964235E+01 -0.59491685574E+02  0.61344313152E+02  0.00000000000E+00 0.  1.
</event>
<event>
 4    1  0.1988088E-002  0.9118800E+02  0.7818608E-02  0.1130116E+00
         25   -1    0    0    0    0  0.00000000000E+00  0.00000000000E+00  0.99999998245E-14  0.12500000000E+03  0.12500000000E+03 0.  0.
        -11    1    1    0    0    0 -0.20257124510E+02  0.17520426537E+02 -0.58522457666E+01  0.27414689862E+02  0.51100000000E-03 0.  1.
         11    1    1    0    0    0 -0.35901055046E+02  0.59282408531E+01 -0.55869449056E+00  0.36391509076E+02  0.51100000000E-03 0. -1.
         22    1    1    0    0    0  0.56158179556E+02 -0.23448667390E+02  0.64109402572E+01  0.61193801062E+02  0.00000000000E+00 0. -1.
</event>
<event>
 4    1  0.1988088E-002  0.9118800E+02  0.7818608E-02  0.1130116E+00
         25   -1    0    0    0    0  0.00000000000E+00  0.00000000000E+00  0.99999998245E-14  0.12500000000E+03  0.12500000000E+03 0.  0.
        -11    1    1    0    0    0  0.49760677551E-01 -0.52213218155E+01  0.10996955824E+02  0.12173648397E+02  0.51100000000E-03 0. -1.
         11    1    1    0    0    0 -0.12347621821E+00 -0.21868826328E+02  0.45326603964E+02  0.50326552023E+02  0.51100000000E-03 0.  1.
         22    1    1    0    0    0  0.73715540658E-01  0.27090148144E+02 -0.56323559788E+02  0.62499799581E+02  0.00000000000E+00 0.  1.
</event>
<event>
 4    1  0.1988088E-002  0.9118800E+02  0.7818608E-02  0.1130116E+00
         25   -1    0    0    0    0  0.00000000000E+00  0.00000000000E+00  0.99999998245E-14  0.12500000000E+03  0.12500000000E+03 0.  0.
        -11    1    1    0    0    0 -0.16275512878E+02 -0.28972443411E+02  0.38821855342E+02  0.51102164819E+02  0.51100000000E-03 0. -1.
         11    1    1    0    0    0 -0.21250123407E+01 -0.59829594885E+01  0.95360189131E+01  0.11456314358E+02  0.51100000000E-03 0.  1.
         22    1    1    0    0    0  0.18400525219E+02  0.34955402900E+02 -0.48357874256E+02  0.62441520823E+02  0.00000000000E+00 0. -1.
</event>
<event>
 4    1  0.1988088E-002  0.9118800E+02  0.7818608E-02  0.1130116E+00
         25   -1    0    0    0    0  0.00000000000E+00  0.00000000000E+00  0.99999998245E-14  0.12500000000E+03  0.12500000000E+03 0.  0.
        -11    1    1    0    0    0 -0.24225909129E+02  0.47340538679E+02  0.51541385628E+01  0.53428329752E+02  0.51100000000E-03 0.  1.
         11    1    1    0    0    0 -0.40683018915E+01  0.80583712555E+01  0.89892152053E+00  0.90717411633E+01  0.51100000000E-03 0. -1.
         22    1    1    0    0    0  0.28294211021E+02 -0.55398909934E+02 -0.60530600833E+01  0.62499929084E+02  0.00000000000E+00 0.  1.
</event>
<event>
 4    1  0.1988088E-002  0.9118800E+02  0.7818608E-02  0.1130116E+00
         25   -1    0    0    0    0  0.00000000000E+00  0.00000000000E+00  0.99999998245E-14  0.12500000000E+03  0.12500000000E+03 0.  0.
        -11    1    1    0    0    0 -0.80218629057E+01 -0.19277085783E+02  0.38887377686E+02  0.44138242651E+02  0.51100000000E-03 0.  1.
         11    1    1    0    0    0  0.13609037440E+02 -0.15414154737E+01  0.16490695083E+02  0.21436531583E+02  0.51100000000E-03 0. -1.
         22    1    1    0    0    0 -0.55871745341E+01  0.20818501256E+02 -0.55378072769E+02  0.59425225767E+02  0.00000000000E+00 0. -1.
</event>
<event>
 4    1  0.1988088E-002  0.9118800E+02  0.7818608E-02  0.1130116E+00
         25   -1    0    0    0    0  0.00000000000E+00  0.00000000000E+00  0.99999998245E-14  0.12500000000E+03  0.12500000000E+03 0.  0.
        -11    1    1    0    0    0 -0.27523861426E+02 -0.54076399896E+01  0.42600248597E+02  0.51005751625E+02  0.51100000000E-03 0.  1.
         11    1    1    0    0    0 -0.63012638471E+01 -0.10658249656E+01  0.95545896048E+01  0.11494872409E+02  0.51100000000E-03 0. -1.
         22    1    1    0    0    0  0.33825125273E+02  0.64734649551E+01 -0.52154838202E+02  0.62499375966E+02  0.00000000000E+00 0.  1.
</event>
<event>
 4    1  0.1988088E-002  0.9118800E+02  0.7818608E-02  0.1130116E+00
         25   -1    0    0    0    0  0.00000000000E+00  0.00000000000E+00  0.99999998245E-14  0.12500000000E+03  0.12500000000E+03 0.  0.
        -11    1    1    0    0    0 -0.33586411812E+02  0.17534509184E+01 -0.51856801757E+02  0.61808167238E+02  0.51100000000E-03 0.  1.
         11    1    1    0    0    0 -0.36572370958E+00  0.65120373289E-02 -0.58736406144E+00  0.69194872655E+00  0.51100000000E-03 0. -1.
         22    1    1    0    0    0  0.33952135521E+02 -0.17599629558E+01  0.52444165819E+02  0.62499884036E+02  0.00000000000E+00 0.  1.
</event>
<event>
 4    1  0.1988088E-002  0.9118800E+02  0.7818608E-02  0.1130116E+00
         25   -1    0    0    0    0  0.00000000000E+00  0.00000000000E+00  0.99999998245E-14  0.12500000000E+03  0.12500000000E+03 0.  0.
        -11    1    1    0    0    0  0.20823436880E+02 -0.14817953608E+02  0.10224867071E+02  0.27526990019E+02  0.51100000000E-03 0. -1.
         11    1    1    0    0    0  0.26136207703E+02 -0.20657046230E+02  0.10732241829E+02  0.34999941814E+02  0.51100000000E-03 0.  1.
         22    1    1    0    0    0 -0.46959644583E+02  0.35474999838E+02 -0.20957108900E+02  0.62473068167E+02  0.00000000000E+00 0.  1.
</event>
<event>
 4    1  0.1988088E-002  0.9118800E+02  0.7818608E-02  0.1130116E+00
         25   -1    0    0    0    0  0.00000000000E+00  0.00000000000E+00  0.99999998245E-14  0.12500000000E+03  0.12500000000E+03 0.  0.
        -11    1    1    0    0    0 -0.57604107818E+01  0.53571926958E+00 -0.26003422009E+00  0.57911091829E+01  0.51100000000E-03 0. -1.
         11    1    1    0    0    0 -0.56544848888E+02 -0.34198052483E+01  0.34702011750E+01  0.56754359305E+02  0.51100000000E-03 0.  1.
         22    1    1    0    0    0  0.62305259670E+02  0.28840859787E+01 -0.32101669549E+01  0.62454531512E+02  0.00000000000E+00 0.  1.
</event>
<event>
 4    1  0.1988088E-002  0.9118800E+02  0.7818608E-02  0.1130116E+00
         25   -1    0    0    0    0  0.00000000000E+00  0.00000000000E+00  0.99999998245E-14  0.12500000000E+03  0.12500000000E+03 0.  0.
        -11    1    1    0    0    0 -0.38630923653E+01 -0.94333141053E+00 -0.29472119334E+01  0.49496883957E+01  0.51100000000E-03 0. -1.
         11    1    1    0    0    0 -0.44970234150E+02 -0.10978017903E+02 -0.34193564673E+02  0.57550314525E+02  0.51100000000E-03 0.  1.
         22    1    1    0    0    0  0.48833326516E+02  0.11921349313E+02  0.37140776606E+02  0.62499997080E+02  0.00000000000E+00 0.  1.
</event>
<event>
 4    1  0.1988088E-002  0.9118800E+02  0.7818608E-02  0.1130116E+00
         25   -1    0    0    0    0  0.00000000000E+00  0.00000000000E+00  0.99999998245E-14  0.12500000000E+03  0.12500000000E+03 0.  0.
        -11    1    1    0    0    0  0.37056388152E+02 -0.79024195647E+01  0.41573863676E+01  0.38117030308E+02  0.51100000000E-03 0. -1.
         11    1    1    0    0    0  0.23718624863E+02 -0.50024996412E+01  0.26328997846E+01  0.24382992630E+02  0.51100000000E-03 0.  1.
         22    1    1    0    0    0 -0.60775013015E+02  0.12904919206E+02 -0.67902861523E+01  0.62499977062E+02  0.00000000000E+00 0. -1.
</event>
<event>
 4    1  0.1988088E-002  0.9118800E+02  0.7818608E-02  0.1130116E+00
         25   -1    0    0    0    0  0.00000000000E+00  0.00000000000E+00  0.99999998245E-14  0.12500000000E+03  0.12500000000E+03 0.  0.
        -11    1    1    0    0    0  0.64563197435E-01  0.54535994440E-01  0.74310585763E-02  0.84841398533E-01  0.51100000000E-03 0. -1.
         11    1    1    0    0    0  0.47773845794E+02  0.39998007463E+02  0.36706168609E+01  0.62415177412E+02  0.51100000000E-03 0.  1.
         22    1    1    0    0    0 -0.47838408992E+02 -0.40052543457E+02 -0.36780479195E+01  0.62499981190E+02  0.00000000000E+00 0.  1.
</event>
<event>
 4    1  0.1988088E-002  0.9118800E+02  0.7818608E-02  0.1130116E+00
         25   -1    0    0    0    0  0.00000000000E+00  0.00000000000E+00  0.99999998245E-14  0.12500000000E+03  0.12500000000E+03 0.  0.
        -11    1    1    0    0    0 -0.81411450858E+01  0.18500247770E+02 -0.34379541234E+01  0.20502608119E+02  0.51100000000E-03 0.  1.
         11    1    1    0    0    0 -0.16641518532E+02  0.37915714786E+02 -0.70171023461E+01  0.41997396257E+02  0.51100000000E-03 0. -1.
         22    1    1    0    0    0  0.24782663618E+02 -0.56415962556E+02  0.10455056470E+02  0.62499995624E+02  0.00000000000E+00 0. -1.
</event>
<event>
 4    1  0.1988088E-002  0.9118800E+02  0.7818608E-02  0.1130116E+00
         25   -1    0    0    0    0  0.00000000000E+00  0.00000000000E+00  0.99999998245E-14  0.12500000000E+03  0.12500000000E+03 0.  0.
        -11    1    1    0    0    0  0.38617579317E+02  0.86813078937E+01 -0.37435882312E+02  0.54480527014E+02  0.51100000000E-03 0. -1.
         11    1    1    0    0    0  0.56808921873E+01  0.12840410621E+01 -0.55127736838E+01  0.80194745116E+01  0.51100000000E-03 0.  1.
         22    1    1    0    0    0 -0.44298471504E+02 -0.99653489557E+01  0.42948655996E+02  0.62499998474E+02  0.00000000000E+00 0. -1.
</event>
<event>
 4    1  0.1988088E-002  0.9118800E+02  0.7818608E-02  0.1130116E+00
         25   -1    0    0    0    0  0.00000000000E+00  0.00000000000E+00  0.99999998245E-14  0.12500000000E+03  0.12500000000E+03 0.  0.
        -11    1    1    0    0    0  0.26346898199E+02  0.20316454077E+02  0.25869016923E+02  0.42144078918E+02  0.51100000000E-03 0.  1.
         11    1    1    0    0    0  0.13151792878E+02  0.99764344227E+01  0.11918344116E+02  0.20360398484E+02  0.51100000000E-03 0. -1.
         22    1    1    0    0    0 -0.39498691077E+02 -0.30292888500E+02 -0.37787361039E+02  0.62495522598E+02  0.00000000000E+00 0.  1.
</event>
<event>
 4    1  0.1988088E-002  0.9118800E+02  0.7818608E-02  0.1130116E+00
         25   -1    0    0    0    0  0.00000000000E+00  0.00000000000E+00  0.99999998245E-14  0.12500000000E+03  0.12500000000E+03 0.  0.
        -11    1    1    0    0    0  0.27961493229E+02 -0.50737712427E+02  0.82093563648E+01  0.58511145076E+02  0.51100000000E-03 0. -1.
         11    1    1    0    0    0  0.19033823209E+01 -0.34601634096E+01  0.56158223041E+00  0.39888557185E+01  0.51100000000E-03 0.  1.
         22    1    1    0    0    0 -0.29864875550E+02  0.54197875837E+02 -0.87709385953E+01  0.62499999205E+02  0.00000000000E+00 0. -1.
</event>
<event>
 4    1  0.1988088E-002  0.9118800E+02  0.7818608E-02  0.1130116E+00
         25   -1    0    0    0    0  0.00000000000E+00  0.00000000000E+00  0.99999998245E-14  0.12500000000E+03  0.12500000000E+03 0.  0.
        -11    1    1    0    0    0 -0.37376051026E+02  0.18021992633E+01  0.11058585823E+02  0.39019346909E+02  0.51100000000E-03 0.  1.
         11    1    1    0    0    0 -0.21578173268E+02  0.29724165694E+01  0.89382255474E+01  0.23544525861E+02  0.51100000000E-03 0. -1.
         22    1    1    0    0    0  0.58954224294E+02 -0.47746158327E+01 -0.19996811370E+02  0.62436127230E+02  0.00000000000E+00 0. -1.
</event>
<event>
 4    1  0.1988088E-002  0.9118800E+02  0.7818608E-02  0.1130116E+00
         25   -1    0    0    0    0  0.00000000000E+00  0.00000000000E+00  0.99999998245E-14  0.12500000000E+03  0.12500000000E+03 0.  0.
        -11    1    1    0    0    0  0.19883889545E+02 -0.14451899053E+02 -0.10981825086E+02  0.26922610055E+02  0.51100000000E-03 0.  1.
         11    1    1    0    0    0  0.26113972684E+02 -0.19164391070E+02 -0.14715731571E+02  0.35577608271E+02  0.51100000000E-03 0. -1.
         22    1    1    0    0    0 -0.45997862229E+02  0.33616290123E+02  0.25697556656E+02  0.62499781674E+02  0.00000000000E+00 0. -1.
</event>
<event>
 4    1  0.1988088E-002  0.9118800E+02  0.7818608E-02  0.1130116E+00
         25   -1    0    0    0    0  0.00000000000E+00  0.00000000000E+00  0.99999998245E-14  0.12500000000E+03  0.12500000000E+03 0.  0.
        -11    1    1    0    0    0 -0.51314437099E+00  0.11962182626E+01 -0.27369962914E+00  0.13301003817E+01  0.51100000000E-03 0.  1.
         11    1    1    0    0    0 -0.18670928124E+02  0.57278825576E+02 -0.10613374964E+02  0.61172797425E+02  0.51100000000E-03 0. -1.
         22    1    1    0    0    0  0.19184072495E+02 -0.58475043838E+02  0.10887074593E+02  0.62497102194E+02  0.00000000000E+00 0. -1.
</event>
<event>
 4    1  0.1988088E-002  0.9118800E+02  0.7818608E-02  0.1130116E+00
         25   -1    0    0    0    0  0.00000000000E+00  0.00000000000E+00  0.99999998245E-14  0.12500000000E+03  0.12500000000E+03 0.  0.
        -11    1    1    0    0    0 -0.24767940116E+02  0.37199326202E+02  0.23770302735E+02  0.50618850440E+02  0.51100000000E-03 0. -1.
         11    1    1    0    0    0 -0.57543784863E+01  0.87493992763E+01  0.56123831400E+01  0.11881233279E+02  0.51100000000E-03 0.  1.
         22    1    1    0    0    0  0.30522318602E+02 -0.45948725478E+02 -0.29382685875E+02  0.62499916281E+02  0.00000000000E+00 0. -1.
</event>
<event>
 4    1  0.1988088E-002  0.9118800E+02  0.7818608E-02  0.1130116E+00
         25   -1    0    0    0    0  0.00000000000E+00  0.00000000000E+00  0.99999998245E-14  0.12500000000E+03  0.12500000000E+03 0.  0.
        -11    1    1    0    0    0 -0.41783929840E+01  0.31189090167E+02  0.28869240638E+02  0.42704231273E+02  0.51100000000E-03 0. -1.
         11    1    1    0    0    0 -0.19215455609E+01  0.14475298159E+02  0.13365857409E+02  0.19795775779E+02  0.51100000000E-03 0.  1.
         22    1    1    0    0    0  0.60999385449E+01 -0.45664388325E+02 -0.42235098048E+02  0.62499992948E+02  0.00000000000E+00 0. -1.
</event>
<event>
 4    1  0.1988088E-002  0.9118800E+02  0.7818608E-02  0.1130116E+00
         25   -1    0    0    0    0  0.00000000000E+00  0.00000000000E+00  0.99999998245E-14  0.12500000000E+03  0.12500000000E+03 0.  0.
        -11    1    1    0    0    0 -0.14960728391E+00  0.47873787379E+02  0.49656553734E+01  0.48130859476E+02  0.51100000000E-03 0.  1.
         11    1    1    0    0    0 -0.10756764182E+01  0.14364715338E+02  0.18221538118E+00  0.14406086533E+02  0.51100000000E-03 0. -1.
         22    1    1    0    0    0  0.12252837021E+01 -0.62238502717E+02 -0.51478707546E+01  0.62463053991E+02  0.00000000000E+00 0.  1.
</event>
<event>
 4    1  0.1988088E-002  0.9118800E+02  0.7818608E-02  0.1130116E+00
         25   -1    0    0    0    0  0.00000000000E+00  0.00000000000E+00  0.99999998245E-14  0.12500000000E+03  0.12500000000E+03 0.  0.
        -11    1    1    0    0    0 -0.39031784411E+02 -0.44908414233E+02 -0.54166706375E+01  0.59746013961E+02  0.51100000000E-03 0. -1.
         11    1    1    0    0    0 -0.22600634806E+01 -0.13067371188E+01 -0.13000400902E+01  0.29164281803E+01  0.51100000000E-03 0.  1.
         22    1    1    0    0    0  0.41291847892E+02  0.46215151352E+02  0.67167107277E+01  0.62337557858E+02  0.00000000000E+00 0. -1.
</event>
<event>
 4    1  0.1988088E-002  0.9118800E+02  0.7818608E-02  0.1130116E+00
         25   -1    0    0    0    0  0.00000000000E+00  0.00000000000E+00  0.99999998245E-14  0.12500000000E+03  0.12500000000E+03 0.  0.
        -11    1    1    0    0    0  0.15411314599E+01  0.40963328782E+02  0.41355140108E+02  0.58229004840E+02  0.51100000000E-03 0. -1.
         11    1    1    0    0    0  0.78740986207E-01  0.29487372612E+01  0.30892729171E+01  0.42714001213E+01  0.51100000000E-03 0.  1.
         22    1    1    0    0    0 -0.16198724461E+01 -0.43912066043E+02 -0.44444413025E+02  0.62499595039E+02  0.00000000000E+00 0. -1.
</event>
<event>
 4    1  0.1988088E-002  0.9118800E+02  0.7818608E-02  0.1130116E+00
         25   -1    0    0    0    0  0.00000000000E+00  0.00000000000E+00  0.99999998245E-14  0.12500000000E+03  0.12500000000E+03 0.  0.
        -11    1    1    0    0    0  0.31213107050E+01 -0.49039990944E+01 -0.10267528944E+02  0.11798895648E+02  0.51100000000E-03 0. -1.
         11    1    1    0    0    0  0.13321784551E+02 -0.21092084642E+02 -0.44139062628E+02  0.50701112691E+02  0.51100000000E-03 0.  1.
         22    1    1    0    0    0 -0.16443095256E+02  0.25996083736E+02  0.54406591572E+02  0.62499991661E+02  0.00000000000E+00 0.  1.
</event>
<event>
 4    1  0.1988088E-002  0.9118800E+02  0.7818608E-02  0.1130116E+00
         25   -1    0    0    0    0  0.00000000000E+00  0.00000000000E+00  0.99999998245E-14  0.12500000000E+03  0.12500000000E+03 0.  0.
        -11    1    1    0    0    0  0.17708546053E+01  0.12732195572E+02 -0.63490511033E+01  0.14337195691E+02  0.51100000000E-03 0. -1.
         11    1    1    0    0    0  0.79260814284E+01  0.40118511357E+02 -0.25506804923E+02  0.48196626624E+02  0.51100000000E-03 0.  1.
         22    1    1    0    0    0 -0.96969360337E+01 -0.52850706929E+02  0.31855856026E+02  0.62466177684E+02  0.00000000000E+00 0.  1.
</event>
<event>
 4    1  0.1988088E-002  0.9118800E+02  0.7818608E-02  0.1130116E+00
         25   -1    0    0    0    0  0.00000000000E+00  0.00000000000E+00  0.99999998245E-14  0.12500000000E+03  0.12500000000E+03 0.  0.
        -11    1    1    0    0    0  0.39234183320E+02 -0.30238007283E+02 -0.28525658685E+02  0.57160925718E+02  0.51100000000E-03 0.  1.
         11    1    1    0    0    0  0.36347096344E+01 -0.28511866749E+01 -0.26769656825E+01  0.53391502233E+01  0.51100000000E-03 0. -1.
         22    1    1    0    0    0 -0.42868892955E+02  0.33089193958E+02  0.31202624368E+02  0.62499924059E+02  0.00000000000E+00 0.  1.
</event>
<event>
 4    1  0.1988088E-002  0.9118800E+02  0.7818608E-02  0.1130116E+00
         25   -1    0    0    0    0  0.00000000000E+00  0.00000000000E+00  0.99999998245E-14  0.12500000000E+03  0.12500000000E+03 0.  0.
        -11    1    1    0    0    0  0.46090485772E+02 -0.89600481711E+01 -0.31344483591E+02  0.56454335474E+02  0.51100000000E-03 0. -1.
         11    1    1    0    0    0  0.44269983200E+01 -0.78638698599E+00 -0.40872190697E+01  0.60763540550E+01  0.51100000000E-03 0.  1.
         22    1    1    0    0    0 -0.50517484092E+02  0.97464351571E+01  0.35431702661E+02  0.62469310471E+02  0.00000000000E+00 0. -1.
</event>
<event>
 4    1  0.1988088E-002  0.9118800E+02  0.7818608E-02  0.1130116E+00
         25   -1    0    0    0    0  0.00000000000E+00  0.00000000000E+00  0.99999998245E-14  0.12500000000E+03  0.12500000000E+03 0.  0.
        -11    1    1    0    0    0  0.41330090488E+01  0.14939583348E+02  0.20217513374E+02  0.25475885887E+02  0.51100000000E-03 0. -1.
         11    1    1    0    0    0  0.60062110757E+01  0.21723579366E+02  0.29373399501E+02  0.37024114716E+02  0.51100000000E-03 0.  1.
         22    1    1    0    0    0 -0.10139220124E+02 -0.36663162713E+02 -0.49590912876E+02  0.62499999398E+02  0.00000000000E+00 0.  1.
</event>
<event>
 4    1  0.1988088E-002  0.9118800E+02  0.7818608E-02  0.1130116E+00
         25   -1    0    0    0    0  0.00000000000E+00  0.00000000000E+00  0.99999998245E-14  0.12500000000E+03  0.12500000000E+03 0.  0.
        -11    1    1    0    0    0  0.25488113564E+02 -0.28328621674E+02  0.23749732226E+02  0.44902166095E+02  0.51100000000E-03 0.  1.
         11    1    1    0    0    0  0.17620949456E+01 -0.15685832101E+01  0.20216101106E+02  0.20353284159E+02  0.51100000000E-03 0. -1.
         22    1    1    0    0    0 -0.27250208509E+02  0.29897204884E+02 -0.43965833332E+02  0.59744549745E+02  0.00000000000E+00 0.  1.
</event>
<event>
 4    1  0.1988088E-002  0.9118800E+02  0.7818608E-02  0.1130116E+00
         25   -1    0    0    0    0  0.00000000000E+00  0.00000000000E+00  0.99999998245E-14  0.12500000000E+03  0.12500000000E+03 0.  0.
        -11    1    1    0    0    0  0.32712227590E+02  0.20469431265E+02  0.17862849475E+01  0.38630017660E+02  0.51100000000E-03 0. -1.
         11    1    1    0    0    0  0.20203437025E+02  0.12664006479E+02  0.11046426977E+01  0.23869984572E+02  0.51100000000E-03 0.  1.
         22    1    1    0    0    0 -0.52915664615E+02 -0.33133437744E+02 -0.28909276452E+01  0.62499997768E+02  0.00000000000E+00 0. -1.
</event>
<event>
 4    1  0.1988088E-002  0.9118800E+02  0.7818608E-02  0.1130116E+00
         25   -1    0    0    0    0  0.00000000000E+00  0.00000000000E+00  0.99999998245E-14  0.12500000000E+03  0.12500000000E+03 0.  0.
        -11    1    1    0    0    0 -0.74729051161E+01  0.90276703940E+01 -0.62115759005E+01  0.13263740764E+02  0.51100000000E-03 0. -1.
         11    1    1    0    0    0  0.39188828310E+02  0.37728636573E+02 -0.30492504806E+01  0.54484054646E+02  0.51100000000E-03 0.  1.
         22    1    1    0    0    0 -0.31715923193E+02 -0.46756306967E+02  0.92608263811E+01  0.57252204590E+02  0.00000000000E+00 0.  1.
</event>
<event>
 4    1  0.1988088E-002  0.9118800E+02  0.7818608E-02  0.1130116E+00
         25   -1    0    0    0    0  0.00000000000E+00  0.00000000000E+00  0.99999998245E-14  0.12500000000E+03  0.12500000000E+03 0.  0.
        -11    1    1    0    0    0  0.48839539659E+01  0.37518090753E+01 -0.40190015374E+01  0.73540091989E+01  0.51100000000E-03 0.  1.
         11    1    1    0    0    0  0.36734274694E+02  0.27697356228E+02 -0.30406348146E+02  0.55146137554E+02  0.51100000000E-03 0. -1.
         22    1    1    0    0    0 -0.41618228660E+02 -0.31449165303E+02  0.34425349684E+02  0.62499853247E+02  0.00000000000E+00 0. -1.
</event>
<event>
 4    1  0.1988088E-002  0.9118800E+02  0.7818608E-02  0.1130116E+00
         25   -1    0    0    0    0  0.00000000000E+00  0.00000000000E+00  0.99999998245E-14  0.12500000000E+03  0.12500000000E+03 0.  0.
        -11    1    1    0    0    0 -0.14668805575E+02  0.53539104751E+02 -0.27782495198E+02  0.62076377425E+02  0.51100000000E-03 0.  1.
         11    1    1    0    0    0 -0.15084108363E-01  0.35336181203E+00 -0.24394767823E+00  0.42965431612E+00  0.51100000000E-03 0. -1.
         22    1    1    0    0    0  0.14683889683E+02 -0.53892466563E+02  0.28026442876E+02  0.62493968259E+02  0.00000000000E+00 0.  1.
</event>
<event>
 4    1  0.1988088E-002  0.9118800E+02  0.7818608E-02  0.1130116E+00
         25   -1    0    0    0    0  0.00000000000E+00  0.00000000000E+00  0.99999998245E-14  0.12500000000E+03  0.12500000000E+03 0.  0.
        -11    1    1    0    0    0 -0.17270054346E+02  0.61385620543E+00  0.22113778867E+02  0.28065117363E+02  0.51100000000E-03 0.  1.
         11    1    1    0    0    0 -0.18875874110E+02  0.29137615132E+01  0.28701506278E+02  0.34475572402E+02  0.51100000000E-03 0. -1.
         22    1    1    0    0    0  0.36145928456E+02 -0.35276177186E+01 -0.50815285145E+02  0.62459310235E+02  0.00000000000E+00 0. -1.
</event>
<event>
 4    1  0.1988088E-002  0.9118800E+02  0.7818608E-02  0.1130116E+00
         25   -1    0    0    0    0  0.00000000000E+00  0.00000000000E+00  0.99999998245E-14  0.12500000000E+03  0.12500000000E+03 0.  0.
        -11    1    1    0    0    0 -0.46074842469E+01 -0.41822009542E+02  0.39573068648E+02  0.57761034925E+02  0.51100000000E-03 0. -1.
         11    1    1    0    0    0 -0.35944029308E+00 -0.34192520462E+01  0.32615387771E+01  0.47389996134E+01  0.51100000000E-03 0.  1.
         22    1    1    0    0    0  0.49669245400E+01  0.45241261588E+02 -0.42834607425E+02  0.62499965461E+02  0.00000000000E+00 0. -1.
</event>
<event>
 4    1  0.1988088E-002  0.9118800E+02  0.7818608E-02  0.1130116E+00
         25   -1    0    0    0    0  0.00000000000E+00  0.00000000000E+00  0.99999998245E-14  0.12500000000E+03  0.12500000000E+03 0.  0.
        -11    1    1    0    0    0  0.22727128152E+02  0.33838162491E+02 -0.24435237808E+02  0.47524987552E+02  0.51100000000E-03 0.  1.
         11    1    1    0    0    0  0.18305766993E+02 -0.56892561928E+01  0.19704448409E+02  0.27490617101E+02  0.51100000000E-03 0. -1.
         22    1    1    0    0    0 -0.41032895146E+02 -0.28148906299E+02  0.47307893997E+01  0.49984395347E+02  0.00000000000E+00 0.  1.
</event>
<event>
 4    1  0.1988088E-002  0.9118800E+02  0.7818608E-02  0.1130116E+00
         25   -1    0    0    0    0  0.00000000000E+00  0.00000000000E+00  0.99999998245E-14  0.12500000000E+03  0.12500000000E+03 0.  0.
        -11    1    1    0    0    0 -0.11516616227E+02 -0.49030163207E+01  0.15422507785E+02  0.19862672655E+02  0.51100000000E-03 0. -1.
         11    1    1    0    0    0 -0.26742609102E+02 -0.14981315896E+02  0.29731344352E+02  0.42703159190E+02  0.51100000000E-03 0.  1.
         22    1    1    0    0    0  0.38259225329E+02  0.19884332217E+02 -0.45153852137E+02  0.62434168155E+02  0.00000000000E+00 0.  1.
</event>
<event>
 4    1  0.1988088E-002  0.9118800E+02  0.7818608E-02  0.1130116E+00
         25   -1    0    0    0    0  0.00000000000E+00  0.00000000000E+00  0.99999998245E-14  0.12500000000E+03  0.12500000000E+03 0.  0.
        -11    1    1    0    0    0 -0.15627443220E+02  0.38196154184E+02  0.34457555685E+02  0.53763243207E+02  0.51100000000E-03 0. -1.
         11    1    1    0    0    0 -0.25825718434E+01  0.61574944539E+01  0.56346150644E+01  0.87368931813E+01  0.51100000000E-03 0.  1.
         22    1    1    0    0    0  0.18210015064E+02 -0.44353648638E+02 -0.40092170750E+02  0.62499863612E+02  0.00000000000E+00 0. -1.
</event>
<event>
 4    1  0.1988088E-002  0.9118800E+02  0.7818608E-02  0.1130116E+00
         25   -1    0    0    0    0  0.00000000000E+00  0.00000000000E+00  0.99999998245E-14  0.12500000000E+03  0.12500000000E+03 0.  0.
        -11    1    1    0    0    0 -0.45078102965E+02 -0.65513401982E+01  0.40117847387E+02  0.60699234794E+02  0.51100000000E-03 0. -1.
         11    1    1    0    0    0 -0.81199791344E+00 -0.72865201546E+00  0.15462923885E+01  0.18924309190E+01  0.51100000000E-03 0.  1.
         22    1    1    0    0    0  0.45890100878E+02  0.72799922136E+01 -0.41664139776E+02  0.62408334287E+02  0.00000000000E+00 0. -1.
</event>
<event>
 4    1  0.1988088E-002  0.9118800E+02  0.7818608E-02  0.1130116E+00
         25   -1    0    0    0    0  0.00000000000E+00  0.00000000000E+00  0.99999998245E-14  0.12500000000E+03  0.12500000000E+03 0.  0.
        -11    1    1    0    0    0 -0.18481049164E-01  0.45704316707E-01  0.25734752226E+00  0.26202755977E+00  0.51100000000E-03 0. -1.
         11    1    1    0    0    0 -0.44400452026E+01  0.10975727947E+02  0.61101429408E+02  0.62237972985E+02  0.51100000000E-03 0.  1.
         22    1    1    0    0    0  0.44585262518E+01 -0.11021432263E+02 -0.61358776930E+02  0.62499999455E+02  0.00000000000E+00 0.  1.
</event>
<event>
 4    1  0.1988088E-002  0.9118800E+02  0.7818608E-02  0.1130116E+00
         25   -1    0    0    0    0  0.00000000000E+00  0.00000000000E+00  0.99999998245E-14  0.12500000000E+03  0.12500000000E+03 0.  0.
        -11    1    1    0    0    0  0.65415953853E+01 -0.35352807973E+00 -0.77452667016E+01  0.10144289469E+02  0.51100000000E-03 0. -1.
         11    1    1    0    0    0  0.29210972686E+02 -0.15536860939E+01 -0.43452210403E+02  0.52381193714E+02  0.51100000000E-03 0.  1.
         22    1    1    0    0    0 -0.35752568071E+02  0.19072141737E+01  0.51197477105E+02  0.62474516817E+02  0.00000000000E+00 0.  1.
</event>
<event>
 4    1  0.1988088E-002  0.9118800E+02  0.7818608E-02  0.1130116E+00
         25   -1    0    0    0    0  0.00000000000E+00  0.00000000000E+00  0.99999998245E-14  0.12500000000E+03  0.12500000000E+03 0.  0.
        -11    1    1    0    0    0 -0.57059228474E+02 -0.71472661780E+00 -0.20523739934E+02  0.60642314347E+02  0.51100000000E-03 0.  1.
         11    1    1    0    0    0  0.98510987991E+01  0.23624882434E+00 -0.46040492890E+01  0.10876453060E+02  0.51100000000E-03 0. -1.
         22    1    1    0    0    0  0.47208129675E+02  0.47847779346E+00  0.25127789223E+02  0.53481232593E+02  0.00000000000E+00 0.  1.
</event>
<event>
 4    1  0.1988088E-002  0.9118800E+02  0.7818608E-02  0.1130116E+00
         25   -1    0    0    0    0  0.00000000000E+00  0.00000000000E+00  0.99999998245E-14  0.12500000000E+03  0.12500000000E+03 0.  0.
        -11    1    1    0    0    0  0.93754984816E+01 -0.26844396810E+01 -0.52929345252E+01  0.11096005783E+02  0.51100000000E-03 0. -1.
         11    1    1    0    0    0  0.44827783675E+02 -0.80278423169E+01 -0.23881547241E+02  0.51422803700E+02  0.51100000000E-03 0.  1.
         22    1    1    0    0    0 -0.54203282157E+02  0.10712281998E+02  0.29174481766E+02  0.62481190517E+02  0.00000000000E+00 0.  1.
</event>
<event>
 4    1  0.1988088E-002  0.9118800E+02  0.7818608E-02  0.1130116E+00
         25   -1    0    0    0    0  0.00000000000E+00  0.00000000000E+00  0.99999998245E-14  0.12500000000E+03  0.12500000000E+03 0.  0.
        -11    1    1    0    0    0 -0.31906963732E+01  0.25095730277E+02  0.89939548462E+01  0.26848974757E+02  0.51100000000E-03 0.  1.
         11    1    1    0    0    0 -0.62521144767E+01  0.32895464015E+02  0.12277256415E+02  0.35664148855E+02  0.51100000000E-03 0. -1.
         22    1    1    0    0    0  0.94428108499E+01 -0.57991194292E+02 -0.21271211261E+02  0.62486876388E+02  0.00000000000E+00 0.  1.
</event>
<event>
 4    1  0.1988088E-002  0.9118800E+02  0.7818608E-02  0.1130116E+00
         25   -1    0    0    0    0  0.00000000000E+00  0.00000000000E+00  0.99999998245E-14  0.12500000000E+03  0.12500000000E+03 0.  0.
        -11    1    1    0    0    0  0.38822196642E+02  0.70782481308E+01  0.45430038332E+02  0.60176016251E+02  0.51100000000E-03 0. -1.
         11    1    1    0    0    0  0.14997607847E+01  0.29461923982E+00  0.17507261212E+01  0.23240320825E+01  0.51100000000E-03 0.  1.
         22    1    1    0    0    0 -0.40321957427E+02 -0.73728673706E+01 -0.47180764453E+02  0.62499951667E+02  0.00000000000E+00 0. -1.
</event>
<event>
 4    1  0.1988088E-002  0.9118800E+02  0.7818608E-02  0.1130116E+00
         25   -1    0    0    0    0  0.00000000000E+00  0.00000000000E+00  0.99999998245E-14  0.12500000000E+03  0.12500000000E+03 0.  0.
        -11    1    1    0    0    0  0.56206982836E+02 -0.20678061553E+02 -0.15246289870E+02  0.61800133529E+02  0.51100000000E-03 0.  1.
         11    1    1    0    0    0  0.63629912719E+00 -0.23473079928E+00 -0.17273680297E+00  0.69986669560E+00  0.51100000000E-03 0.  1.
         22    1    1    0    0    0 -0.56843281964E+02  0.20912792352E+02  0.15419026672E+02  0.62499999775E+02  0.00000000000E+00 0.  1.
</event>
<event>
 4    1  0.1988088E-002  0.9118800E+02  0.7818608E-02  0.1130116E+00
         25   -1    0    0    0    0  0.00000000000E+00  0.00000000000E+00  0.99999998245E-14  0.12500000000E+03  0.12500000000E+03 0.  0.
        -11    1    1    0    0    0 -0.11013786582E+02 -0.37412284210E+01 -0.74502991243E+01  0.13813299471E+02  0.51100000000E-03 0.  1.
         11    1    1    0    0    0 -0.38865567355E+02 -0.13184350622E+02 -0.26192291161E+02  0.48686708079E+02  0.51100000000E-03 0. -1.
         22    1    1    0    0    0  0.49879353937E+02  0.16925579043E+02  0.33642590285E+02  0.62499992449E+02  0.00000000000E+00 0. -1.
</event>
<event>
 4    1  0.1988088E-002  0.9118800E+02  0.7818608E-02  0.1130116E+00
         25   -1    0    0    0    0  0.00000000000E+00  0.00000000000E+00  0.99999998245E-14  0.12500000000E+03  0.12500000000E+03 0.  0.
        -11    1    1    0    0    0 -0.21489688513E+01 -0.63842595128E+01 -0.12446053429E+02  0.14152069915E+02  0.51100000000E-03 0. -1.
         11    1    1    0    0    0 -0.71691772358E+01 -0.21878619474E+02 -0.42514175779E+02  0.48347970327E+02  0.51100000000E-03 0.  1.
         22    1    1    0    0    0  0.93181460871E+01  0.28262878986E+02  0.54960229208E+02  0.62499959758E+02  0.00000000000E+00 0.  1.
</event>
<event>
 4    1  0.1988088E-002  0.9118800E+02  0.7818608E-02  0.1130116E+00
         25   -1    0    0    0    0  0.00000000000E+00  0.00000000000E+00  0.99999998245E-14  0.12500000000E+03  0.12500000000E+03 0.  0.
        -11    1    1    0    0    0 -0.47527687803E+01 -0.79987954039E+01 -0.63026861073E+01  0.11238033254E+02  0.51100000000E-03 0. -1.
         11    1    1    0    0    0 -0.21680875716E+02 -0.36488715860E+02 -0.28745477563E+02  0.51261966774E+02  0.51100000000E-03 0.  1.
         22    1    1    0    0    0  0.26433644496E+02  0.44487511264E+02  0.35048163670E+02  0.62499999972E+02  0.00000000000E+00 0.  1.
</event>
<event>
 4    1  0.1988088E-002  0.9118800E+02  0.7818608E-02  0.1130116E+00
         25   -1    0    0    0    0  0.00000000000E+00  0.00000000000E+00  0.99999998245E-14  0.12500000000E+03  0.12500000000E+03 0.  0.
        -11    1    1    0    0    0  0.56048408357E+01  0.61782528433E+01  0.20960558329E+02  0.22559478157E+02  0.51100000000E-03 0.  1.
         11    1    1    0    0    0  0.97211581751E+01  0.10367744978E+02  0.37327321023E+02  0.39941456498E+02  0.51100000000E-03 0. -1.
         22    1    1    0    0    0 -0.15325999011E+02 -0.16545997821E+02 -0.58287879352E+02  0.62499065345E+02  0.00000000000E+00 0.  1.
</event>
<event>
 4    1  0.1988088E-002  0.9118800E+02  0.7818608E-02  0.1130116E+00
         25   -1    0    0    0    0  0.00000000000E+00  0.00000000000E+00  0.99999998245E-14  0.12500000000E+03  0.12500000000E+03 0.  0.
        -11    1    1    0    0    0  0.30689227719E+02 -0.13948255287E+02  0.30379624733E+02  0.45379556220E+02  0.51100000000E-03 0. -1.
         11    1    1    0    0    0  0.11575935215E+02 -0.52741206199E+01  0.11458229664E+02  0.17120445429E+02  0.51100000000E-03 0.  1.
         22    1    1    0    0    0 -0.42265162934E+02  0.19222375907E+02 -0.41837854397E+02  0.62499998351E+02  0.00000000000E+00 0.  1.
</event>
<event>
 4    1  0.1988088E-002  0.9118800E+02  0.7818608E-02  0.1130116E+00
         25   -1    0    0    0    0  0.00000000000E+00  0.00000000000E+00  0.99999998245E-14  0.12500000000E+03  0.12500000000E+03 0.  0.
        -11    1    1    0    0    0 -0.59719635656E+01  0.27655074145E+01 -0.12138776304E+01  0.66922252840E+01  0.51100000000E-03 0. -1.
         11    1    1    0    0    0 -0.50125114991E+02  0.22417115725E+02 -0.99740942716E+01  0.55808035148E+02  0.51100000000E-03 0.  1.
         22    1    1    0    0    0  0.56097078557E+02 -0.25182623139E+02  0.11187971902E+02  0.62499739568E+02  0.00000000000E+00 0.  1.
</event>
<event>
 4    1  0.1988088E-002  0.9118800E+02  0.7818608E-02  0.1130116E+00
         25   -1    0    0    0    0  0.00000000000E+00  0.00000000000E+00  0.99999998245E-14  0.12500000000E+03  0.12500000000E+03 0.  0.
        -11    1    1    0    0    0 -0.28955587546E+02  0.42479275135E+02 -0.40937438936E+01  0.51572023476E+02  0.51100000000E-03 0. -1.
         11    1    1    0    0    0 -0.60996851120E+01  0.90249820776E+01 -0.87464114413E+00  0.10928012507E+02  0.51100000000E-03 0.  1.
         22    1    1    0    0    0  0.35055272658E+02 -0.51504257213E+02  0.49683850377E+01  0.62499964016E+02  0.00000000000E+00 0. -1.
</event>
<event>
 4    1  0.1988088E-002  0.9118800E+02  0.7818608E-02  0.1130116E+00
         25   -1    0    0    0    0  0.00000000000E+00  0.00000000000E+00  0.99999998245E-14  0.12500000000E+03  0.12500000000E+03 0.  0.
        -11    1    1    0    0    0 -0.97861728836E+01 -0.68683823921E+01  0.20450333007E+01  0.12129551428E+02  0.51100000000E-03 0.  1.
         11    1    1    0    0    0 -0.40658544295E+02 -0.28489793895E+02  0.85086235382E+01  0.50370450218E+02  0.51100000000E-03 0. -1.
         22    1    1    0    0    0  0.50444717178E+02  0.35358176287E+02 -0.10553656839E+02  0.62499998354E+02  0.00000000000E+00 0. -1.
</event>
<event>
 4    1  0.1988088E-002  0.9118800E+02  0.7818608E-02  0.1130116E+00
         25   -1    0    0    0    0  0.00000000000E+00  0.00000000000E+00  0.99999998245E-14  0.12500000000E+03  0.12500000000E+03 0.  0.
        -11    1    1    0    0    0 -0.27889973471E+02 -0.17985538815E+02  0.26155447930E+02  0.42254439807E+02  0.51100000000E-03 0.  1.
         11    1    1    0    0    0 -0.22034431319E+02  0.89757607365E+01 -0.21033609951E+02  0.31756781830E+02  0.51100000000E-03 0. -1.
         22    1    1    0    0    0  0.49924404790E+02  0.90097780789E+01 -0.51218379794E+01  0.50988778363E+02  0.00000000000E+00 0.  1.
</event>
<event>
 4    1  0.1988088E-002  0.9118800E+02  0.7818608E-02  0.1130116E+00
         25   -1    0    0    0    0  0.00000000000E+00  0.00000000000E+00  0.99999998245E-14  0.12500000000E+03  0.12500000000E+03 0.  0.
        -11    1    1    0    0    0 -0.71922963875E+01  0.57384760893E+02  0.54237815690E+01  0.58087497078E+02  0.51100000000E-03 0. -1.
         11    1    1    0    0    0 -0.54676652031E+00  0.43589855362E+01  0.41288476584E+00  0.44125029885E+01  0.51100000000E-03 0. -1.
         22    1    1    0    0    0  0.77390629078E+01 -0.61743746429E+02 -0.58366663348E+01  0.62499999933E+02  0.00000000000E+00 0. -1.
</event>
<event>
 4    1  0.1988088E-002  0.9118800E+02  0.7818608E-02  0.1130116E+00
         25   -1    0    0    0    0  0.00000000000E+00  0.00000000000E+00  0.99999998245E-14  0.12500000000E+03  0.12500000000E+03 0.  0.
        -11    1    1    0    0    0  0.22241960924E+01  0.47325841287E+02 -0.16833228186E+02  0.50279616877E+02  0.51100000000E-03 0.  1.
         11    1    1    0    0    0  0.50316783384E+00  0.11525179991E+02 -0.40319966121E+01  0.12220472521E+02  0.51100000000E-03 0. -1.
         22    1    1    0    0    0 -0.27273639262E+01 -0.58851021278E+02  0.20865224799E+02  0.62499910603E+02  0.00000000000E+00 0.  1.
</event>
<event>
 4    1  0.1988088E-002  0.9118800E+02  0.7818608E-02  0.1130116E+00
         25   -1    0    0    0    0  0.00000000000E+00  0.00000000000E+00  0.99999998245E-14  0.12500000000E+03  0.12500000000E+03 0.  0.
        -11    1    1    0    0    0 -0.17063771670E+01  0.26324539716E+01  0.17561633549E+02  0.17839633127E+02  0.51100000000E-03 0.  1.
         11    1    1    0    0    0 -0.43435718079E+01  0.66251749390E+01  0.43952130116E+02  0.44660377305E+02  0.51100000000E-03 0. -1.
         22    1    1    0    0    0  0.60499489750E+01 -0.92576289106E+01 -0.61513763665E+02  0.62499989567E+02  0.00000000000E+00 0. -1.
</event>
<event>
 4    1  0.1988088E-002  0.9118800E+02  0.7818608E-02  0.1130116E+00
         25   -1    0    0    0    0  0.00000000000E+00  0.00000000000E+00  0.99999998245E-14  0.12500000000E+03  0.12500000000E+03 0.  0.
        -11    1    1    0    0    0 -0.23029236685E+00 -0.14518159365E+01  0.16977999570E+01  0.22457357464E+01  0.51100000000E-03 0.  1.
         11    1    1    0    0    0 -0.27598476070E+02 -0.24964611733E+02  0.47513212421E+02  0.60352407368E+02  0.51100000000E-03 0. -1.
         22    1    1    0    0    0  0.27828768436E+02  0.26416427669E+02 -0.49211012378E+02  0.62401856885E+02  0.00000000000E+00 0. -1.
</event>
<event>
 4    1  0.1988088E-002  0.9118800E+02  0.7818608E-02  0.1130116E+00
         25   -1    0    0    0    0  0.00000000000E+00  0.00000000000E+00  0.99999998245E-14  0.12500000000E+03  0.12500000000E+03 0.  0.
        -11    1    1    0    0    0  0.35234412010E+02 -0.43268747800E+01 -0.16392805896E+02  0.39101275177E+02  0.51100000000E-03 0. -1.
         11    1    1    0    0    0 -0.72078264976E+01 -0.13432596643E+02 -0.27160883578E+02  0.31146444619E+02  0.51100000000E-03 0.  1.
         22    1    1    0    0    0 -0.28026585513E+02  0.17759471423E+02  0.43553689474E+02  0.54752280204E+02  0.00000000000E+00 0. -1.
</event>
<event>
 4    1  0.1988088E-002  0.9118800E+02  0.7818608E-02  0.1130116E+00
         25   -1    0    0    0    0  0.00000000000E+00  0.00000000000E+00  0.99999998245E-14  0.12500000000E+03  0.12500000000E+03 0.  0.
        -11    1    1    0    0    0  0.11524248315E+01 -0.49101090738E+01  0.15560770684E+01  0.52781275291E+01  0.51100000000E-03 0. -1.
         11    1    1    0    0    0  0.56564356317E+01 -0.54809891259E+02  0.15504240277E+02  0.57240727727E+02  0.51100000000E-03 0.  1.
         22    1    1    0    0    0 -0.68088604632E+01  0.59720000333E+02 -0.17060317345E+02  0.62481144744E+02  0.00000000000E+00 0.  1.
</event>
<event>
 4    1  0.1988088E-002  0.9118800E+02  0.7818608E-02  0.1130116E+00
         25   -1    0    0    0    0  0.00000000000E+00  0.00000000000E+00  0.99999998245E-14  0.12500000000E+03  0.12500000000E+03 0.  0.
        -11    1    1    0    0    0 -0.10827969148E+02 -0.14931437570E+02  0.17186048094E+02  0.25210176380E+02  0.51100000000E-03 0.  1.
         11    1    1    0    0    0 -0.17010539966E+02 -0.18113327432E+02  0.27887127089E+02  0.37351612524E+02  0.51100000000E-03 0. -1.
         22    1    1    0    0    0  0.27838509114E+02  0.33044765002E+02 -0.45073175183E+02  0.62438211096E+02  0.00000000000E+00 0.  1.
</event>
<event>
 4    1  0.1988088E-002  0.9118800E+02  0.7818608E-02  0.1130116E+00
         25   -1    0    0    0    0  0.00000000000E+00  0.00000000000E+00  0.99999998245E-14  0.12500000000E+03  0.12500000000E+03 0.  0.
        -11    1    1    0    0    0  0.25286817892E+02  0.18266110280E+02  0.31411108456E+02  0.44268856757E+02  0.51100000000E-03 0. -1.
         11    1    1    0    0    0  0.15365987748E+02  0.13366962953E+01  0.10884452152E+02  0.18877808012E+02  0.51100000000E-03 0.  1.
         22    1    1    0    0    0 -0.40652805640E+02 -0.19602806575E+02 -0.42295560608E+02  0.61853335231E+02  0.00000000000E+00 0. -1.
</event>
<event>
 4    1  0.1988088E-002  0.9118800E+02  0.7818608E-02  0.1130116E+00
         25   -1    0    0    0    0  0.00000000000E+00  0.00000000000E+00  0.99999998245E-14  0.12500000000E+03  0.12500000000E+03 0.  0.
        -11    1    1    0    0    0  0.10866120168E+02 -0.11049798570E+02  0.12319208764E+02  0.19797310948E+02  0.51100000000E-03 0. -1.
         11    1    1    0    0    0  0.23460255054E+02 -0.23807240730E+02  0.26577275471E+02  0.42702691368E+02  0.51100000000E-03 0.  1.
         22    1    1    0    0    0 -0.34326375222E+02  0.34857039300E+02 -0.38896484235E+02  0.62499997684E+02  0.00000000000E+00 0.  1.
</event>
<event>
 4    1  0.1988088E-002  0.9118800E+02  0.7818608E-02  0.1130116E+00
         25   -1    0    0    0    0  0.00000000000E+00  0.00000000000E+00  0.99999998245E-14  0.12500000000E+03  0.12500000000E+03 0.  0.
        -11    1    1    0    0    0 -0.54585314691E+02 -0.13267213487E+02  0.78285781845E+01  0.56717388606E+02  0.51100000000E-03 0. -1.
         11    1    1    0    0    0 -0.55684364681E+01 -0.13390081188E+01  0.79890950890E+00  0.57826191389E+01  0.51100000000E-03 0.  1.
         22    1    1    0    0    0  0.60153751159E+02  0.14606221606E+02 -0.86274876934E+01  0.62499992256E+02  0.00000000000E+00 0. -1.
</event>
<event>
 4    1  0.1988088E-002  0.9118800E+02  0.7818608E-02  0.1130116E+00
         25   -1    0    0    0    0  0.00000000000E+00  0.00000000000E+00  0.99999998245E-14  0.12500000000E+03  0.12500000000E+03 0.  0.
        -11    1    1    0    0    0 -0.12439272039E+02  0.15525889990E+01 -0.74765799400E+01  0.14596070338E+02  0.51100000000E-03 0. -1.
         11    1    1    0    0    0 -0.34727302313E+01  0.14123922778E+02 -0.48235566537E+02  0.50380699969E+02  0.51100000000E-03 0.  1.
         22    1    1    0    0    0  0.15912002270E+02 -0.15676511777E+02  0.55712146477E+02  0.60023229693E+02  0.00000000000E+00 0.  1.
</event>
<event>
 4    1  0.1988088E-002  0.9118800E+02  0.7818608E-02  0.1130116E+00
         25   -1    0    0    0    0  0.00000000000E+00  0.00000000000E+00  0.99999998245E-14  0.12500000000E+03  0.12500000000E+03 0.  0.
        -11    1    1    0    0    0  0.42754604320E+02 -0.22385072493E+02 -0.13605951541E+01  0.48279383597E+02  0.51100000000E-03 0. -1.
         11    1    1    0    0    0  0.12052509445E+02 -0.74728803596E+01  0.18849288643E+01  0.14305938693E+02  0.51100000000E-03 0.  1.
         22    1    1    0    0    0 -0.54807113765E+02  0.29857952853E+02 -0.52433371025E+00  0.62414677710E+02  0.00000000000E+00 0. -1.
</event>
<event>
 4    1  0.1988088E-002  0.9118800E+02  0.7818608E-02  0.1130116E+00
         25   -1    0    0    0    0  0.00000000000E+00  0.00000000000E+00  0.99999998245E-14  0.12500000000E+03  0.12500000000E+03 0.  0.
        -11    1    1    0    0    0  0.45953015077E+01  0.52947960987E+02 -0.10743896374E+02  0.54222086627E+02  0.51100000000E-03 0.  1.
         11    1    1    0    0    0  0.72741559154E+00  0.80923968389E+01 -0.15841463698E+01  0.82780154640E+01  0.51100000000E-03 0. -1.
         22    1    1    0    0    0 -0.53227170993E+01 -0.61040357825E+02  0.12328042744E+02  0.62499897909E+02  0.00000000000E+00 0.  1.
</event>
<event>
 4    1  0.1988088E-002  0.9118800E+02  0.7818608E-02  0.1130116E+00
         25   -1    0    0    0    0  0.00000000000E+00  0.00000000000E+00  0.99999998245E-14  0.12500000000E+03  0.12500000000E+03 0.  0.
        -11    1    1    0    0    0 -0.26741596921E+01  0.34539701666E+01 -0.37625499329E+01  0.57652252540E+01  0.51100000000E-03 0.  1.
         11    1    1    0    0    0 -0.26930536472E+02  0.34084399155E+02 -0.36494732313E+02  0.56735046905E+02  0.51100000000E-03 0. -1.
         22    1    1    0    0    0  0.29604696164E+02 -0.37538369322E+02  0.40257282246E+02  0.62499727841E+02  0.00000000000E+00 0. -1.
</event>
<event>
 4    1  0.1988088E-002  0.9118800E+02  0.7818608E-02  0.1130116E+00
         25   -1    0    0    0    0  0.00000000000E+00  0.00000000000E+00  0.99999998245E-14  0.12500000000E+03  0.12500000000E+03 0.  0.
        -11    1    1    0    0    0 -0.95595573709E+01  0.46750332572E+01  0.39201117936E+00  0.10648696921E+02  0.51100000000E-03 0.  1.
         11    1    1    0    0    0 -0.46534782957E+02  0.22789526185E+02  0.19259279408E+01  0.51851304008E+02  0.51100000000E-03 0. -1.
         22    1    1    0    0    0  0.56094340328E+02 -0.27464559442E+02 -0.23179391201E+01  0.62499999072E+02  0.00000000000E+00 0. -1.
</event>
<event>
 4    1  0.1988088E-002  0.9118800E+02  0.7818608E-02  0.1130116E+00
         25   -1    0    0    0    0  0.00000000000E+00  0.00000000000E+00  0.99999998245E-14  0.12500000000E+03  0.12500000000E+03 0.  0.
        -11    1    1    0    0    0  0.17913797940E+01 -0.11012801864E+02  0.68671980069E+00  0.11178659616E+02  0.51100000000E-03 0.  1.
         11    1    1    0    0    0  0.51688211440E+01 -0.50895768986E+02  0.42105920635E+01  0.51330547421E+02  0.51100000000E-03 0. -1.
         22    1    1    0    0    0 -0.69602009380E+01  0.61908570850E+02 -0.48973118642E+01  0.62490792964E+02  0.00000000000E+00 0. -1.
</event>
<event>
 4    1  0.1988088E-002  0.9118800E+02  0.7818608E-02  0.1130116E+00
         25   -1    0    0    0    0  0.00000000000E+00  0.00000000000E+00  0.99999998245E-14  0.12500000000E+03  0.12500000000E+03 0.  0.
        -11    1    1    0    0    0 -0.29346002884E+01 -0.51790801546E+02  0.18864158818E+02  0.55197422873E+02  0.51100000000E-03 0.  1.
         11    1    1    0    0    0 -0.10121210343E+01 -0.62708537661E+01  0.37398885437E+01  0.73712117406E+01  0.51100000000E-03 0. -1.
         22    1    1    0    0    0  0.39467213228E+01  0.58061655313E+02 -0.22604047362E+02  0.62431365386E+02  0.00000000000E+00 0.  1.
</event>
<event>
 4    1  0.1988088E-002  0.9118800E+02  0.7818608E-02  0.1130116E+00
         25   -1    0    0    0    0  0.00000000000E+00  0.00000000000E+00  0.99999998245E-14  0.12500000000E+03  0.12500000000E+03 0.  0.
        -11    1    1    0    0    0 -0.39046914493E+02  0.12250149627E+02 -0.91072551870E+01  0.41924572682E+02  0.51100000000E-03 0. -1.
         11    1    1    0    0    0 -0.18825442477E+02  0.61276094478E+01 -0.56491425883E+01  0.20587804503E+02  0.51100000000E-03 0.  1.
         22    1    1    0    0    0  0.57872356969E+02 -0.18377759075E+02  0.14756397775E+02  0.62487622815E+02  0.00000000000E+00 0.  1.
</event>
<event>
 4    1  0.1988088E-002  0.9118800E+02  0.7818608E-02  0.1130116E+00
         25   -1    0    0    0    0  0.00000000000E+00  0.00000000000E+00  0.99999998245E-14  0.12500000000E+03  0.12500000000E+03 0.  0.
        -11    1    1    0    0    0  0.10463175171E+02  0.28423312862E+02  0.53386102024E+01  0.30754894048E+02  0.51100000000E-03 0.  1.
         11    1    1    0    0    0  0.11156780917E+02  0.29079223828E+02  0.61502253951E+01  0.31747445433E+02  0.51100000000E-03 0. -1.
         22    1    1    0    0    0 -0.21619956088E+02 -0.57502536690E+02 -0.11488835597E+02  0.62497660519E+02  0.00000000000E+00 0. -1.
</event>
<event>
 4    1  0.1988088E-002  0.9118800E+02  0.7818608E-02  0.1130116E+00
         25   -1    0    0    0    0  0.00000000000E+00  0.00000000000E+00  0.99999998245E-14  0.12500000000E+03  0.12500000000E+03 0.  0.
        -11    1    1    0    0    0 -0.27716138558E+01 -0.14932264497E+02 -0.45742021840E+01  0.15861200845E+02  0.51100000000E-03 0.  1.
         11    1    1    0    0    0 -0.81486745827E+01 -0.43907739278E+02 -0.13449428284E+02  0.46638799163E+02  0.51100000000E-03 0.  1.
         22    1    1    0    0    0  0.10920288438E+02  0.58840003775E+02  0.18023630468E+02  0.62499999992E+02  0.00000000000E+00 0.  1.
</event>
<event>
 4    1  0.1988088E-002  0.9118800E+02  0.7818608E-02  0.1130116E+00
         25   -1    0    0    0    0  0.00000000000E+00  0.00000000000E+00  0.99999998245E-14  0.12500000000E+03  0.12500000000E+03 0.  0.
        -11    1    1    0    0    0 -0.19420010558E+02  0.39336523352E+02 -0.23757303375E+02  0.49888960136E+02  0.51100000000E-03 0.  1.
         11    1    1    0    0    0 -0.10443826200E+02  0.64254330320E+01  0.15629430558E+02  0.19865517742E+02  0.51100000000E-03 0. -1.
         22    1    1    0    0    0  0.29863836759E+02 -0.45761956384E+02  0.81278728175E+01  0.55245522122E+02  0.00000000000E+00 0.  1.
</event>
<event>
 4    1  0.1988088E-002  0.9118800E+02  0.7818608E-02  0.1130116E+00
         25   -1    0    0    0    0  0.00000000000E+00  0.00000000000E+00  0.99999998245E-14  0.12500000000E+03  0.12500000000E+03 0.  0.
        -11    1    1    0    0    0 -0.16010805269E+02 -0.12658783060E+02 -0.37186784013E+01  0.20746547742E+02  0.51100000000E-03 0. -1.
         11    1    1    0    0    0 -0.32220646469E+02 -0.25478167203E+02 -0.74862350068E+01  0.41753452285E+02  0.51100000000E-03 0.  1.
         22    1    1    0    0    0  0.48231451738E+02  0.38136950263E+02  0.11204913408E+02  0.62499999972E+02  0.00000000000E+00 0.  1.
</event>
<event>
 4    1  0.1988088E-002  0.9118800E+02  0.7818608E-02  0.1130116E+00
         25   -1    0    0    0    0  0.00000000000E+00  0.00000000000E+00  0.99999998245E-14  0.12500000000E+03  0.12500000000E+03 0.  0.
        -11    1    1    0    0    0  0.18018552697E+01 -0.66430842709E+01  0.19943833309E+01  0.71662274716E+01  0.51100000000E-03 0. -1.
         11    1    1    0    0    0  0.13587547552E+02 -0.51434148358E+02  0.15223084256E+02  0.55333853655E+02  0.51100000000E-03 0.  1.
         22    1    1    0    0    0 -0.15389402821E+02  0.58077232629E+02 -0.17217467587E+02  0.62499918873E+02  0.00000000000E+00 0.  1.
</event>
<event>
 4    1  0.1988088E-002  0.9118800E+02  0.7818608E-02  0.1130116E+00
         25   -1    0    0    0    0  0.00000000000E+00  0.00000000000E+00  0.99999998245E-14  0.12500000000E+03  0.12500000000E+03 0.  0.
        -11    1    1    0    0    0 -0.31542776771E+02  0.24242851610E+02  0.37053048277E+02  0.54365347488E+02  0.51100000000E-03 0.  1.
         11    1    1    0    0    0 -0.31420560871E+01  0.32267565157E+01  0.69188559193E+01  0.82556066742E+01  0.51100000000E-03 0. -1.
         22    1    1    0    0    0  0.34684832858E+02 -0.27469608126E+02 -0.43971904196E+02  0.62379045838E+02  0.00000000000E+00 0.  1.
</event>
<event>
 4    1  0.1988088E-002  0.9118800E+02  0.7818608E-02  0.1130116E+00
         25   -1    0    0    0    0  0.00000000000E+00  0.00000000000E+00  0.99999998245E-14  0.12500000000E+03  0.12500000000E+03 0.  0.
        -11    1    1    0    0    0  0.10481853274E+02  0.70154834805E+01 -0.42711194009E+01  0.13316482934E+02  0.51100000000E-03 0.  1.
         11    1    1    0    0    0  0.38733781682E+02  0.25835148891E+02 -0.15851147088E+02  0.49183530027E+02  0.51100000000E-03 0. -1.
         22    1    1    0    0    0 -0.49215634956E+02 -0.32850632371E+02  0.20122266489E+02  0.62499987040E+02  0.00000000000E+00 0. -1.
</event>
<event>
 4    1  0.1988088E-002  0.9118800E+02  0.7818608E-02  0.1130116E+00
         25   -1    0    0    0    0  0.00000000000E+00  0.00000000000E+00  0.99999998245E-14  0.12500000000E+03  0.12500000000E+03 0.  0.
        -11    1    1    0    0    0 -0.54140296652E+01 -0.34157127390E+02 -0.44826416160E+02  0.56616505144E+02  0.51100000000E-03 0. -1.
         11    1    1    0    0    0  0.12267971339E+01 -0.69279514343E+00 -0.62511495420E+01  0.64079534312E+01  0.51100000000E-03 0.  1.
         22    1    1    0    0    0  0.41872325313E+01  0.34849922533E+02  0.51077565702E+02  0.61975541425E+02  0.00000000000E+00 0. -1.
</event>
<event>
 4    1  0.1988088E-002  0.9118800E+02  0.7818608E-02  0.1130116E+00
         25   -1    0    0    0    0  0.00000000000E+00  0.00000000000E+00  0.99999998245E-14  0.12500000000E+03  0.12500000000E+03 0.  0.
        -11    1    1    0    0    0  0.11616689754E+02 -0.32600420669E+01 -0.74114458152E+01  0.14159974733E+02  0.51100000000E-03 0. -1.
         11    1    1    0    0    0  0.42726259470E+02 -0.87728816845E+01 -0.20931362753E+02  0.48379940557E+02  0.51100000000E-03 0.  1.
         22    1    1    0    0    0 -0.54342949224E+02  0.12032923751E+02  0.28342808568E+02  0.62460084709E+02  0.00000000000E+00 0.  1.
</event>
<event>
 4    1  0.1988088E-002  0.9118800E+02  0.7818608E-02  0.1130116E+00
         25   -1    0    0    0    0  0.00000000000E+00  0.00000000000E+00  0.99999998245E-14  0.12500000000E+03  0.12500000000E+03 0.  0.
        -11    1    1    0    0    0 -0.17796860571E+02 -0.27591598589E+02 -0.52556720123E+02  0.61969616662E+02  0.51100000000E-03 0. -1.
         11    1    1    0    0    0 -0.15688854238E+00 -0.24382631005E+00 -0.44418060175E+00  0.53043562503E+00  0.51100000000E-03 0.  1.
         22    1    1    0    0    0  0.17953749113E+02  0.27835424900E+02  0.53000900724E+02  0.62499947713E+02  0.00000000000E+00 0. -1.
</event>
<event>
 4    1  0.1988088E-002  0.9118800E+02  0.7818608E-02  0.1130116E+00
         25   -1    0    0    0    0  0.00000000000E+00  0.00000000000E+00  0.99999998245E-14  0.12500000000E+03  0.12500000000E+03 0.  0.
        -11    1    1    0    0    0 -0.45152085925E+02  0.42985095337E+01  0.35854559739E+02  0.57816412047E+02  0.51100000000E-03 0.  1.
         11    1    1    0    0    0 -0.36582641032E+01  0.34443461078E+00  0.29042161336E+01  0.46835886947E+01  0.51100000000E-03 0. -1.
         22    1    1    0    0    0  0.48810350029E+02 -0.46429441445E+01 -0.38758775872E+02  0.62499999259E+02  0.00000000000E+00 0.  1.
</event>
<event>
 4    1  0.1988088E-002  0.9118800E+02  0.7818608E-02  0.1130116E+00
         25   -1    0    0    0    0  0.00000000000E+00  0.00000000000E+00  0.99999998245E-14  0.12500000000E+03  0.12500000000E+03 0.  0.
        -11    1    1    0    0    0  0.31474298059E+01 -0.65778943946E+01  0.85091298758E-01  0.72926161177E+01  0.51100000000E-03 0.  1.
         11    1    1    0    0    0  0.50598168494E+02  0.27248305737E+02 -0.12472647618E+02  0.58806562214E+02  0.51100000000E-03 0. -1.
         22    1    1    0    0    0 -0.53745598300E+02 -0.20670411343E+02  0.12387556319E+02  0.58900821669E+02  0.00000000000E+00 0. -1.
</event>
<event>
 4    1  0.1988088E-002  0.9118800E+02  0.7818608E-02  0.1130116E+00
         25   -1    0    0    0    0  0.00000000000E+00  0.00000000000E+00  0.99999998245E-14  0.12500000000E+03  0.12500000000E+03 0.  0.
        -11    1    1    0    0    0  0.17512230694E+02  0.39935604471E+01  0.18555780115E+02  0.25825253626E+02  0.51100000000E-03 0.  1.
         11    1    1    0    0    0  0.24857449261E+02  0.56777302271E+01  0.26361101550E+02  0.36674747164E+02  0.51100000000E-03 0. -1.
         22    1    1    0    0    0 -0.42369679955E+02 -0.96712906742E+01 -0.44916881665E+02  0.62499999210E+02  0.00000000000E+00 0.  1.
</event>
<event>
 4    1  0.1988088E-002  0.9118800E+02  0.7818608E-02  0.1130116E+00
         25   -1    0    0    0    0  0.00000000000E+00  0.00000000000E+00  0.99999998245E-14  0.12500000000E+03  0.12500000000E+03 0.  0.
        -11    1    1    0    0    0  0.27609032522E+02  0.21445557723E+02 -0.17040649171E+02  0.38891571674E+02  0.51100000000E-03 0.  1.
         11    1    1    0    0    0  0.16749226502E+02  0.13249738769E+02 -0.10065121968E+02  0.23609295761E+02  0.51100000000E-03 0. -1.
         22    1    1    0    0    0 -0.44358259024E+02 -0.34695296492E+02  0.27105771139E+02  0.62499132565E+02  0.00000000000E+00 0.  1.
</event>
<event>
 4    1  0.1988088E-002  0.9118800E+02  0.7818608E-02  0.1130116E+00
         25   -1    0    0    0    0  0.00000000000E+00  0.00000000000E+00  0.99999998245E-14  0.12500000000E+03  0.12500000000E+03 0.  0.
        -11    1    1    0    0    0  0.27396707511E+02 -0.83620709855E+01 -0.43728067104E+00  0.28647775275E+02  0.51100000000E-03 0. -1.
         11    1    1    0    0    0  0.30649974353E+02 -0.63067638411E+01 -0.14735640601E+02  0.34588080348E+02  0.51100000000E-03 0.  1.
         22    1    1    0    0    0 -0.58046681864E+02  0.14668834827E+02  0.15172921272E+02  0.61764144376E+02  0.00000000000E+00 0.  1.
</event>
<event>
 4    1  0.1988088E-002  0.9118800E+02  0.7818608E-02  0.1130116E+00
         25   -1    0    0    0    0  0.00000000000E+00  0.00000000000E+00  0.99999998245E-14  0.12500000000E+03  0.12500000000E+03 0.  0.
        -11    1    1    0    0    0 -0.29931728767E+02 -0.46432095972E+02 -0.23707331360E+02  0.60115601002E+02  0.51100000000E-03 0.  1.
         11    1    1    0    0    0 -0.12603830864E+01 -0.18460991447E+01 -0.83466510762E+00  0.23860665706E+01  0.51100000000E-03 0. -1.
         22    1    1    0    0    0  0.31192111854E+02  0.48278195116E+02  0.24541996468E+02  0.62498332428E+02  0.00000000000E+00 0.  1.
</event>
<event>
 4    1  0.1988088E-002  0.9118800E+02  0.7818608E-02  0.1130116E+00
         25   -1    0    0    0    0  0.00000000000E+00  0.00000000000E+00  0.99999998245E-14  0.12500000000E+03  0.12500000000E+03 0.  0.
        -11    1    1    0    0    0  0.19347756479E+02 -0.28746650888E+02 -0.66411568161E+01  0.35281873280E+02  0.51100000000E-03 0.  1.
         11    1    1    0    0    0  0.14919097440E+02 -0.22179873653E+02 -0.51283702482E+01  0.27218127146E+02  0.51100000000E-03 0. -1.
         22    1    1    0    0    0 -0.34266853919E+02  0.50926524541E+02  0.11769527064E+02  0.62499999573E+02  0.00000000000E+00 0. -1.
</event>
<event>
 4    1  0.1988088E-002  0.9118800E+02  0.7818608E-02  0.1130116E+00
         25   -1    0    0    0    0  0.00000000000E+00  0.00000000000E+00  0.99999998245E-14  0.12500000000E+03  0.12500000000E+03 0.  0.
        -11    1    1    0    0    0 -0.34590752235E+01 -0.12000722654E+01 -0.10288416695E+01  0.38031421596E+01  0.51100000000E-03 0.  1.
         11    1    1    0    0    0 -0.53391414406E+02 -0.18524788753E+02 -0.15859073259E+02  0.58696857969E+02  0.51100000000E-03 0. -1.
         22    1    1    0    0    0  0.56850489629E+02  0.19724861019E+02  0.16887914928E+02  0.62499999871E+02  0.00000000000E+00 0. -1.
</event>
<event>
 4    1  0.1988088E-002  0.9118800E+02  0.7818608E-02  0.1130116E+00
         25   -1    0    0    0    0  0.00000000000E+00  0.00000000000E+00  0.99999998245E-14  0.12500000000E+03  0.12500000000E+03 0.  0.
        -11    1    1    0    0    0 -0.25928581564E+02 -0.26765581264E+02 -0.45790411338E+02  0.59037695188E+02  0.51100000000E-03 0.  1.
         11    1    1    0    0    0 -0.15303808740E+01 -0.15486741945E+01 -0.26920943367E+01  0.34623445177E+01  0.51100000000E-03 0. -1.
         22    1    1    0    0    0  0.27458962438E+02  0.28314255458E+02  0.48482505675E+02  0.62499960295E+02  0.00000000000E+00 0.  1.
</event>
<event>
 4    1  0.1988088E-002  0.9118800E+02  0.7818608E-02  0.1130116E+00
         25   -1    0    0    0    0  0.00000000000E+00  0.00000000000E+00  0.99999998245E-14  0.12500000000E+03  0.12500000000E+03 0.  0.
        -11    1    1    0    0    0 -0.58294042181E+00  0.12693664008E+02  0.35191544755E+02  0.37415421259E+02  0.51100000000E-03 0.  1.
         11    1    1    0    0    0 -0.80474337977E+01 -0.10411251008E+02  0.24189092209E+02  0.27536657757E+02  0.51100000000E-03 0. -1.
         22    1    1    0    0    0  0.86303742196E+01 -0.22824129999E+01 -0.59380636964E+02  0.60047920984E+02  0.00000000000E+00 0.  1.
</event>
<event>
 4    1  0.1988088E-002  0.9118800E+02  0.7818608E-02  0.1130116E+00
         25   -1    0    0    0    0  0.00000000000E+00  0.00000000000E+00  0.99999998245E-14  0.12500000000E+03  0.12500000000E+03 0.  0.
        -11    1    1    0    0    0 -0.18912645236E+02  0.13305881182E+02  0.32137229669E+02  0.39592122385E+02  0.51100000000E-03 0.  1.
         11    1    1    0    0    0 -0.13254308103E+01  0.90507422828E+01  0.21784140648E+02  0.23626711297E+02  0.51100000000E-03 0. -1.
         22    1    1    0    0    0  0.20238076047E+02 -0.22356623465E+02 -0.53921370317E+02  0.61781166318E+02  0.00000000000E+00 0. -1.
</event>
<event>
 4    1  0.1988088E-002  0.9118800E+02  0.7818608E-02  0.1130116E+00
         25   -1    0    0    0    0  0.00000000000E+00  0.00000000000E+00  0.99999998245E-14  0.12500000000E+03  0.12500000000E+03 0.  0.
        -11    1    1    0    0    0  0.50209917135E+02 -0.23855083753E+02  0.75189391261E+01  0.56094877176E+02  0.51100000000E-03 0. -1.
         11    1    1    0    0    0  0.56994559236E+01 -0.28455283887E+01  0.68251541773E+00  0.64067665162E+01  0.51100000000E-03 0.  1.
         22    1    1    0    0    0 -0.55909373058E+02  0.26700612142E+02 -0.82014545439E+01  0.62498356308E+02  0.00000000000E+00 0. -1.
</event>
<event>
 4    1  0.1988088E-002  0.9118800E+02  0.7818608E-02  0.1130116E+00
         25   -1    0    0    0    0  0.00000000000E+00  0.00000000000E+00  0.99999998245E-14  0.12500000000E+03  0.12500000000E+03 0.  0.
        -11    1    1    0    0    0 -0.17228333225E+02  0.41503193840E+02  0.22018982522E+02  0.50041644219E+02  0.51100000000E-03 0.  1.
         11    1    1    0    0    0 -0.42882770347E+01  0.10330711488E+02  0.54861387208E+01  0.12458356156E+02  0.51100000000E-03 0. -1.
         22    1    1    0    0    0  0.21516610260E+02 -0.51833905328E+02 -0.27505121243E+02  0.62499999625E+02  0.00000000000E+00 0.  1.
</event>
<event>
 4    1  0.1988088E-002  0.9118800E+02  0.7818608E-02  0.1130116E+00
         25   -1    0    0    0    0  0.00000000000E+00  0.00000000000E+00  0.99999998245E-14  0.12500000000E+03  0.12500000000E+03 0.  0.
        -11    1    1    0    0    0 -0.91516444080E+01  0.24883843610E+01  0.90140957092E+01  0.13084287287E+02  0.51100000000E-03 0.  1.
         11    1    1    0    0    0 -0.38816775434E+02  0.14816566927E+02  0.26942445445E+02  0.49519370729E+02  0.51100000000E-03 0. -1.
         22    1    1    0    0    0  0.47968419842E+02 -0.17304951288E+02 -0.35956541154E+02  0.62396341984E+02  0.00000000000E+00 0. -1.
</event>
<event>
 4    1  0.1988088E-002  0.9118800E+02  0.7818608E-02  0.1130116E+00
         25   -1    0    0    0    0  0.00000000000E+00  0.00000000000E+00  0.99999998245E-14  0.12500000000E+03  0.12500000000E+03 0.  0.
        -11    1    1    0    0    0  0.23941762687E+02  0.23122024441E+01 -0.19546532690E+02  0.30993890062E+02  0.51100000000E-03 0.  1.
         11    1    1    0    0    0  0.24501360376E+02  0.22364509828E+01 -0.19680835990E+02  0.31506406949E+02  0.51100000000E-03 0. -1.
         22    1    1    0    0    0 -0.48443123063E+02 -0.45486534269E+01  0.39227368681E+02  0.62499702989E+02  0.00000000000E+00 0. -1.
</event>
<event>
 4    1  0.1988088E-002  0.9118800E+02  0.7818608E-02  0.1130116E+00
         25   -1    0    0    0    0  0.00000000000E+00  0.00000000000E+00  0.99999998245E-14  0.12500000000E+03  0.12500000000E+03 0.  0.
        -11    1    1    0    0    0 -0.26195147041E+01  0.96080752196E+01 -0.58598178498E+01  0.11554844534E+02  0.51100000000E-03 0. -1.
         11    1    1    0    0    0 -0.34941564835E+02 -0.11405199087E+02  0.45709226454E+02  0.58654282901E+02  0.51100000000E-03 0.  1.
         22    1    1    0    0    0  0.37561079539E+02  0.17971238673E+01 -0.39849408605E+02  0.54790872565E+02  0.00000000000E+00 0.  1.
</event>
<event>
 4    1  0.1988088E-002  0.9118800E+02  0.7818608E-02  0.1130116E+00
         25   -1    0    0    0    0  0.00000000000E+00  0.00000000000E+00  0.99999998245E-14  0.12500000000E+03  0.12500000000E+03 0.  0.
        -11    1    1    0    0    0 -0.11612138691E+02  0.27140690816E+01  0.27367563910E+01  0.12235104076E+02  0.51100000000E-03 0. -1.
         11    1    1    0    0    0 -0.41286386337E+02  0.21606486431E+02  0.19402192003E+02  0.50476242009E+02  0.51100000000E-03 0.  1.
         22    1    1    0    0    0  0.52898525027E+02 -0.24320555513E+02 -0.22138948393E+02  0.62288653914E+02  0.00000000000E+00 0.  1.
</event>
<event>
 4    1  0.1988088E-002  0.9118800E+02  0.7818608E-02  0.1130116E+00
         25   -1    0    0    0    0  0.00000000000E+00  0.00000000000E+00  0.99999998245E-14  0.12500000000E+03  0.12500000000E+03 0.  0.
        -11    1    1    0    0    0  0.91617640754E+01  0.15670014528E+02 -0.51368223958E+01  0.18864628829E+02  0.51100000000E-03 0.  1.
         11    1    1    0    0    0  0.24510380774E+02  0.36460768121E+02  0.11751443881E+01  0.43949144955E+02  0.51100000000E-03 0. -1.
         22    1    1    0    0    0 -0.33672144850E+02 -0.52130782649E+02  0.39616780078E+01  0.62186226216E+02  0.00000000000E+00 0. -1.
</event>
<event>
 4    1  0.1988088E-002  0.9118800E+02  0.7818608E-02  0.1130116E+00
         25   -1    0    0    0    0  0.00000000000E+00  0.00000000000E+00  0.99999998245E-14  0.12500000000E+03  0.12500000000E+03 0.  0.
        -11    1    1    0    0    0  0.64997141161E+01  0.53384701107E+01 -0.20841035956E+02  0.22474303697E+02  0.51100000000E-03 0.  1.
         11    1    1    0    0    0  0.18284048686E+02  0.39164981450E+01 -0.35588872219E+02  0.40202154422E+02  0.51100000000E-03 0. -1.
         22    1    1    0    0    0 -0.24783762802E+02 -0.92549682557E+01  0.56429908174E+02  0.62323541881E+02  0.00000000000E+00 0. -1.
</event>
<event>
 4    1  0.1988088E-002  0.9118800E+02  0.7818608E-02  0.1130116E+00
         25   -1    0    0    0    0  0.00000000000E+00  0.00000000000E+00  0.99999998245E-14  0.12500000000E+03  0.12500000000E+03 0.  0.
        -11    1    1    0    0    0 -0.42843270908E+01  0.25503725565E+02  0.10575096798E+01  0.25882693123E+02  0.51100000000E-03 0.  1.
         11    1    1    0    0    0 -0.60582933441E+01  0.36081662687E+02  0.14959493016E+01  0.36617306906E+02  0.51100000000E-03 0. -1.
         22    1    1    0    0    0  0.10342620435E+02 -0.61585388252E+02 -0.25534589814E+01  0.62499999971E+02  0.00000000000E+00 0. -1.
</event>
<event>
 4    1  0.1988088E-002  0.9118800E+02  0.7818608E-02  0.1130116E+00
         25   -1    0    0    0    0  0.00000000000E+00  0.00000000000E+00  0.99999998245E-14  0.12500000000E+03  0.12500000000E+03 0.  0.
        -11    1    1    0    0    0 -0.51025719091E+00  0.11216649035E+01 -0.59251705308E+00  0.13673226670E+01  0.51100000000E-03 0. -1.
         11    1    1    0    0    0 -0.22505094730E+02  0.50248605317E+02 -0.26566968760E+02  0.61132687283E+02  0.51100000000E-03 0.  1.
         22    1    1    0    0    0  0.23015351921E+02 -0.51370270220E+02  0.27159485813E+02  0.62499990050E+02  0.00000000000E+00 0.  1.
</event>
<event>
 4    1  0.1988088E-002  0.9118800E+02  0.7818608E-02  0.1130116E+00
         25   -1    0    0    0    0  0.00000000000E+00  0.00000000000E+00  0.99999998245E-14  0.12500000000E+03  0.12500000000E+03 0.  0.
        -11    1    1    0    0    0 -0.42411219718E+01  0.48152360277E+01  0.20775710159E+00  0.64200293501E+01  0.51100000000E-03 0. -1.
         11    1    1    0    0    0 -0.21519479781E+02 -0.56675510492E+02 -0.18345925196E+01  0.60651193142E+02  0.51100000000E-03 0.  1.
         22    1    1    0    0    0  0.25760601753E+02  0.51860274464E+02  0.16268354180E+01  0.57928777508E+02  0.00000000000E+00 0.  1.
</event>
<event>
 4    1  0.1988088E-002  0.9118800E+02  0.7818608E-02  0.1130116E+00
         25   -1    0    0    0    0  0.00000000000E+00  0.00000000000E+00  0.99999998245E-14  0.12500000000E+03  0.12500000000E+03 0.  0.
        -11    1    1    0    0    0  0.85513010589E+01  0.44634079507E+02  0.36513144567E+02  0.58296959866E+02  0.51100000000E-03 0. -1.
         11    1    1    0    0    0  0.61580439520E+00  0.32174528220E+01  0.26333114551E+01  0.42030402324E+01  0.51100000000E-03 0.  1.
         22    1    1    0    0    0 -0.91671054541E+01 -0.47851532329E+02 -0.39146456022E+02  0.62499999901E+02  0.00000000000E+00 0. -1.
</event>
<event>
 4    1  0.1988088E-002  0.9118800E+02  0.7818608E-02  0.1130116E+00
         25   -1    0    0    0    0  0.00000000000E+00  0.00000000000E+00  0.99999998245E-14  0.12500000000E+03  0.12500000000E+03 0.  0.
        -11    1    1    0    0    0  0.16644723679E+02 -0.90931795708E+01 -0.54176428577E+02  0.57400506571E+02  0.51100000000E-03 0.  1.
         11    1    1    0    0    0  0.15075277363E+01 -0.82817971399E+00 -0.48007241487E+01  0.50995562677E+01  0.51100000000E-03 0. -1.
         22    1    1    0    0    0 -0.18152251416E+02  0.99213592848E+01  0.58977152725E+02  0.62499937161E+02  0.00000000000E+00 0.  1.
</event>
<event>
 4    1  0.1988088E-002  0.9118800E+02  0.7818608E-02  0.1130116E+00
         25   -1    0    0    0    0  0.00000000000E+00  0.00000000000E+00  0.99999998245E-14  0.12500000000E+03  0.12500000000E+03 0.  0.
        -11    1    1    0    0    0  0.60222920263E-01 -0.13835539614E+01  0.83290953768E+00  0.16160405080E+01  0.51100000000E-03 0.  1.
         11    1    1    0    0    0  0.22488725768E+01 -0.52143859468E+02  0.31349912940E+02  0.60883959708E+02  0.51100000000E-03 0.  1.
         22    1    1    0    0    0 -0.23090954971E+01  0.53527413429E+02 -0.32182822478E+02  0.62499999785E+02  0.00000000000E+00 0.  1.
</event>
<event>
 4    1  0.1988088E-002  0.9118800E+02  0.7818608E-02  0.1130116E+00
         25   -1    0    0    0    0  0.00000000000E+00  0.00000000000E+00  0.99999998245E-14  0.12500000000E+03  0.12500000000E+03 0.  0.
        -11    1    1    0    0    0 -0.24524121178E+02 -0.15563433317E+02 -0.47734990683E+02  0.55877386409E+02  0.51100000000E-03 0. -1.
         11    1    1    0    0    0 -0.29096884153E+01 -0.18465992148E+01 -0.56553340851E+01  0.66226142278E+01  0.51100000000E-03 0.  1.
         22    1    1    0    0    0  0.27433809593E+02  0.17410032532E+02  0.53390324768E+02  0.62499999363E+02  0.00000000000E+00 0. -1.
</event>
<event>
 4    1  0.1988088E-002  0.9118800E+02  0.7818608E-02  0.1130116E+00
         25   -1    0    0    0    0  0.00000000000E+00  0.00000000000E+00  0.99999998245E-14  0.12500000000E+03  0.12500000000E+03 0.  0.
        -11    1    1    0    0    0 -0.14871664809E+01 -0.17463847882E+00  0.74646516943E+00  0.16731327654E+01  0.51100000000E-03 0.  1.
         11    1    1    0    0    0 -0.53492646592E+02 -0.74880913337E+01  0.27971487316E+02  0.60827122686E+02  0.51100000000E-03 0. -1.
         22    1    1    0    0    0  0.54979813073E+02  0.76627298125E+01 -0.28717952485E+02  0.62499744549E+02  0.00000000000E+00 0. -1.
</event>
<event>
 4    1  0.1988088E-002  0.9118800E+02  0.7818608E-02  0.1130116E+00
         25   -1    0    0    0    0  0.00000000000E+00  0.00000000000E+00  0.99999998245E-14  0.12500000000E+03  0.12500000000E+03 0.  0.
        -11    1    1    0    0    0  0.45799957660E+01 -0.57229475541E+01  0.16562121541E+02  0.18111663649E+02  0.51100000000E-03 0.  1.
         11    1    1    0    0    0  0.11201811128E+02 -0.14024824274E+02  0.40597391769E+02  0.44388337288E+02  0.51100000000E-03 0. -1.
         22    1    1    0    0    0 -0.15781806894E+02  0.19747771829E+02 -0.57159513310E+02  0.62499999063E+02  0.00000000000E+00 0.  1.
</event>
<event>
 4    1  0.1988088E-002  0.9118800E+02  0.7818608E-02  0.1130116E+00
         25   -1    0    0    0    0  0.00000000000E+00  0.00000000000E+00  0.99999998245E-14  0.12500000000E+03  0.12500000000E+03 0.  0.
        -11    1    1    0    0    0  0.44600932873E+02 -0.19812605800E+02  0.27684835495E+02  0.56109114040E+02  0.51100000000E-03 0. -1.
         11    1    1    0    0    0  0.50896881171E+01 -0.22766114303E+01  0.31234849261E+01  0.63909344448E+01  0.51100000000E-03 0.  1.
         22    1    1    0    0    0 -0.49690620990E+02  0.22089217231E+02 -0.30808320421E+02  0.62499951515E+02  0.00000000000E+00 0. -1.
</event>
<event>
 4    1  0.1988088E-002  0.9118800E+02  0.7818608E-02  0.1130116E+00
         25   -1    0    0    0    0  0.00000000000E+00  0.00000000000E+00  0.99999998245E-14  0.12500000000E+03  0.12500000000E+03 0.  0.
        -11    1    1    0    0    0 -0.15312353399E+02 -0.14562136470E+02  0.12109800189E+02  0.24355107187E+02  0.51100000000E-03 0.  1.
         11    1    1    0    0    0 -0.24209713911E+02 -0.22599950804E+02  0.18925739102E+02  0.38145138941E+02  0.51100000000E-03 0. -1.
         22    1    1    0    0    0  0.39522067309E+02  0.37162087275E+02 -0.31035539292E+02  0.62499753873E+02  0.00000000000E+00 0. -1.
</event>
<event>
 4    1  0.1988088E-002  0.9118800E+02  0.7818608E-02  0.1130116E+00
         25   -1    0    0    0    0  0.00000000000E+00  0.00000000000E+00  0.99999998245E-14  0.12500000000E+03  0.12500000000E+03 0.  0.
        -11    1    1    0    0    0  0.16285856854E+02  0.58298707833E+02  0.63448415584E+01  0.60862348650E+02  0.51100000000E-03 0.  1.
         11    1    1    0    0    0  0.43227398335E+00  0.15701270364E+01  0.17251629175E+00  0.16376574242E+01  0.51100000000E-03 0. -1.
         22    1    1    0    0    0 -0.16718130838E+02 -0.59868834870E+02 -0.65173578502E+01  0.62499993926E+02  0.00000000000E+00 0.  1.
</event>
<event>
 4    1  0.1988088E-002  0.9118800E+02  0.7818608E-02  0.1130116E+00
         25   -1    0    0    0    0  0.00000000000E+00  0.00000000000E+00  0.99999998245E-14  0.12500000000E+03  0.12500000000E+03 0.  0.
        -11    1    1    0    0    0 -0.12007430777E+02  0.21232498553E+02  0.23180376654E+02  0.33650070590E+02  0.51100000000E-03 0.  1.
         11    1    1    0    0    0 -0.10340458411E+02  0.18272836188E+02  0.19786376910E+02  0.28849997123E+02  0.51100000000E-03 0. -1.
         22    1    1    0    0    0  0.22347889188E+02 -0.39505334740E+02 -0.42966753564E+02  0.62499932287E+02  0.00000000000E+00 0. -1.
</event>
<event>
 4    1  0.1988088E-002  0.9118800E+02  0.7818608E-02  0.1130116E+00
         25   -1    0    0    0    0  0.00000000000E+00  0.00000000000E+00  0.99999998245E-14  0.12500000000E+03  0.12500000000E+03 0.  0.
        -11    1    1    0    0    0  0.24146914089E+02 -0.37673108544E+02 -0.39043001462E+02  0.59385962406E+02  0.51100000000E-03 0. -1.
         11    1    1    0    0    0  0.13147825806E+01 -0.20853324583E+01 -0.19068803627E+01  0.31166420511E+01  0.51100000000E-03 0.  1.
         22    1    1    0    0    0 -0.25461696670E+02  0.39758441002E+02  0.40949881825E+02  0.62497395543E+02  0.00000000000E+00 0. -1.
</event>
<event>
 4    1  0.1988088E-002  0.9118800E+02  0.7818608E-02  0.1130116E+00
         25   -1    0    0    0    0  0.00000000000E+00  0.00000000000E+00  0.99999998245E-14  0.12500000000E+03  0.12500000000E+03 0.  0.
        -11    1    1    0    0    0  0.51761405389E+02  0.75661545152E+01  0.23464589694E+02  0.57333033687E+02  0.51100000000E-03 0.  1.
         11    1    1    0    0    0  0.46662165571E+01  0.48296351036E+00  0.21703181058E+01  0.51688598019E+01  0.51100000000E-03 0. -1.
         22    1    1    0    0    0 -0.56427621946E+02 -0.80491180256E+01 -0.25634907800E+02  0.62498106511E+02  0.00000000000E+00 0.  1.
</event>
<event>
 4    1  0.1988088E-002  0.9118800E+02  0.7818608E-02  0.1130116E+00
         25   -1    0    0    0    0  0.00000000000E+00  0.00000000000E+00  0.99999998245E-14  0.12500000000E+03  0.12500000000E+03 0.  0.
        -11    1    1    0    0    0 -0.69980540538E+01 -0.83487391513E+01  0.26649669037E+02  0.28790259916E+02  0.51100000000E-03 0. -1.
         11    1    1    0    0    0 -0.50797791310E+01  0.54795116162E+01  0.33739946926E+02  0.34557390272E+02  0.51100000000E-03 0.  1.
         22    1    1    0    0    0  0.12077833185E+02  0.28692275351E+01 -0.60389615964E+02  0.61652349812E+02  0.00000000000E+00 0. -1.
</event>
<event>
 4    1  0.1988088E-002  0.9118800E+02  0.7818608E-02  0.1130116E+00
         25   -1    0    0    0    0  0.00000000000E+00  0.00000000000E+00  0.99999998245E-14  0.12500000000E+03  0.12500000000E+03 0.  0.
        -11    1    1    0    0    0 -0.50510857353E+02  0.24165985559E+02 -0.27752992337E+02  0.62494560983E+02  0.51100000000E-03 0.  1.
         11    1    1    0    0    0 -0.53120352543E-02  0.38604496625E-03 -0.17879032403E-02  0.56413179538E-02  0.51100000000E-03 0. -1.
         22    1    1    0    0    0  0.50516169388E+02 -0.24166371604E+02  0.27754780241E+02  0.62499797699E+02  0.00000000000E+00 0.  1.
</event>
<event>
 4    1  0.1988088E-002  0.9118800E+02  0.7818608E-02  0.1130116E+00
         25   -1    0    0    0    0  0.00000000000E+00  0.00000000000E+00  0.99999998245E-14  0.12500000000E+03  0.12500000000E+03 0.  0.
        -11    1    1    0    0    0  0.73818735092E+01  0.38160988212E+02 -0.33614977791E+02  0.51387934479E+02  0.51100000000E-03 0.  1.
         11    1    1    0    0    0  0.15578905386E+01  0.82644425799E+01 -0.72629642643E+01  0.11112096303E+02  0.51100000000E-03 0. -1.
         22    1    1    0    0    0 -0.89397640478E+01 -0.46425430792E+02  0.40877942056E+02  0.62499969218E+02  0.00000000000E+00 0.  1.
</event>
<event>
 4    1  0.1988088E-002  0.9118800E+02  0.7818608E-02  0.1130116E+00
         25   -1    0    0    0    0  0.00000000000E+00  0.00000000000E+00  0.99999998245E-14  0.12500000000E+03  0.12500000000E+03 0.  0.
        -11    1    1    0    0    0 -0.27214219316E+01  0.98858735804E+01  0.33991087163E+01  0.10802341140E+02  0.51100000000E-03 0. -1.
         11    1    1    0    0    0 -0.12988172938E+02  0.47418434439E+02  0.15982974049E+02  0.51697737093E+02  0.51100000000E-03 0.  1.
         22    1    1    0    0    0  0.15709594870E+02 -0.57304308019E+02 -0.19382082765E+02  0.62499921767E+02  0.00000000000E+00 0.  1.
</event>
<event>
 4    1  0.1988088E-002  0.9118800E+02  0.7818608E-02  0.1130116E+00
         25   -1    0    0    0    0  0.00000000000E+00  0.00000000000E+00  0.99999998245E-14  0.12500000000E+03  0.12500000000E+03 0.  0.
        -11    1    1    0    0    0 -0.32361089208E+01 -0.42460971373E+01 -0.98779297436E+01  0.11228323033E+02  0.51100000000E-03 0.  1.
         11    1    1    0    0    0 -0.44105882622E+02 -0.31295551058E+02  0.66044655810E+01  0.54482651952E+02  0.51100000000E-03 0. -1.
         22    1    1    0    0    0  0.47341991543E+02  0.35541648195E+02  0.32734641626E+01  0.59289025015E+02  0.00000000000E+00 0. -1.
</event>
<event>
 4    1  0.1988088E-002  0.9118800E+02  0.7818608E-02  0.1130116E+00
         25   -1    0    0    0    0  0.00000000000E+00  0.00000000000E+00  0.99999998245E-14  0.12500000000E+03  0.12500000000E+03 0.  0.
        -11    1    1    0    0    0 -0.13708162667E+02 -0.24620431701E+01 -0.61719747112E+01  0.15233799669E+02  0.51100000000E-03 0.  1.
         11    1    1    0    0    0 -0.42743751785E+02 -0.77311026508E+01 -0.18636898089E+02  0.47266608039E+02  0.51100000000E-03 0. -1.
         22    1    1    0    0    0  0.56451914452E+02  0.10193145821E+02  0.24808872800E+02  0.62499592292E+02  0.00000000000E+00 0. -1.
</event>
<event>
 4    1  0.1988088E-002  0.9118800E+02  0.7818608E-02  0.1130116E+00
         25   -1    0    0    0    0  0.00000000000E+00  0.00000000000E+00  0.99999998245E-14  0.12500000000E+03  0.12500000000E+03 0.  0.
        -11    1    1    0    0    0 -0.25160065075E+02  0.36256657812E+02 -0.22109941866E+02  0.49360142219E+02  0.51100000000E-03 0.  1.
         11    1    1    0    0    0 -0.63952372196E+01  0.97079348049E+01 -0.61297383791E+01  0.13142174483E+02  0.51100000000E-03 0. -1.
         22    1    1    0    0    0  0.31555302295E+02 -0.45964592617E+02  0.28239680245E+02  0.62497683299E+02  0.00000000000E+00 0.  1.
</event>
<event>
 4    1  0.1988088E-002  0.9118800E+02  0.7818608E-02  0.1130116E+00
         25   -1    0    0    0    0  0.00000000000E+00  0.00000000000E+00  0.99999998245E-14  0.12500000000E+03  0.12500000000E+03 0.  0.
        -11    1    1    0    0    0  0.32147433519E+02  0.22370665026E+02 -0.97969326026E+01  0.40371822157E+02  0.51100000000E-03 0.  1.
         11    1    1    0    0    0  0.17610443360E+02  0.12275991785E+02 -0.53692330607E+01  0.22128180078E+02  0.51100000000E-03 0. -1.
         22    1    1    0    0    0 -0.49757876879E+02 -0.34646656811E+02  0.15166165663E+02  0.62499997765E+02  0.00000000000E+00 0. -1.
</event>
<event>
 4    1  0.1988088E-002  0.9118800E+02  0.7818608E-02  0.1130116E+00
         25   -1    0    0    0    0  0.00000000000E+00  0.00000000000E+00  0.99999998245E-14  0.12500000000E+03  0.12500000000E+03 0.  0.
        -11    1    1    0    0    0  0.72932979095E+01  0.13655056093E+02 -0.16690489758E+02  0.22764560174E+02  0.51100000000E-03 0.  1.
         11    1    1    0    0    0  0.73238305415E+01  0.28438786540E+02 -0.26954833150E+02  0.39861837690E+02  0.51100000000E-03 0. -1.
         22    1    1    0    0    0 -0.14617128451E+02 -0.42093842632E+02  0.43645322908E+02  0.62373602136E+02  0.00000000000E+00 0.  1.
</event>
<event>
 4    1  0.1988088E-002  0.9118800E+02  0.7818608E-02  0.1130116E+00
         25   -1    0    0    0    0  0.00000000000E+00  0.00000000000E+00  0.99999998245E-14  0.12500000000E+03  0.12500000000E+03 0.  0.
        -11    1    1    0    0    0  0.19749933797E+02  0.15729699127E+02  0.27015187632E+01  0.25392548583E+02  0.51100000000E-03 0. -1.
         11    1    1    0    0    0  0.13442775594E+02 -0.49964985382E+02  0.12749200683E+01  0.51757447786E+02  0.51100000000E-03 0.  1.
         22    1    1    0    0    0 -0.33192709391E+02  0.34235286255E+02 -0.39764388315E+01  0.47850003631E+02  0.00000000000E+00 0.  1.
</event>
<event>
 4    1  0.1988088E-002  0.9118800E+02  0.7818608E-02  0.1130116E+00
         25   -1    0    0    0    0  0.00000000000E+00  0.00000000000E+00  0.99999998245E-14  0.12500000000E+03  0.12500000000E+03 0.  0.
        -11    1    1    0    0    0 -0.57374897072E+01 -0.20759260344E+00 -0.16259546503E+02  0.17243396869E+02  0.51100000000E-03 0.  1.
         11    1    1    0    0    0 -0.15055323408E+02 -0.54224871632E+00 -0.42675558966E+02  0.45256603164E+02  0.51100000000E-03 0. -1.
         22    1    1    0    0    0  0.20792813116E+02  0.74984131976E+00  0.58935105469E+02  0.62499999967E+02  0.00000000000E+00 0. -1.
</event>
<event>
 4    1  0.1988088E-002  0.9118800E+02  0.7818608E-02  0.1130116E+00
         25   -1    0    0    0    0  0.00000000000E+00  0.00000000000E+00  0.99999998245E-14  0.12500000000E+03  0.12500000000E+03 0.  0.
        -11    1    1    0    0    0 -0.17476244553E+01 -0.76370805463E+00  0.17801413181E+00  0.19154974606E+01  0.51100000000E-03 0. -1.
         11    1    1    0    0    0  0.32175156680E+02 -0.15901270938E+02  0.50326171690E+02  0.61812738833E+02  0.51100000000E-03 0.  1.
         22    1    1    0    0    0 -0.30427532225E+02  0.16664978993E+02 -0.50504185822E+02  0.61271763706E+02  0.00000000000E+00 0.  1.
</event>
<event>
 4    1  0.1988088E-002  0.9118800E+02  0.7818608E-02  0.1130116E+00
         25   -1    0    0    0    0  0.00000000000E+00  0.00000000000E+00  0.99999998245E-14  0.12500000000E+03  0.12500000000E+03 0.  0.
        -11    1    1    0    0    0 -0.37945022368E+01  0.93559414333E+00 -0.13784829931E+01  0.41441282858E+01  0.51100000000E-03 0. -1.
         11    1    1    0    0    0 -0.39836482763E+02 -0.18877922460E+02  0.40276079636E+02  0.59711673117E+02  0.51100000000E-03 0.  1.
         22    1    1    0    0    0  0.43630985000E+02  0.17942328317E+02 -0.38897596643E+02  0.61144198597E+02  0.00000000000E+00 0.  1.
</event>
<event>
 4    1  0.1988088E-002  0.9118800E+02  0.7818608E-02  0.1130116E+00
         25   -1    0    0    0    0  0.00000000000E+00  0.00000000000E+00  0.99999998245E-14  0.12500000000E+03  0.12500000000E+03 0.  0.
        -11    1    1    0    0    0 -0.12518392584E+02 -0.21023443715E+00  0.22114176488E+02  0.25412421242E+02  0.51100000000E-03 0. -1.
         11    1    1    0    0    0 -0.18270025399E+02 -0.30773197184E+00  0.32273827962E+02  0.37087578765E+02  0.51100000000E-03 0. -1.
         22    1    1    0    0    0  0.30788417983E+02  0.51796640899E+00 -0.54388004450E+02  0.62499999993E+02  0.00000000000E+00 0. -1.
</event>
<event>
 4    1  0.1988088E-002  0.9118800E+02  0.7818608E-02  0.1130116E+00
         25   -1    0    0    0    0  0.00000000000E+00  0.00000000000E+00  0.99999998245E-14  0.12500000000E+03  0.12500000000E+03 0.  0.
        -11    1    1    0    0    0 -0.17205016297E+02 -0.55470943799E+00 -0.25468675814E+00  0.17215840205E+02  0.51100000000E-03 0. -1.
         11    1    1    0    0    0 -0.45255696368E+02 -0.14584003682E+01 -0.67092727492E+00  0.45284159803E+02  0.51100000000E-03 0.  1.
         22    1    1    0    0    0  0.62460712665E+02  0.20131098062E+01  0.92561403307E+00  0.62499999992E+02  0.00000000000E+00 0.  1.
</event>
<event>
 4    1  0.1988088E-002  0.9118800E+02  0.7818608E-02  0.1130116E+00
         25   -1    0    0    0    0  0.00000000000E+00  0.00000000000E+00  0.99999998245E-14  0.12500000000E+03  0.12500000000E+03 0.  0.
        -11    1    1    0    0    0  0.35688680408E+02  0.22710024110E+02 -0.68108870711E+01  0.42846415104E+02  0.51100000000E-03 0.  1.
         11    1    1    0    0    0  0.16371882535E+02  0.10415516435E+02 -0.31211990358E+01  0.19653585018E+02  0.51100000000E-03 0. -1.
         22    1    1    0    0    0 -0.52060562943E+02 -0.33125540546E+02  0.99320861069E+01  0.62499999878E+02  0.00000000000E+00 0.  1.
</event>
<event>
 4    1  0.1988088E-002  0.9118800E+02  0.7818608E-02  0.1130116E+00
         25   -1    0    0    0    0  0.00000000000E+00  0.00000000000E+00  0.99999998245E-14  0.12500000000E+03  0.12500000000E+03 0.  0.
        -11    1    1    0    0    0 -0.26996159123E+02  0.21695852978E+02  0.79718874302E+01  0.35539465856E+02  0.51100000000E-03 0.  1.
         11    1    1    0    0    0 -0.20473526787E+02  0.16473136075E+02  0.60283550412E+01  0.26960537384E+02  0.51100000000E-03 0. -1.
         22    1    1    0    0    0  0.47469685910E+02 -0.38168989053E+02 -0.14000242471E+02  0.62499996760E+02  0.00000000000E+00 0.  1.
</event>
<event>
 4    1  0.1988088E-002  0.9118800E+02  0.7818608E-02  0.1130116E+00
         25   -1    0    0    0    0  0.00000000000E+00  0.00000000000E+00  0.99999998245E-14  0.12500000000E+03  0.12500000000E+03 0.  0.
        -11    1    1    0    0    0  0.43887424439E+01  0.52676971939E+01  0.20048284742E+01  0.71434607466E+01  0.51100000000E-03 0.  1.
         11    1    1    0    0    0  0.34035969850E+02  0.40840354122E+02  0.15426127888E+02  0.55356546048E+02  0.51100000000E-03 0. -1.
         22    1    1    0    0    0 -0.38424712294E+02 -0.46108051316E+02 -0.17430956362E+02  0.62499993206E+02  0.00000000000E+00 0. -1.
</event>
<event>
 4    1  0.1988088E-002  0.9118800E+02  0.7818608E-02  0.1130116E+00
         25   -1    0    0    0    0  0.00000000000E+00  0.00000000000E+00  0.99999998245E-14  0.12500000000E+03  0.12500000000E+03 0.  0.
        -11    1    1    0    0    0  0.29165236708E+02  0.27217078834E+02 -0.37139884861E+02  0.54504600358E+02  0.51100000000E-03 0.  1.
         11    1    1    0    0    0  0.42960962555E+01  0.39805531386E+01 -0.54429202925E+01  0.79954129285E+01  0.51100000000E-03 0. -1.
         22    1    1    0    0    0 -0.33461332964E+02 -0.31197631973E+02  0.42582805153E+02  0.62499986713E+02  0.00000000000E+00 0.  1.
</event>
<event>
 4    1  0.1988088E-002  0.9118800E+02  0.7818608E-02  0.1130116E+00
         25   -1    0    0    0    0  0.00000000000E+00  0.00000000000E+00  0.99999998245E-14  0.12500000000E+03  0.12500000000E+03 0.  0.
        -11    1    1    0    0    0  0.26486791707E+00 -0.16586840055E+01 -0.14453001111E+00  0.16859053440E+01  0.51100000000E-03 0. -1.
         11    1    1    0    0    0  0.98008489800E+01 -0.59773680515E+02 -0.54227342328E+01  0.60814106669E+02  0.51100000000E-03 0.  1.
         22    1    1    0    0    0 -0.10065716897E+02  0.61432364521E+02  0.55672642439E+01  0.62499987987E+02  0.00000000000E+00 0.  1.
</event>
<event>
 4    1  0.1988088E-002  0.9118800E+02  0.7818608E-02  0.1130116E+00
         25   -1    0    0    0    0  0.00000000000E+00  0.00000000000E+00  0.99999998245E-14  0.12500000000E+03  0.12500000000E+03 0.  0.
        -11    1    1    0    0    0  0.19374178231E+00 -0.34283203400E+00  0.60788840655E-01  0.39845354311E+00  0.51100000000E-03 0.  1.
         11    1    1    0    0    0  0.30162033791E+02 -0.53468718751E+02  0.93781641384E+01  0.62101546922E+02  0.51100000000E-03 0. -1.
         22    1    1    0    0    0 -0.30355775573E+02  0.53811550785E+02 -0.94389529790E+01  0.62499999535E+02  0.00000000000E+00 0. -1.
</event>
<event>
 4    1  0.1988088E-002  0.9118800E+02  0.7818608E-02  0.1130116E+00
         25   -1    0    0    0    0  0.00000000000E+00  0.00000000000E+00  0.99999998245E-14  0.12500000000E+03  0.12500000000E+03 0.  0.
        -11    1    1    0    0    0 -0.21266233775E+01 -0.50527943952E+02  0.75511058545E+01  0.51133304674E+02  0.51100000000E-03 0.  1.
         11    1    1    0    0    0 -0.47969873862E+00 -0.11228693125E+02  0.16995017270E+01  0.11366704296E+02  0.51100000000E-03 0. -1.
         22    1    1    0    0    0  0.26063221161E+01  0.61756637077E+02 -0.92506075816E+01  0.62499991030E+02  0.00000000000E+00 0.  1.
</event>
<event>
 4    1  0.1988088E-002  0.9118800E+02  0.7818608E-02  0.1130116E+00
         25   -1    0    0    0    0  0.00000000000E+00  0.00000000000E+00  0.99999998245E-14  0.12500000000E+03  0.12500000000E+03 0.  0.
        -11    1    1    0    0    0 -0.11742365452E+02  0.18788260366E+02 -0.39623090359E+01  0.22507371396E+02  0.51100000000E-03 0. -1.
         11    1    1    0    0    0 -0.22772748900E+02  0.32623625927E+02 -0.43139506448E+01  0.40018860947E+02  0.51100000000E-03 0.  1.
         22    1    1    0    0    0  0.34515114352E+02 -0.51411886293E+02  0.82762596807E+01  0.62473767657E+02  0.00000000000E+00 0.  1.
</event>
<event>
 4    1  0.1988088E-002  0.9118800E+02  0.7818608E-02  0.1130116E+00
         25   -1    0    0    0    0  0.00000000000E+00  0.00000000000E+00  0.99999998245E-14  0.12500000000E+03  0.12500000000E+03 0.  0.
        -11    1    1    0    0    0  0.40493293457E+02 -0.66782307545E+01 -0.36915098948E+02  0.55199910431E+02  0.51100000000E-03 0. -1.
         11    1    1    0    0    0  0.54731673889E+01 -0.91413586123E+00 -0.47449929911E+01  0.73011070658E+01  0.51100000000E-03 0.  1.
         22    1    1    0    0    0 -0.45966460846E+02  0.75923666157E+01  0.41660091939E+02  0.62498982503E+02  0.00000000000E+00 0. -1.
</event>
<event>
 4    1  0.1988088E-002  0.9118800E+02  0.7818608E-02  0.1130116E+00
         25   -1    0    0    0    0  0.00000000000E+00  0.00000000000E+00  0.99999998245E-14  0.12500000000E+03  0.12500000000E+03 0.  0.
        -11    1    1    0    0    0  0.38565517969E+02  0.63322441426E+00  0.16318852381E+02  0.41880843982E+02  0.51100000000E-03 0. -1.
         11    1    1    0    0    0  0.18965699476E+02  0.26154273705E+00  0.80861196444E+01  0.20619202031E+02  0.51100000000E-03 0.  1.
         22    1    1    0    0    0 -0.57531217444E+02 -0.89476715130E+00 -0.24404972025E+02  0.62499953988E+02  0.00000000000E+00 0. -1.
</event>
<event>
 4    1  0.1988088E-002  0.9118800E+02  0.7818608E-02  0.1130116E+00
         25   -1    0    0    0    0  0.00000000000E+00  0.00000000000E+00  0.99999998245E-14  0.12500000000E+03  0.12500000000E+03 0.  0.
        -11    1    1    0    0    0 -0.83352985727E+01 -0.14785453872E+02  0.94091940154E+01  0.19406694226E+02  0.51100000000E-03 0.  1.
         11    1    1    0    0    0 -0.18507334589E+02 -0.32833547437E+02  0.20891858058E+02  0.43093305794E+02  0.51100000000E-03 0. -1.
         22    1    1    0    0    0  0.26842633162E+02  0.47619001309E+02 -0.30301052074E+02  0.62499999980E+02  0.00000000000E+00 0. -1.
</event>
<event>
 4    1  0.1988088E-002  0.9118800E+02  0.7818608E-02  0.1130116E+00
         25   -1    0    0    0    0  0.00000000000E+00  0.00000000000E+00  0.99999998245E-14  0.12500000000E+03  0.12500000000E+03 0.  0.
        -11    1    1    0    0    0  0.29318949234E+02 -0.48077933340E+02  0.40065165554E+01  0.56454766262E+02  0.51100000000E-03 0. -1.
         11    1    1    0    0    0  0.55849280013E+01 -0.16419317331E+01 -0.51703415597E+01  0.77858713514E+01  0.51100000000E-03 0.  1.
         22    1    1    0    0    0 -0.34903877236E+02  0.49719865074E+02  0.11638250043E+01  0.60759362387E+02  0.00000000000E+00 0. -1.
</event>
<event>
 4    1  0.1988088E-002  0.9118800E+02  0.7818608E-02  0.1130116E+00
         25   -1    0    0    0    0  0.00000000000E+00  0.00000000000E+00  0.99999998245E-14  0.12500000000E+03  0.12500000000E+03 0.  0.
        -11    1    1    0    0    0 -0.36305217966E+01  0.51744067363E+01  0.11592973143E+02  0.13204249322E+02  0.51100000000E-03 0. -1.
         11    1    1    0    0    0 -0.14506597768E+02  0.18998712878E+02  0.43113665185E+02  0.49296861926E+02  0.51100000000E-03 0.  1.
         22    1    1    0    0    0  0.18137119564E+02 -0.24173119614E+02 -0.54706638329E+02  0.62498888752E+02  0.00000000000E+00 0.  1.
</event>
<event>
 4    1  0.1988088E-002  0.9118800E+02  0.7818608E-02  0.1130116E+00
         25   -1    0    0    0    0  0.00000000000E+00  0.00000000000E+00  0.99999998245E-14  0.12500000000E+03  0.12500000000E+03 0.  0.
        -11    1    1    0    0    0  0.41832407393E+01 -0.14299368924E+02  0.12472246562E+02  0.19430089790E+02  0.51100000000E-03 0. -1.
         11    1    1    0    0    0  0.95299166365E+01 -0.31257640707E+02  0.28057516647E+02  0.43070682074E+02  0.51100000000E-03 0.  1.
         22    1    1    0    0    0 -0.13713157376E+02  0.45557009631E+02 -0.40529763209E+02  0.62499228135E+02  0.00000000000E+00 0.  1.
</event>
<event>
 4    1  0.1988088E-002  0.9118800E+02  0.7818608E-02  0.1130116E+00
         25   -1    0    0    0    0  0.00000000000E+00  0.00000000000E+00  0.99999998245E-14  0.12500000000E+03  0.12500000000E+03 0.  0.
        -11    1    1    0    0    0 -0.77824236650E+00  0.65965037335E+01 -0.11681475249E+02  0.13437871369E+02  0.51100000000E-03 0.  1.
         11    1    1    0    0    0  0.97973661933E+01  0.37410107364E+02 -0.31026021044E+02  0.49579416085E+02  0.51100000000E-03 0. -1.
         22    1    1    0    0    0 -0.90191238268E+01 -0.44006611098E+02  0.42707496292E+02  0.61982712545E+02  0.00000000000E+00 0. -1.
</event>
<event>
 4    1  0.1988088E-002  0.9118800E+02  0.7818608E-02  0.1130116E+00
         25   -1    0    0    0    0  0.00000000000E+00  0.00000000000E+00  0.99999998245E-14  0.12500000000E+03  0.12500000000E+03 0.  0.
        -11    1    1    0    0    0 -0.14589774912E+02 -0.56019873688E+02  0.12232056317E+02  0.59166806420E+02  0.51100000000E-03 0. -1.
         11    1    1    0    0    0 -0.82199987663E+00 -0.31560486725E+01  0.68836949440E+00  0.33331936401E+01  0.51100000000E-03 0.  1.
         22    1    1    0    0    0  0.15411774788E+02  0.59175922360E+02 -0.12920425811E+02  0.62499999940E+02  0.00000000000E+00 0. -1.
</event>
<event>
 4    1  0.1988088E-002  0.9118800E+02  0.7818608E-02  0.1130116E+00
         25   -1    0    0    0    0  0.00000000000E+00  0.00000000000E+00  0.99999998245E-14  0.12500000000E+03  0.12500000000E+03 0.  0.
        -11    1    1    0    0    0 -0.21232613793E+02  0.46949691589E+01  0.54488592394E+00  0.21752322286E+02  0.51100000000E-03 0. -1.
         11    1    1    0    0    0 -0.39574351644E+02 -0.13463459638E+02  0.42843859849E+00  0.41804038242E+02  0.51100000000E-03 0.  1.
         22    1    1    0    0    0  0.60806965437E+02  0.87684904788E+01 -0.97332452243E+00  0.61443639472E+02  0.00000000000E+00 0.  1.
</event>
<event>
 4    1  0.1988088E-002  0.9118800E+02  0.7818608E-02  0.1130116E+00
         25   -1    0    0    0    0  0.00000000000E+00  0.00000000000E+00  0.99999998245E-14  0.12500000000E+03  0.12500000000E+03 0.  0.
        -11    1    1    0    0    0 -0.69165972138E+00  0.19922441358E+02 -0.19720040112E+02  0.28040364568E+02  0.51100000000E-03 0.  1.
         11    1    1    0    0    0 -0.83684777928E+00  0.24484780608E+02 -0.24233483408E+02  0.34459636010E+02  0.51100000000E-03 0. -1.
         22    1    1    0    0    0  0.15285075007E+01 -0.44407221966E+02  0.43953523519E+02  0.62499999422E+02  0.00000000000E+00 0.  1.
</event>
<event>
 4    1  0.1988088E-002  0.9118800E+02  0.7818608E-02  0.1130116E+00
         25   -1    0    0    0    0  0.00000000000E+00  0.00000000000E+00  0.99999998245E-14  0.12500000000E+03  0.12500000000E+03 0.  0.
        -11    1    1    0    0    0 -0.84489330849E+00 -0.12356285064E+02  0.13137425595E+02  0.18055015281E+02  0.51100000000E-03 0. -1.
         11    1    1    0    0    0 -0.18624289969E+01 -0.30561246298E+02  0.32216614937E+02  0.44445120040E+02  0.51100000000E-03 0.  1.
         22    1    1    0    0    0  0.27073223054E+01  0.42917531362E+02 -0.45354040532E+02  0.62499864679E+02  0.00000000000E+00 0.  1.
</event>
<event>
 4    1  0.1988088E-002  0.9118800E+02  0.7818608E-02  0.1130116E+00
         25   -1    0    0    0    0  0.00000000000E+00  0.00000000000E+00  0.99999998245E-14  0.12500000000E+03  0.12500000000E+03 0.  0.
        -11    1    1    0    0    0  0.67616261949E+01 -0.51075333143E+02 -0.20590522988E+02  0.55483140517E+02  0.51100000000E-03 0. -1.
         11    1    1    0    0    0  0.85613527455E+00 -0.64594188099E+01 -0.26037009086E+01  0.70168595292E+01  0.51100000000E-03 0.  1.
         22    1    1    0    0    0 -0.76177614695E+01  0.57534751953E+02  0.23194223896E+02  0.62499999954E+02  0.00000000000E+00 0. -1.
</event>
<event>
 4    1  0.1988088E-002  0.9118800E+02  0.7818608E-02  0.1130116E+00
         25   -1    0    0    0    0  0.00000000000E+00  0.00000000000E+00  0.99999998245E-14  0.12500000000E+03  0.12500000000E+03 0.  0.
        -11    1    1    0    0    0 -0.11978335076E+02  0.13857302374E+02  0.63808693728E+01  0.19396412928E+02  0.51100000000E-03 0. -1.
         11    1    1    0    0    0 -0.26615669939E+02  0.30804802787E+02  0.14162962981E+02  0.43103587806E+02  0.51100000000E-03 0.  1.
         22    1    1    0    0    0  0.38594005015E+02 -0.44662105161E+02 -0.20543832353E+02  0.62499999266E+02  0.00000000000E+00 0.  1.
</event>
<event>
 4    1  0.1988088E-002  0.9118800E+02  0.7818608E-02  0.1130116E+00
         25   -1    0    0    0    0  0.00000000000E+00  0.00000000000E+00  0.99999998245E-14  0.12500000000E+03  0.12500000000E+03 0.  0.
        -11    1    1    0    0    0 -0.48353587242E+00 -0.10765465005E+02  0.36095386576E+01  0.11364761911E+02  0.51100000000E-03 0.  1.
         11    1    1    0    0    0 -0.69959046811E+00 -0.49444656515E+02  0.13067326597E+02  0.51147028353E+02  0.51100000000E-03 0. -1.
         22    1    1    0    0    0  0.11831263405E+01  0.60210121519E+02 -0.16676865255E+02  0.62488209736E+02  0.00000000000E+00 0.  1.
</event>
<event>
 4    1  0.1988088E-002  0.9118800E+02  0.7818608E-02  0.1130116E+00
         25   -1    0    0    0    0  0.00000000000E+00  0.00000000000E+00  0.99999998245E-14  0.12500000000E+03  0.12500000000E+03 0.  0.
        -11    1    1    0    0    0  0.42486488089E+01 -0.64492615508E+01  0.21867493595E+01  0.80265723864E+01  0.51100000000E-03 0.  1.
         11    1    1    0    0    0  0.22543000015E+02 -0.47111172772E+02  0.15588467851E+02  0.54503667582E+02  0.51100000000E-03 0. -1.
         22    1    1    0    0    0 -0.26791648824E+02  0.53560434323E+02 -0.17775217211E+02  0.62469760032E+02  0.00000000000E+00 0. -1.
</event>
<event>
 4    1  0.1988088E-002  0.9118800E+02  0.7818608E-02  0.1130116E+00
         25   -1    0    0    0    0  0.00000000000E+00  0.00000000000E+00  0.99999998245E-14  0.12500000000E+03  0.12500000000E+03 0.  0.
        -11    1    1    0    0    0 -0.12542234765E+02 -0.48822239021E+02  0.45173984355E+01  0.50609540255E+02  0.51100000000E-03 0. -1.
         11    1    1    0    0    0 -0.29373693664E+01 -0.11473429119E+02  0.10561099793E+01  0.11890461853E+02  0.51100000000E-03 0.  1.
         22    1    1    0    0    0  0.15479604131E+02  0.60295668139E+02 -0.55735084148E+01  0.62499997892E+02  0.00000000000E+00 0. -1.
</event>
<event>
 4    1  0.1988088E-002  0.9118800E+02  0.7818608E-02  0.1130116E+00
         25   -1    0    0    0    0  0.00000000000E+00  0.00000000000E+00  0.99999998245E-14  0.12500000000E+03  0.12500000000E+03 0.  0.
        -11    1    1    0    0    0  0.33115901490E+02  0.32843155425E+02 -0.99330178625E+01  0.47686482717E+02  0.51100000000E-03 0. -1.
         11    1    1    0    0    0  0.10287548727E+02  0.10202907796E+02 -0.30833925970E+01  0.14813517356E+02  0.51100000000E-03 0.  1.
         22    1    1    0    0    0 -0.43403450217E+02 -0.43046063221E+02  0.13016410460E+02  0.62499999927E+02  0.00000000000E+00 0. -1.
</event>
<event>
 4    1  0.1988088E-002  0.9118800E+02  0.7818608E-02  0.1130116E+00
         25   -1    0    0    0    0  0.00000000000E+00  0.00000000000E+00  0.99999998245E-14  0.12500000000E+03  0.12500000000E+03 0.  0.
        -11    1    1    0    0    0 -0.27414223740E+02  0.22551451342E+02 -0.12916143737E+02  0.37774785111E+02  0.51100000000E-03 0. -1.
         11    1    1    0    0    0 -0.17933438731E+02  0.14765971297E+02 -0.84672433532E+01  0.24725216750E+02  0.51100000000E-03 0.  1.
         22    1    1    0    0    0  0.45347662471E+02 -0.37317422638E+02  0.21383387090E+02  0.62499998139E+02  0.00000000000E+00 0.  1.
</event>
<event>
 4    1  0.1988088E-002  0.9118800E+02  0.7818608E-02  0.1130116E+00
         25   -1    0    0    0    0  0.00000000000E+00  0.00000000000E+00  0.99999998245E-14  0.12500000000E+03  0.12500000000E+03 0.  0.
        -11    1    1    0    0    0 -0.94013510508E+01  0.19346365029E+02  0.16611687048E+02  0.27177479432E+02  0.51100000000E-03 0.  1.
         11    1    1    0    0    0 -0.12208526959E+02  0.25146624119E+02  0.21593509469E+02  0.35322520954E+02  0.51100000000E-03 0. -1.
         22    1    1    0    0    0  0.21609878009E+02 -0.44492989148E+02 -0.38205196517E+02  0.62499999615E+02  0.00000000000E+00 0.  1.
</event>
<event>
 4    1  0.1988088E-002  0.9118800E+02  0.7818608E-02  0.1130116E+00
         25   -1    0    0    0    0  0.00000000000E+00  0.00000000000E+00  0.99999998245E-14  0.12500000000E+03  0.12500000000E+03 0.  0.
        -11    1    1    0    0    0 -0.26199287606E+01 -0.85127017600E+00  0.64914100677E+01  0.70517439369E+01  0.51100000000E-03 0. -1.
         11    1    1    0    0    0 -0.20849653088E+02 -0.65092136278E+01  0.50965056242E+02  0.55448307945E+02  0.51100000000E-03 0.  1.
         22    1    1    0    0    0  0.23469581849E+02  0.73604838038E+01 -0.57456466310E+02  0.62499948118E+02  0.00000000000E+00 0.  1.
</event>
<event>
 4    1  0.1988088E-002  0.9118800E+02  0.7818608E-02  0.1130116E+00
         25   -1    0    0    0    0  0.00000000000E+00  0.00000000000E+00  0.99999998245E-14  0.12500000000E+03  0.12500000000E+03 0.  0.
        -11    1    1    0    0    0 -0.20535145739E+02 -0.34516094796E+02 -0.45916609950E+02  0.61003180901E+02  0.51100000000E-03 0. -1.
         11    1    1    0    0    0 -0.74162711947E-01 -0.10509484618E+01 -0.11143007809E+01  0.15335120699E+01  0.51100000000E-03 0.  1.
         22    1    1    0    0    0  0.20609308451E+02  0.35567043257E+02  0.47030910731E+02  0.62463307029E+02  0.00000000000E+00 0. -1.
</event>
<event>
 4    1  0.1988088E-002  0.9118800E+02  0.7818608E-02  0.1130116E+00
         25   -1    0    0    0    0  0.00000000000E+00  0.00000000000E+00  0.99999998245E-14  0.12500000000E+03  0.12500000000E+03 0.  0.
        -11    1    1    0    0    0 -0.10699006797E+01  0.10903114939E+01 -0.48343618376E+00  0.16022413748E+01  0.51100000000E-03 0. -1.
         11    1    1    0    0    0 -0.40710980224E+02  0.41384810887E+02 -0.18397026966E+02  0.60897759272E+02  0.51100000000E-03 0.  1.
         22    1    1    0    0    0  0.41780880904E+02 -0.42475122381E+02  0.18880463150E+02  0.62499999353E+02  0.00000000000E+00 0.  1.
</event>
<event>
 4    1  0.1988088E-002  0.9118800E+02  0.7818608E-02  0.1130116E+00
         25   -1    0    0    0    0  0.00000000000E+00  0.00000000000E+00  0.99999998245E-14  0.12500000000E+03  0.12500000000E+03 0.  0.
        -11    1    1    0    0    0 -0.14566372670E+02 -0.14813464979E+02  0.93530174641E+01  0.22783697974E+02  0.51100000000E-03 0.  1.
         11    1    1    0    0    0 -0.25392510651E+02 -0.25821811267E+02  0.16304573368E+02  0.39716302033E+02  0.51100000000E-03 0. -1.
         22    1    1    0    0    0  0.39958883320E+02  0.40635276246E+02 -0.25657590832E+02  0.62499999992E+02  0.00000000000E+00 0. -1.
</event>
<event>
 4    1  0.1988088E-002  0.9118800E+02  0.7818608E-02  0.1130116E+00
         25   -1    0    0    0    0  0.00000000000E+00  0.00000000000E+00  0.99999998245E-14  0.12500000000E+03  0.12500000000E+03 0.  0.
        -11    1    1    0    0    0 -0.63614460876E+01  0.69466749262E+01  0.51943799645E+01  0.10756666414E+02  0.51100000000E-03 0. -1.
         11    1    1    0    0    0 -0.30601315917E+02  0.33409014064E+02  0.24995396078E+02  0.51743333696E+02  0.51100000000E-03 0.  1.
         22    1    1    0    0    0  0.36962762004E+02 -0.40355688990E+02 -0.30189776042E+02  0.62499999891E+02  0.00000000000E+00 0.  1.
</event>
<event>
 4    1  0.1988088E-002  0.9118800E+02  0.7818608E-02  0.1130116E+00
         25   -1    0    0    0    0  0.00000000000E+00  0.00000000000E+00  0.99999998245E-14  0.12500000000E+03  0.12500000000E+03 0.  0.
        -11    1    1    0    0    0 -0.11014391547E+02 -0.55547750442E+02 -0.13579284686E+02  0.58234580562E+02  0.51100000000E-03 0. -1.
         11    1    1    0    0    0 -0.60603943285E+00 -0.41743191802E+01  0.25581325381E+01  0.49331801869E+01  0.51100000000E-03 0.  1.
         22    1    1    0    0    0  0.11620430980E+02  0.59722069623E+02  0.11021152147E+02  0.61832239251E+02  0.00000000000E+00 0. -1.
</event>
<event>
 4    1  0.1988088E-002  0.9118800E+02  0.7818608E-02  0.1130116E+00
         25   -1    0    0    0    0  0.00000000000E+00  0.00000000000E+00  0.99999998245E-14  0.12500000000E+03  0.12500000000E+03 0.  0.
        -11    1    1    0    0    0  0.24751056460E+01  0.21667142564E+02 -0.45640620681E+02  0.50583173796E+02  0.51100000000E-03 0. -1.
         11    1    1    0    0    0  0.50704756324E+00  0.52130014481E+01 -0.10704498889E+02  0.11917163171E+02  0.51100000000E-03 0.  1.
         22    1    1    0    0    0 -0.29821532092E+01 -0.26880144013E+02  0.56345119570E+02  0.62499663033E+02  0.00000000000E+00 0. -1.
</event>
<event>
 4    1  0.1988088E-002  0.9118800E+02  0.7818608E-02  0.1130116E+00
         25   -1    0    0    0    0  0.00000000000E+00  0.00000000000E+00  0.99999998245E-14  0.12500000000E+03  0.12500000000E+03 0.  0.
        -11    1    1    0    0    0  0.47977090564E+01 -0.24615010962E+02 -0.33829098290E+01  0.25305352320E+02  0.51100000000E-03 0.  1.
         11    1    1    0    0    0  0.70650411206E+01 -0.36173377438E+02 -0.50013988223E+01  0.37194650579E+02  0.51100000000E-03 0. -1.
         22    1    1    0    0    0 -0.11862750177E+02  0.60788388400E+02  0.83843086513E+01  0.62499997101E+02  0.00000000000E+00 0.  1.
</event>
<event>
 4    1  0.1988088E-002  0.9118800E+02  0.7818608E-02  0.1130116E+00
         25   -1    0    0    0    0  0.00000000000E+00  0.00000000000E+00  0.99999998245E-14  0.12500000000E+03  0.12500000000E+03 0.  0.
        -11    1    1    0    0    0  0.13113848883E+02 -0.15779963503E+02  0.12724979265E+02  0.24143433439E+02  0.51100000000E-03 0.  1.
         11    1    1    0    0    0  0.20437508865E+02 -0.25303289742E+02  0.20330306909E+02  0.38357132579E+02  0.51100000000E-03 0. -1.
         22    1    1    0    0    0 -0.33551357749E+02  0.41083253245E+02 -0.33055286174E+02  0.62499433982E+02  0.00000000000E+00 0.  1.
</event>
<event>
 4    1  0.1988088E-002  0.9118800E+02  0.7818608E-02  0.1130116E+00
         25   -1    0    0    0    0  0.00000000000E+00  0.00000000000E+00  0.99999998245E-14  0.12500000000E+03  0.12500000000E+03 0.  0.
        -11    1    1    0    0    0 -0.23999866951E+01 -0.90142835702E+01  0.71835120352E+01  0.11773703319E+02  0.51100000000E-03 0. -1.
         11    1    1    0    0    0 -0.10174010775E+02 -0.39492557693E+02  0.30167618432E+02  0.50727288618E+02  0.51100000000E-03 0.  1.
         22    1    1    0    0    0  0.12573997470E+02  0.48506841264E+02 -0.37351130467E+02  0.62499008063E+02  0.00000000000E+00 0.  1.
</event>
<event>
 4    1  0.1988088E-002  0.9118800E+02  0.7818608E-02  0.1130116E+00
         25   -1    0    0    0    0  0.00000000000E+00  0.00000000000E+00  0.99999998245E-14  0.12500000000E+03  0.12500000000E+03 0.  0.
        -11    1    1    0    0    0  0.21105866405E+01 -0.19657529525E+02 -0.55202390160E+01  0.20526716299E+02  0.51100000000E-03 0. -1.
         11    1    1    0    0    0  0.42749654851E+01 -0.40194851108E+02 -0.11307320410E+02  0.41973287704E+02  0.51100000000E-03 0.  1.
         22    1    1    0    0    0 -0.63855521256E+01  0.59852380633E+02  0.16827559426E+02  0.62499995997E+02  0.00000000000E+00 0.  1.
</event>
<event>
 4    1  0.1988088E-002  0.9118800E+02  0.7818608E-02  0.1130116E+00
         25   -1    0    0    0    0  0.00000000000E+00  0.00000000000E+00  0.99999998245E-14  0.12500000000E+03  0.12500000000E+03 0.  0.
        -11    1    1    0    0    0  0.66947000427E+01 -0.18079094069E+00 -0.71281305611E+01  0.97806921832E+01  0.51100000000E-03 0. -1.
         11    1    1    0    0    0  0.36061473751E+02 -0.97682535370E+00 -0.38444003755E+02  0.52719308624E+02  0.51100000000E-03 0.  1.
         22    1    1    0    0    0 -0.42756173794E+02  0.11576162944E+01  0.45572134316E+02  0.62499999192E+02  0.00000000000E+00 0.  1.
</event>
<event>
 4    1  0.1988088E-002  0.9118800E+02  0.7818608E-02  0.1130116E+00
         25   -1    0    0    0    0  0.00000000000E+00  0.00000000000E+00  0.99999998245E-14  0.12500000000E+03  0.12500000000E+03 0.  0.
        -11    1    1    0    0    0 -0.49911591458E+02 -0.92218021249E+01 -0.22184033296E+02  0.55392598150E+02  0.51100000000E-03 0. -1.
         11    1    1    0    0    0 -0.10422558239E+01  0.13732445251E+02  0.10010335296E+02  0.17025661890E+02  0.51100000000E-03 0.  1.
         22    1    1    0    0    0  0.50953847282E+02 -0.45106431266E+01  0.12173698000E+02  0.52581739960E+02  0.00000000000E+00 0. -1.
</event>
<event>
 4    1  0.1988088E-002  0.9118800E+02  0.7818608E-02  0.1130116E+00
         25   -1    0    0    0    0  0.00000000000E+00  0.00000000000E+00  0.99999998245E-14  0.12500000000E+03  0.12500000000E+03 0.  0.
        -11    1    1    0    0    0  0.11049285610E+02 -0.10106236107E+02 -0.18386538423E+01  0.15086529387E+02  0.51100000000E-03 0.  1.
         11    1    1    0    0    0  0.34725947772E+02 -0.31761099409E+02 -0.57773966198E+01  0.47413470621E+02  0.51100000000E-03 0.  1.
         22    1    1    0    0    0 -0.45775233382E+02  0.41867335516E+02  0.76160504621E+01  0.62499999992E+02  0.00000000000E+00 0.  1.
</event>
<event>
 4    1  0.1988088E-002  0.9118800E+02  0.7818608E-02  0.1130116E+00
         25   -1    0    0    0    0  0.00000000000E+00  0.00000000000E+00  0.99999998245E-14  0.12500000000E+03  0.12500000000E+03 0.  0.
        -11    1    1    0    0    0  0.53005122438E+02 -0.28554179838E+01 -0.32148749956E+02  0.62058347872E+02  0.51100000000E-03 0. -1.
         11    1    1    0    0    0  0.37644243673E+00 -0.15996852207E-01 -0.23044000803E+00  0.44166465319E+00  0.51100000000E-03 0.  1.
         22    1    1    0    0    0 -0.53381564875E+02  0.28714148360E+01  0.32379189964E+02  0.62499987475E+02  0.00000000000E+00 0. -1.
</event>
<event>
 4    1  0.1988088E-002  0.9118800E+02  0.7818608E-02  0.1130116E+00
         25   -1    0    0    0    0  0.00000000000E+00  0.00000000000E+00  0.99999998245E-14  0.12500000000E+03  0.12500000000E+03 0.  0.
        -11    1    1    0    0    0 -0.40586454083E+01 -0.81704550759E+01 -0.74989401789E+00  0.91537576982E+01  0.51100000000E-03 0.  1.
         11    1    1    0    0    0 -0.23644374228E+02 -0.47699958791E+02 -0.33983469530E+01  0.53346895539E+02  0.51100000000E-03 0. -1.
         22    1    1    0    0    0  0.27703019636E+02  0.55870413867E+02  0.41482409709E+01  0.62499346763E+02  0.00000000000E+00 0.  1.
</event>
<event>
 4    1  0.1988088E-002  0.9118800E+02  0.7818608E-02  0.1130116E+00
         25   -1    0    0    0    0  0.00000000000E+00  0.00000000000E+00  0.99999998245E-14  0.12500000000E+03  0.12500000000E+03 0.  0.
        -11    1    1    0    0    0  0.22250245472E+02 -0.17472526979E+02 -0.24582194716E+02  0.37478619504E+02  0.51100000000E-03 0. -1.
         11    1    1    0    0    0  0.14712381117E+02 -0.11567515813E+02 -0.16608082502E+02  0.25021790201E+02  0.51100000000E-03 0.  1.
         22    1    1    0    0    0 -0.36962626589E+02  0.29040042793E+02  0.41190277217E+02  0.62499590295E+02  0.00000000000E+00 0. -1.
</event>
<event>
 4    1  0.1988088E-002  0.9118800E+02  0.7818608E-02  0.1130116E+00
         25   -1    0    0    0    0  0.00000000000E+00  0.00000000000E+00  0.99999998245E-14  0.12500000000E+03  0.12500000000E+03 0.  0.
        -11    1    1    0    0    0 -0.29439793772E+02  0.46152882399E+02  0.12901363237E+02  0.56242645606E+02  0.51100000000E-03 0. -1.
         11    1    1    0    0    0 -0.33659971098E+01  0.50801055987E+01  0.14220395227E+01  0.62577636662E+01  0.51100000000E-03 0.  1.
         22    1    1    0    0    0  0.32805790882E+02 -0.51232987997E+02 -0.14323402760E+02  0.62499590728E+02  0.00000000000E+00 0. -1.
</event>
<event>
 4    1  0.1988088E-002  0.9118800E+02  0.7818608E-02  0.1130116E+00
         25   -1    0    0    0    0  0.00000000000E+00  0.00000000000E+00  0.99999998245E-14  0.12500000000E+03  0.12500000000E+03 0.  0.
        -11    1    1    0    0    0  0.10537224666E+02  0.77060441203E+01 -0.98683059014E+01  0.16364586193E+02  0.51100000000E-03 0.  1.
         11    1    1    0    0    0  0.27704966994E+02  0.23683143499E+02 -0.28303304867E+02  0.46146869328E+02  0.51100000000E-03 0. -1.
         22    1    1    0    0    0 -0.38242191661E+02 -0.31389187619E+02  0.38171610768E+02  0.62488544479E+02  0.00000000000E+00 0. -1.
</event>
<event>
 4    1  0.1988088E-002  0.9118800E+02  0.7818608E-02  0.1130116E+00
         25   -1    0    0    0    0  0.00000000000E+00  0.00000000000E+00  0.99999998245E-14  0.12500000000E+03  0.12500000000E+03 0.  0.
        -11    1    1    0    0    0  0.90164219926E+01  0.86681146882E+01  0.26213379925E+01  0.12779025429E+02  0.51100000000E-03 0. -1.
         11    1    1    0    0    0  0.34341360555E+02  0.34197024219E+02  0.11116405085E+02  0.49722630386E+02  0.51100000000E-03 0.  1.
         22    1    1    0    0    0 -0.43357782547E+02 -0.42865138907E+02 -0.13737743077E+02  0.62498344185E+02  0.00000000000E+00 0.  1.
</event>
<event>
 4    1  0.1988088E-002  0.9118800E+02  0.7818608E-02  0.1130116E+00
         25   -1    0    0    0    0  0.00000000000E+00  0.00000000000E+00  0.99999998245E-14  0.12500000000E+03  0.12500000000E+03 0.  0.
        -11    1    1    0    0    0  0.47329105150E+01  0.64348463483E+01 -0.29040903410E+00  0.79932488475E+01  0.51100000000E-03 0.  1.
         11    1    1    0    0    0  0.32568948684E+02  0.43652363197E+02 -0.21753131735E+01  0.54506854787E+02  0.51100000000E-03 0. -1.
         22    1    1    0    0    0 -0.37301859199E+02 -0.50087209545E+02  0.24657222076E+01  0.62499896366E+02  0.00000000000E+00 0. -1.
</event>
<event>
 4    1  0.1988088E-002  0.9118800E+02  0.7818608E-02  0.1130116E+00
         25   -1    0    0    0    0  0.00000000000E+00  0.00000000000E+00  0.99999998245E-14  0.12500000000E+03  0.12500000000E+03 0.  0.
        -11    1    1    0    0    0 -0.17655816433E+01 -0.14055583631E+02 -0.64380673623E+01  0.15560379860E+02  0.51100000000E-03 0. -1.
         11    1    1    0    0    0 -0.96391382973E+01 -0.41275423024E+02 -0.20231410626E+02  0.46966834140E+02  0.51100000000E-03 0.  1.
         22    1    1    0    0    0  0.11404719941E+02  0.55331006656E+02  0.26669477989E+02  0.62472786000E+02  0.00000000000E+00 0.  1.
</event>
<event>
 4    1  0.1988088E-002  0.9118800E+02  0.7818608E-02  0.1130116E+00
         25   -1    0    0    0    0  0.00000000000E+00  0.00000000000E+00  0.99999998245E-14  0.12500000000E+03  0.12500000000E+03 0.  0.
        -11    1    1    0    0    0 -0.41737615334E+02 -0.35944059350E+02 -0.49650426113E+00  0.55084030836E+02  0.51100000000E-03 0.  1.
         11    1    1    0    0    0 -0.56192628201E+01 -0.48390004790E+01 -0.67516452776E-01  0.74159691888E+01  0.51100000000E-03 0. -1.
         22    1    1    0    0    0  0.47356878154E+02  0.40783059829E+02  0.56402071391E+00  0.62499999975E+02  0.00000000000E+00 0.  1.
</event>
<event>
 4    1  0.1988088E-002  0.9118800E+02  0.7818608E-02  0.1130116E+00
         25   -1    0    0    0    0  0.00000000000E+00  0.00000000000E+00  0.99999998245E-14  0.12500000000E+03  0.12500000000E+03 0.  0.
        -11    1    1    0    0    0 -0.27697796513E+01 -0.33236491957E+01 -0.13812748902E+02  0.14474472556E+02  0.51100000000E-03 0. -1.
         11    1    1    0    0    0 -0.91966419172E+01 -0.11208318142E+02 -0.45784830320E+02  0.48025569292E+02  0.51100000000E-03 0.  1.
         22    1    1    0    0    0  0.11966421569E+02  0.14531967337E+02  0.59597579222E+02  0.62499958152E+02  0.00000000000E+00 0.  1.
</event>
<event>
 4    1  0.1988088E-002  0.9118800E+02  0.7818608E-02  0.1130116E+00
         25   -1    0    0    0    0  0.00000000000E+00  0.00000000000E+00  0.99999998245E-14  0.12500000000E+03  0.12500000000E+03 0.  0.
        -11    1    1    0    0    0 -0.52364618465E+01  0.21160300584E+02 -0.25008551344E+02  0.33175389886E+02  0.51100000000E-03 0. -1.
         11    1    1    0    0    0 -0.46771152044E+01  0.18728343479E+02 -0.22075043167E+02  0.29324627657E+02  0.51100000000E-03 0.  1.
         22    1    1    0    0    0  0.99135770509E+01 -0.39888644063E+02  0.47083594511E+02  0.62499982458E+02  0.00000000000E+00 0. -1.
</event>
<event>
 4    1  0.1988088E-002  0.9118800E+02  0.7818608E-02  0.1130116E+00
         25   -1    0    0    0    0  0.00000000000E+00  0.00000000000E+00  0.99999998245E-14  0.12500000000E+03  0.12500000000E+03 0.  0.
        -11    1    1    0    0    0 -0.17889774606E+02 -0.12134355187E+02 -0.16318622612E+02  0.27084756884E+02  0.51100000000E-03 0. -1.
         11    1    1    0    0    0 -0.23202425334E+02 -0.16135732825E+02 -0.21343583094E+02  0.35415575030E+02  0.51100000000E-03 0.  1.
         22    1    1    0    0    0  0.41092199940E+02  0.28270088012E+02  0.37662205707E+02  0.62499668085E+02  0.00000000000E+00 0.  1.
</event>
<event>
 4    1  0.1988088E-002  0.9118800E+02  0.7818608E-02  0.1130116E+00
         25   -1    0    0    0    0  0.00000000000E+00  0.00000000000E+00  0.99999998245E-14  0.12500000000E+03  0.12500000000E+03 0.  0.
        -11    1    1    0    0    0  0.36359566519E+02  0.26793839545E+02  0.26191754380E+02  0.52210496193E+02  0.51100000000E-03 0. -1.
         11    1    1    0    0    0  0.73118759917E+01  0.52977799238E+01  0.49370082166E+01  0.10290969489E+02  0.51100000000E-03 0.  1.
         22    1    1    0    0    0 -0.43671442510E+02 -0.32091619469E+02 -0.31128762596E+02  0.62498534318E+02  0.00000000000E+00 0. -1.
</event>
<event>
 4    1  0.1988088E-002  0.9118800E+02  0.7818608E-02  0.1130116E+00
         25   -1    0    0    0    0  0.00000000000E+00  0.00000000000E+00  0.99999998245E-14  0.12500000000E+03  0.12500000000E+03 0.  0.
        -11    1    1    0    0    0  0.84936362545E-01 -0.61772946996E+00 -0.76290907784E+01  0.76545300476E+01  0.51100000000E-03 0. -1.
         11    1    1    0    0    0  0.44615719618E+01  0.33553955076E+02 -0.44258770795E+02  0.55719048072E+02  0.51100000000E-03 0.  1.
         22    1    1    0    0    0 -0.45465083243E+01 -0.32936225606E+02  0.51887861573E+02  0.61626421880E+02  0.00000000000E+00 0.  1.
</event>
<event>
 4    1  0.1988088E-002  0.9118800E+02  0.7818608E-02  0.1130116E+00
         25   -1    0    0    0    0  0.00000000000E+00  0.00000000000E+00  0.99999998245E-14  0.12500000000E+03  0.12500000000E+03 0.  0.
        -11    1    1    0    0    0  0.21432404438E+02 -0.52551691333E+02 -0.89314424246E+01  0.57452579455E+02  0.51100000000E-03 0. -1.
         11    1    1    0    0    0  0.18836218485E+01 -0.46165221532E+01 -0.78494987028E+00  0.50474205906E+01  0.51100000000E-03 0.  1.
         22    1    1    0    0    0 -0.23316026287E+02  0.57168213486E+02  0.97163922949E+01  0.62499999954E+02  0.00000000000E+00 0. -1.
</event>
<event>
 4    1  0.1988088E-002  0.9118800E+02  0.7818608E-02  0.1130116E+00
         25   -1    0    0    0    0  0.00000000000E+00  0.00000000000E+00  0.99999998245E-14  0.12500000000E+03  0.12500000000E+03 0.  0.
        -11    1    1    0    0    0  0.42461177282E+02  0.29695792123E+02 -0.21765878391E+02  0.56200935120E+02  0.51100000000E-03 0.  1.
         11    1    1    0    0    0  0.47600903231E+01  0.33273192398E+01 -0.24389969410E+01  0.62990649740E+01  0.51100000000E-03 0. -1.
         22    1    1    0    0    0 -0.47221267605E+02 -0.33023111363E+02  0.24204875332E+02  0.62499999906E+02  0.00000000000E+00 0.  1.
</event>
<event>
 4    1  0.1988088E-002  0.9118800E+02  0.7818608E-02  0.1130116E+00
         25   -1    0    0    0    0  0.00000000000E+00  0.00000000000E+00  0.99999998245E-14  0.12500000000E+03  0.12500000000E+03 0.  0.
        -11    1    1    0    0    0 -0.25176497265E+02  0.33384927060E+01  0.94539533620E+01  0.27099424025E+02  0.51100000000E-03 0.  1.
         11    1    1    0    0    0 -0.32903975121E+02  0.44105702150E+01  0.12291354480E+02  0.35400594679E+02  0.51100000000E-03 0. -1.
         22    1    1    0    0    0  0.58080472386E+02 -0.77490629211E+01 -0.21745307842E+02  0.62499981295E+02  0.00000000000E+00 0.  1.
</event>
<event>
 4    1  0.1988088E-002  0.9118800E+02  0.7818608E-02  0.1130116E+00
         25   -1    0    0    0    0  0.00000000000E+00  0.00000000000E+00  0.99999998245E-14  0.12500000000E+03  0.12500000000E+03 0.  0.
        -11    1    1    0    0    0  0.32385866629E+01  0.26835781648E+02  0.43288054292E+02  0.51034334177E+02  0.51100000000E-03 0.  1.
         11    1    1    0    0    0 -0.75602523168E+00 -0.44375833429E+01  0.12773940092E+02  0.13543901425E+02  0.51100000000E-03 0. -1.
         22    1    1    0    0    0 -0.24825614313E+01 -0.22398198306E+02 -0.56061994384E+02  0.60421764398E+02  0.00000000000E+00 0.  1.
</event>
<event>
 4    1  0.1988088E-002  0.9118800E+02  0.7818608E-02  0.1130116E+00
         25   -1    0    0    0    0  0.00000000000E+00  0.00000000000E+00  0.99999998245E-14  0.12500000000E+03  0.12500000000E+03 0.  0.
        -11    1    1    0    0    0 -0.21667899536E+02 -0.95960194884E+01  0.21864749028E+02  0.32243584023E+02  0.51100000000E-03 0. -1.
         11    1    1    0    0    0 -0.20290859490E+02 -0.92989525852E+01  0.20427581285E+02  0.30256826923E+02  0.51100000000E-03 0.  1.
         22    1    1    0    0    0  0.41958759025E+02  0.18894972074E+02 -0.42292330313E+02  0.62499589054E+02  0.00000000000E+00 0. -1.
</event>
<event>
 4    1  0.1988088E-002  0.9118800E+02  0.7818608E-02  0.1130116E+00
         25   -1    0    0    0    0  0.00000000000E+00  0.00000000000E+00  0.99999998245E-14  0.12500000000E+03  0.12500000000E+03 0.  0.
        -11    1    1    0    0    0 -0.85033649677E+00  0.13104524978E-01  0.68838717175E+01  0.69362045796E+01  0.51100000000E-03 0.  1.
         11    1    1    0    0    0 -0.68215446012E+01  0.12698646123E+00  0.55143320524E+02  0.55563795721E+02  0.51100000000E-03 0. -1.
         22    1    1    0    0    0  0.76718810979E+01 -0.14009098621E+00 -0.62027192241E+02  0.62499999699E+02  0.00000000000E+00 0. -1.
</event>
<event>
 4    1  0.1988088E-002  0.9118800E+02  0.7818608E-02  0.1130116E+00
         25   -1    0    0    0    0  0.00000000000E+00  0.00000000000E+00  0.99999998245E-14  0.12500000000E+03  0.12500000000E+03 0.  0.
        -11    1    1    0    0    0  0.48581313548E+02  0.30058190164E+02  0.17944438260E+01  0.57156441902E+02  0.51100000000E-03 0. -1.
         11    1    1    0    0    0  0.43162205586E+01  0.30157880574E+01  0.11437275837E+01  0.53882140422E+01  0.51100000000E-03 0.  1.
         22    1    1    0    0    0 -0.52897534106E+02 -0.33073978222E+02 -0.29381714097E+01  0.62455344056E+02  0.00000000000E+00 0. -1.
</event>
<event>
 4    1  0.1988088E-002  0.9118800E+02  0.7818608E-02  0.1130116E+00
         25   -1    0    0    0    0  0.00000000000E+00  0.00000000000E+00  0.99999998245E-14  0.12500000000E+03  0.12500000000E+03 0.  0.
        -11    1    1    0    0    0  0.34288732381E+02  0.25303348659E+02  0.16050900544E+02  0.45536886479E+02  0.51100000000E-03 0. -1.
         11    1    1    0    0    0  0.12775226482E+02  0.94186401705E+01  0.59858218024E+01  0.16963114609E+02  0.51100000000E-03 0.  1.
         22    1    1    0    0    0 -0.47063958863E+02 -0.34721988830E+02 -0.22036722346E+02  0.62499998912E+02  0.00000000000E+00 0. -1.
</event>
<event>
 4    1  0.1988088E-002  0.9118800E+02  0.7818608E-02  0.1130116E+00
         25   -1    0    0    0    0  0.00000000000E+00  0.00000000000E+00  0.99999998245E-14  0.12500000000E+03  0.12500000000E+03 0.  0.
        -11    1    1    0    0    0 -0.52933684799E+01 -0.17623357698E+02 -0.20464566633E+02  0.27520918846E+02  0.51100000000E-03 0. -1.
         11    1    1    0    0    0 -0.75692766781E+01 -0.27273477803E+02 -0.20826045354E+02  0.35140584888E+02  0.51100000000E-03 0.  1.
         22    1    1    0    0    0  0.12862645158E+02  0.44896835500E+02  0.41290611988E+02  0.62338496266E+02  0.00000000000E+00 0. -1.
</event>
<event>
 4    1  0.1988088E-002  0.9118800E+02  0.7818608E-02  0.1130116E+00
         25   -1    0    0    0    0  0.00000000000E+00  0.00000000000E+00  0.99999998245E-14  0.12500000000E+03  0.12500000000E+03 0.  0.
        -11    1    1    0    0    0 -0.70782794795E+00  0.47879540337E+01 -0.18393959223E+01  0.51777313423E+01  0.51100000000E-03 0.  1.
         11    1    1    0    0    0 -0.78139055539E+01  0.53011872536E+02 -0.20359930205E+02  0.57322268867E+02  0.51100000000E-03 0. -1.
         22    1    1    0    0    0  0.85217335019E+01 -0.57799826570E+02  0.22199326127E+02  0.62499999791E+02  0.00000000000E+00 0. -1.
</event>
<event>
 4    1  0.1988088E-002  0.9118800E+02  0.7818608E-02  0.1130116E+00
         25   -1    0    0    0    0  0.00000000000E+00  0.00000000000E+00  0.99999998245E-14  0.12500000000E+03  0.12500000000E+03 0.  0.
        -11    1    1    0    0    0 -0.30383253618E+00  0.24641285401E+01 -0.12154256706E+01  0.27643269514E+01  0.51100000000E-03 0.  1.
         11    1    1    0    0    0 -0.72053714447E+01  0.54041684948E+02 -0.24413690450E+02  0.59736499490E+02  0.51100000000E-03 0. -1.
         22    1    1    0    0    0  0.75092039809E+01 -0.56505813488E+02  0.25629116120E+02  0.62499173559E+02  0.00000000000E+00 0. -1.
</event>
<event>
 4    1  0.1988088E-002  0.9118800E+02  0.7818608E-02  0.1130116E+00
         25   -1    0    0    0    0  0.00000000000E+00  0.00000000000E+00  0.99999998245E-14  0.12500000000E+03  0.12500000000E+03 0.  0.
        -11    1    1    0    0    0  0.40216690120E+02 -0.19245188796E+02 -0.52853834444E+01  0.44896489110E+02  0.51100000000E-03 0. -1.
         11    1    1    0    0    0  0.15775456672E+02 -0.75303315730E+01 -0.20767231862E+01  0.17603514031E+02  0.51100000000E-03 0.  1.
         22    1    1    0    0    0 -0.55992146791E+02  0.26775520369E+02  0.73621066306E+01  0.62499996859E+02  0.00000000000E+00 0. -1.
</event>
<event>
 4    1  0.1988088E-002  0.9118800E+02  0.7818608E-02  0.1130116E+00
         25   -1    0    0    0    0  0.00000000000E+00  0.00000000000E+00  0.99999998245E-14  0.12500000000E+03  0.12500000000E+03 0.  0.
        -11    1    1    0    0    0  0.36858102587E+02  0.39443452994E+02 -0.24999610921E+02  0.59491900768E+02  0.51100000000E-03 0. -1.
         11    1    1    0    0    0  0.18658708902E+01  0.19949998050E+01 -0.12598307343E+01  0.30081010856E+01  0.51100000000E-03 0.  1.
         22    1    1    0    0    0 -0.38723973477E+02 -0.41438452799E+02  0.26259441656E+02  0.62499998147E+02  0.00000000000E+00 0. -1.
</event>
<event>
 4    1  0.1988088E-002  0.9118800E+02  0.7818608E-02  0.1130116E+00
         25   -1    0    0    0    0  0.00000000000E+00  0.00000000000E+00  0.99999998245E-14  0.12500000000E+03  0.12500000000E+03 0.  0.
        -11    1    1    0    0    0 -0.10544637628E+02 -0.30653285458E+02 -0.31339583528E+01  0.32567391472E+02  0.51100000000E-03 0. -1.
         11    1    1    0    0    0 -0.13123391913E+02 -0.26397186637E+02 -0.57407002852E+01  0.30033156972E+02  0.51100000000E-03 0.  1.
         22    1    1    0    0    0  0.23668029540E+02  0.57050472095E+02  0.88746586380E+01  0.62399451556E+02  0.00000000000E+00 0.  1.
</event>
<event>
 4    1  0.1988088E-002  0.9118800E+02  0.7818608E-02  0.1130116E+00
         25   -1    0    0    0    0  0.00000000000E+00  0.00000000000E+00  0.99999998245E-14  0.12500000000E+03  0.12500000000E+03 0.  0.
        -11    1    1    0    0    0  0.33498837422E+02 -0.24339146692E+02  0.42464305777E+02  0.59310904863E+02  0.51100000000E-03 0. -1.
         11    1    1    0    0    0  0.17775834134E+01 -0.13107768902E+01  0.23006082357E+01  0.31891593505E+01  0.51100000000E-03 0.  1.
         22    1    1    0    0    0 -0.35276420835E+02  0.25649923582E+02 -0.44764914013E+02  0.62499935786E+02  0.00000000000E+00 0. -1.
</event>
<event>
 4    1  0.1988088E-002  0.9118800E+02  0.7818608E-02  0.1130116E+00
         25   -1    0    0    0    0  0.00000000000E+00  0.00000000000E+00  0.99999998245E-14  0.12500000000E+03  0.12500000000E+03 0.  0.
        -11    1    1    0    0    0  0.45535214227E-01 -0.16285663485E+01 -0.97727999791E+00  0.18998363778E+01  0.51100000000E-03 0. -1.
         11    1    1    0    0    0  0.63404338126E+00 -0.49383012992E+02 -0.35123256775E+02  0.60603029214E+02  0.51100000000E-03 0.  1.
         22    1    1    0    0    0 -0.67957859549E+00  0.51011579341E+02  0.36100536773E+02  0.62497134408E+02  0.00000000000E+00 0.  1.
</event>
<event>
 4    1  0.1988088E-002  0.9118800E+02  0.7818608E-02  0.1130116E+00
         25   -1    0    0    0    0  0.00000000000E+00  0.00000000000E+00  0.99999998245E-14  0.12500000000E+03  0.12500000000E+03 0.  0.
        -11    1    1    0    0    0 -0.15668288498E+02 -0.77168867501E+01 -0.25670306888E+02  0.31048514643E+02  0.51100000000E-03 0.  1.
         11    1    1    0    0    0 -0.15822152315E+02 -0.78631934936E+01 -0.26019739017E+02  0.31451504488E+02  0.51100000000E-03 0. -1.
         22    1    1    0    0    0  0.31490440813E+02  0.15580080244E+02  0.51690045904E+02  0.62499980869E+02  0.00000000000E+00 0.  1.
</event>
<event>
 4    1  0.1988088E-002  0.9118800E+02  0.7818608E-02  0.1130116E+00
         25   -1    0    0    0    0  0.00000000000E+00  0.00000000000E+00  0.99999998245E-14  0.12500000000E+03  0.12500000000E+03 0.  0.
        -11    1    1    0    0    0 -0.29486750623E+02  0.16828392150E+02 -0.44251870660E+02  0.55775364650E+02  0.51100000000E-03 0.  1.
         11    1    1    0    0    0 -0.64773927274E+01 -0.21664732760E+01 -0.34984720170E+01  0.76739513756E+01  0.51100000000E-03 0. -1.
         22    1    1    0    0    0  0.35964143351E+02 -0.14661918874E+02  0.47750342677E+02  0.61550683975E+02  0.00000000000E+00 0.  1.
</event>
<event>
 4    1  0.1988088E-002  0.9118800E+02  0.7818608E-02  0.1130116E+00
         25   -1    0    0    0    0  0.00000000000E+00  0.00000000000E+00  0.99999998245E-14  0.12500000000E+03  0.12500000000E+03 0.  0.
        -11    1    1    0    0    0  0.13146476449E+00 -0.46450814704E+01 -0.22764708890E+02  0.23234156665E+02  0.51100000000E-03 0. -1.
         11    1    1    0    0    0  0.23853569475E+00 -0.78074049054E+01 -0.38481091283E+02  0.39265848485E+02  0.51100000000E-03 0.  1.
         22    1    1    0    0    0 -0.37000045924E+00  0.12452486376E+02  0.61245800173E+02  0.62499994849E+02  0.00000000000E+00 0. -1.
</event>
<event>
 4    1  0.1988088E-002  0.9118800E+02  0.7818608E-02  0.1130116E+00
         25   -1    0    0    0    0  0.00000000000E+00  0.00000000000E+00  0.99999998245E-14  0.12500000000E+03  0.12500000000E+03 0.  0.
        -11    1    1    0    0    0  0.80975291447E+01  0.24859602906E+02 -0.10511204600E+02  0.28178986094E+02  0.51100000000E-03 0.  1.
         11    1    1    0    0    0  0.24053679963E+02  0.24472678009E+02 -0.77328120574E+01  0.35175103003E+02  0.51100000000E-03 0. -1.
         22    1    1    0    0    0 -0.32151209107E+02 -0.49332280915E+02  0.18244016657E+02  0.61645910903E+02  0.00000000000E+00 0. -1.
</event>
<event>
 4    1  0.1988088E-002  0.9118800E+02  0.7818608E-02  0.1130116E+00
         25   -1    0    0    0    0  0.00000000000E+00  0.00000000000E+00  0.99999998245E-14  0.12500000000E+03  0.12500000000E+03 0.  0.
        -11    1    1    0    0    0 -0.78042640545E+01  0.33468064065E+02 -0.39126031937E+02  0.52075562648E+02  0.51100000000E-03 0.  1.
         11    1    1    0    0    0 -0.15625303768E+01  0.66986583517E+01 -0.78329668552E+01  0.10424437390E+02  0.51100000000E-03 0.  1.
         22    1    1    0    0    0  0.93667944313E+01 -0.40166722417E+02  0.46958998792E+02  0.62499999962E+02  0.00000000000E+00 0.  1.
</event>
<event>
 4    1  0.1988088E-002  0.9118800E+02  0.7818608E-02  0.1130116E+00
         25   -1    0    0    0    0  0.00000000000E+00  0.00000000000E+00  0.99999998245E-14  0.12500000000E+03  0.12500000000E+03 0.  0.
        -11    1    1    0    0    0 -0.76928284057E+01  0.14322280444E+02 -0.42783504563E+02  0.45768281472E+02  0.51100000000E-03 0. -1.
         11    1    1    0    0    0 -0.57455550893E+00  0.48354169525E+01 -0.16068618138E+02  0.16790231096E+02  0.51100000000E-03 0.  1.
         22    1    1    0    0    0  0.82673839146E+01 -0.19157697396E+02  0.58852122701E+02  0.62441487432E+02  0.00000000000E+00 0. -1.
</event>
<event>
 4    1  0.1988088E-002  0.9118800E+02  0.7818608E-02  0.1130116E+00
         25   -1    0    0    0    0  0.00000000000E+00  0.00000000000E+00  0.99999998245E-14  0.12500000000E+03  0.12500000000E+03 0.  0.
        -11    1    1    0    0    0  0.76692197085E+01 -0.81194313123E+01  0.24443082755E+02  0.26873897942E+02  0.51100000000E-03 0.  1.
         11    1    1    0    0    0  0.10159765205E+02 -0.10748403591E+02  0.32410958212E+02  0.35626103088E+02  0.51100000000E-03 0. -1.
         22    1    1    0    0    0 -0.17828984914E+02  0.18867834903E+02 -0.56854040967E+02  0.62499998970E+02  0.00000000000E+00 0. -1.
</event>
<event>
 4    1  0.1988088E-002  0.9118800E+02  0.7818608E-02  0.1130116E+00
         25   -1    0    0    0    0  0.00000000000E+00  0.00000000000E+00  0.99999998245E-14  0.12500000000E+03  0.12500000000E+03 0.  0.
        -11    1    1    0    0    0  0.17031555489E+00  0.19803743903E+00  0.17195174953E+01  0.17392431956E+01  0.51100000000E-03 0.  1.
         11    1    1    0    0    0 -0.33506154530E+02  0.49636317805E+02 -0.15247547359E+02  0.61797363514E+02  0.51100000000E-03 0. -1.
         22    1    1    0    0    0  0.33335838975E+02 -0.49834355244E+02  0.13528029864E+02  0.61463393290E+02  0.00000000000E+00 0. -1.
</event>
<event>
 4    1  0.1988088E-002  0.9118800E+02  0.7818608E-02  0.1130116E+00
         25   -1    0    0    0    0  0.00000000000E+00  0.00000000000E+00  0.99999998245E-14  0.12500000000E+03  0.12500000000E+03 0.  0.
        -11    1    1    0    0    0  0.35287195271E+02  0.42262044760E+02 -0.16144004788E+02  0.57375042207E+02  0.51100000000E-03 0.  1.
         11    1    1    0    0    0  0.31287209046E+01  0.37603865356E+01 -0.15295933109E+01  0.51253348528E+01  0.51100000000E-03 0. -1.
         22    1    1    0    0    0 -0.38415916175E+02 -0.46022431295E+02  0.17673598099E+02  0.62499622940E+02  0.00000000000E+00 0.  1.
</event>
<event>
 4    1  0.1988088E-002  0.9118800E+02  0.7818608E-02  0.1130116E+00
         25   -1    0    0    0    0  0.00000000000E+00  0.00000000000E+00  0.99999998245E-14  0.12500000000E+03  0.12500000000E+03 0.  0.
        -11    1    1    0    0    0 -0.95254139963E+01 -0.46715686560E+01  0.12505743298E+02  0.16399715888E+02  0.51100000000E-03 0.  1.
         11    1    1    0    0    0 -0.26787567752E+02 -0.13128072100E+02  0.35147064707E+02  0.46100284390E+02  0.51100000000E-03 0. -1.
         22    1    1    0    0    0  0.36312981748E+02  0.17799640756E+02 -0.47652808005E+02  0.62499999722E+02  0.00000000000E+00 0. -1.
</event>
<event>
 4    1  0.1988088E-002  0.9118800E+02  0.7818608E-02  0.1130116E+00
         25   -1    0    0    0    0  0.00000000000E+00  0.00000000000E+00  0.99999998245E-14  0.12500000000E+03  0.12500000000E+03 0.  0.
        -11    1    1    0    0    0  0.12465384208E+02 -0.43236885641E+02 -0.16898355089E+02  0.48066292642E+02  0.51100000000E-03 0. -1.
         11    1    1    0    0    0  0.37430166434E+01 -0.12983567768E+02 -0.50743179269E+01  0.14433707364E+02  0.51100000000E-03 0. -1.
         22    1    1    0    0    0 -0.16208400852E+02  0.56220453410E+02  0.21972673016E+02  0.62499999994E+02  0.00000000000E+00 0. -1.
</event>
<event>
 4    1  0.1988088E-002  0.9118800E+02  0.7818608E-02  0.1130116E+00
         25   -1    0    0    0    0  0.00000000000E+00  0.00000000000E+00  0.99999998245E-14  0.12500000000E+03  0.12500000000E+03 0.  0.
        -11    1    1    0    0    0  0.21087236465E+02  0.35667697464E+02  0.27374137333E+02  0.49660845533E+02  0.51100000000E-03 0. -1.
         11    1    1    0    0    0  0.58458804218E+01  0.82160180739E+01  0.79979544059E+01  0.12870297038E+02  0.51100000000E-03 0.  1.
         22    1    1    0    0    0 -0.26933116886E+02 -0.43883715538E+02 -0.35372091738E+02  0.62468857430E+02  0.00000000000E+00 0. -1.
</event>
<event>
 4    1  0.1988088E-002  0.9118800E+02  0.7818608E-02  0.1130116E+00
         25   -1    0    0    0    0  0.00000000000E+00  0.00000000000E+00  0.99999998245E-14  0.12500000000E+03  0.12500000000E+03 0.  0.
        -11    1    1    0    0    0  0.13639345571E+02 -0.29233876560E+02 -0.28455178336E+02  0.43015676918E+02  0.51100000000E-03 0. -1.
         11    1    1    0    0    0  0.61464992193E+01 -0.13236271003E+02 -0.12909725937E+02  0.19484335933E+02  0.51100000000E-03 0.  1.
         22    1    1    0    0    0 -0.19785844790E+02  0.42470147563E+02  0.41364904273E+02  0.62499987149E+02  0.00000000000E+00 0.  1.
</event>
<event>
 4    1  0.1988088E-002  0.9118800E+02  0.7818608E-02  0.1130116E+00
         25   -1    0    0    0    0  0.00000000000E+00  0.00000000000E+00  0.99999998245E-14  0.12500000000E+03  0.12500000000E+03 0.  0.
        -11    1    1    0    0    0  0.21884582276E+02  0.42185104657E+02  0.27581593122E+02  0.54947814112E+02  0.51100000000E-03 0. -1.
         11    1    1    0    0    0  0.28935237867E+01  0.56946968415E+01  0.40335836376E+01  0.75545912691E+01  0.51100000000E-03 0.  1.
         22    1    1    0    0    0 -0.24778106062E+02 -0.47879801499E+02 -0.31615176759E+02  0.62497594619E+02  0.00000000000E+00 0. -1.
</event>
<event>
 4    1  0.1988088E-002  0.9118800E+02  0.7818608E-02  0.1130116E+00
         25   -1    0    0    0    0  0.00000000000E+00  0.00000000000E+00  0.99999998245E-14  0.12500000000E+03  0.12500000000E+03 0.  0.
        -11    1    1    0    0    0  0.59516274853E+01 -0.47284662061E+01 -0.23635862936E+02  0.24828094558E+02  0.51100000000E-03 0.  1.
         11    1    1    0    0    0  0.10488229580E+02 -0.52359839352E+01 -0.35817915904E+02  0.37687419486E+02  0.51100000000E-03 0. -1.
         22    1    1    0    0    0 -0.16439857065E+02  0.99644501414E+01  0.59453778840E+02  0.62484485957E+02  0.00000000000E+00 0. -1.
</event>
<event>
 4    1  0.1988088E-002  0.9118800E+02  0.7818608E-02  0.1130116E+00
         25   -1    0    0    0    0  0.00000000000E+00  0.00000000000E+00  0.99999998245E-14  0.12500000000E+03  0.12500000000E+03 0.  0.
        -11    1    1    0    0    0  0.29888085776E+01  0.54585133313E+01  0.81369887362E+01  0.10243970444E+02  0.51100000000E-03 0. -1.
         11    1    1    0    0    0  0.15215136739E+02  0.27820929229E+02  0.41535386407E+02  0.52256031359E+02  0.51100000000E-03 0.  1.
         22    1    1    0    0    0 -0.18203945317E+02 -0.33279442560E+02 -0.49672375144E+02  0.62499998197E+02  0.00000000000E+00 0.  1.
</event>
<event>
 4    1  0.1988088E-002  0.9118800E+02  0.7818608E-02  0.1130116E+00
         25   -1    0    0    0    0  0.00000000000E+00  0.00000000000E+00  0.99999998245E-14  0.12500000000E+03  0.12500000000E+03 0.  0.
        -11    1    1    0    0    0  0.59761674190E+01 -0.71751423289E+01  0.10435282313E+01  0.93960734294E+01  0.51100000000E-03 0.  1.
         11    1    1    0    0    0  0.33779106364E+02 -0.40548902486E+02  0.58979233484E+01  0.53103926594E+02  0.51100000000E-03 0. -1.
         22    1    1    0    0    0 -0.39755273783E+02  0.47724044815E+02 -0.69414515796E+01  0.62499999977E+02  0.00000000000E+00 0. -1.
</event>
<event>
 4    1  0.1988088E-002  0.9118800E+02  0.7818608E-02  0.1130116E+00
         25   -1    0    0    0    0  0.00000000000E+00  0.00000000000E+00  0.99999998245E-14  0.12500000000E+03  0.12500000000E+03 0.  0.
        -11    1    1    0    0    0  0.18366118771E+01 -0.30980367793E+01 -0.14521136795E+01  0.38832472845E+01  0.51100000000E-03 0. -1.
         11    1    1    0    0    0  0.28032890197E+02 -0.48741790083E+02 -0.16592907579E+02  0.58625332540E+02  0.51100000000E-03 0.  1.
         22    1    1    0    0    0 -0.29869502074E+02  0.51839826862E+02  0.18045021259E+02  0.62491420175E+02  0.00000000000E+00 0.  1.
</event>
<event>
 4    1  0.1988088E-002  0.9118800E+02  0.7818608E-02  0.1130116E+00
         25   -1    0    0    0    0  0.00000000000E+00  0.00000000000E+00  0.99999998245E-14  0.12500000000E+03  0.12500000000E+03 0.  0.
        -11    1    1    0    0    0 -0.21871181540E+01 -0.17365380358E+02 -0.24160426146E+02  0.29833975810E+02  0.51100000000E-03 0.  1.
         11    1    1    0    0    0 -0.24321985264E+01 -0.18987119875E+02 -0.26469669248E+02  0.32666032835E+02  0.51100000000E-03 0. -1.
         22    1    1    0    0    0  0.46193166804E+01  0.36352500232E+02  0.50630095394E+02  0.62499991355E+02  0.00000000000E+00 0. -1.
</event>
<event>
 4    1  0.1988088E-002  0.9118800E+02  0.7818608E-02  0.1130116E+00
         25   -1    0    0    0    0  0.00000000000E+00  0.00000000000E+00  0.99999998245E-14  0.12500000000E+03  0.12500000000E+03 0.  0.
        -11    1    1    0    0    0  0.20952895224E+01 -0.22888280972E+01 -0.10838830949E+01  0.32869096528E+01  0.51100000000E-03 0.  1.
         11    1    1    0    0    0  0.37534122543E+02 -0.41326735587E+02 -0.19735328963E+02  0.59213112052E+02  0.51100000000E-03 0. -1.
         22    1    1    0    0    0 -0.39629412066E+02  0.43615563684E+02  0.20819212057E+02  0.62499978295E+02  0.00000000000E+00 0. -1.
</event>
<event>
 4    1  0.1988088E-002  0.9118800E+02  0.7818608E-02  0.1130116E+00
         25   -1    0    0    0    0  0.00000000000E+00  0.00000000000E+00  0.99999998245E-14  0.12500000000E+03  0.12500000000E+03 0.  0.
        -11    1    1    0    0    0 -0.30445257738E+02 -0.15116779618E+02  0.42928244516E+02  0.54756414440E+02  0.51100000000E-03 0.  1.
         11    1    1    0    0    0 -0.43053298921E+01 -0.21374371131E+01  0.60711295845E+01  0.77435855768E+01  0.51100000000E-03 0.  1.
         22    1    1    0    0    0  0.34750587630E+02  0.17254216731E+02 -0.48999374101E+02  0.62499999984E+02  0.00000000000E+00 0.  1.
</event>
<event>
 4    1  0.1988088E-002  0.9118800E+02  0.7818608E-02  0.1130116E+00
         25   -1    0    0    0    0  0.00000000000E+00  0.00000000000E+00  0.99999998245E-14  0.12500000000E+03  0.12500000000E+03 0.  0.
        -11    1    1    0    0    0  0.14754931820E+02 -0.85468702046E+01  0.36302376284E+01  0.17433749706E+02  0.51100000000E-03 0.  1.
         11    1    1    0    0    0  0.36060588426E+02 -0.26617280599E+02  0.52845777328E+01  0.45130615176E+02  0.51100000000E-03 0. -1.
         22    1    1    0    0    0 -0.50815520246E+02  0.35164150804E+02 -0.89148153612E+01  0.62435635118E+02  0.00000000000E+00 0. -1.
</event>
<event>
 4    1  0.1988088E-002  0.9118800E+02  0.7818608E-02  0.1130116E+00
         25   -1    0    0    0    0  0.00000000000E+00  0.00000000000E+00  0.99999998245E-14  0.12500000000E+03  0.12500000000E+03 0.  0.
        -11    1    1    0    0    0  0.92468689872E+01 -0.30821948495E+02  0.10526703990E+02  0.33857179331E+02  0.51100000000E-03 0.  1.
         11    1    1    0    0    0  0.78766887872E+01 -0.26085961880E+02  0.88257625110E+01  0.28642865039E+02  0.51100000000E-03 0. -1.
         22    1    1    0    0    0 -0.17123557774E+02  0.56907910375E+02 -0.19352466501E+02  0.62499955630E+02  0.00000000000E+00 0. -1.
</event>
<event>
 4    1  0.1988088E-002  0.9118800E+02  0.7818608E-02  0.1130116E+00
         25   -1    0    0    0    0  0.00000000000E+00  0.00000000000E+00  0.99999998245E-14  0.12500000000E+03  0.12500000000E+03 0.  0.
        -11    1    1    0    0    0  0.10895936658E+02 -0.61358627511E+02  0.40692617837E+01  0.62451272984E+02  0.51100000000E-03 0. -1.
         11    1    1    0    0    0  0.56884740770E-02 -0.48533363091E-01 -0.42966609721E-02  0.49056788386E-01  0.51100000000E-03 0.  1.
         22    1    1    0    0    0 -0.10901625132E+02  0.61407160874E+02 -0.40649651227E+01  0.62499670227E+02  0.00000000000E+00 0. -1.
</event>
<event>
 4    1  0.1988088E-002  0.9118800E+02  0.7818608E-02  0.1130116E+00
         25   -1    0    0    0    0  0.00000000000E+00  0.00000000000E+00  0.99999998245E-14  0.12500000000E+03  0.12500000000E+03 0.  0.
        -11    1    1    0    0    0  0.33794415265E+01 -0.18429122984E+02  0.46333599007E+02  0.49978551361E+02  0.51100000000E-03 0.  1.
         11    1    1    0    0    0  0.84117541902E+00 -0.46194142938E+01  0.11607761438E+02  0.12521449212E+02  0.51100000000E-03 0. -1.
         22    1    1    0    0    0 -0.42206169456E+01  0.23048537278E+02 -0.57941360445E+02  0.62499999426E+02  0.00000000000E+00 0.  1.
</event>
<event>
 4    1  0.1988088E-002  0.9118800E+02  0.7818608E-02  0.1130116E+00
         25   -1    0    0    0    0  0.00000000000E+00  0.00000000000E+00  0.99999998245E-14  0.12500000000E+03  0.12500000000E+03 0.  0.
        -11    1    1    0    0    0 -0.99924547986E+01 -0.41669857012E+02 -0.20949210827E+02  0.47697961915E+02  0.51100000000E-03 0. -1.
         11    1    1    0    0    0 -0.31170499733E+01 -0.12948349834E+02 -0.64595230138E+01  0.14802067483E+02  0.51100000000E-03 0.  1.
         22    1    1    0    0    0  0.13109504772E+02  0.54618206846E+02  0.27408733841E+02  0.62499970602E+02  0.00000000000E+00 0. -1.
</event>
<event>
 4    1  0.1988088E-002  0.9118800E+02  0.7818608E-02  0.1130116E+00
         25   -1    0    0    0    0  0.00000000000E+00  0.00000000000E+00  0.99999998245E-14  0.12500000000E+03  0.12500000000E+03 0.  0.
        -11    1    1    0    0    0  0.47438589551E+01  0.74817734385E+01  0.17976848595E+01  0.90395134098E+01  0.51100000000E-03 0. -1.
         11    1    1    0    0    0  0.28090865472E+02  0.44224663948E+02  0.10635136696E+02  0.53460487812E+02  0.51100000000E-03 0.  1.
         22    1    1    0    0    0 -0.32834724427E+02 -0.51706437387E+02 -0.12432821555E+02  0.62499998778E+02  0.00000000000E+00 0.  1.
</event>
<event>
 4    1  0.1988088E-002  0.9118800E+02  0.7818608E-02  0.1130116E+00
         25   -1    0    0    0    0  0.00000000000E+00  0.00000000000E+00  0.99999998245E-14  0.12500000000E+03  0.12500000000E+03 0.  0.
        -11    1    1    0    0    0  0.26420235156E+01  0.25437386995E+02  0.31393334064E+02  0.40491756806E+02  0.51100000000E-03 0.  1.
         11    1    1    0    0    0  0.13210930763E+01  0.13865910843E+02  0.17039922790E+02  0.22008356126E+02  0.51100000000E-03 0. -1.
         22    1    1    0    0    0 -0.39631165919E+01 -0.39303297838E+02 -0.48433256853E+02  0.62499887068E+02  0.00000000000E+00 0.  1.
</event>
<event>
 4    1  0.1988088E-002  0.9118800E+02  0.7818608E-02  0.1130116E+00
         25   -1    0    0    0    0  0.00000000000E+00  0.00000000000E+00  0.99999998245E-14  0.12500000000E+03  0.12500000000E+03 0.  0.
        -11    1    1    0    0    0 -0.50647463261E+02 -0.19365713328E+01 -0.65285460358E+00  0.50688677855E+02  0.51100000000E-03 0.  1.
         11    1    1    0    0    0 -0.11801845878E+02 -0.44795982133E+00 -0.15199011698E+00  0.11811322339E+02  0.51100000000E-03 0. -1.
         22    1    1    0    0    0  0.62449309139E+02  0.23845311541E+01  0.80484472057E+00  0.62499999806E+02  0.00000000000E+00 0.  1.
</event>
<event>
 4    1  0.1988088E-002  0.9118800E+02  0.7818608E-02  0.1130116E+00
         25   -1    0    0    0    0  0.00000000000E+00  0.00000000000E+00  0.99999998245E-14  0.12500000000E+03  0.12500000000E+03 0.  0.
        -11    1    1    0    0    0  0.31560402032E+02 -0.69882519634E+01  0.67020468901E+01  0.33012301870E+02  0.51100000000E-03 0.  1.
         11    1    1    0    0    0  0.28183888788E+02 -0.62171572489E+01  0.60448976742E+01  0.29487716420E+02  0.51100000000E-03 0. -1.
         22    1    1    0    0    0 -0.59744290821E+02  0.13205409212E+02 -0.12746944564E+02  0.62499981711E+02  0.00000000000E+00 0.  1.
</event>
<event>
 4    1  0.1988088E-002  0.9118800E+02  0.7818608E-02  0.1130116E+00
         25   -1    0    0    0    0  0.00000000000E+00  0.00000000000E+00  0.99999998245E-14  0.12500000000E+03  0.12500000000E+03 0.  0.
        -11    1    1    0    0    0  0.38978767356E+02 -0.42487498231E+02  0.41171510813E+01  0.57805559800E+02  0.51100000000E-03 0.  1.
         11    1    1    0    0    0  0.31646175143E+01 -0.34509886090E+01  0.33711465486E+00  0.46944406421E+01  0.51100000000E-03 0. -1.
         22    1    1    0    0    0 -0.42143384870E+02  0.45938486840E+02 -0.44542657361E+01  0.62499999558E+02  0.00000000000E+00 0.  1.
</event>
<event>
 4    1  0.1988088E-002  0.9118800E+02  0.7818608E-02  0.1130116E+00
         25   -1    0    0    0    0  0.00000000000E+00  0.00000000000E+00  0.99999998245E-14  0.12500000000E+03  0.12500000000E+03 0.  0.
        -11    1    1    0    0    0  0.19875382884E+02 -0.50199096105E+02  0.29710977556E+02  0.61625662529E+02  0.51100000000E-03 0.  1.
         11    1    1    0    0    0  0.28293029856E+00 -0.71186960007E+00  0.42149555296E+00  0.87433783153E+00  0.51100000000E-03 0. -1.
         22    1    1    0    0    0 -0.20158313182E+02  0.50910965705E+02 -0.30132473109E+02  0.62499999640E+02  0.00000000000E+00 0.  1.
</event>
<event>
 4    1  0.1988088E-002  0.9118800E+02  0.7818608E-02  0.1130116E+00
         25   -1    0    0    0    0  0.00000000000E+00  0.00000000000E+00  0.99999998245E-14  0.12500000000E+03  0.12500000000E+03 0.  0.
        -11    1    1    0    0    0 -0.76734077287E-01  0.25070109539E+00  0.29751142685E+00  0.39655071312E+00  0.51100000000E-03 0. -1.
         11    1    1    0    0    0 -0.12037546411E+02  0.38738356095E+02  0.47024218637E+02  0.62103461218E+02  0.51100000000E-03 0.  1.
         22    1    1    0    0    0  0.12114280488E+02 -0.38989057191E+02 -0.47321730064E+02  0.62499988069E+02  0.00000000000E+00 0.  1.
</event>
<event>
 4    1  0.1988088E-002  0.9118800E+02  0.7818608E-02  0.1130116E+00
         25   -1    0    0    0    0  0.00000000000E+00  0.00000000000E+00  0.99999998245E-14  0.12500000000E+03  0.12500000000E+03 0.  0.
        -11    1    1    0    0    0  0.37594303567E+01 -0.10275693470E+01  0.17927900569E+01  0.42899081365E+01  0.51100000000E-03 0. -1.
         11    1    1    0    0    0  0.50970696146E+02 -0.13792363026E+02  0.24498479687E+02  0.58210107805E+02  0.51100000000E-03 0.  1.
         22    1    1    0    0    0 -0.54730126503E+02  0.14819932373E+02 -0.26291269744E+02  0.62499984058E+02  0.00000000000E+00 0.  1.
</event>
<event>
 4    1  0.1988088E-002  0.9118800E+02  0.7818608E-02  0.1130116E+00
         25   -1    0    0    0    0  0.00000000000E+00  0.00000000000E+00  0.99999998245E-14  0.12500000000E+03  0.12500000000E+03 0.  0.
        -11    1    1    0    0    0  0.25871474867E+02  0.14131512707E+02 -0.54585747361E+02  0.62037381298E+02  0.51100000000E-03 0. -1.
         11    1    1    0    0    0  0.19112231971E+00  0.10328448719E+00 -0.40844248325E+00  0.46262398298E+00  0.51100000000E-03 0.  1.
         22    1    1    0    0    0 -0.26062597186E+02 -0.14234797194E+02  0.54994189844E+02  0.62499994719E+02  0.00000000000E+00 0. -1.
</event>
<event>
 4    1  0.1988088E-002  0.9118800E+02  0.7818608E-02  0.1130116E+00
         25   -1    0    0    0    0  0.00000000000E+00  0.00000000000E+00  0.99999998245E-14  0.12500000000E+03  0.12500000000E+03 0.  0.
        -11    1    1    0    0    0  0.26497817481E+02  0.27448599979E+02 -0.17492377295E+02  0.41970742616E+02  0.51100000000E-03 0. -1.
         11    1    1    0    0    0  0.13488394885E+02  0.14024232350E+02 -0.66531749355E+01  0.20564061529E+02  0.51100000000E-03 0.  1.
         22    1    1    0    0    0 -0.39986212366E+02 -0.41472832329E+02  0.24145552230E+02  0.62465195855E+02  0.00000000000E+00 0. -1.
</event>
<event>
 4    1  0.1988088E-002  0.9118800E+02  0.7818608E-02  0.1130116E+00
         25   -1    0    0    0    0  0.00000000000E+00  0.00000000000E+00  0.99999998245E-14  0.12500000000E+03  0.12500000000E+03 0.  0.
        -11    1    1    0    0    0 -0.25958038489E+02 -0.38163342471E+01  0.39436558039E+02  0.47366932343E+02  0.51100000000E-03 0. -1.
         11    1    1    0    0    0  0.14062628040E+02 -0.18612470185E+02  0.73024014396E+01  0.24443948552E+02  0.51100000000E-03 0.  1.
         22    1    1    0    0    0  0.11895410449E+02  0.22428804432E+02 -0.46738959479E+02  0.53189119105E+02  0.00000000000E+00 0. -1.
</event>
<event>
 4    1  0.1988088E-002  0.9118800E+02  0.7818608E-02  0.1130116E+00
         25   -1    0    0    0    0  0.00000000000E+00  0.00000000000E+00  0.99999998245E-14  0.12500000000E+03  0.12500000000E+03 0.  0.
        -11    1    1    0    0    0  0.13720877864E+01 -0.68188663970E+01 -0.38766355863E+02  0.39385402257E+02  0.51100000000E-03 0. -1.
         11    1    1    0    0    0 -0.30217117048E+01 -0.50821681596E+01 -0.22457581872E+02  0.23222880068E+02  0.51100000000E-03 0.  1.
         22    1    1    0    0    0  0.16496239184E+01  0.11901034557E+02  0.61223937735E+02  0.62391717675E+02  0.00000000000E+00 0. -1.
</event>
<event>
 4    1  0.1988088E-002  0.9118800E+02  0.7818608E-02  0.1130116E+00
         25   -1    0    0    0    0  0.00000000000E+00  0.00000000000E+00  0.99999998245E-14  0.12500000000E+03  0.12500000000E+03 0.  0.
        -11    1    1    0    0    0 -0.41032563320E+02 -0.27246678277E+02 -0.21896247291E+01  0.49303622448E+02  0.51100000000E-03 0.  1.
         11    1    1    0    0    0 -0.10950376175E+02 -0.72809301605E+01 -0.11634785945E+01  0.13201377393E+02  0.51100000000E-03 0. -1.
         22    1    1    0    0    0  0.51982939495E+02  0.34527608438E+02  0.33531033236E+01  0.62495000159E+02  0.00000000000E+00 0.  1.
</event>
<event>
 4    1  0.1988088E-002  0.9118800E+02  0.7818608E-02  0.1130116E+00
         25   -1    0    0    0    0  0.00000000000E+00  0.00000000000E+00  0.99999998245E-14  0.12500000000E+03  0.12500000000E+03 0.  0.
        -11    1    1    0    0    0  0.32645351125E+01 -0.28983995692E+01  0.30289138588E+01  0.53134008872E+01  0.51100000000E-03 0. -1.
         11    1    1    0    0    0  0.22839647276E+02 -0.50919378242E+02  0.13920291575E+02  0.57517015621E+02  0.51100000000E-03 0.  1.
         22    1    1    0    0    0 -0.26104182388E+02  0.53817777811E+02 -0.16949205434E+02  0.62169583491E+02  0.00000000000E+00 0.  1.
</event>
<event>
 4    1  0.1988088E-002  0.9118800E+02  0.7818608E-02  0.1130116E+00
         25   -1    0    0    0    0  0.00000000000E+00  0.00000000000E+00  0.99999998245E-14  0.12500000000E+03  0.12500000000E+03 0.  0.
        -11    1    1    0    0    0 -0.36028250562E+01  0.34979780574E+01  0.13359424534E+01  0.51962430058E+01  0.51100000000E-03 0.  1.
         11    1    1    0    0    0 -0.39845173322E+02  0.38421507067E+02  0.14828095748E+02  0.57303773577E+02  0.51100000000E-03 0. -1.
         22    1    1    0    0    0  0.43447998378E+02 -0.41919485124E+02 -0.16164038201E+02  0.62499983417E+02  0.00000000000E+00 0. -1.
</event>
<event>
 4    1  0.1988088E-002  0.9118800E+02  0.7818608E-02  0.1130116E+00
         25   -1    0    0    0    0  0.00000000000E+00  0.00000000000E+00  0.99999998245E-14  0.12500000000E+03  0.12500000000E+03 0.  0.
        -11    1    1    0    0    0  0.66446013781E+00 -0.96051570644E+01  0.56463978169E+01  0.11161646746E+02  0.51100000000E-03 0. -1.
         11    1    1    0    0    0  0.27224503193E+01 -0.44125756826E+02  0.26098736134E+02  0.51338466858E+02  0.51100000000E-03 0.  1.
         22    1    1    0    0    0 -0.33869104571E+01  0.53730913891E+02 -0.31745133951E+02  0.62499886396E+02  0.00000000000E+00 0.  1.
</event>
<event>
 4    1  0.1988088E-002  0.9118800E+02  0.7818608E-02  0.1130116E+00
         25   -1    0    0    0    0  0.00000000000E+00  0.00000000000E+00  0.99999998245E-14  0.12500000000E+03  0.12500000000E+03 0.  0.
        -11    1    1    0    0    0  0.15016515211E+02 -0.16961604672E+02 -0.51473989387E+02  0.56238450777E+02  0.51100000000E-03 0. -1.
         11    1    1    0    0    0  0.36237202275E+01  0.59040803976E+00 -0.55043688294E+01  0.66164950247E+01  0.51100000000E-03 0.  1.
         22    1    1    0    0    0 -0.18640235438E+02  0.16371196633E+02  0.56978358216E+02  0.62145054199E+02  0.00000000000E+00 0. -1.
</event>
<event>
 4    1  0.1988088E-002  0.9118800E+02  0.7818608E-02  0.1130116E+00
         25   -1    0    0    0    0  0.00000000000E+00  0.00000000000E+00  0.99999998245E-14  0.12500000000E+03  0.12500000000E+03 0.  0.
        -11    1    1    0    0    0 -0.28735570840E+00  0.27301738262E+01  0.99319575126E+01  0.10304377842E+02  0.51100000000E-03 0.  1.
         11    1    1    0    0    0 -0.15008670847E+01  0.13860214507E+02  0.50299354671E+02  0.52195624613E+02  0.51100000000E-03 0. -1.
         22    1    1    0    0    0  0.17882227930E+01 -0.16590388333E+02 -0.60231312183E+02  0.62499997545E+02  0.00000000000E+00 0. -1.
</event>
<event>
 4    1  0.1988088E-002  0.9118800E+02  0.7818608E-02  0.1130116E+00
         25   -1    0    0    0    0  0.00000000000E+00  0.00000000000E+00  0.99999998245E-14  0.12500000000E+03  0.12500000000E+03 0.  0.
        -11    1    1    0    0    0 -0.11388509267E+02 -0.22139166776E+01  0.22842170461E+02  0.25619608155E+02  0.51100000000E-03 0.  1.
         11    1    1    0    0    0 -0.16396037938E+02 -0.31861562984E+01  0.32881326793E+02  0.36880391863E+02  0.51100000000E-03 0. -1.
         22    1    1    0    0    0  0.27784547205E+02  0.54000729760E+01 -0.55723497254E+02  0.62499999982E+02  0.00000000000E+00 0. -1.
</event>
<event>
 4    1  0.1988088E-002  0.9118800E+02  0.7818608E-02  0.1130116E+00
         25   -1    0    0    0    0  0.00000000000E+00  0.00000000000E+00  0.99999998245E-14  0.12500000000E+03  0.12500000000E+03 0.  0.
        -11    1    1    0    0    0  0.47653294787E+02  0.84917476640E+01 -0.11324390928E+02  0.49711046183E+02  0.51100000000E-03 0.  1.
         11    1    1    0    0    0  0.12259677332E+02  0.21848807249E+01 -0.29127217090E+01  0.12788953831E+02  0.51100000000E-03 0.  1.
         22    1    1    0    0    0 -0.59912972120E+02 -0.10676628389E+02  0.14237112637E+02  0.62499999986E+02  0.00000000000E+00 0.  1.
</event>
<event>
 4    1  0.1988088E-002  0.9118800E+02  0.7818608E-02  0.1130116E+00
         25   -1    0    0    0    0  0.00000000000E+00  0.00000000000E+00  0.99999998245E-14  0.12500000000E+03  0.12500000000E+03 0.  0.
        -11    1    1    0    0    0 -0.20853921240E+02 -0.31169148842E+01  0.19896646956E+02  0.28990994288E+02  0.51100000000E-03 0.  1.
         11    1    1    0    0    0 -0.24987077634E+02 -0.55793790679E+01  0.21653552429E+02  0.33531475549E+02  0.51100000000E-03 0. -1.
         22    1    1    0    0    0  0.45840998874E+02  0.86962939521E+01 -0.41550199385E+02  0.62477530162E+02  0.00000000000E+00 0. -1.
</event>
<event>
 4    1  0.1988088E-002  0.9118800E+02  0.7818608E-02  0.1130116E+00
         25   -1    0    0    0    0  0.00000000000E+00  0.00000000000E+00  0.99999998245E-14  0.12500000000E+03  0.12500000000E+03 0.  0.
        -11    1    1    0    0    0 -0.50986707667E+02 -0.10398337884E+02 -0.17966245517E+02  0.55050483810E+02  0.51100000000E-03 0. -1.
         11    1    1    0    0    0 -0.69041149406E+01 -0.14245643779E+01 -0.24082111067E+01  0.74495414473E+01  0.51100000000E-03 0.  1.
         22    1    1    0    0    0  0.57890822608E+02  0.11822902262E+02  0.20374456624E+02  0.62499974743E+02  0.00000000000E+00 0. -1.
</event>
<event>
 4    1  0.1988088E-002  0.9118800E+02  0.7818608E-02  0.1130116E+00
         25   -1    0    0    0    0  0.00000000000E+00  0.00000000000E+00  0.99999998245E-14  0.12500000000E+03  0.12500000000E+03 0.  0.
        -11    1    1    0    0    0 -0.50241178429E+01  0.44948037077E+01  0.14955305882E+01  0.69051888079E+01  0.51100000000E-03 0. -1.
         11    1    1    0    0    0 -0.39957819742E+02  0.36637946240E+02  0.12322560668E+02  0.55595071408E+02  0.51100000000E-03 0.  1.
         22    1    1    0    0    0  0.44981937584E+02 -0.41132749948E+02 -0.13818091256E+02  0.62499739784E+02  0.00000000000E+00 0.  1.
</event>
<event>
 4    1  0.1988088E-002  0.9118800E+02  0.7818608E-02  0.1130116E+00
         25   -1    0    0    0    0  0.00000000000E+00  0.00000000000E+00  0.99999998245E-14  0.12500000000E+03  0.12500000000E+03 0.  0.
        -11    1    1    0    0    0  0.46553295685E+01  0.29463300156E+02  0.31673956234E+02  0.43508592867E+02  0.51100000000E-03 0.  1.
         11    1    1    0    0    0  0.27049381347E+01  0.12644061974E+02  0.13916226357E+02  0.18996061428E+02  0.51100000000E-03 0. -1.
         22    1    1    0    0    0 -0.73602677032E+01 -0.42107362130E+02 -0.45590182590E+02  0.62495345705E+02  0.00000000000E+00 0.  1.
</event>
<event>
 4    1  0.1988088E-002  0.9118800E+02  0.7818608E-02  0.1130116E+00
         25   -1    0    0    0    0  0.00000000000E+00  0.00000000000E+00  0.99999998245E-14  0.12500000000E+03  0.12500000000E+03 0.  0.
        -11    1    1    0    0    0 -0.11427454115E+02 -0.24539699987E+02 -0.27199608079E+02  0.38374500165E+02  0.51100000000E-03 0.  1.
         11    1    1    0    0    0 -0.36823301673E+01 -0.14392194523E+02 -0.19150412868E+02  0.24237019865E+02  0.51100000000E-03 0. -1.
         22    1    1    0    0    0  0.15109784282E+02  0.38931894510E+02  0.46350020947E+02  0.62388479970E+02  0.00000000000E+00 0.  1.
</event>
<event>
 4    1  0.1988088E-002  0.9118800E+02  0.7818608E-02  0.1130116E+00
         25   -1    0    0    0    0  0.00000000000E+00  0.00000000000E+00  0.99999998245E-14  0.12500000000E+03  0.12500000000E+03 0.  0.
        -11    1    1    0    0    0 -0.11292814834E+02 -0.48913502263E+02 -0.86530003257E+01  0.50940482775E+02  0.51100000000E-03 0.  1.
         11    1    1    0    0    0 -0.25529052989E+01 -0.11198353173E+02 -0.13615232480E+01  0.11566079071E+02  0.51100000000E-03 0. -1.
         22    1    1    0    0    0  0.13845720133E+02  0.60111855436E+02  0.10014523574E+02  0.62493438154E+02  0.00000000000E+00 0.  1.
</event>
<event>
 4    1  0.1988088E-002  0.9118800E+02  0.7818608E-02  0.1130116E+00
         25   -1    0    0    0    0  0.00000000000E+00  0.00000000000E+00  0.99999998245E-14  0.12500000000E+03  0.12500000000E+03 0.  0.
        -11    1    1    0    0    0  0.36341285282E+02  0.13543786276E+02 -0.55581687458E+01  0.39179285377E+02  0.51100000000E-03 0.  1.
         11    1    1    0    0    0  0.21733761844E+02  0.79644335363E+01 -0.28527935987E+01  0.23322243396E+02  0.51100000000E-03 0. -1.
         22    1    1    0    0    0 -0.58075047126E+02 -0.21508219812E+02  0.84109623445E+01  0.62498471227E+02  0.00000000000E+00 0. -1.
</event>
<event>
 4    1  0.1988088E-002  0.9118800E+02  0.7818608E-02  0.1130116E+00
         25   -1    0    0    0    0  0.00000000000E+00  0.00000000000E+00  0.99999998245E-14  0.12500000000E+03  0.12500000000E+03 0.  0.
        -11    1    1    0    0    0 -0.26309357973E+02  0.43140523674E+01  0.65947192409E+01  0.27464225584E+02  0.51100000000E-03 0.  1.
         11    1    1    0    0    0 -0.33563262841E+02  0.55025592563E+01  0.84103935461E+01  0.35035774442E+02  0.51100000000E-03 0. -1.
         22    1    1    0    0    0  0.59872620814E+02 -0.98166116237E+01 -0.15005112787E+02  0.62499999974E+02  0.00000000000E+00 0. -1.
</event>
<event>
 4    1  0.1988088E-002  0.9118800E+02  0.7818608E-02  0.1130116E+00
         25   -1    0    0    0    0  0.00000000000E+00  0.00000000000E+00  0.99999998245E-14  0.12500000000E+03  0.12500000000E+03 0.  0.
        -11    1    1    0    0    0 -0.49033541928E+01 -0.36489123412E+01 -0.78679941054E+01  0.99630705667E+01  0.51100000000E-03 0. -1.
         11    1    1    0    0    0 -0.26210446909E+02 -0.19679128356E+02 -0.41059874675E+02  0.52537309873E+02  0.51100000000E-03 0.  1.
         22    1    1    0    0    0  0.31113801102E+02  0.23328040698E+02  0.48927868781E+02  0.62499619561E+02  0.00000000000E+00 0.  1.
</event>
<event>
 4    1  0.1988088E-002  0.9118800E+02  0.7818608E-02  0.1130116E+00
         25   -1    0    0    0    0  0.00000000000E+00  0.00000000000E+00  0.99999998245E-14  0.12500000000E+03  0.12500000000E+03 0.  0.
        -11    1    1    0    0    0 -0.85866413429E+01 -0.20506419970E+02  0.19259379620E+02  0.29413727631E+02  0.51100000000E-03 0. -1.
         11    1    1    0    0    0 -0.10243850952E+02 -0.23275052835E+02  0.21170379499E+02  0.33088510622E+02  0.51100000000E-03 0.  1.
         22    1    1    0    0    0  0.18830492295E+02  0.43781472805E+02 -0.40429759119E+02  0.62497761747E+02  0.00000000000E+00 0. -1.
</event>
<event>
 4    1  0.1988088E-002  0.9118800E+02  0.7818608E-02  0.1130116E+00
         25   -1    0    0    0    0  0.00000000000E+00  0.00000000000E+00  0.99999998245E-14  0.12500000000E+03  0.12500000000E+03 0.  0.
        -11    1    1    0    0    0  0.84786480812E+00  0.34496091115E+00 -0.51384617659E+01  0.52193545907E+01  0.51100000000E-03 0.  1.
         11    1    1    0    0    0 -0.17800379431E+02 -0.29037294562E+02 -0.46914054069E+02  0.57973670341E+02  0.51100000000E-03 0. -1.
         22    1    1    0    0    0  0.16952514623E+02  0.28692333651E+02  0.52052515835E+02  0.61806975068E+02  0.00000000000E+00 0. -1.
</event>
<event>
 4    1  0.1988088E-002  0.9118800E+02  0.7818608E-02  0.1130116E+00
         25   -1    0    0    0    0  0.00000000000E+00  0.00000000000E+00  0.99999998245E-14  0.12500000000E+03  0.12500000000E+03 0.  0.
        -11    1    1    0    0    0  0.83164626158E+00 -0.26869579527E+02 -0.53731082715E+02  0.60080738923E+02  0.51100000000E-03 0. -1.
         11    1    1    0    0    0  0.33020670140E-01 -0.10798046288E+01 -0.21646612943E+01  0.24192617017E+01  0.51100000000E-03 0.  1.
         22    1    1    0    0    0 -0.86466693172E+00  0.27949384156E+02  0.55895744010E+02  0.62499999376E+02  0.00000000000E+00 0. -1.
</event>
<event>
 4    1  0.1988088E-002  0.9118800E+02  0.7818608E-02  0.1130116E+00
         25   -1    0    0    0    0  0.00000000000E+00  0.00000000000E+00  0.99999998245E-14  0.12500000000E+03  0.12500000000E+03 0.  0.
        -11    1    1    0    0    0 -0.20218354186E+02 -0.10939499791E+02 -0.64308976945E+01  0.23870713167E+02  0.51100000000E-03 0.  1.
         11    1    1    0    0    0 -0.32904490386E+02 -0.17560743397E+02 -0.10058343093E+02  0.38629722524E+02  0.51100000000E-03 0. -1.
         22    1    1    0    0    0  0.53122844571E+02  0.28500243189E+02  0.16489240788E+02  0.62499564310E+02  0.00000000000E+00 0. -1.
</event>
<event>
 4    1  0.1988088E-002  0.9118800E+02  0.7818608E-02  0.1130116E+00
         25   -1    0    0    0    0  0.00000000000E+00  0.00000000000E+00  0.99999998245E-14  0.12500000000E+03  0.12500000000E+03 0.  0.
        -11    1    1    0    0    0  0.16793047337E+02  0.34287959060E+02  0.10737875628E+02  0.39660717954E+02  0.51100000000E-03 0. -1.
         11    1    1    0    0    0  0.96710650138E+01  0.19745112617E+02  0.61833513293E+01  0.22839282052E+02  0.51100000000E-03 0.  1.
         22    1    1    0    0    0 -0.26464112351E+02 -0.54033071677E+02 -0.16921226958E+02  0.62499999993E+02  0.00000000000E+00 0. -1.
</event>
<event>
 4    1  0.1988088E-002  0.9118800E+02  0.7818608E-02  0.1130116E+00
         25   -1    0    0    0    0  0.00000000000E+00  0.00000000000E+00  0.99999998245E-14  0.12500000000E+03  0.12500000000E+03 0.  0.
        -11    1    1    0    0    0 -0.21197160517E+01  0.71465422249E+00 -0.72745156066E+01  0.76106835678E+01  0.51100000000E-03 0. -1.
         11    1    1    0    0    0 -0.15412016703E+02  0.49556327748E+01 -0.52447610657E+02  0.54889347044E+02  0.51100000000E-03 0.  1.
         22    1    1    0    0    0  0.17531732755E+02 -0.56702869973E+01  0.59722126264E+02  0.62499969388E+02  0.00000000000E+00 0.  1.
</event>
<event>
 4    1  0.1988088E-002  0.9118800E+02  0.7818608E-02  0.1130116E+00
         25   -1    0    0    0    0  0.00000000000E+00  0.00000000000E+00  0.99999998245E-14  0.12500000000E+03  0.12500000000E+03 0.  0.
        -11    1    1    0    0    0  0.29011538216E+02 -0.45161588022E+02  0.19624988900E+02  0.57152240306E+02  0.51100000000E-03 0. -1.
         11    1    1    0    0    0  0.28874586643E+01 -0.45459810424E+01  0.59883482479E+00  0.54186681559E+01  0.51100000000E-03 0.  1.
         22    1    1    0    0    0 -0.31898996880E+02  0.49707569065E+02 -0.20223823724E+02  0.62429091539E+02  0.00000000000E+00 0. -1.
</event>
<event>
 4    1  0.1988088E-002  0.9118800E+02  0.7818608E-02  0.1130116E+00
         25   -1    0    0    0    0  0.00000000000E+00  0.00000000000E+00  0.99999998245E-14  0.12500000000E+03  0.12500000000E+03 0.  0.
        -11    1    1    0    0    0 -0.18628773968E+02 -0.47460390766E+02 -0.12579648545E+02  0.52514450097E+02  0.51100000000E-03 0.  1.
         11    1    1    0    0    0 -0.35361966883E+01 -0.90332815651E+01 -0.23678337825E+01  0.99855645777E+01  0.51100000000E-03 0. -1.
         22    1    1    0    0    0  0.22164970656E+02  0.56493672331E+02  0.14947482328E+02  0.62499985325E+02  0.00000000000E+00 0.  1.
</event>
<event>
 4    1  0.1988088E-002  0.9118800E+02  0.7818608E-02  0.1130116E+00
         25   -1    0    0    0    0  0.00000000000E+00  0.00000000000E+00  0.99999998245E-14  0.12500000000E+03  0.12500000000E+03 0.  0.
        -11    1    1    0    0    0 -0.42164267874E+02  0.19339314351E+02  0.26945016282E+02  0.53645768403E+02  0.51100000000E-03 0. -1.
         11    1    1    0    0    0 -0.69564230661E+01  0.32071630146E+01  0.44407005917E+01  0.88542384474E+01  0.51100000000E-03 0.  1.
         22    1    1    0    0    0  0.49120690940E+02 -0.22546477366E+02 -0.31385716874E+02  0.62499993149E+02  0.00000000000E+00 0. -1.
</event>
<event>
 4    1  0.1988088E-002  0.9118800E+02  0.7818608E-02  0.1130116E+00
         25   -1    0    0    0    0  0.00000000000E+00  0.00000000000E+00  0.99999998245E-14  0.12500000000E+03  0.12500000000E+03 0.  0.
        -11    1    1    0    0    0  0.19310905778E+02 -0.13600254095E+02 -0.68218742145E+01  0.24584872614E+02  0.51100000000E-03 0. -1.
         11    1    1    0    0    0  0.65789911624E+01 -0.37718225242E+02 -0.11683013534E+02  0.40030493947E+02  0.51100000000E-03 0.  1.
         22    1    1    0    0    0 -0.25889896940E+02  0.51318479337E+02  0.18504887748E+02  0.60384633439E+02  0.00000000000E+00 0.  1.
</event>
<event>
 4    1  0.1988088E-002  0.9118800E+02  0.7818608E-02  0.1130116E+00
         25   -1    0    0    0    0  0.00000000000E+00  0.00000000000E+00  0.99999998245E-14  0.12500000000E+03  0.12500000000E+03 0.  0.
        -11    1    1    0    0    0 -0.24706582900E+02 -0.12670885656E+01 -0.38762091045E+02  0.45983915171E+02  0.51100000000E-03 0.  1.
         11    1    1    0    0    0  0.64628303075E+01  0.14685970681E+02 -0.14192869170E+02  0.21421564975E+02  0.51100000000E-03 0. -1.
         22    1    1    0    0    0  0.18243752592E+02 -0.13418882116E+02  0.52954960215E+02  0.57594519854E+02  0.00000000000E+00 0.  1.
</event>
<event>
 4    1  0.1988088E-002  0.9118800E+02  0.7818608E-02  0.1130116E+00
         25   -1    0    0    0    0  0.00000000000E+00  0.00000000000E+00  0.99999998245E-14  0.12500000000E+03  0.12500000000E+03 0.  0.
        -11    1    1    0    0    0  0.30929685527E+00  0.24743038836E+01 -0.31785039209E+01  0.40398925344E+01  0.51100000000E-03 0.  1.
         11    1    1    0    0    0  0.44668753216E+01  0.35801831261E+02 -0.45998479030E+02  0.58460107510E+02  0.51100000000E-03 0.  1.
         22    1    1    0    0    0 -0.47761721769E+01 -0.38276135145E+02  0.49176982951E+02  0.62499999955E+02  0.00000000000E+00 0.  1.
</event>
<event>
 4    1  0.1988088E-002  0.9118800E+02  0.7818608E-02  0.1130116E+00
         25   -1    0    0    0    0  0.00000000000E+00  0.00000000000E+00  0.99999998245E-14  0.12500000000E+03  0.12500000000E+03 0.  0.
        -11    1    1    0    0    0  0.28699994417E+01  0.13552321380E+01  0.68593959383E+00  0.32471625045E+01  0.51100000000E-03 0.  1.
         11    1    1    0    0    0  0.52373687641E+02  0.24723254433E+02  0.12516240968E+02  0.59252837528E+02  0.51100000000E-03 0.  1.
         22    1    1    0    0    0 -0.55243687083E+02 -0.26078486571E+02 -0.13202180562E+02  0.62499999967E+02  0.00000000000E+00 0.  1.
</event>
<event>
 4    1  0.1988088E-002  0.9118800E+02  0.7818608E-02  0.1130116E+00
         25   -1    0    0    0    0  0.00000000000E+00  0.00000000000E+00  0.99999998245E-14  0.12500000000E+03  0.12500000000E+03 0.  0.
        -11    1    1    0    0    0 -0.46791776684E+02 -0.31574713274E+02  0.10612931058E+02  0.57437506818E+02  0.51100000000E-03 0.  1.
         11    1    1    0    0    0 -0.41068807333E+01 -0.28092439883E+01  0.93325932161E+00  0.50625383322E+01  0.51100000000E-03 0. -1.
         22    1    1    0    0    0  0.50898657418E+02  0.34383957262E+02 -0.11546190380E+02  0.62499954850E+02  0.00000000000E+00 0.  1.
</event>
<event>
 4    1  0.1988088E-002  0.9118800E+02  0.7818608E-02  0.1130116E+00
         25   -1    0    0    0    0  0.00000000000E+00  0.00000000000E+00  0.99999998245E-14  0.12500000000E+03  0.12500000000E+03 0.  0.
        -11    1    1    0    0    0 -0.57858937382E+02  0.17537782402E+02  0.14217986741E+02  0.62107822323E+02  0.51100000000E-03 0. -1.
         11    1    1    0    0    0 -0.34486474624E+00 -0.63366109574E-02 -0.44772792632E+00  0.56518351265E+00  0.51100000000E-03 0.  1.
         22    1    1    0    0    0  0.58203802128E+02 -0.17531445791E+02 -0.13770258815E+02  0.62326994164E+02  0.00000000000E+00 0. -1.
</event>
<event>
 4    1  0.1988088E-002  0.9118800E+02  0.7818608E-02  0.1130116E+00
         25   -1    0    0    0    0  0.00000000000E+00  0.00000000000E+00  0.99999998245E-14  0.12500000000E+03  0.12500000000E+03 0.  0.
        -11    1    1    0    0    0  0.46574092044E+01  0.28894347440E+01 -0.55773352110E+02  0.56042011915E+02  0.51100000000E-03 0. -1.
         11    1    1    0    0    0 -0.34370214691E+01  0.88879313666E-01 -0.60993370624E+01  0.70016375923E+01  0.51100000000E-03 0.  1.
         22    1    1    0    0    0 -0.12203877352E+01 -0.29783140576E+01  0.61872689173E+02  0.61956350492E+02  0.00000000000E+00 0. -1.
</event>
<event>
 4    1  0.1988088E-002  0.9118800E+02  0.7818608E-02  0.1130116E+00
         25   -1    0    0    0    0  0.00000000000E+00  0.00000000000E+00  0.99999998245E-14  0.12500000000E+03  0.12500000000E+03 0.  0.
        -11    1    1    0    0    0  0.32780943719E+02 -0.10097055650E+02  0.13569910298E+02  0.36887440541E+02  0.51100000000E-03 0.  1.
         11    1    1    0    0    0  0.22761183551E+02 -0.70118609985E+01  0.94215461107E+01  0.25612559472E+02  0.51100000000E-03 0.  1.
         22    1    1    0    0    0 -0.55542127270E+02  0.17108916649E+02 -0.22991456409E+02  0.62499999987E+02  0.00000000000E+00 0.  1.
</event>
<event>
 4    1  0.1988088E-002  0.9118800E+02  0.7818608E-02  0.1130116E+00
         25   -1    0    0    0    0  0.00000000000E+00  0.00000000000E+00  0.99999998245E-14  0.12500000000E+03  0.12500000000E+03 0.  0.
        -11    1    1    0    0    0 -0.82591323436E+01  0.52037507530E+01  0.32095620436E+01  0.10275873576E+02  0.51100000000E-03 0. -1.
         11    1    1    0    0    0 -0.42391424032E+02  0.26443158148E+02  0.15205290071E+02  0.52225226574E+02  0.51100000000E-03 0.  1.
         22    1    1    0    0    0  0.50650556376E+02 -0.31646908901E+02 -0.18414852114E+02  0.62498899851E+02  0.00000000000E+00 0.  1.
</event>
<event>
 4    1  0.1988088E-002  0.9118800E+02  0.7818608E-02  0.1130116E+00
         25   -1    0    0    0    0  0.00000000000E+00  0.00000000000E+00  0.99999998245E-14  0.12500000000E+03  0.12500000000E+03 0.  0.
        -11    1    1    0    0    0 -0.98753227904E+01 -0.29166208635E+02 -0.19710613544E+02  0.36560880910E+02  0.51100000000E-03 0.  1.
         11    1    1    0    0    0 -0.70054936238E+01 -0.20692315737E+02 -0.13985314737E+02  0.25939119106E+02  0.51100000000E-03 0.  1.
         22    1    1    0    0    0  0.16880816414E+02  0.49858524372E+02  0.33695928281E+02  0.62499999984E+02  0.00000000000E+00 0.  1.
</event>
<event>
 4    1  0.1988088E-002  0.9118800E+02  0.7818608E-02  0.1130116E+00
         25   -1    0    0    0    0  0.00000000000E+00  0.00000000000E+00  0.99999998245E-14  0.12500000000E+03  0.12500000000E+03 0.  0.
        -11    1    1    0    0    0  0.54937987856E+01  0.29447965593E+02  0.28245981578E+02  0.41172806296E+02  0.51100000000E-03 0.  1.
         11    1    1    0    0    0  0.12985901310E+02  0.17091176935E+02  0.70171275612E+01  0.22582781967E+02  0.51100000000E-03 0. -1.
         22    1    1    0    0    0 -0.18479700096E+02 -0.46539142529E+02 -0.35263109139E+02  0.61244411738E+02  0.00000000000E+00 0.  1.
</event>
<event>
 4    1  0.1988088E-002  0.9118800E+02  0.7818608E-02  0.1130116E+00
         25   -1    0    0    0    0  0.00000000000E+00  0.00000000000E+00  0.99999998245E-14  0.12500000000E+03  0.12500000000E+03 0.  0.
        -11    1    1    0    0    0 -0.11129609356E+02 -0.58374849189E+01  0.35403661043E+01  0.13056746417E+02  0.51100000000E-03 0.  1.
         11    1    1    0    0    0 -0.42148183889E+02 -0.22102942831E+02  0.13402456544E+02  0.49443253621E+02  0.51100000000E-03 0. -1.
         22    1    1    0    0    0  0.53277793245E+02  0.27940427750E+02 -0.16942822648E+02  0.62499999962E+02  0.00000000000E+00 0. -1.
</event>
<event>
 4    1  0.1988088E-002  0.9118800E+02  0.7818608E-02  0.1130116E+00
         25   -1    0    0    0    0  0.00000000000E+00  0.00000000000E+00  0.99999998245E-14  0.12500000000E+03  0.12500000000E+03 0.  0.
        -11    1    1    0    0    0 -0.74940290541E+00 -0.65613567515E+01  0.40125959535E+01  0.77274791286E+01  0.51100000000E-03 0. -1.
         11    1    1    0    0    0 -0.52806624901E+01 -0.46478514347E+02  0.28493712126E+02  0.54772523433E+02  0.51100000000E-03 0.  1.
         22    1    1    0    0    0  0.60300653955E+01  0.53039871099E+02 -0.32506308079E+02  0.62499997438E+02  0.00000000000E+00 0.  1.
</event>
<event>
 4    1  0.1988088E-002  0.9118800E+02  0.7818608E-02  0.1130116E+00
         25   -1    0    0    0    0  0.00000000000E+00  0.00000000000E+00  0.99999998245E-14  0.12500000000E+03  0.12500000000E+03 0.  0.
        -11    1    1    0    0    0 -0.32347442423E+02 -0.36023557500E+02  0.33546124238E+02  0.58901580437E+02  0.51100000000E-03 0. -1.
         11    1    1    0    0    0 -0.19778607652E+01 -0.22004357318E+01  0.20481149346E+01  0.35984198842E+01  0.51100000000E-03 0.  1.
         22    1    1    0    0    0  0.34325303189E+02  0.38223993232E+02 -0.35594239173E+02  0.62499999679E+02  0.00000000000E+00 0. -1.
</event>
<event>
 4    1  0.1988088E-002  0.9118800E+02  0.7818608E-02  0.1130116E+00
         25   -1    0    0    0    0  0.00000000000E+00  0.00000000000E+00  0.99999998245E-14  0.12500000000E+03  0.12500000000E+03 0.  0.
        -11    1    1    0    0    0 -0.11897076898E+02 -0.24857615978E+02  0.33882463344E+02  0.43674510110E+02  0.51100000000E-03 0.  1.
         11    1    1    0    0    0 -0.51271241950E+01 -0.10715226048E+02  0.14604643036E+02  0.18825489907E+02  0.51100000000E-03 0. -1.
         22    1    1    0    0    0  0.17024201093E+02  0.35572842026E+02 -0.48487106380E+02  0.62499999983E+02  0.00000000000E+00 0.  1.
</event>
<event>
 4    1  0.1988088E-002  0.9118800E+02  0.7818608E-02  0.1130116E+00
         25   -1    0    0    0    0  0.00000000000E+00  0.00000000000E+00  0.99999998245E-14  0.12500000000E+03  0.12500000000E+03 0.  0.
        -11    1    1    0    0    0  0.30792992858E+01 -0.12171408154E+02  0.38342897980E+01  0.13127339374E+02  0.51100000000E-03 0. -1.
         11    1    1    0    0    0  0.11586237354E+02 -0.45786668096E+02  0.14387490245E+02  0.49372661942E+02  0.51100000000E-03 0.  1.
         22    1    1    0    0    0 -0.14665536640E+02  0.57958076250E+02 -0.18221780043E+02  0.62499998684E+02  0.00000000000E+00 0. -1.
</event>
<event>
 4    1  0.1988088E-002  0.9118800E+02  0.7818608E-02  0.1130116E+00
         25   -1    0    0    0    0  0.00000000000E+00  0.00000000000E+00  0.99999998245E-14  0.12500000000E+03  0.12500000000E+03 0.  0.
        -11    1    1    0    0    0 -0.23318572671E+02 -0.28991247510E+02 -0.12678530661E+02  0.39306404104E+02  0.51100000000E-03 0. -1.
         11    1    1    0    0    0 -0.11855284438E+02 -0.19323506950E+02  0.12589290746E+02  0.25931369646E+02  0.51100000000E-03 0.  1.
         22    1    1    0    0    0  0.35173857110E+02  0.48314754460E+02  0.89239914207E-01  0.59762226250E+02  0.00000000000E+00 0.  1.
</event>
<event>
 4    1  0.1988088E-002  0.9118800E+02  0.7818608E-02  0.1130116E+00
         25   -1    0    0    0    0  0.00000000000E+00  0.00000000000E+00  0.99999998245E-14  0.12500000000E+03  0.12500000000E+03 0.  0.
        -11    1    1    0    0    0  0.66092315049E+01 -0.15468446837E+01  0.28199464412E+02  0.29004904119E+02  0.51100000000E-03 0. -1.
         11    1    1    0    0    0  0.67920062476E+01 -0.34207609463E+01  0.32632398160E+02  0.33506810714E+02  0.51100000000E-03 0.  1.
         22    1    1    0    0    0 -0.13401237753E+02  0.49676056300E+01 -0.60831862572E+02  0.62488285166E+02  0.00000000000E+00 0. -1.
</event>
<event>
 4    1  0.1988088E-002  0.9118800E+02  0.7818608E-02  0.1130116E+00
         25   -1    0    0    0    0  0.00000000000E+00  0.00000000000E+00  0.99999998245E-14  0.12500000000E+03  0.12500000000E+03 0.  0.
        -11    1    1    0    0    0  0.91803514781E+01  0.31527783825E+02  0.99510025010E+01  0.34311841356E+02  0.51100000000E-03 0. -1.
         11    1    1    0    0    0  0.73946388362E+01  0.25963713080E+02  0.81108183286E+01  0.28188303508E+02  0.51100000000E-03 0.  1.
         22    1    1    0    0    0 -0.16574990314E+02 -0.57491496906E+02 -0.18061820830E+02  0.62499855136E+02  0.00000000000E+00 0.  1.
</event>
<event>
 4    1  0.1988088E-002  0.9118800E+02  0.7818608E-02  0.1130116E+00
         25   -1    0    0    0    0  0.00000000000E+00  0.00000000000E+00  0.99999998245E-14  0.12500000000E+03  0.12500000000E+03 0.  0.
        -11    1    1    0    0    0 -0.43715699220E+01 -0.62331680557E+01  0.10050928953E+02  0.12608892920E+02  0.51100000000E-03 0. -1.
         11    1    1    0    0    0 -0.17268283878E+02 -0.24667350181E+02  0.39780031063E+02  0.49891108072E+02  0.51100000000E-03 0.  1.
         22    1    1    0    0    0  0.21639853800E+02  0.30900518237E+02 -0.49830960016E+02  0.62499999007E+02  0.00000000000E+00 0.  1.
</event>
<event>
 4    1  0.1988088E-002  0.9118800E+02  0.7818608E-02  0.1130116E+00
         25   -1    0    0    0    0  0.00000000000E+00  0.00000000000E+00  0.99999998245E-14  0.12500000000E+03  0.12500000000E+03 0.  0.
        -11    1    1    0    0    0 -0.10288239534E+02  0.38109248836E+02 -0.25167868572E+02  0.46814360278E+02  0.51100000000E-03 0. -1.
         11    1    1    0    0    0 -0.18332000928E+01  0.50393437678E+01 -0.16279309360E+02  0.17139764342E+02  0.51100000000E-03 0.  1.
         22    1    1    0    0    0  0.12121439627E+02 -0.43148592603E+02  0.41447177933E+02  0.61045875380E+02  0.00000000000E+00 0. -1.
</event>
<event>
 4    1  0.1988088E-002  0.9118800E+02  0.7818608E-02  0.1130116E+00
         25   -1    0    0    0    0  0.00000000000E+00  0.00000000000E+00  0.99999998245E-14  0.12500000000E+03  0.12500000000E+03 0.  0.
        -11    1    1    0    0    0  0.17419083418E+02  0.36723132590E+02 -0.19520835436E+01  0.40691812011E+02  0.51100000000E-03 0.  1.
         11    1    1    0    0    0  0.93417199486E+01  0.19678190988E+02 -0.10479254194E+01  0.21808188373E+02  0.51100000000E-03 0. -1.
         22    1    1    0    0    0 -0.26760803367E+02 -0.56401323578E+02  0.30000089629E+01  0.62499999616E+02  0.00000000000E+00 0.  1.
</event>
<event>
 4    1  0.1988088E-002  0.9118800E+02  0.7818608E-02  0.1130116E+00
         25   -1    0    0    0    0  0.00000000000E+00  0.00000000000E+00  0.99999998245E-14  0.12500000000E+03  0.12500000000E+03 0.  0.
        -11    1    1    0    0    0  0.25348978493E+02 -0.11532507331E+02  0.15865236964E+01  0.27894201793E+02  0.51100000000E-03 0.  1.
         11    1    1    0    0    0  0.31447629224E+02 -0.14308845560E+02  0.19659161432E+01  0.34605798237E+02  0.51100000000E-03 0. -1.
         22    1    1    0    0    0 -0.56796607717E+02  0.25841352891E+02 -0.35524398396E+01  0.62499999970E+02  0.00000000000E+00 0. -1.
</event>
<event>
 4    1  0.1988088E-002  0.9118800E+02  0.7818608E-02  0.1130116E+00
         25   -1    0    0    0    0  0.00000000000E+00  0.00000000000E+00  0.99999998245E-14  0.12500000000E+03  0.12500000000E+03 0.  0.
        -11    1    1    0    0    0 -0.15259601708E+02  0.39054250318E+02 -0.12315140360E+02  0.43700716179E+02  0.51100000000E-03 0.  1.
         11    1    1    0    0    0 -0.65675429354E+01  0.16800039469E+02 -0.52951989119E+01  0.18799283979E+02  0.51100000000E-03 0. -1.
         22    1    1    0    0    0  0.21827144643E+02 -0.55854289787E+02  0.17610339272E+02  0.62499999841E+02  0.00000000000E+00 0.  1.
</event>
<event>
 4    1  0.1988088E-002  0.9118800E+02  0.7818608E-02  0.1130116E+00
         25   -1    0    0    0    0  0.00000000000E+00  0.00000000000E+00  0.99999998245E-14  0.12500000000E+03  0.12500000000E+03 0.  0.
        -11    1    1    0    0    0 -0.16300394037E+02 -0.15938700914E+02 -0.86204491151E+01  0.24373288161E+02  0.51100000000E-03 0.  1.
         11    1    1    0    0    0 -0.25525620445E+02 -0.24964147766E+02 -0.13374710643E+02  0.38126747276E+02  0.51100000000E-03 0. -1.
         22    1    1    0    0    0  0.41826014482E+02  0.40902848680E+02  0.21995159759E+02  0.62499964563E+02  0.00000000000E+00 0. -1.
</event>
<event>
 4    1  0.1988088E-002  0.9118800E+02  0.7818608E-02  0.1130116E+00
         25   -1    0    0    0    0  0.00000000000E+00  0.00000000000E+00  0.99999998245E-14  0.12500000000E+03  0.12500000000E+03 0.  0.
        -11    1    1    0    0    0 -0.13268086573E+01  0.66910100165E+00 -0.30776580627E+01  0.34176156566E+01  0.51100000000E-03 0. -1.
         11    1    1    0    0    0 -0.19672260381E+02  0.17797329653E+02 -0.52804759272E+02  0.59093869169E+02  0.51100000000E-03 0.  1.
         22    1    1    0    0    0  0.20999069038E+02 -0.18466430655E+02  0.55882417335E+02  0.62488515175E+02  0.00000000000E+00 0.  1.
</event>
<event>
 4    1  0.1988088E-002  0.9118800E+02  0.7818608E-02  0.1130116E+00
         25   -1    0    0    0    0  0.00000000000E+00  0.00000000000E+00  0.99999998245E-14  0.12500000000E+03  0.12500000000E+03 0.  0.
        -11    1    1    0    0    0  0.35788060471E+00  0.91924708139E+01 -0.12188523044E+02  0.15270549841E+02  0.51100000000E-03 0.  1.
         11    1    1    0    0    0 -0.16744516599E-01  0.28900658018E+02 -0.37357301298E+02  0.47231517811E+02  0.51100000000E-03 0. -1.
         22    1    1    0    0    0 -0.34113608811E+00 -0.38093128832E+02  0.49545824342E+02  0.62497932348E+02  0.00000000000E+00 0. -1.
</event>
<event>
 4    1  0.1988088E-002  0.9118800E+02  0.7818608E-02  0.1130116E+00
         25   -1    0    0    0    0  0.00000000000E+00  0.00000000000E+00  0.99999998245E-14  0.12500000000E+03  0.12500000000E+03 0.  0.
        -11    1    1    0    0    0 -0.30995262127E+02 -0.29198834429E+01 -0.46226926392E+02  0.55732941045E+02  0.51100000000E-03 0.  1.
         11    1    1    0    0    0 -0.29956494964E+01 -0.30067678466E+01 -0.55868066160E+01  0.70161939265E+01  0.51100000000E-03 0. -1.
         22    1    1    0    0    0  0.33990911623E+02  0.59266512895E+01  0.51813733008E+02  0.62250865028E+02  0.00000000000E+00 0.  1.
</event>
<event>
 4    1  0.1988088E-002  0.9118800E+02  0.7818608E-02  0.1130116E+00
         25   -1    0    0    0    0  0.00000000000E+00  0.00000000000E+00  0.99999998245E-14  0.12500000000E+03  0.12500000000E+03 0.  0.
        -11    1    1    0    0    0 -0.11617840098E+02 -0.17581725354E+02 -0.18184555141E+02  0.27834678387E+02  0.51100000000E-03 0. -1.
         11    1    1    0    0    0 -0.14388973674E+02 -0.21813871751E+02 -0.22777262073E+02  0.34665418387E+02  0.51100000000E-03 0.  1.
         22    1    1    0    0    0  0.26006813772E+02  0.39395597105E+02  0.40961817214E+02  0.62499903226E+02  0.00000000000E+00 0. -1.
</event>
<event>
 4    1  0.1988088E-002  0.9118800E+02  0.7818608E-02  0.1130116E+00
         25   -1    0    0    0    0  0.00000000000E+00  0.00000000000E+00  0.99999998245E-14  0.12500000000E+03  0.12500000000E+03 0.  0.
        -11    1    1    0    0    0  0.34525504539E+02 -0.13522475987E+02  0.44485557879E+02  0.57912284366E+02  0.51100000000E-03 0.  1.
         11    1    1    0    0    0  0.26885580953E+01 -0.11158263055E+01  0.35462476723E+01  0.45879500641E+01  0.51100000000E-03 0. -1.
         22    1    1    0    0    0 -0.37214062634E+02  0.14638302293E+02 -0.48031805551E+02  0.62499765570E+02  0.00000000000E+00 0.  1.
</event>
<event>
 4    1  0.1988088E-002  0.9118800E+02  0.7818608E-02  0.1130116E+00
         25   -1    0    0    0    0  0.00000000000E+00  0.00000000000E+00  0.99999998245E-14  0.12500000000E+03  0.12500000000E+03 0.  0.
        -11    1    1    0    0    0 -0.70729133478E+01  0.74673334836E+01 -0.75044121606E+00  0.10312629871E+02  0.51100000000E-03 0. -1.
         11    1    1    0    0    0 -0.35673445185E+02  0.37892362000E+02 -0.38856803825E+01  0.52187396003E+02  0.51100000000E-03 0.  1.
         22    1    1    0    0    0  0.42746358533E+02 -0.45359695484E+02  0.46361215986E+01  0.62499974125E+02  0.00000000000E+00 0.  1.
</event>
<event>
 4    1  0.1988088E-002  0.9118800E+02  0.7818608E-02  0.1130116E+00
         25   -1    0    0    0    0  0.00000000000E+00  0.00000000000E+00  0.99999998245E-14  0.12500000000E+03  0.12500000000E+03 0.  0.
        -11    1    1    0    0    0 -0.43035430985E+01 -0.32375397463E+01  0.66200523328E+01  0.85338877401E+01  0.51100000000E-03 0. -1.
         11    1    1    0    0    0 -0.10720317446E+02 -0.16669030607E+02  0.50439977552E+02  0.54193847652E+02  0.51100000000E-03 0.  1.
         22    1    1    0    0    0  0.15023860545E+02  0.19906570354E+02 -0.57060029885E+02  0.62272264608E+02  0.00000000000E+00 0.  1.
</event>
<event>
 4    1  0.1988088E-002  0.9118800E+02  0.7818608E-02  0.1130116E+00
         25   -1    0    0    0    0  0.00000000000E+00  0.00000000000E+00  0.99999998245E-14  0.12500000000E+03  0.12500000000E+03 0.  0.
        -11    1    1    0    0    0 -0.58795856185E+00  0.19849407640E+00  0.22559112438E+01  0.23397074539E+01  0.51100000000E-03 0. -1.
         11    1    1    0    0    0 -0.15214344675E+02  0.51221863600E+01  0.57978857516E+02  0.60160294182E+02  0.51100000000E-03 0.  1.
         22    1    1    0    0    0  0.15802303237E+02 -0.53206804364E+01 -0.60234768760E+02  0.62499998364E+02  0.00000000000E+00 0.  1.
</event>
<event>
 4    1  0.1988088E-002  0.9118800E+02  0.7818608E-02  0.1130116E+00
         25   -1    0    0    0    0  0.00000000000E+00  0.00000000000E+00  0.99999998245E-14  0.12500000000E+03  0.12500000000E+03 0.  0.
        -11    1    1    0    0    0 -0.20687077280E+01 -0.24290360043E+01  0.47637237377E+01  0.57334833813E+01  0.51100000000E-03 0.  1.
         11    1    1    0    0    0 -0.20489272599E+02 -0.24066114794E+02  0.47153464966E+02  0.56766516817E+02  0.51100000000E-03 0.  1.
         22    1    1    0    0    0  0.22557980327E+02  0.26495150798E+02 -0.51917188704E+02  0.62499999802E+02  0.00000000000E+00 0.  1.
</event>
<event>
 4    1  0.1988088E-002  0.9118800E+02  0.7818608E-02  0.1130116E+00
         25   -1    0    0    0    0  0.00000000000E+00  0.00000000000E+00  0.99999998245E-14  0.12500000000E+03  0.12500000000E+03 0.  0.
        -11    1    1    0    0    0  0.67698258617E+01 -0.39867901601E+02  0.13948642411E+02  0.42776684603E+02  0.51100000000E-03 0. -1.
         11    1    1    0    0    0  0.31222450697E+01 -0.18382021844E+02  0.64313318281E+01  0.19723315408E+02  0.51100000000E-03 0. -1.
         22    1    1    0    0    0 -0.98920709315E+01  0.58249923445E+02 -0.20379974239E+02  0.62499999989E+02  0.00000000000E+00 0. -1.
</event>
<event>
 4    1  0.1988088E-002  0.9118800E+02  0.7818608E-02  0.1130116E+00
         25   -1    0    0    0    0  0.00000000000E+00  0.00000000000E+00  0.99999998245E-14  0.12500000000E+03  0.12500000000E+03 0.  0.
        -11    1    1    0    0    0  0.24239329642E+01  0.65738300910E+01  0.51810880301E+01  0.87140327356E+01  0.51100000000E-03 0.  1.
         11    1    1    0    0    0  0.15090286947E+02  0.40661513482E+02  0.31809723581E+02  0.53786001463E+02  0.51100000000E-03 0. -1.
         22    1    1    0    0    0 -0.17514219911E+02 -0.47235343573E+02 -0.36990811611E+02  0.62499965802E+02  0.00000000000E+00 0. -1.
</event>
<event>
 4    1  0.1988088E-002  0.9118800E+02  0.7818608E-02  0.1130116E+00
         25   -1    0    0    0    0  0.00000000000E+00  0.00000000000E+00  0.99999998245E-14  0.12500000000E+03  0.12500000000E+03 0.  0.
        -11    1    1    0    0    0  0.41214824313E+02  0.16645124744E+02 -0.10291832946E+02  0.45625034209E+02  0.51100000000E-03 0.  1.
         11    1    1    0    0    0  0.15246324886E+02  0.61216011327E+01 -0.38524355861E+01  0.16875001724E+02  0.51100000000E-03 0. -1.
         22    1    1    0    0    0 -0.56461149200E+02 -0.22766725876E+02  0.14144268532E+02  0.62499964067E+02  0.00000000000E+00 0.  1.
</event>
<event>
 4    1  0.1988088E-002  0.9118800E+02  0.7818608E-02  0.1130116E+00
         25   -1    0    0    0    0  0.00000000000E+00  0.00000000000E+00  0.99999998245E-14  0.12500000000E+03  0.12500000000E+03 0.  0.
        -11    1    1    0    0    0  0.23666018797E+02 -0.48447249053E+02  0.29478362620E+00  0.53919414724E+02  0.51100000000E-03 0. -1.
         11    1    1    0    0    0  0.76462005949E+01 -0.45729410151E+01 -0.31200868787E+01  0.94398684025E+01  0.51100000000E-03 0.  1.
         22    1    1    0    0    0 -0.31312219392E+02  0.53020190069E+02  0.28253032525E+01  0.61640716873E+02  0.00000000000E+00 0. -1.
</event>
<event>
 4    1  0.1988088E-002  0.9118800E+02  0.7818608E-02  0.1130116E+00
         25   -1    0    0    0    0  0.00000000000E+00  0.00000000000E+00  0.99999998245E-14  0.12500000000E+03  0.12500000000E+03 0.  0.
        -11    1    1    0    0    0 -0.48050745399E+02 -0.45459855110E+01  0.21231524083E+02  0.52728718293E+02  0.51100000000E-03 0.  1.
         11    1    1    0    0    0 -0.10114961451E+02 -0.28262014076E+00  0.12851129379E+00  0.10119725031E+02  0.51100000000E-03 0. -1.
         22    1    1    0    0    0  0.58165706850E+02  0.48286056517E+01 -0.21360035376E+02  0.62151556676E+02  0.00000000000E+00 0.  1.
</event>
<event>
 4    1  0.1988088E-002  0.9118800E+02  0.7818608E-02  0.1130116E+00
         25   -1    0    0    0    0  0.00000000000E+00  0.00000000000E+00  0.99999998245E-14  0.12500000000E+03  0.12500000000E+03 0.  0.
        -11    1    1    0    0    0  0.20397550196E+02  0.17689819795E+02 -0.76584216342E+01  0.28064946117E+02  0.51100000000E-03 0.  1.
         11    1    1    0    0    0  0.25001466851E+02  0.21918858571E+02 -0.89619245346E+01  0.34435821427E+02  0.51100000000E-03 0. -1.
         22    1    1    0    0    0 -0.45399017047E+02 -0.39608678366E+02  0.16620346169E+02  0.62499232455E+02  0.00000000000E+00 0. -1.
</event>
<event>
 4    1  0.1988088E-002  0.9118800E+02  0.7818608E-02  0.1130116E+00
         25   -1    0    0    0    0  0.00000000000E+00  0.00000000000E+00  0.99999998245E-14  0.12500000000E+03  0.12500000000E+03 0.  0.
        -11    1    1    0    0    0  0.22699548698E+02 -0.23759450586E+02  0.45366195899E+02  0.56016718342E+02  0.51100000000E-03 0.  1.
         11    1    1    0    0    0  0.23106106972E+01 -0.21721030856E+01  0.56791781845E+01  0.65046151862E+01  0.51100000000E-03 0. -1.
         22    1    1    0    0    0 -0.25010159395E+02  0.25931553672E+02 -0.51045374083E+02  0.62478666472E+02  0.00000000000E+00 0.  1.
</event>
<event>
 4    1  0.1988088E-002  0.9118800E+02  0.7818608E-02  0.1130116E+00
         25   -1    0    0    0    0  0.00000000000E+00  0.00000000000E+00  0.99999998245E-14  0.12500000000E+03  0.12500000000E+03 0.  0.
        -11    1    1    0    0    0  0.60719875007E+02 -0.11220509077E+02  0.25738999806E+01  0.61801521066E+02  0.51100000000E-03 0. -1.
         11    1    1    0    0    0 -0.44400198845E+01  0.15277439012E+01 -0.38556521995E+01  0.60756754478E+01  0.51100000000E-03 0.  1.
         22    1    1    0    0    0 -0.56279855122E+02  0.96927651759E+01  0.12817522189E+01  0.57122803486E+02  0.00000000000E+00 0. -1.
</event>
<event>
 4    1  0.1988088E-002  0.9118800E+02  0.7818608E-02  0.1130116E+00
         25   -1    0    0    0    0  0.00000000000E+00  0.00000000000E+00  0.99999998245E-14  0.12500000000E+03  0.12500000000E+03 0.  0.
        -11    1    1    0    0    0  0.14433159712E+01  0.82041279734E+01  0.98239551759E+01  0.12880255136E+02  0.51100000000E-03 0.  1.
         11    1    1    0    0    0  0.59970678561E+01  0.31611384465E+02  0.37774261398E+02  0.49619948359E+02  0.51100000000E-03 0. -1.
         22    1    1    0    0    0 -0.74403838273E+01 -0.39815512439E+02 -0.47598216574E+02  0.62499796506E+02  0.00000000000E+00 0. -1.
</event>
<event>
 4    1  0.1988088E-002  0.9118800E+02  0.7818608E-02  0.1130116E+00
         25   -1    0    0    0    0  0.00000000000E+00  0.00000000000E+00  0.99999998245E-14  0.12500000000E+03  0.12500000000E+03 0.  0.
        -11    1    1    0    0    0  0.13288675796E+02 -0.19350864299E+02 -0.56682603344E+01  0.24148996439E+02  0.51100000000E-03 0. -1.
         11    1    1    0    0    0 -0.13133652527E+01 -0.28914767472E+02 -0.28416489711E+02  0.40562120186E+02  0.51100000000E-03 0.  1.
         22    1    1    0    0    0 -0.11975310543E+02  0.48265631771E+02  0.34084750046E+02  0.60288883375E+02  0.00000000000E+00 0.  1.
</event>
<event>
 4    1  0.1988088E-002  0.9118800E+02  0.7818608E-02  0.1130116E+00
         25   -1    0    0    0    0  0.00000000000E+00  0.00000000000E+00  0.99999998245E-14  0.12500000000E+03  0.12500000000E+03 0.  0.
        -11    1    1    0    0    0 -0.36845713606E+02 -0.16259952348E+02  0.74091010734E+01  0.40949816123E+02  0.51100000000E-03 0. -1.
         11    1    1    0    0    0 -0.20467530043E+02 -0.57189302919E+01  0.39759762330E+01  0.21620229809E+02  0.51100000000E-03 0.  1.
         22    1    1    0    0    0  0.57313243649E+02  0.21978882640E+02 -0.11385077306E+02  0.62429954068E+02  0.00000000000E+00 0.  1.
</event>
<event>
 4    1  0.1988088E-002  0.9118800E+02  0.7818608E-02  0.1130116E+00
         25   -1    0    0    0    0  0.00000000000E+00  0.00000000000E+00  0.99999998245E-14  0.12500000000E+03  0.12500000000E+03 0.  0.
        -11    1    1    0    0    0 -0.94456069870E+00 -0.95409029202E+01  0.93100231950E+00  0.96326418508E+01  0.51100000000E-03 0. -1.
         11    1    1    0    0    0 -0.52193184214E+01 -0.52359192736E+02  0.51216518765E+01  0.52867359182E+02  0.51100000000E-03 0.  1.
         22    1    1    0    0    0  0.61638791201E+01  0.61900095656E+02 -0.60526541960E+01  0.62499998967E+02  0.00000000000E+00 0.  1.
</event>
<event>
 4    1  0.1988088E-002  0.9118800E+02  0.7818608E-02  0.1130116E+00
         25   -1    0    0    0    0  0.00000000000E+00  0.00000000000E+00  0.99999998245E-14  0.12500000000E+03  0.12500000000E+03 0.  0.
        -11    1    1    0    0    0 -0.57871806707E+02  0.36095546872E+01 -0.22009213812E+02  0.62020806102E+02  0.51100000000E-03 0. -1.
         11    1    1    0    0    0 -0.50041099681E+00 -0.86113895389E-01  0.36931321556E-01  0.50910799673E+00  0.51100000000E-03 0.  1.
         22    1    1    0    0    0  0.58372217704E+02 -0.35234407919E+01  0.21972282491E+02  0.62470085902E+02  0.00000000000E+00 0. -1.
</event>
<event>
 4    1  0.1988088E-002  0.9118800E+02  0.7818608E-02  0.1130116E+00
         25   -1    0    0    0    0  0.00000000000E+00  0.00000000000E+00  0.99999998245E-14  0.12500000000E+03  0.12500000000E+03 0.  0.
        -11    1    1    0    0    0 -0.42002973964E+02 -0.20272220672E+01  0.45891227880E+02  0.62244391295E+02  0.51100000000E-03 0.  1.
         11    1    1    0    0    0 -0.17464816500E+00 -0.78848381111E-02  0.18648293553E+00  0.25561748488E+00  0.51100000000E-03 0. -1.
         22    1    1    0    0    0  0.42177622129E+02  0.20351069053E+01 -0.46077710815E+02  0.62499991220E+02  0.00000000000E+00 0.  1.
</event>
<event>
 4    1  0.1988088E-002  0.9118800E+02  0.7818608E-02  0.1130116E+00
         25   -1    0    0    0    0  0.00000000000E+00  0.00000000000E+00  0.99999998245E-14  0.12500000000E+03  0.12500000000E+03 0.  0.
        -11    1    1    0    0    0  0.22218334273E+01 -0.17883586731E+01 -0.34737031697E+01  0.44945950312E+01  0.51100000000E-03 0. -1.
         11    1    1    0    0    0  0.15038291459E+02 -0.51637247616E+02 -0.22924613655E+02  0.58464463248E+02  0.51100000000E-03 0.  1.
         22    1    1    0    0    0 -0.17260124887E+02  0.53425606289E+02  0.26398316824E+02  0.62040941721E+02  0.00000000000E+00 0.  1.
</event>
<event>
 4    1  0.1988088E-002  0.9118800E+02  0.7818608E-02  0.1130116E+00
         25   -1    0    0    0    0  0.00000000000E+00  0.00000000000E+00  0.99999998245E-14  0.12500000000E+03  0.12500000000E+03 0.  0.
        -11    1    1    0    0    0  0.11600558254E+02  0.27044204423E+01 -0.80558167258E+01  0.14379952194E+02  0.51100000000E-03 0. -1.
         11    1    1    0    0    0  0.38697163886E+02  0.83536368551E+01 -0.27356188251E+02  0.48120835170E+02  0.51100000000E-03 0.  1.
         22    1    1    0    0    0 -0.50297722140E+02 -0.11058057297E+02  0.35412004977E+02  0.62499212636E+02  0.00000000000E+00 0.  1.
</event>
<event>
 4    1  0.1988088E-002  0.9118800E+02  0.7818608E-02  0.1130116E+00
         25   -1    0    0    0    0  0.00000000000E+00  0.00000000000E+00  0.99999998245E-14  0.12500000000E+03  0.12500000000E+03 0.  0.
        -11    1    1    0    0    0  0.45647779309E+01  0.13081139836E+02  0.13506458278E+02  0.19348845765E+02  0.51100000000E-03 0. -1.
         11    1    1    0    0    0  0.10224429520E+02  0.29094002900E+02  0.30183174214E+02  0.43151175762E+02  0.51100000000E-03 0.  1.
         22    1    1    0    0    0 -0.14789207451E+02 -0.42175142736E+02 -0.43689632492E+02  0.62499978473E+02  0.00000000000E+00 0.  1.
</event>
<event>
 4    1  0.1988088E-002  0.9118800E+02  0.7818608E-02  0.1130116E+00
         25   -1    0    0    0    0  0.00000000000E+00  0.00000000000E+00  0.99999998245E-14  0.12500000000E+03  0.12500000000E+03 0.  0.
        -11    1    1    0    0    0 -0.22315142272E+01 -0.26297862397E+01 -0.11331026828E+01  0.36303379131E+01  0.51100000000E-03 0.  1.
         11    1    1    0    0    0 -0.37774443831E+02 -0.41191035754E+02 -0.18497625444E+02  0.58870809240E+02  0.51100000000E-03 0. -1.
         22    1    1    0    0    0  0.40005958058E+02  0.43820821994E+02  0.19630728127E+02  0.62498852847E+02  0.00000000000E+00 0. -1.
</event>
<event>
 4    1  0.1988088E-002  0.9118800E+02  0.7818608E-02  0.1130116E+00
         25   -1    0    0    0    0  0.00000000000E+00  0.00000000000E+00  0.99999998245E-14  0.12500000000E+03  0.12500000000E+03 0.  0.
        -11    1    1    0    0    0  0.49450335379E+01 -0.49775511747E+01  0.19765951243E+02  0.20974322425E+02  0.51100000000E-03 0. -1.
         11    1    1    0    0    0  0.14734450519E+02 -0.35876956938E+00  0.39069509734E+02  0.41757147158E+02  0.51100000000E-03 0.  1.
         22    1    1    0    0    0 -0.19679484056E+02  0.53363207441E+01 -0.58835460977E+02  0.62268530416E+02  0.00000000000E+00 0.  1.
</event>
<event>
 4    1  0.1988088E-002  0.9118800E+02  0.7818608E-02  0.1130116E+00
         25   -1    0    0    0    0  0.00000000000E+00  0.00000000000E+00  0.99999998245E-14  0.12500000000E+03  0.12500000000E+03 0.  0.
        -11    1    1    0    0    0 -0.39593558239E+02 -0.39702890500E+02  0.60026983913E+01  0.56391504292E+02  0.51100000000E-03 0. -1.
         11    1    1    0    0    0 -0.42887185017E+01 -0.43008998410E+01  0.65028754734E+00  0.61084957219E+01  0.51100000000E-03 0. -1.
         22    1    1    0    0    0  0.43882276741E+02  0.44003790341E+02 -0.66529859386E+01  0.62499999986E+02  0.00000000000E+00 0. -1.
</event>
<event>
 4    1  0.1988088E-002  0.9118800E+02  0.7818608E-02  0.1130116E+00
         25   -1    0    0    0    0  0.00000000000E+00  0.00000000000E+00  0.99999998245E-14  0.12500000000E+03  0.12500000000E+03 0.  0.
        -11    1    1    0    0    0 -0.20512469494E+02  0.16861107900E+02 -0.12168070281E+00  0.26553213945E+02  0.51100000000E-03 0.  1.
         11    1    1    0    0    0 -0.27786468447E+02  0.22804676434E+02 -0.17468105019E+00  0.35946788587E+02  0.51100000000E-03 0. -1.
         22    1    1    0    0    0  0.48298937942E+02 -0.39665784334E+02  0.29636175300E+00  0.62499997467E+02  0.00000000000E+00 0. -1.
</event>
<event>
 4    1  0.1988088E-002  0.9118800E+02  0.7818608E-02  0.1130116E+00
         25   -1    0    0    0    0  0.00000000000E+00  0.00000000000E+00  0.99999998245E-14  0.12500000000E+03  0.12500000000E+03 0.  0.
        -11    1    1    0    0    0 -0.30628309235E+00 -0.33403378707E+00 -0.61956330474E+00  0.76762416146E+00  0.51100000000E-03 0. -1.
         11    1    1    0    0    0 -0.15235266814E+02  0.23393487135E+02 -0.55206568563E+02  0.61863832794E+02  0.51100000000E-03 0.  1.
         22    1    1    0    0    0  0.15541549906E+02 -0.23059453348E+02  0.55826131868E+02  0.62368543044E+02  0.00000000000E+00 0.  1.
</event>
<event>
 4    1  0.1988088E-002  0.9118800E+02  0.7818608E-02  0.1130116E+00
         25   -1    0    0    0    0  0.00000000000E+00  0.00000000000E+00  0.99999998245E-14  0.12500000000E+03  0.12500000000E+03 0.  0.
        -11    1    1    0    0    0 -0.25518005042E+01 -0.42527596424E+02 -0.17897427175E+02  0.46210670230E+02  0.51100000000E-03 0.  1.
         11    1    1    0    0    0 -0.89171401730E+00 -0.14994891626E+02 -0.63008243434E+01  0.16289331368E+02  0.51100000000E-03 0. -1.
         22    1    1    0    0    0  0.34435145215E+01  0.57522488049E+02  0.24198251518E+02  0.62499998402E+02  0.00000000000E+00 0.  1.
</event>
<event>
 4    1  0.1988088E-002  0.9118800E+02  0.7818608E-02  0.1130116E+00
         25   -1    0    0    0    0  0.00000000000E+00  0.00000000000E+00  0.99999998245E-14  0.12500000000E+03  0.12500000000E+03 0.  0.
        -11    1    1    0    0    0 -0.44336727203E+01 -0.33010032555E+02  0.51487984571E+02  0.61321548077E+02  0.51100000000E-03 0. -1.
         11    1    1    0    0    0 -0.74721378825E-01 -0.61129408635E+00  0.10049466276E+01  0.11786355374E+01  0.51100000000E-03 0.  1.
         22    1    1    0    0    0  0.45083940991E+01  0.33621326641E+02 -0.52492931199E+02  0.62499816386E+02  0.00000000000E+00 0. -1.
</event>
<event>
 4    1  0.1988088E-002  0.9118800E+02  0.7818608E-02  0.1130116E+00
         25   -1    0    0    0    0  0.00000000000E+00  0.00000000000E+00  0.99999998245E-14  0.12500000000E+03  0.12500000000E+03 0.  0.
        -11    1    1    0    0    0  0.12843968690E+02  0.18057137375E+02 -0.39263880819E+02  0.45085253455E+02  0.51100000000E-03 0.  1.
         11    1    1    0    0    0  0.49807846336E+01  0.74387814697E+01 -0.14940744043E+02  0.17417506083E+02  0.51100000000E-03 0. -1.
         22    1    1    0    0    0 -0.17824753324E+02 -0.25495918844E+02  0.54204624863E+02  0.62497240461E+02  0.00000000000E+00 0.  1.
</event>
<event>
 4    1  0.1988088E-002  0.9118800E+02  0.7818608E-02  0.1130116E+00
         25   -1    0    0    0    0  0.00000000000E+00  0.00000000000E+00  0.99999998245E-14  0.12500000000E+03  0.12500000000E+03 0.  0.
        -11    1    1    0    0    0  0.21157617235E+02  0.42937983559E+01 -0.25785295412E+02  0.33629792314E+02  0.51100000000E-03 0. -1.
         11    1    1    0    0    0  0.18134472330E+02  0.37176604312E+01 -0.22154218245E+02  0.28870217735E+02  0.51100000000E-03 0.  1.
         22    1    1    0    0    0 -0.39292089565E+02 -0.80114587872E+01  0.47939513656E+02  0.62499989951E+02  0.00000000000E+00 0. -1.
</event>
<event>
 4    1  0.1988088E-002  0.9118800E+02  0.7818608E-02  0.1130116E+00
         25   -1    0    0    0    0  0.00000000000E+00  0.00000000000E+00  0.99999998245E-14  0.12500000000E+03  0.12500000000E+03 0.  0.
        -11    1    1    0    0    0 -0.28216892832E+02 -0.20073749141E+02  0.18727685904E+01  0.34679326812E+02  0.51100000000E-03 0. -1.
         11    1    1    0    0    0 -0.22639700941E+02 -0.16099238931E+02  0.14994381514E+01  0.27820673391E+02  0.51100000000E-03 0.  1.
         22    1    1    0    0    0  0.50856593773E+02  0.36172988073E+02 -0.33722067418E+01  0.62499999797E+02  0.00000000000E+00 0. -1.
</event>
<event>
 4    1  0.1988088E-002  0.9118800E+02  0.7818608E-02  0.1130116E+00
         25   -1    0    0    0    0  0.00000000000E+00  0.00000000000E+00  0.99999998245E-14  0.12500000000E+03  0.12500000000E+03 0.  0.
        -11    1    1    0    0    0 -0.68440242090E+01 -0.23984298037E+02  0.33570452218E+01  0.25166584444E+02  0.51100000000E-03 0. -1.
         11    1    1    0    0    0 -0.15992732498E+02 -0.33898389436E+02  0.55633005301E+00  0.37485701307E+02  0.51100000000E-03 0.  1.
         22    1    1    0    0    0  0.22836756707E+02  0.57882687473E+02 -0.39133752748E+01  0.62347714249E+02  0.00000000000E+00 0. -1.
</event>
<event>
 4    1  0.1988088E-002  0.9118800E+02  0.7818608E-02  0.1130116E+00
         25   -1    0    0    0    0  0.00000000000E+00  0.00000000000E+00  0.99999998245E-14  0.12500000000E+03  0.12500000000E+03 0.  0.
        -11    1    1    0    0    0 -0.58401136148E+01 -0.12162685167E+01  0.13945147819E+01  0.61262474547E+01  0.51100000000E-03 0.  1.
         11    1    1    0    0    0 -0.52758997929E+02 -0.99270007645E+01  0.17234215418E+02  0.56383289971E+02  0.51100000000E-03 0. -1.
         22    1    1    0    0    0  0.58599111543E+02  0.11143269281E+02 -0.18628730199E+02  0.62490462575E+02  0.00000000000E+00 0. -1.
</event>
<event>
 4    1  0.1988088E-002  0.9118800E+02  0.7818608E-02  0.1130116E+00
         25   -1    0    0    0    0  0.00000000000E+00  0.00000000000E+00  0.99999998245E-14  0.12500000000E+03  0.12500000000E+03 0.  0.
        -11    1    1    0    0    0 -0.89747481131E+01  0.19936199257E+02 -0.48558472454E+02  0.53253388548E+02  0.51100000000E-03 0. -1.
         11    1    1    0    0    0 -0.16065127289E+01  0.34429708782E+01 -0.84300670029E+01  0.92466729990E+01  0.51100000000E-03 0.  1.
         22    1    1    0    0    0  0.10581260842E+02 -0.23379170135E+02  0.56988539457E+02  0.62499938453E+02  0.00000000000E+00 0. -1.
</event>
<event>
 4    1  0.1988088E-002  0.9118800E+02  0.7818608E-02  0.1130116E+00
         25   -1    0    0    0    0  0.00000000000E+00  0.00000000000E+00  0.99999998245E-14  0.12500000000E+03  0.12500000000E+03 0.  0.
        -11    1    1    0    0    0  0.12322541935E+02 -0.37191939953E+02 -0.32163443737E+02  0.50690951367E+02  0.51100000000E-03 0.  1.
         11    1    1    0    0    0  0.28688050327E+01 -0.86667794694E+01 -0.74906960042E+01  0.11809048885E+02  0.51100000000E-03 0. -1.
         22    1    1    0    0    0 -0.15191346968E+02  0.45858719423E+02  0.39654139742E+02  0.62499999747E+02  0.00000000000E+00 0. -1.
</event>
<event>
 4    1  0.1988088E-002  0.9118800E+02  0.7818608E-02  0.1130116E+00
         25   -1    0    0    0    0  0.00000000000E+00  0.00000000000E+00  0.99999998245E-14  0.12500000000E+03  0.12500000000E+03 0.  0.
        -11    1    1    0    0    0 -0.56113517077E+00  0.66448554573E-01 -0.73498510607E+00  0.92708762129E+00  0.51100000000E-03 0.  1.
         11    1    1    0    0    0 -0.37998785091E+02  0.47980729734E+01 -0.48211016724E+02  0.61572975455E+02  0.51100000000E-03 0. -1.
         22    1    1    0    0    0  0.38559920262E+02 -0.48645215280E+01  0.48946001830E+02  0.62499936923E+02  0.00000000000E+00 0. -1.
</event>
<event>
 4    1  0.1988088E-002  0.9118800E+02  0.7818608E-02  0.1130116E+00
         25   -1    0    0    0    0  0.00000000000E+00  0.00000000000E+00  0.99999998245E-14  0.12500000000E+03  0.12500000000E+03 0.  0.
        -11    1    1    0    0    0 -0.53920890276E+01  0.16246516901E+02  0.15801359392E+02  0.23296070363E+02  0.51100000000E-03 0.  1.
         11    1    1    0    0    0 -0.90687489962E+01  0.27341926236E+02  0.26591821414E+02  0.39203929714E+02  0.51100000000E-03 0. -1.
         22    1    1    0    0    0  0.14460838024E+02 -0.43588443137E+02 -0.42393180806E+02  0.62499999922E+02  0.00000000000E+00 0. -1.
</event>
<event>
 4    1  0.1988088E-002  0.9118800E+02  0.7818608E-02  0.1130116E+00
         25   -1    0    0    0    0  0.00000000000E+00  0.00000000000E+00  0.99999998245E-14  0.12500000000E+03  0.12500000000E+03 0.  0.
        -11    1    1    0    0    0  0.29411979144E+01  0.16107997398E+02  0.37070896511E+02  0.40526159375E+02  0.51100000000E-03 0. -1.
         11    1    1    0    0    0 -0.12544375526E+02 -0.18376902498E+02  0.17941997496E+02  0.28582987548E+02  0.51100000000E-03 0.  1.
         22    1    1    0    0    0  0.96031776118E+01  0.22689051008E+01 -0.55012894007E+02  0.55890853076E+02  0.00000000000E+00 0. -1.
</event>
<event>
 4    1  0.1988088E-002  0.9118800E+02  0.7818608E-02  0.1130116E+00
         25   -1    0    0    0    0  0.00000000000E+00  0.00000000000E+00  0.99999998245E-14  0.12500000000E+03  0.12500000000E+03 0.  0.
        -11    1    1    0    0    0  0.14366746738E+02  0.42278710585E+02  0.15141495931E+02  0.47150373061E+02  0.51100000000E-03 0. -1.
         11    1    1    0    0    0  0.46750523394E+01  0.13763802238E+02  0.49307892898E+01  0.15349627022E+02  0.51100000000E-03 0.  1.
         22    1    1    0    0    0 -0.19041799077E+02 -0.56042512823E+02 -0.20072285221E+02  0.62499999917E+02  0.00000000000E+00 0. -1.
</event>
<event>
 4    1  0.1988088E-002  0.9118800E+02  0.7818608E-02  0.1130116E+00
         25   -1    0    0    0    0  0.00000000000E+00  0.00000000000E+00  0.99999998245E-14  0.12500000000E+03  0.12500000000E+03 0.  0.
        -11    1    1    0    0    0 -0.96199811959E+01  0.19619704362E+02  0.67111039816E+00  0.21861546764E+02  0.51100000000E-03 0. -1.
         11    1    1    0    0    0 -0.18417699208E+02  0.36218724129E+02  0.76085570478E+00  0.40639716083E+02  0.51100000000E-03 0.  1.
         22    1    1    0    0    0  0.28037680404E+02 -0.55838428492E+02 -0.14319661029E+01  0.62498737153E+02  0.00000000000E+00 0.  1.
</event>
<event>
 4    1  0.1988088E-002  0.9118800E+02  0.7818608E-02  0.1130116E+00
         25   -1    0    0    0    0  0.00000000000E+00  0.00000000000E+00  0.99999998245E-14  0.12500000000E+03  0.12500000000E+03 0.  0.
        -11    1    1    0    0    0  0.10244788968E+02 -0.34377032309E+01  0.88414320381E+01  0.13962250007E+02  0.51100000000E-03 0.  1.
         11    1    1    0    0    0  0.37148615409E+02 -0.17572493703E+02  0.25951016998E+02  0.48603162914E+02  0.51100000000E-03 0. -1.
         22    1    1    0    0    0 -0.47393404378E+02  0.21010196934E+02 -0.34792449036E+02  0.62434587079E+02  0.00000000000E+00 0. -1.
</event>
<event>
 4    1  0.1988088E-002  0.9118800E+02  0.7818608E-02  0.1130116E+00
         25   -1    0    0    0    0  0.00000000000E+00  0.00000000000E+00  0.99999998245E-14  0.12500000000E+03  0.12500000000E+03 0.  0.
        -11    1    1    0    0    0  0.50727837711E+01 -0.82850931262E+01 -0.99911685302E+01  0.13935542765E+02  0.51100000000E-03 0. -1.
         11    1    1    0    0    0  0.16495689631E+02 -0.28323863946E+02 -0.35839408371E+02  0.48567604819E+02  0.51100000000E-03 0.  1.
         22    1    1    0    0    0 -0.21568473402E+02  0.36608957072E+02  0.45830576901E+02  0.62496852416E+02  0.00000000000E+00 0.  1.
</event>
<event>
 4    1  0.1988088E-002  0.9118800E+02  0.7818608E-02  0.1130116E+00
         25   -1    0    0    0    0  0.00000000000E+00  0.00000000000E+00  0.99999998245E-14  0.12500000000E+03  0.12500000000E+03 0.  0.
        -11    1    1    0    0    0 -0.15575987866E+02 -0.50593554384E+02  0.91209052844E+01  0.53716943851E+02  0.51100000000E-03 0. -1.
         11    1    1    0    0    0 -0.15071608760E+02  0.89053348287E+01  0.38852793782E+01  0.17931920565E+02  0.51100000000E-03 0.  1.
         22    1    1    0    0    0  0.30647596626E+02  0.41688219555E+02 -0.13006184663E+02  0.53351135584E+02  0.00000000000E+00 0.  1.
</event>
<event>
 4    1  0.1988088E-002  0.9118800E+02  0.7818608E-02  0.1130116E+00
         25   -1    0    0    0    0  0.00000000000E+00  0.00000000000E+00  0.99999998245E-14  0.12500000000E+03  0.12500000000E+03 0.  0.
        -11    1    1    0    0    0  0.69540891350E+00  0.97006445447E+01 -0.43340197860E+01  0.10647526751E+02  0.51100000000E-03 0.  1.
         11    1    1    0    0    0  0.53886747277E+01  0.45917124824E+02 -0.23499737153E+02  0.51861911013E+02  0.51100000000E-03 0. -1.
         22    1    1    0    0    0 -0.60840836412E+01 -0.55617769369E+02  0.27833756939E+02  0.62490562236E+02  0.00000000000E+00 0. -1.
</event>
<event>
 4    1  0.1988088E-002  0.9118800E+02  0.7818608E-02  0.1130116E+00
         25   -1    0    0    0    0  0.00000000000E+00  0.00000000000E+00  0.99999998245E-14  0.12500000000E+03  0.12500000000E+03 0.  0.
        -11    1    1    0    0    0  0.17859355358E+02 -0.28601364713E+02 -0.14589310884E+02  0.36740204539E+02  0.51100000000E-03 0.  1.
         11    1    1    0    0    0  0.12070708458E+02 -0.22487112913E+02 -0.47724651816E+01  0.25964373168E+02  0.51100000000E-03 0. -1.
         22    1    1    0    0    0 -0.29930063816E+02  0.51088477626E+02  0.19361776066E+02  0.62295422293E+02  0.00000000000E+00 0. -1.
</event>
<event>
 4    1  0.1988088E-002  0.9118800E+02  0.7818608E-02  0.1130116E+00
         25   -1    0    0    0    0  0.00000000000E+00  0.00000000000E+00  0.99999998245E-14  0.12500000000E+03  0.12500000000E+03 0.  0.
        -11    1    1    0    0    0  0.74886027213E+01 -0.19687440553E+02 -0.50568884365E+01  0.21662100710E+02  0.51100000000E-03 0.  1.
         11    1    1    0    0    0  0.14115157683E+02 -0.37115322305E+02 -0.95367287599E+01  0.40837899333E+02  0.51100000000E-03 0. -1.
         22    1    1    0    0    0 -0.21603760405E+02  0.56802762857E+02  0.14593617196E+02  0.62499999958E+02  0.00000000000E+00 0. -1.
</event>
<event>
 4    1  0.1988088E-002  0.9118800E+02  0.7818608E-02  0.1130116E+00
         25   -1    0    0    0    0  0.00000000000E+00  0.00000000000E+00  0.99999998245E-14  0.12500000000E+03  0.12500000000E+03 0.  0.
        -11    1    1    0    0    0  0.28861702198E+02  0.52418275364E+02  0.10013100145E+02  0.60670714688E+02  0.51100000000E-03 0. -1.
         11    1    1    0    0    0  0.67765373074E+00  0.16607694532E+01  0.39248967686E+00  0.18361421958E+01  0.51100000000E-03 0.  1.
         22    1    1    0    0    0 -0.29539355929E+02 -0.54079044817E+02 -0.10405589822E+02  0.62493143117E+02  0.00000000000E+00 0. -1.
</event>
<event>
 4    1  0.1988088E-002  0.9118800E+02  0.7818608E-02  0.1130116E+00
         25   -1    0    0    0    0  0.00000000000E+00  0.00000000000E+00  0.99999998245E-14  0.12500000000E+03  0.12500000000E+03 0.  0.
        -11    1    1    0    0    0  0.38563157251E+02  0.21198803058E+02  0.25840418534E+02  0.51031691903E+02  0.51100000000E-03 0.  1.
         11    1    1    0    0    0  0.86682026399E+01  0.47739619955E+01  0.57960100647E+01  0.11468312128E+02  0.51100000000E-03 0. -1.
         22    1    1    0    0    0 -0.47231359891E+02 -0.25972765054E+02 -0.31636428598E+02  0.62499995969E+02  0.00000000000E+00 0. -1.
</event>
<event>
 4    1  0.1988088E-002  0.9118800E+02  0.7818608E-02  0.1130116E+00
         25   -1    0    0    0    0  0.00000000000E+00  0.00000000000E+00  0.99999998245E-14  0.12500000000E+03  0.12500000000E+03 0.  0.
        -11    1    1    0    0    0 -0.13787253758E+02 -0.57275520125E+01  0.86129784054E+01  0.17235910638E+02  0.51100000000E-03 0.  1.
         11    1    1    0    0    0 -0.36215083136E+02 -0.15029128212E+02  0.22614837517E+02  0.45264089713E+02  0.51100000000E-03 0. -1.
         22    1    1    0    0    0  0.50002336894E+02  0.20756680225E+02 -0.31227815923E+02  0.62499999649E+02  0.00000000000E+00 0.  1.
</event>
<event>
 4    1  0.1988088E-002  0.9118800E+02  0.7818608E-02  0.1130116E+00
         25   -1    0    0    0    0  0.00000000000E+00  0.00000000000E+00  0.99999998245E-14  0.12500000000E+03  0.12500000000E+03 0.  0.
        -11    1    1    0    0    0 -0.69882995642E+01 -0.12341767152E+02  0.25642200529E+01  0.14412868278E+02  0.51100000000E-03 0. -1.
         11    1    1    0    0    0 -0.21056262033E+02 -0.43353112338E+02 -0.15949396036E+01  0.48222425829E+02  0.51100000000E-03 0.  1.
         22    1    1    0    0    0  0.28044561597E+02  0.55694879490E+02 -0.96928044931E+00  0.62364705894E+02  0.00000000000E+00 0. -1.
</event>
<event>
 4    1  0.1988088E-002  0.9118800E+02  0.7818608E-02  0.1130116E+00
         25   -1    0    0    0    0  0.00000000000E+00  0.00000000000E+00  0.99999998245E-14  0.12500000000E+03  0.12500000000E+03 0.  0.
        -11    1    1    0    0    0  0.13284970698E+02 -0.25881038862E+02 -0.46275037878E+01  0.29457298087E+02  0.51100000000E-03 0. -1.
         11    1    1    0    0    0  0.59209477090E+01 -0.74240234014E+01 -0.37397840828E+02  0.38584611493E+02  0.51100000000E-03 0.  1.
         22    1    1    0    0    0 -0.19205918407E+02  0.33305062263E+02  0.42025344616E+02  0.56958090420E+02  0.00000000000E+00 0.  1.
</event>
<event>
 4    1  0.1988088E-002  0.9118800E+02  0.7818608E-02  0.1130116E+00
         25   -1    0    0    0    0  0.00000000000E+00  0.00000000000E+00  0.99999998245E-14  0.12500000000E+03  0.12500000000E+03 0.  0.
        -11    1    1    0    0    0  0.15975030751E+01 -0.34789598967E+01  0.76071244031E+01  0.85160742120E+01  0.51100000000E-03 0. -1.
         11    1    1    0    0    0  0.10105707686E+02 -0.22076253850E+02  0.48215951723E+02  0.53983926429E+02  0.51100000000E-03 0.  1.
         22    1    1    0    0    0 -0.11703210761E+02  0.25555213747E+02 -0.55823076126E+02  0.62499999359E+02  0.00000000000E+00 0.  1.
</event>
<event>
 4    1  0.1988088E-002  0.9118800E+02  0.7818608E-02  0.1130116E+00
         25   -1    0    0    0    0  0.00000000000E+00  0.00000000000E+00  0.99999998245E-14  0.12500000000E+03  0.12500000000E+03 0.  0.
        -11    1    1    0    0    0 -0.12470662052E+02  0.19577962039E+02  0.12152957790E+02  0.26201305176E+02  0.51100000000E-03 0. -1.
         11    1    1    0    0    0 -0.21152954715E+02  0.24017024188E+02  0.17278511847E+02  0.36370481382E+02  0.51100000000E-03 0.  1.
         22    1    1    0    0    0  0.33623616767E+02 -0.43594986227E+02 -0.29431469637E+02  0.62428213442E+02  0.00000000000E+00 0.  1.
</event>
<event>
 4    1  0.1988088E-002  0.9118800E+02  0.7818608E-02  0.1130116E+00
         25   -1    0    0    0    0  0.00000000000E+00  0.00000000000E+00  0.99999998245E-14  0.12500000000E+03  0.12500000000E+03 0.  0.
        -11    1    1    0    0    0 -0.50610843239E+01 -0.28551958756E+02 -0.15284984707E+02  0.32778951800E+02  0.51100000000E-03 0.  1.
         11    1    1    0    0    0 -0.45874039603E+01 -0.25889936141E+02 -0.13856682156E+02  0.29721048250E+02  0.51100000000E-03 0.  1.
         22    1    1    0    0    0  0.96484882843E+01  0.54441894897E+02  0.29141666863E+02  0.62499999950E+02  0.00000000000E+00 0.  1.
</event>
<event>
 4    1  0.1988088E-002  0.9118800E+02  0.7818608E-02  0.1130116E+00
         25   -1    0    0    0    0  0.00000000000E+00  0.00000000000E+00  0.99999998245E-14  0.12500000000E+03  0.12500000000E+03 0.  0.
        -11    1    1    0    0    0 -0.28307856107E+01 -0.32703587409E+02 -0.18687067859E+02  0.37772271338E+02  0.51100000000E-03 0.  1.
         11    1    1    0    0    0  0.21086601048E+02 -0.12292637519E+02 -0.14520058210E+02  0.28400453722E+02  0.51100000000E-03 0. -1.
         22    1    1    0    0    0 -0.18255815437E+02  0.44996224929E+02  0.33207126069E+02  0.58827274940E+02  0.00000000000E+00 0. -1.
</event>
<event>
 4    1  0.1988088E-002  0.9118800E+02  0.7818608E-02  0.1130116E+00
         25   -1    0    0    0    0  0.00000000000E+00  0.00000000000E+00  0.99999998245E-14  0.12500000000E+03  0.12500000000E+03 0.  0.
        -11    1    1    0    0    0 -0.29532147304E+02  0.80618561232E+01 -0.10686023719E+02  0.32424255608E+02  0.51100000000E-03 0.  1.
         11    1    1    0    0    0 -0.27400820058E+02  0.74369258061E+01 -0.99215961782E+01  0.30075752298E+02  0.51100000000E-03 0. -1.
         22    1    1    0    0    0  0.56932967362E+02 -0.15498781929E+02  0.20607619897E+02  0.62499992094E+02  0.00000000000E+00 0.  1.
</event>
<event>
 4    1  0.1988088E-002  0.9118800E+02  0.7818608E-02  0.1130116E+00
         25   -1    0    0    0    0  0.00000000000E+00  0.00000000000E+00  0.99999998245E-14  0.12500000000E+03  0.12500000000E+03 0.  0.
        -11    1    1    0    0    0 -0.97273754126E+01 -0.31940501429E+02 -0.28636792692E+02  0.43987309077E+02  0.51100000000E-03 0. -1.
         11    1    1    0    0    0 -0.40951477562E+01 -0.13441640653E+02 -0.12052874661E+02  0.18512690956E+02  0.51100000000E-03 0.  1.
         22    1    1    0    0    0  0.13822523169E+02  0.45382142081E+02  0.40689667352E+02  0.62499999967E+02  0.00000000000E+00 0. -1.
</event>
<event>
 4    1  0.1988088E-002  0.9118800E+02  0.7818608E-02  0.1130116E+00
         25   -1    0    0    0    0  0.00000000000E+00  0.00000000000E+00  0.99999998245E-14  0.12500000000E+03  0.12500000000E+03 0.  0.
        -11    1    1    0    0    0  0.73665707900E-01 -0.15249299301E-01  0.78761925244E-01  0.10891684736E+00  0.51100000000E-03 0.  1.
         11    1    1    0    0    0 -0.31730947638E+02  0.19055786127E+02  0.50280530048E+02  0.62434827822E+02  0.51100000000E-03 0. -1.
         22    1    1    0    0    0  0.31657281930E+02 -0.19040536828E+02 -0.50359291974E+02  0.62456255331E+02  0.00000000000E+00 0. -1.
</event>
<event>
 4    1  0.1988088E-002  0.9118800E+02  0.7818608E-02  0.1130116E+00
         25   -1    0    0    0    0  0.00000000000E+00  0.00000000000E+00  0.99999998245E-14  0.12500000000E+03  0.12500000000E+03 0.  0.
        -11    1    1    0    0    0 -0.73410694753E+01 -0.33373085506E+02  0.15640196791E+02  0.37580179525E+02  0.51100000000E-03 0.  1.
         11    1    1    0    0    0 -0.54142851992E+01 -0.21873179059E+02  0.10647986778E+02  0.24922481198E+02  0.51100000000E-03 0. -1.
         22    1    1    0    0    0  0.12755354675E+02  0.55246264565E+02 -0.26288183569E+02  0.62497339277E+02  0.00000000000E+00 0.  1.
</event>
<event>
 4    1  0.1988088E-002  0.9118800E+02  0.7818608E-02  0.1130116E+00
         25   -1    0    0    0    0  0.00000000000E+00  0.00000000000E+00  0.99999998245E-14  0.12500000000E+03  0.12500000000E+03 0.  0.
        -11    1    1    0    0    0 -0.49676010740E+01  0.38336870454E+02 -0.46529471634E+02  0.60492846085E+02  0.51100000000E-03 0.  1.
         11    1    1    0    0    0 -0.16352661243E+00  0.12720424165E+01 -0.15439671862E+01  0.20071541534E+01  0.51100000000E-03 0. -1.
         22    1    1    0    0    0  0.51311276865E+01 -0.39608912871E+02  0.48073438821E+02  0.62499999761E+02  0.00000000000E+00 0.  1.
</event>
<event>
 4    1  0.1988088E-002  0.9118800E+02  0.7818608E-02  0.1130116E+00
         25   -1    0    0    0    0  0.00000000000E+00  0.00000000000E+00  0.99999998245E-14  0.12500000000E+03  0.12500000000E+03 0.  0.
        -11    1    1    0    0    0  0.71138828983E-02  0.42260275997E-01  0.33492781274E+00  0.33765876136E+00  0.51100000000E-03 0. -1.
         11    1    1    0    0    0  0.14782513389E+01  0.76130933726E+01  0.61676676526E+02  0.62162342663E+02  0.51100000000E-03 0.  1.
         22    1    1    0    0    0 -0.14853652218E+01 -0.76553536486E+01 -0.62011604339E+02  0.62499998576E+02  0.00000000000E+00 0.  1.
</event>
<event>
 4    1  0.1988088E-002  0.9118800E+02  0.7818608E-02  0.1130116E+00
         25   -1    0    0    0    0  0.00000000000E+00  0.00000000000E+00  0.99999998245E-14  0.12500000000E+03  0.12500000000E+03 0.  0.
        -11    1    1    0    0    0 -0.26524954245E+02 -0.48545710700E+02 -0.16582149450E+02  0.57751423409E+02  0.51100000000E-03 0. -1.
         11    1    1    0    0    0 -0.27899281807E+01 -0.31340912027E+01 -0.24508625866E+01  0.48593162687E+01  0.51100000000E-03 0.  1.
         22    1    1    0    0    0  0.29314882426E+02  0.51679801903E+02  0.19033012037E+02  0.62389260322E+02  0.00000000000E+00 0. -1.
</event>
<event>
 4    1  0.1988088E-002  0.9118800E+02  0.7818608E-02  0.1130116E+00
         25   -1    0    0    0    0  0.00000000000E+00  0.00000000000E+00  0.99999998245E-14  0.12500000000E+03  0.12500000000E+03 0.  0.
        -11    1    1    0    0    0  0.67137874977E+01  0.39969739033E+01  0.33050745410E+01  0.84837645495E+01  0.51100000000E-03 0.  1.
         11    1    1    0    0    0  0.37391018802E+02  0.23522023788E+02 -0.34357217440E+02  0.55962418467E+02  0.51100000000E-03 0. -1.
         22    1    1    0    0    0 -0.44104806300E+02 -0.27518997692E+02  0.31052142899E+02  0.60553816984E+02  0.00000000000E+00 0. -1.
</event>
<event>
 4    1  0.1988088E-002  0.9118800E+02  0.7818608E-02  0.1130116E+00
         25   -1    0    0    0    0  0.00000000000E+00  0.00000000000E+00  0.99999998245E-14  0.12500000000E+03  0.12500000000E+03 0.  0.
        -11    1    1    0    0    0  0.38238813616E+02  0.80244113448E+01  0.33396567067E+02  0.51399695878E+02  0.51100000000E-03 0.  1.
         11    1    1    0    0    0 -0.10520170138E+01  0.48016690514E+01  0.12334969888E+02  0.13278337542E+02  0.51100000000E-03 0. -1.
         22    1    1    0    0    0 -0.37186796602E+02 -0.12826080396E+02 -0.45731536955E+02  0.60321966580E+02  0.00000000000E+00 0.  1.
</event>
<event>
 4    1  0.1988088E-002  0.9118800E+02  0.7818608E-02  0.1130116E+00
         25   -1    0    0    0    0  0.00000000000E+00  0.00000000000E+00  0.99999998245E-14  0.12500000000E+03  0.12500000000E+03 0.  0.
        -11    1    1    0    0    0  0.17624788075E+01  0.19876206854E+02  0.43505237450E+02  0.47863092424E+02  0.51100000000E-03 0.  1.
         11    1    1    0    0    0  0.70489282764E+00  0.62439714259E+01  0.13220391550E+02  0.14637718608E+02  0.51100000000E-03 0. -1.
         22    1    1    0    0    0 -0.24673716351E+01 -0.26120178280E+02 -0.56725629000E+02  0.62499188968E+02  0.00000000000E+00 0.  1.
</event>
<event>
 4    1  0.1988088E-002  0.9118800E+02  0.7818608E-02  0.1130116E+00
         25   -1    0    0    0    0  0.00000000000E+00  0.00000000000E+00  0.99999998245E-14  0.12500000000E+03  0.12500000000E+03 0.  0.
        -11    1    1    0    0    0  0.25340599560E+01  0.40427100762E+01 -0.25904204493E+00  0.47782912911E+01  0.51100000000E-03 0.  1.
         11    1    1    0    0    0  0.30610993499E+02  0.48835353337E+02 -0.31418155937E+01  0.57721708776E+02  0.51100000000E-03 0.  1.
         22    1    1    0    0    0 -0.33145053455E+02 -0.52878063414E+02  0.34008576386E+01  0.62499999933E+02  0.00000000000E+00 0.  1.
</event>
<event>
 4    1  0.1988088E-002  0.9118800E+02  0.7818608E-02  0.1130116E+00
         25   -1    0    0    0    0  0.00000000000E+00  0.00000000000E+00  0.99999998245E-14  0.12500000000E+03  0.12500000000E+03 0.  0.
        -11    1    1    0    0    0  0.15680259870E+02  0.50187974888E+02 -0.23128525466E+02  0.57442423899E+02  0.51100000000E-03 0.  1.
         11    1    1    0    0    0  0.43686488143E+01  0.36301658787E+01  0.98796789633E-01  0.56809293110E+01  0.51100000000E-03 0. -1.
         22    1    1    0    0    0 -0.20048908685E+02 -0.53818140767E+02  0.23029728676E+02  0.61876646790E+02  0.00000000000E+00 0.  1.
</event>
<event>
 4    1  0.1988088E-002  0.9118800E+02  0.7818608E-02  0.1130116E+00
         25   -1    0    0    0    0  0.00000000000E+00  0.00000000000E+00  0.99999998245E-14  0.12500000000E+03  0.12500000000E+03 0.  0.
        -11    1    1    0    0    0 -0.36257659635E+01  0.20713996760E+02 -0.32544874703E+02  0.38747705871E+02  0.51100000000E-03 0.  1.
         11    1    1    0    0    0 -0.17045696692E+01  0.13739267492E+02 -0.19314328396E+02  0.23763760448E+02  0.51100000000E-03 0. -1.
         22    1    1    0    0    0  0.53303356327E+01 -0.34453264251E+02  0.51859203099E+02  0.62488533681E+02  0.00000000000E+00 0.  1.
</event>
<event>
 4    1  0.1988088E-002  0.9118800E+02  0.7818608E-02  0.1130116E+00
         25   -1    0    0    0    0  0.00000000000E+00  0.00000000000E+00  0.99999998245E-14  0.12500000000E+03  0.12500000000E+03 0.  0.
        -11    1    1    0    0    0 -0.49215077434E-01  0.36152480674E+00  0.12815956324E+02  0.12821148898E+02  0.51100000000E-03 0.  1.
         11    1    1    0    0    0 -0.16729704679E+00  0.16294234086E+01  0.49651894822E+02  0.49678905670E+02  0.51100000000E-03 0. -1.
         22    1    1    0    0    0  0.21651212422E+00 -0.19909482154E+01 -0.62467851145E+02  0.62499945432E+02  0.00000000000E+00 0.  1.
</event>
<event>
 4    1  0.1988088E-002  0.9118800E+02  0.7818608E-02  0.1130116E+00
         25   -1    0    0    0    0  0.00000000000E+00  0.00000000000E+00  0.99999998245E-14  0.12500000000E+03  0.12500000000E+03 0.  0.
        -11    1    1    0    0    0 -0.91530954653E+01  0.16570125092E+02  0.12810097957E+02  0.22857095443E+02  0.51100000000E-03 0.  1.
         11    1    1    0    0    0 -0.63648811179E+01  0.33786184373E+02  0.20285045988E+02  0.39918680553E+02  0.51100000000E-03 0. -1.
         22    1    1    0    0    0  0.15517976583E+02 -0.50356309465E+02 -0.33095143944E+02  0.62224224004E+02  0.00000000000E+00 0.  1.
</event>
<event>
 4    1  0.1988088E-002  0.9118800E+02  0.7818608E-02  0.1130116E+00
         25   -1    0    0    0    0  0.00000000000E+00  0.00000000000E+00  0.99999998245E-14  0.12500000000E+03  0.12500000000E+03 0.  0.
        -11    1    1    0    0    0  0.13909130272E+02  0.12862877425E+02 -0.69918173718E+01  0.20194133578E+02  0.51100000000E-03 0. -1.
         11    1    1    0    0    0  0.29140009661E+02  0.26947375782E+02 -0.14645310178E+02  0.42305866438E+02  0.51100000000E-03 0.  1.
         22    1    1    0    0    0 -0.43049139933E+02 -0.39810253207E+02  0.21637127549E+02  0.62499999984E+02  0.00000000000E+00 0.  1.
</event>
<event>
 4    1  0.1988088E-002  0.9118800E+02  0.7818608E-02  0.1130116E+00
         25   -1    0    0    0    0  0.00000000000E+00  0.00000000000E+00  0.99999998245E-14  0.12500000000E+03  0.12500000000E+03 0.  0.
        -11    1    1    0    0    0 -0.18297910433E+01 -0.25190404135E+01 -0.46804738738E+01  0.56214353871E+01  0.51100000000E-03 0.  1.
         11    1    1    0    0    0 -0.18418198739E+02 -0.25503823314E+02 -0.47386670358E+02  0.56878568691E+02  0.51100000000E-03 0. -1.
         22    1    1    0    0    0  0.20247989783E+02  0.28022863728E+02  0.52067144232E+02  0.62499995922E+02  0.00000000000E+00 0. -1.
</event>
<event>
 4    1  0.1988088E-002  0.9118800E+02  0.7818608E-02  0.1130116E+00
         25   -1    0    0    0    0  0.00000000000E+00  0.00000000000E+00  0.99999998245E-14  0.12500000000E+03  0.12500000000E+03 0.  0.
        -11    1    1    0    0    0  0.54320902706E+02 -0.14591883478E+02 -0.15638115997E+02  0.58380083988E+02  0.51100000000E-03 0.  1.
         11    1    1    0    0    0  0.38914676556E+01 -0.10126173953E+01 -0.90795408319E+00  0.41222924911E+01  0.51100000000E-03 0. -1.
         22    1    1    0    0    0 -0.58212370362E+02  0.15604500873E+02  0.16546070080E+02  0.62497623521E+02  0.00000000000E+00 0.  1.
</event>
<event>
 4    1  0.1988088E-002  0.9118800E+02  0.7818608E-02  0.1130116E+00
         25   -1    0    0    0    0  0.00000000000E+00  0.00000000000E+00  0.99999998245E-14  0.12500000000E+03  0.12500000000E+03 0.  0.
        -11    1    1    0    0    0  0.11312247423E+01 -0.10477468793E+02 -0.59491643960E+01  0.12101635385E+02  0.51100000000E-03 0. -1.
         11    1    1    0    0    0  0.47161387449E+01 -0.43631494685E+02 -0.24779948912E+02  0.50398364670E+02  0.51100000000E-03 0.  1.
         22    1    1    0    0    0 -0.58473634871E+01  0.54108963478E+02  0.30729113308E+02  0.62499999945E+02  0.00000000000E+00 0.  1.
</event>
<event>
 4    1  0.1988088E-002  0.9118800E+02  0.7818608E-02  0.1130116E+00
         25   -1    0    0    0    0  0.00000000000E+00  0.00000000000E+00  0.99999998245E-14  0.12500000000E+03  0.12500000000E+03 0.  0.
        -11    1    1    0    0    0 -0.23586139019E+02  0.26512194690E+02  0.33748200615E+02  0.48970843020E+02  0.51100000000E-03 0. -1.
         11    1    1    0    0    0 -0.10518448953E+02  0.80335013924E+01  0.47609304184E+01  0.14065609539E+02  0.51100000000E-03 0.  1.
         22    1    1    0    0    0  0.34104587972E+02 -0.34545696082E+02 -0.38509131033E+02  0.61963547441E+02  0.00000000000E+00 0. -1.
</event>
<event>
 4    1  0.1988088E-002  0.9118800E+02  0.7818608E-02  0.1130116E+00
         25   -1    0    0    0    0  0.00000000000E+00  0.00000000000E+00  0.99999998245E-14  0.12500000000E+03  0.12500000000E+03 0.  0.
        -11    1    1    0    0    0 -0.54916950401E+00  0.20457051271E+00  0.23337862400E+00  0.63079480187E+00  0.51100000000E-03 0.  1.
         11    1    1    0    0    0 -0.54376552582E+02  0.24524652414E+02  0.16426899856E+02  0.61871730911E+02  0.51100000000E-03 0. -1.
         22    1    1    0    0    0  0.54925722086E+02 -0.24729222927E+02 -0.16660278480E+02  0.62497474287E+02  0.00000000000E+00 0. -1.
</event>
<event>
 4    1  0.1988088E-002  0.9118800E+02  0.7818608E-02  0.1130116E+00
         25   -1    0    0    0    0  0.00000000000E+00  0.00000000000E+00  0.99999998245E-14  0.12500000000E+03  0.12500000000E+03 0.  0.
        -11    1    1    0    0    0 -0.25298647762E+02 -0.46978798749E+02  0.30144378981E+02  0.61283869777E+02  0.51100000000E-03 0.  1.
         11    1    1    0    0    0 -0.26561231433E+01  0.28466832028E+01 -0.20860301784E+01  0.44170258745E+01  0.51100000000E-03 0. -1.
         22    1    1    0    0    0  0.27954770906E+02  0.44132115546E+02 -0.28058348802E+02  0.59299104348E+02  0.00000000000E+00 0.  1.
</event>
<event>
 4    1  0.1988088E-002  0.9118800E+02  0.7818608E-02  0.1130116E+00
         25   -1    0    0    0    0  0.00000000000E+00  0.00000000000E+00  0.99999998245E-14  0.12500000000E+03  0.12500000000E+03 0.  0.
        -11    1    1    0    0    0  0.12272319349E+02 -0.41356573408E+01  0.86639349140E+01  0.15581310994E+02  0.51100000000E-03 0. -1.
         11    1    1    0    0    0  0.36954714502E+02 -0.12453376898E+02  0.26088807144E+02  0.46918689011E+02  0.51100000000E-03 0. -1.
         22    1    1    0    0    0 -0.49227033851E+02  0.16589034239E+02 -0.34752742058E+02  0.62499999994E+02  0.00000000000E+00 0. -1.
</event>
<event>
 4    1  0.1988088E-002  0.9118800E+02  0.7818608E-02  0.1130116E+00
         25   -1    0    0    0    0  0.00000000000E+00  0.00000000000E+00  0.99999998245E-14  0.12500000000E+03  0.12500000000E+03 0.  0.
        -11    1    1    0    0    0  0.18893175282E+02 -0.10378159627E+02  0.14822106017E+02  0.26160143282E+02  0.51100000000E-03 0. -1.
         11    1    1    0    0    0  0.26244914176E+02 -0.14414883261E+02  0.20591279899E+02  0.36339856737E+02  0.51100000000E-03 0. -1.
         22    1    1    0    0    0 -0.45138089458E+02  0.24793042887E+02 -0.35413385916E+02  0.62499999981E+02  0.00000000000E+00 0. -1.
</event>
<event>
 4    1  0.1988088E-002  0.9118800E+02  0.7818608E-02  0.1130116E+00
         25   -1    0    0    0    0  0.00000000000E+00  0.00000000000E+00  0.99999998245E-14  0.12500000000E+03  0.12500000000E+03 0.  0.
        -11    1    1    0    0    0 -0.17873818126E+02 -0.12108279270E+02 -0.26243925941E+02  0.33982752248E+02  0.51100000000E-03 0.  1.
         11    1    1    0    0    0 -0.15000337824E+02 -0.10159515047E+02 -0.22022886718E+02  0.28517247772E+02  0.51100000000E-03 0. -1.
         22    1    1    0    0    0  0.32874155950E+02  0.22267794317E+02  0.48266812660E+02  0.62499999980E+02  0.00000000000E+00 0. -1.
</event>
<event>
 4    1  0.1988088E-002  0.9118800E+02  0.7818608E-02  0.1130116E+00
         25   -1    0    0    0    0  0.00000000000E+00  0.00000000000E+00  0.99999998245E-14  0.12500000000E+03  0.12500000000E+03 0.  0.
        -11    1    1    0    0    0 -0.11869532069E+02 -0.12504512045E+02  0.26933451426E+02  0.31979046562E+02  0.51100000000E-03 0.  1.
         11    1    1    0    0    0 -0.11327120233E+02 -0.11940217190E+02  0.25703232673E+02  0.30520953612E+02  0.51100000000E-03 0. -1.
         22    1    1    0    0    0  0.23196652302E+02  0.24444729234E+02 -0.52636684099E+02  0.62499999826E+02  0.00000000000E+00 0. -1.
</event>
<event>
 4    1  0.1988088E-002  0.9118800E+02  0.7818608E-02  0.1130116E+00
         25   -1    0    0    0    0  0.00000000000E+00  0.00000000000E+00  0.99999998245E-14  0.12500000000E+03  0.12500000000E+03 0.  0.
        -11    1    1    0    0    0  0.47161192600E+01 -0.51146475290E+01  0.19395455352E+01  0.72224121569E+01  0.51100000000E-03 0. -1.
         11    1    1    0    0    0  0.48678868518E+02 -0.20160736364E+02  0.17607114490E+02  0.55552659809E+02  0.51100000000E-03 0.  1.
         22    1    1    0    0    0 -0.53394987778E+02  0.25275383893E+02 -0.19546660025E+02  0.62224928034E+02  0.00000000000E+00 0.  1.
</event>
<event>
 4    1  0.1988088E-002  0.9118800E+02  0.7818608E-02  0.1130116E+00
         25   -1    0    0    0    0  0.00000000000E+00  0.00000000000E+00  0.99999998245E-14  0.12500000000E+03  0.12500000000E+03 0.  0.
        -11    1    1    0    0    0 -0.20269880669E+02 -0.16178263847E+02 -0.34887587343E+01  0.26168219679E+02  0.51100000000E-03 0. -1.
         11    1    1    0    0    0 -0.28008481088E+02 -0.22827821931E+02 -0.38289936941E+01  0.36335184876E+02  0.51100000000E-03 0.  1.
         22    1    1    0    0    0  0.48278361756E+02  0.39006085778E+02  0.73177524284E+01  0.62496595445E+02  0.00000000000E+00 0. -1.
</event>
<event>
 4    1  0.1988088E-002  0.9118800E+02  0.7818608E-02  0.1130116E+00
         25   -1    0    0    0    0  0.00000000000E+00  0.00000000000E+00  0.99999998245E-14  0.12500000000E+03  0.12500000000E+03 0.  0.
        -11    1    1    0    0    0 -0.16830447228E+01 -0.35914531567E+00 -0.35331232466E+00  0.17568308844E+01  0.51100000000E-03 0. -1.
         11    1    1    0    0    0 -0.58223714458E+02 -0.12412073170E+02 -0.12069483372E+02  0.60743171755E+02  0.51100000000E-03 0.  1.
         22    1    1    0    0    0  0.59906759181E+02  0.12771218485E+02  0.12422795697E+02  0.62499997361E+02  0.00000000000E+00 0.  1.
</event>
<event>
 4    1  0.1988088E-002  0.9118800E+02  0.7818608E-02  0.1130116E+00
         25   -1    0    0    0    0  0.00000000000E+00  0.00000000000E+00  0.99999998245E-14  0.12500000000E+03  0.12500000000E+03 0.  0.
        -11    1    1    0    0    0 -0.42260182973E+02 -0.42778673742E+02 -0.13862848423E+02  0.61709938897E+02  0.51100000000E-03 0.  1.
         11    1    1    0    0    0 -0.49174539419E+00  0.54273598743E+00  0.18702639508E+01  0.20085475826E+01  0.51100000000E-03 0. -1.
         22    1    1    0    0    0  0.42751928367E+02  0.42235937754E+02  0.11992584472E+02  0.61281513521E+02  0.00000000000E+00 0.  1.
</event>
<event>
 4    1  0.1988088E-002  0.9118800E+02  0.7818608E-02  0.1130116E+00
         25   -1    0    0    0    0  0.00000000000E+00  0.00000000000E+00  0.99999998245E-14  0.12500000000E+03  0.12500000000E+03 0.  0.
        -11    1    1    0    0    0 -0.17476653528E+02  0.21104230969E+02  0.18471079988E+02  0.33045465340E+02  0.51100000000E-03 0.  1.
         11    1    1    0    0    0 -0.15579179342E+02  0.18805869771E+02  0.16468092096E+02  0.29454534869E+02  0.51100000000E-03 0. -1.
         22    1    1    0    0    0  0.33055832870E+02 -0.39910100741E+02 -0.34939172084E+02  0.62499999790E+02  0.00000000000E+00 0. -1.
</event>
<event>
 4    1  0.1988088E-002  0.9118800E+02  0.7818608E-02  0.1130116E+00
         25   -1    0    0    0    0  0.00000000000E+00  0.00000000000E+00  0.99999998245E-14  0.12500000000E+03  0.12500000000E+03 0.  0.
        -11    1    1    0    0    0  0.27733212499E+02 -0.95184773691E+01  0.44984936633E+02  0.53697085685E+02  0.51100000000E-03 0. -1.
         11    1    1    0    0    0  0.45460801432E+01 -0.15603646397E+01  0.73749385054E+01  0.88029143298E+01  0.51100000000E-03 0. -1.
         22    1    1    0    0    0 -0.32279292642E+02  0.11078842009E+02 -0.52359875138E+02  0.62499999986E+02  0.00000000000E+00 0. -1.
</event>
<event>
 4    1  0.1988088E-002  0.9118800E+02  0.7818608E-02  0.1130116E+00
         25   -1    0    0    0    0  0.00000000000E+00  0.00000000000E+00  0.99999998245E-14  0.12500000000E+03  0.12500000000E+03 0.  0.
        -11    1    1    0    0    0 -0.11245808788E+02  0.36602399324E+01  0.62443401820E+01  0.13373756250E+02  0.51100000000E-03 0. -1.
         11    1    1    0    0    0 -0.34974860487E+02  0.59423971624E+01 -0.40094900918E+02  0.53536473829E+02  0.51100000000E-03 0.  1.
         22    1    1    0    0    0  0.46220669275E+02 -0.96026370948E+01  0.33850560736E+02  0.58089769922E+02  0.00000000000E+00 0.  1.
</event>
<event>
 4    1  0.1988088E-002  0.9118800E+02  0.7818608E-02  0.1130116E+00
         25   -1    0    0    0    0  0.00000000000E+00  0.00000000000E+00  0.99999998245E-14  0.12500000000E+03  0.12500000000E+03 0.  0.
        -11    1    1    0    0    0  0.12538231861E+02 -0.28903650008E+02  0.93002833491E+01  0.32850015413E+02  0.51100000000E-03 0.  1.
         11    1    1    0    0    0  0.11309972437E+02 -0.26089334137E+02  0.83995698637E+01  0.29649984931E+02  0.51100000000E-03 0. -1.
         22    1    1    0    0    0 -0.23848204298E+02  0.54992984144E+02 -0.17699853213E+02  0.62499999657E+02  0.00000000000E+00 0. -1.
</event>
<event>
 4    1  0.1988088E-002  0.9118800E+02  0.7818608E-02  0.1130116E+00
         25   -1    0    0    0    0  0.00000000000E+00  0.00000000000E+00  0.99999998245E-14  0.12500000000E+03  0.12500000000E+03 0.  0.
        -11    1    1    0    0    0  0.23431243151E+02 -0.91876283877E+00 -0.15895679478E+02  0.28329135304E+02  0.51100000000E-03 0. -1.
         11    1    1    0    0    0  0.28225143975E+02 -0.94304122103E+00 -0.19238174820E+02  0.34170973791E+02  0.51100000000E-03 0.  1.
         22    1    1    0    0    0 -0.51656387126E+02  0.18618040598E+01  0.35133854298E+02  0.62499890905E+02  0.00000000000E+00 0.  1.
</event>
<event>
 4    1  0.1988088E-002  0.9118800E+02  0.7818608E-02  0.1130116E+00
         25   -1    0    0    0    0  0.00000000000E+00  0.00000000000E+00  0.99999998245E-14  0.12500000000E+03  0.12500000000E+03 0.  0.
        -11    1    1    0    0    0  0.61620168446E+01 -0.32400973122E+02 -0.29638519019E+01  0.33114618059E+02  0.51100000000E-03 0. -1.
         11    1    1    0    0    0  0.55922820049E+01 -0.28390357228E+02 -0.53057328074E+01  0.29418307267E+02  0.51100000000E-03 0.  1.
         22    1    1    0    0    0 -0.11754298850E+02  0.60791330350E+02  0.82695847093E+01  0.62467074674E+02  0.00000000000E+00 0.  1.
</event>
<event>
 4    1  0.1988088E-002  0.9118800E+02  0.7818608E-02  0.1130116E+00
         25   -1    0    0    0    0  0.00000000000E+00  0.00000000000E+00  0.99999998245E-14  0.12500000000E+03  0.12500000000E+03 0.  0.
        -11    1    1    0    0    0  0.34097481596E+02 -0.27921433691E+02  0.42591446163E+02  0.61288465449E+02  0.51100000000E-03 0. -1.
         11    1    1    0    0    0  0.50730624459E+00 -0.50686445342E+00  0.98938631415E+00  0.12219479284E+01  0.51100000000E-03 0.  1.
         22    1    1    0    0    0 -0.34604787841E+02  0.28428298144E+02 -0.43580832477E+02  0.62489586623E+02  0.00000000000E+00 0. -1.
</event>
<event>
 4    1  0.1988088E-002  0.9118800E+02  0.7818608E-02  0.1130116E+00
         25   -1    0    0    0    0  0.00000000000E+00  0.00000000000E+00  0.99999998245E-14  0.12500000000E+03  0.12500000000E+03 0.  0.
        -11    1    1    0    0    0  0.15364092837E+00  0.49596017377E+00  0.73476697072E+00  0.89970261265E+00  0.51100000000E-03 0. -1.
         11    1    1    0    0    0  0.12179150730E+02  0.32257146007E+02  0.51046900281E+02  0.61600659165E+02  0.51100000000E-03 0.  1.
         22    1    1    0    0    0 -0.12332791658E+02 -0.32753106181E+02 -0.51781667252E+02  0.62499638222E+02  0.00000000000E+00 0.  1.
</event>
<event>
 4    1  0.1988088E-002  0.9118800E+02  0.7818608E-02  0.1130116E+00
         25   -1    0    0    0    0  0.00000000000E+00  0.00000000000E+00  0.99999998245E-14  0.12500000000E+03  0.12500000000E+03 0.  0.
        -11    1    1    0    0    0  0.47484842658E+01  0.10488038070E+02 -0.91008280093E+01  0.14675561866E+02  0.51100000000E-03 0. -1.
         11    1    1    0    0    0  0.15498402566E+02  0.34207523717E+02 -0.29611182759E+02  0.47824442554E+02  0.51100000000E-03 0.  1.
         22    1    1    0    0    0 -0.20246886832E+02 -0.44695561786E+02  0.38712010768E+02  0.62499995580E+02  0.00000000000E+00 0.  1.
</event>
<event>
 4    1  0.1988088E-002  0.9118800E+02  0.7818608E-02  0.1130116E+00
         25   -1    0    0    0    0  0.00000000000E+00  0.00000000000E+00  0.99999998245E-14  0.12500000000E+03  0.12500000000E+03 0.  0.
        -11    1    1    0    0    0  0.42024699822E+02  0.13778754196E+02  0.30776367689E+02  0.53880555590E+02  0.51100000000E-03 0.  1.
         11    1    1    0    0    0  0.67231252143E+01  0.22036480595E+01  0.49232453324E+01  0.86194444300E+01  0.51100000000E-03 0. -1.
         22    1    1    0    0    0 -0.48747825036E+02 -0.15982402255E+02 -0.35699613022E+02  0.62499999980E+02  0.00000000000E+00 0.  1.
</event>
<event>
 4    1  0.1988088E-002  0.9118800E+02  0.7818608E-02  0.1130116E+00
         25   -1    0    0    0    0  0.00000000000E+00  0.00000000000E+00  0.99999998245E-14  0.12500000000E+03  0.12500000000E+03 0.  0.
        -11    1    1    0    0    0 -0.22676557438E+02  0.15156282640E+02  0.46607772355E+01  0.27670598212E+02  0.51100000000E-03 0.  1.
         11    1    1    0    0    0 -0.28538361399E+02  0.19084037355E+02  0.58693008549E+01  0.34829402032E+02  0.51100000000E-03 0. -1.
         22    1    1    0    0    0  0.51214918838E+02 -0.34240319995E+02 -0.10530078090E+02  0.62499999756E+02  0.00000000000E+00 0. -1.
</event>
<event>
 4    1  0.1988088E-002  0.9118800E+02  0.7818608E-02  0.1130116E+00
         25   -1    0    0    0    0  0.00000000000E+00  0.00000000000E+00  0.99999998245E-14  0.12500000000E+03  0.12500000000E+03 0.  0.
        -11    1    1    0    0    0 -0.14407772316E+01 -0.50801534118E+01  0.67450662104E+01  0.85661961314E+01  0.51100000000E-03 0. -1.
         11    1    1    0    0    0 -0.93715316944E+01 -0.31730815542E+02  0.42593387215E+02  0.53933912300E+02  0.51100000000E-03 0.  1.
         22    1    1    0    0    0  0.10812308926E+02  0.36810968954E+02 -0.49338453426E+02  0.62499891568E+02  0.00000000000E+00 0.  1.
</event>
<event>
 4    1  0.1988088E-002  0.9118800E+02  0.7818608E-02  0.1130116E+00
         25   -1    0    0    0    0  0.00000000000E+00  0.00000000000E+00  0.99999998245E-14  0.12500000000E+03  0.12500000000E+03 0.  0.
        -11    1    1    0    0    0 -0.40297073427E+01  0.12543129247E+02 -0.96541341536E+00  0.13209869640E+02  0.51100000000E-03 0.  1.
         11    1    1    0    0    0 -0.15037827901E+02  0.46801860330E+02 -0.36009100906E+01  0.49290130372E+02  0.51100000000E-03 0.  1.
         22    1    1    0    0    0  0.19067535244E+02 -0.59344989577E+02  0.45663235060E+01  0.62499999988E+02  0.00000000000E+00 0.  1.
</event>
<event>
 4    1  0.1988088E-002  0.9118800E+02  0.7818608E-02  0.1130116E+00
         25   -1    0    0    0    0  0.00000000000E+00  0.00000000000E+00  0.99999998245E-14  0.12500000000E+03  0.12500000000E+03 0.  0.
        -11    1    1    0    0    0  0.88670624340E+00  0.21660446250E+01  0.13887515961E+02  0.14083362422E+02  0.51100000000E-03 0.  1.
         11    1    1    0    0    0 -0.47400619766E+02  0.26545352091E+02 -0.14582844919E+02  0.56250634112E+02  0.51100000000E-03 0. -1.
         22    1    1    0    0    0  0.46513913522E+02 -0.28711396716E+02  0.69532895811E+00  0.54666003466E+02  0.00000000000E+00 0. -1.
</event>
<event>
 4    1  0.1988088E-002  0.9118800E+02  0.7818608E-02  0.1130116E+00
         25   -1    0    0    0    0  0.00000000000E+00  0.00000000000E+00  0.99999998245E-14  0.12500000000E+03  0.12500000000E+03 0.  0.
        -11    1    1    0    0    0 -0.51263603274E+02 -0.48873399561E+01 -0.14041467496E+02  0.53376080056E+02  0.51100000000E-03 0.  1.
         11    1    1    0    0    0 -0.87727503704E+01 -0.96889443487E+00 -0.23144754380E+01  0.91245110719E+01  0.51100000000E-03 0. -1.
         22    1    1    0    0    0  0.60036353644E+02  0.58562343910E+01  0.16355942934E+02  0.62499408872E+02  0.00000000000E+00 0. -1.
</event>
<event>
 4    1  0.1988088E-002  0.9118800E+02  0.7818608E-02  0.1130116E+00
         25   -1    0    0    0    0  0.00000000000E+00  0.00000000000E+00  0.99999998245E-14  0.12500000000E+03  0.12500000000E+03 0.  0.
        -11    1    1    0    0    0 -0.68314503449E+00  0.39041662296E+00  0.25728241586E+00  0.82783257985E+00  0.51100000000E-03 0.  1.
         11    1    1    0    0    0 -0.50872190117E+02  0.29103776524E+02  0.19194965978E+02  0.61672167584E+02  0.51100000000E-03 0.  1.
         22    1    1    0    0    0  0.51555335152E+02 -0.29494193147E+02 -0.19452248394E+02  0.62499999837E+02  0.00000000000E+00 0.  1.
</event>
<event>
 4    1  0.1988088E-002  0.9118800E+02  0.7818608E-02  0.1130116E+00
         25   -1    0    0    0    0  0.00000000000E+00  0.00000000000E+00  0.99999998245E-14  0.12500000000E+03  0.12500000000E+03 0.  0.
        -11    1    1    0    0    0  0.36923802229E+02  0.23124576724E+02  0.34077294123E+02  0.55311618985E+02  0.51100000000E-03 0.  1.
         11    1    1    0    0    0  0.47886309786E+01  0.30212398162E+01  0.44287810744E+01  0.71883919441E+01  0.51100000000E-03 0. -1.
         22    1    1    0    0    0 -0.41712433208E+02 -0.26145816541E+02 -0.38506075198E+02  0.62499989071E+02  0.00000000000E+00 0.  1.
</event>
<event>
 4    1  0.1988088E-002  0.9118800E+02  0.7818608E-02  0.1130116E+00
         25   -1    0    0    0    0  0.00000000000E+00  0.00000000000E+00  0.99999998245E-14  0.12500000000E+03  0.12500000000E+03 0.  0.
        -11    1    1    0    0    0 -0.13208404716E+02 -0.17872325142E+02 -0.28854577933E+02  0.36420717031E+02  0.51100000000E-03 0. -1.
         11    1    1    0    0    0 -0.94995296141E+01 -0.13893785690E+02 -0.19933781493E+02  0.26088962964E+02  0.51100000000E-03 0.  1.
         22    1    1    0    0    0  0.22707934330E+02  0.31766110832E+02  0.48788359425E+02  0.62490320005E+02  0.00000000000E+00 0. -1.
</event>
<event>
 4    1  0.1988088E-002  0.9118800E+02  0.7818608E-02  0.1130116E+00
         25   -1    0    0    0    0  0.00000000000E+00  0.00000000000E+00  0.99999998245E-14  0.12500000000E+03  0.12500000000E+03 0.  0.
        -11    1    1    0    0    0  0.14283273061E+02  0.13858806442E+02 -0.58471922715E+01  0.20742903920E+02  0.51100000000E-03 0. -1.
         11    1    1    0    0    0  0.28752991245E+02  0.27898054302E+02 -0.11773662776E+02  0.41757096102E+02  0.51100000000E-03 0.  1.
         22    1    1    0    0    0 -0.43036264306E+02 -0.41756860744E+02  0.17620855047E+02  0.62499999978E+02  0.00000000000E+00 0.  1.
</event>
<event>
 4    1  0.1988088E-002  0.9118800E+02  0.7818608E-02  0.1130116E+00
         25   -1    0    0    0    0  0.00000000000E+00  0.00000000000E+00  0.99999998245E-14  0.12500000000E+03  0.12500000000E+03 0.  0.
        -11    1    1    0    0    0  0.43720017421E+02 -0.23658385646E+02 -0.32269380360E+02  0.59266112102E+02  0.51100000000E-03 0. -1.
         11    1    1    0    0    0 -0.41085141643E+01  0.11874452028E+02  0.18122673386E+02  0.22052523450E+02  0.51100000000E-03 0.  1.
         22    1    1    0    0    0 -0.39611503257E+02  0.11783933617E+02  0.14146706974E+02  0.43681364447E+02  0.00000000000E+00 0. -1.
</event>
<event>
 4    1  0.1988088E-002  0.9118800E+02  0.7818608E-02  0.1130116E+00
         25   -1    0    0    0    0  0.00000000000E+00  0.00000000000E+00  0.99999998245E-14  0.12500000000E+03  0.12500000000E+03 0.  0.
        -11    1    1    0    0    0 -0.26125196760E+02 -0.39641245119E+02  0.28924052314E+02  0.55592760525E+02  0.51100000000E-03 0. -1.
         11    1    1    0    0    0 -0.24036048120E+01 -0.48765039556E+01  0.43252616446E+01  0.69473372941E+01  0.51100000000E-03 0.  1.
         22    1    1    0    0    0  0.28528801572E+02  0.44517749074E+02 -0.33249313958E+02  0.62459902181E+02  0.00000000000E+00 0. -1.
</event>
<event>
 4    1  0.1988088E-002  0.9118800E+02  0.7818608E-02  0.1130116E+00
         25   -1    0    0    0    0  0.00000000000E+00  0.00000000000E+00  0.99999998245E-14  0.12500000000E+03  0.12500000000E+03 0.  0.
        -11    1    1    0    0    0  0.41480312243E+02  0.13990308377E+02  0.27428220776E+02  0.51659000450E+02  0.51100000000E-03 0. -1.
         11    1    1    0    0    0  0.86262804124E+01  0.29211737752E+01  0.58813640374E+01  0.10841421179E+02  0.51100000000E-03 0.  1.
         22    1    1    0    0    0 -0.50106592655E+02 -0.16911482153E+02 -0.33309584813E+02  0.62499578371E+02  0.00000000000E+00 0. -1.
</event>
<event>
 4    1  0.1988088E-002  0.9118800E+02  0.7818608E-02  0.1130116E+00
         25   -1    0    0    0    0  0.00000000000E+00  0.00000000000E+00  0.99999998245E-14  0.12500000000E+03  0.12500000000E+03 0.  0.
        -11    1    1    0    0    0  0.32873121117E+01  0.28197122307E+01 -0.25419923082E+01  0.50218445953E+01  0.51100000000E-03 0.  1.
         11    1    1    0    0    0  0.37014274696E+02  0.35355671057E+02 -0.26161055423E+02  0.57484613839E+02  0.51100000000E-03 0. -1.
         22    1    1    0    0    0 -0.40301586807E+02 -0.38175383287E+02  0.28703047731E+02  0.62493541566E+02  0.00000000000E+00 0. -1.
</event>
<event>
 4    1  0.1988088E-002  0.9118800E+02  0.7818608E-02  0.1130116E+00
         25   -1    0    0    0    0  0.00000000000E+00  0.00000000000E+00  0.99999998245E-14  0.12500000000E+03  0.12500000000E+03 0.  0.
        -11    1    1    0    0    0 -0.16734928539E+02  0.19333241150E+02 -0.21969858195E+02  0.33712115270E+02  0.51100000000E-03 0.  1.
         11    1    1    0    0    0 -0.96725773475E+01  0.17551739063E+02 -0.20840893219E+02  0.28913061531E+02  0.51100000000E-03 0. -1.
         22    1    1    0    0    0  0.26407505887E+02 -0.36884980213E+02  0.42810751414E+02  0.62374823199E+02  0.00000000000E+00 0.  1.
</event>
<event>
 4    1  0.1988088E-002  0.9118800E+02  0.7818608E-02  0.1130116E+00
         25   -1    0    0    0    0  0.00000000000E+00  0.00000000000E+00  0.99999998245E-14  0.12500000000E+03  0.12500000000E+03 0.  0.
        -11    1    1    0    0    0  0.30185322133E+01 -0.83955711547E+01 -0.24639873323E+01  0.92557217748E+01  0.51100000000E-03 0.  1.
         11    1    1    0    0    0  0.17321957415E+02 -0.48292522540E+02 -0.14238527383E+02  0.53244282362E+02  0.51100000000E-03 0. -1.
         22    1    1    0    0    0 -0.20340489628E+02  0.56688093695E+02  0.16702514716E+02  0.62499995863E+02  0.00000000000E+00 0. -1.
</event>
<event>
 4    1  0.1988088E-002  0.9118800E+02  0.7818608E-02  0.1130116E+00
         25   -1    0    0    0    0  0.00000000000E+00  0.00000000000E+00  0.99999998245E-14  0.12500000000E+03  0.12500000000E+03 0.  0.
        -11    1    1    0    0    0  0.90431706785E+01 -0.29573810703E+02 -0.24632694500E+02  0.39536803792E+02  0.51100000000E-03 0.  1.
         11    1    1    0    0    0  0.52519561420E+01 -0.17179342418E+02 -0.14303689603E+02  0.22963196331E+02  0.51100000000E-03 0.  1.
         22    1    1    0    0    0 -0.14295126820E+02  0.46753153122E+02  0.38936384103E+02  0.62499999877E+02  0.00000000000E+00 0.  1.
</event>
<event>
 4    1  0.1988088E-002  0.9118800E+02  0.7818608E-02  0.1130116E+00
         25   -1    0    0    0    0  0.00000000000E+00  0.00000000000E+00  0.99999998245E-14  0.12500000000E+03  0.12500000000E+03 0.  0.
        -11    1    1    0    0    0 -0.11822728529E+00 -0.30164153768E+01  0.68061942213E-01  0.30194986513E+01  0.51100000000E-03 0.  1.
         11    1    1    0    0    0 -0.10738007520E+01 -0.59394912810E+02 -0.30875739073E+01  0.59484803342E+02  0.51100000000E-03 0. -1.
         22    1    1    0    0    0  0.11920280373E+01  0.62411328187E+02  0.30195119651E+01  0.62495698007E+02  0.00000000000E+00 0. -1.
</event>
<event>
 4    1  0.1988088E-002  0.9118800E+02  0.7818608E-02  0.1130116E+00
         25   -1    0    0    0    0  0.00000000000E+00  0.00000000000E+00  0.99999998245E-14  0.12500000000E+03  0.12500000000E+03 0.  0.
        -11    1    1    0    0    0  0.42342938417E+01  0.94164056667E+00 -0.19069490846E+02  0.19556620687E+02  0.51100000000E-03 0.  1.
         11    1    1    0    0    0  0.92945410940E+01  0.20723799054E+01 -0.41874223331E+02  0.42943379379E+02  0.51100000000E-03 0. -1.
         22    1    1    0    0    0 -0.13528834936E+02 -0.30140204720E+01  0.60943714177E+02  0.62499999935E+02  0.00000000000E+00 0. -1.
</event>
<event>
 4    1  0.1988088E-002  0.9118800E+02  0.7818608E-02  0.1130116E+00
         25   -1    0    0    0    0  0.00000000000E+00  0.00000000000E+00  0.99999998245E-14  0.12500000000E+03  0.12500000000E+03 0.  0.
        -11    1    1    0    0    0  0.23689153059E+01  0.49200777986E+01  0.11799920833E+02  0.13002194323E+02  0.51100000000E-03 0. -1.
         11    1    1    0    0    0  0.36057184545E+02 -0.14910200755E+02  0.33738104138E+02  0.51581918489E+02  0.51100000000E-03 0.  1.
         22    1    1    0    0    0 -0.38426099851E+02  0.99901229566E+01 -0.45538024971E+02  0.60415887188E+02  0.00000000000E+00 0.  1.
</event>
<event>
 4    1  0.1988088E-002  0.9118800E+02  0.7818608E-02  0.1130116E+00
         25   -1    0    0    0    0  0.00000000000E+00  0.00000000000E+00  0.99999998245E-14  0.12500000000E+03  0.12500000000E+03 0.  0.
        -11    1    1    0    0    0  0.13870945754E+01 -0.83978604292E+01 -0.52254693067E+02  0.52943375779E+02  0.51100000000E-03 0. -1.
         11    1    1    0    0    0 -0.16816793195E+01 -0.43814998070E+01 -0.86412863009E+01  0.98334843818E+01  0.51100000000E-03 0.  1.
         22    1    1    0    0    0  0.29458474418E+00  0.12779360236E+02  0.60895979368E+02  0.62223139839E+02  0.00000000000E+00 0. -1.
</event>
<event>
 4    1  0.1988088E-002  0.9118800E+02  0.7818608E-02  0.1130116E+00
         25   -1    0    0    0    0  0.00000000000E+00  0.00000000000E+00  0.99999998245E-14  0.12500000000E+03  0.12500000000E+03 0.  0.
        -11    1    1    0    0    0  0.22362971028E+02  0.41513465054E+02  0.95675589225E+01  0.48114534582E+02  0.51100000000E-03 0.  1.
         11    1    1    0    0    0  0.70868056720E+01  0.12033820460E+02  0.34892640692E+01  0.14394812035E+02  0.51100000000E-03 0. -1.
         22    1    1    0    0    0 -0.29449776700E+02 -0.53547285515E+02 -0.13056822992E+02  0.62490653384E+02  0.00000000000E+00 0.  1.
</event>
<event>
 4    1  0.1988088E-002  0.9118800E+02  0.7818608E-02  0.1130116E+00
         25   -1    0    0    0    0  0.00000000000E+00  0.00000000000E+00  0.99999998245E-14  0.12500000000E+03  0.12500000000E+03 0.  0.
        -11    1    1    0    0    0  0.45044289935E+01  0.15654863955E+01  0.69832385750E+00  0.48195730810E+01  0.51100000000E-03 0.  1.
         11    1    1    0    0    0  0.53912168895E+02  0.18728197208E+02  0.83525043485E+01  0.57680426964E+02  0.51100000000E-03 0. -1.
         22    1    1    0    0    0 -0.58416597889E+02 -0.20293683603E+02 -0.90508282060E+01  0.62499999955E+02  0.00000000000E+00 0. -1.
</event>
<event>
 4    1  0.1988088E-002  0.9118800E+02  0.7818608E-02  0.1130116E+00
         25   -1    0    0    0    0  0.00000000000E+00  0.00000000000E+00  0.99999998245E-14  0.12500000000E+03  0.12500000000E+03 0.  0.
        -11    1    1    0    0    0  0.21672156110E+01 -0.36245992186E+02 -0.47870017527E+02  0.60083336720E+02  0.51100000000E-03 0.  1.
         11    1    1    0    0    0  0.40145756544E+00 -0.13148585350E+01 -0.20026223620E+01  0.24290981309E+01  0.51100000000E-03 0. -1.
         22    1    1    0    0    0 -0.25686731765E+01  0.37560850722E+02  0.49872639889E+02  0.62487565149E+02  0.00000000000E+00 0.  1.
</event>
<event>
 4    1  0.1988088E-002  0.9118800E+02  0.7818608E-02  0.1130116E+00
         25   -1    0    0    0    0  0.00000000000E+00  0.00000000000E+00  0.99999998245E-14  0.12500000000E+03  0.12500000000E+03 0.  0.
        -11    1    1    0    0    0 -0.63715192143E+01  0.56410207677E+02 -0.17866127690E+02  0.59513916912E+02  0.51100000000E-03 0. -1.
         11    1    1    0    0    0 -0.12485161882E+00  0.26189718368E+01 -0.15022902087E+01  0.30218334734E+01  0.51100000000E-03 0.  1.
         22    1    1    0    0    0  0.64963708331E+01 -0.59029179514E+02  0.19368417898E+02  0.62464249615E+02  0.00000000000E+00 0. -1.
</event>
<event>
 4    1  0.1988088E-002  0.9118800E+02  0.7818608E-02  0.1130116E+00
         25   -1    0    0    0    0  0.00000000000E+00  0.00000000000E+00  0.99999998245E-14  0.12500000000E+03  0.12500000000E+03 0.  0.
        -11    1    1    0    0    0  0.47003999226E+02 -0.10660357256E+02  0.35942014709E+02  0.60123602534E+02  0.51100000000E-03 0.  1.
         11    1    1    0    0    0 -0.14814376388E+01 -0.49991370070E+01 -0.80311589075E+00  0.52755116991E+01  0.51100000000E-03 0. -1.
         22    1    1    0    0    0 -0.45522561588E+02  0.15659494263E+02 -0.35138898818E+02  0.59600885767E+02  0.00000000000E+00 0.  1.
</event>
<event>
 4    1  0.1988088E-002  0.9118800E+02  0.7818608E-02  0.1130116E+00
         25   -1    0    0    0    0  0.00000000000E+00  0.00000000000E+00  0.99999998245E-14  0.12500000000E+03  0.12500000000E+03 0.  0.
        -11    1    1    0    0    0  0.37392331697E+01 -0.62723620083E-01  0.15312039638E+02  0.15762117786E+02  0.51100000000E-03 0. -1.
         11    1    1    0    0    0  0.10784746243E+02  0.10175046637E+01  0.45467332122E+02  0.46739965317E+02  0.51100000000E-03 0.  1.
         22    1    1    0    0    0 -0.14523979413E+02 -0.95478104363E+00 -0.60779371761E+02  0.62497916897E+02  0.00000000000E+00 0.  1.
</event>
<event>
 4    1  0.1988088E-002  0.9118800E+02  0.7818608E-02  0.1130116E+00
         25   -1    0    0    0    0  0.00000000000E+00  0.00000000000E+00  0.99999998245E-14  0.12500000000E+03  0.12500000000E+03 0.  0.
        -11    1    1    0    0    0  0.97978731421E+01 -0.20514831815E+02 -0.22313713547E+02  0.31855273583E+02  0.51100000000E-03 0.  1.
         11    1    1    0    0    0  0.15082915312E+02 -0.22499967557E+02 -0.15035981856E+02  0.30981020400E+02  0.51100000000E-03 0. -1.
         22    1    1    0    0    0 -0.24880788454E+02  0.43014799372E+02  0.37349695403E+02  0.62163706017E+02  0.00000000000E+00 0.  1.
</event>
<event>
 4    1  0.1988088E-002  0.9118800E+02  0.7818608E-02  0.1130116E+00
         25   -1    0    0    0    0  0.00000000000E+00  0.00000000000E+00  0.99999998245E-14  0.12500000000E+03  0.12500000000E+03 0.  0.
        -11    1    1    0    0    0 -0.10825425722E+02 -0.37335497928E+02  0.27096709261E+02  0.47385239270E+02  0.51100000000E-03 0. -1.
         11    1    1    0    0    0 -0.34531434558E+01 -0.11908584186E+02  0.86439235942E+01  0.15114760746E+02  0.51100000000E-03 0. -1.
         22    1    1    0    0    0  0.14278569178E+02  0.49244082115E+02 -0.35740632856E+02  0.62499999984E+02  0.00000000000E+00 0. -1.
</event>
<event>
 4    1  0.1988088E-002  0.9118800E+02  0.7818608E-02  0.1130116E+00
         25   -1    0    0    0    0  0.00000000000E+00  0.00000000000E+00  0.99999998245E-14  0.12500000000E+03  0.12500000000E+03 0.  0.
        -11    1    1    0    0    0 -0.51178613905E+02 -0.74043901095E+01 -0.31263305657E+02  0.60427392753E+02  0.51100000000E-03 0.  1.
         11    1    1    0    0    0  0.94193508693E+01  0.30279410639E+01 -0.30432218696E+01  0.10351511846E+02  0.51100000000E-03 0. -1.
         22    1    1    0    0    0  0.41759263036E+02  0.43764490456E+01  0.34306527527E+02  0.54221095401E+02  0.00000000000E+00 0.  1.
</event>
<event>
 4    1  0.1988088E-002  0.9118800E+02  0.7818608E-02  0.1130116E+00
         25   -1    0    0    0    0  0.00000000000E+00  0.00000000000E+00  0.99999998245E-14  0.12500000000E+03  0.12500000000E+03 0.  0.
        -11    1    1    0    0    0  0.14053769797E+02  0.75099008283E+01  0.67753052670E+01  0.17315074868E+02  0.51100000000E-03 0. -1.
         11    1    1    0    0    0  0.36467587321E+02  0.19787591584E+02  0.17895839948E+02  0.45185116946E+02  0.51100000000E-03 0.  1.
         22    1    1    0    0    0 -0.50521357118E+02 -0.27297492413E+02 -0.24671145215E+02  0.62499808186E+02  0.00000000000E+00 0.  1.
</event>
<event>
 4    1  0.1988088E-002  0.9118800E+02  0.7818608E-02  0.1130116E+00
         25   -1    0    0    0    0  0.00000000000E+00  0.00000000000E+00  0.99999998245E-14  0.12500000000E+03  0.12500000000E+03 0.  0.
        -11    1    1    0    0    0 -0.40042206980E+02  0.10228047878E+02  0.40499195231E+02  0.57863426427E+02  0.51100000000E-03 0. -1.
         11    1    1    0    0    0 -0.34269265788E+01  0.28099921516E+00  0.31364010012E+01  0.46540087920E+01  0.51100000000E-03 0.  1.
         22    1    1    0    0    0  0.43469133559E+02 -0.10509047093E+02 -0.43635596232E+02  0.62482564781E+02  0.00000000000E+00 0. -1.
</event>
<event>
 4    1  0.1988088E-002  0.9118800E+02  0.7818608E-02  0.1130116E+00
         25   -1    0    0    0    0  0.00000000000E+00  0.00000000000E+00  0.99999998245E-14  0.12500000000E+03  0.12500000000E+03 0.  0.
        -11    1    1    0    0    0 -0.96221924208E+01 -0.35260199696E+02  0.18902441365E+02  0.41148153779E+02  0.51100000000E-03 0.  1.
         11    1    1    0    0    0 -0.49843738179E+01 -0.18301320382E+02  0.98040331121E+01  0.21351847124E+02  0.51100000000E-03 0. -1.
         22    1    1    0    0    0  0.14606566239E+02  0.53561520078E+02 -0.28706474477E+02  0.62499999098E+02  0.00000000000E+00 0. -1.
</event>
<event>
 4    1  0.1988088E-002  0.9118800E+02  0.7818608E-02  0.1130116E+00
         25   -1    0    0    0    0  0.00000000000E+00  0.00000000000E+00  0.99999998245E-14  0.12500000000E+03  0.12500000000E+03 0.  0.
        -11    1    1    0    0    0  0.10565883280E+02 -0.44973071111E+01 -0.24748926135E+01  0.11746861472E+02  0.51100000000E-03 0.  1.
         11    1    1    0    0    0  0.45651857125E+02 -0.19427784168E+02 -0.10693466009E+02  0.50753138546E+02  0.51100000000E-03 0.  1.
         22    1    1    0    0    0 -0.56217740405E+02  0.23925091279E+02  0.13168358623E+02  0.62499999982E+02  0.00000000000E+00 0.  1.
</event>
<event>
 4    1  0.1988088E-002  0.9118800E+02  0.7818608E-02  0.1130116E+00
         25   -1    0    0    0    0  0.00000000000E+00  0.00000000000E+00  0.99999998245E-14  0.12500000000E+03  0.12500000000E+03 0.  0.
        -11    1    1    0    0    0  0.39168107256E+02 -0.14843782227E+02 -0.23473924009E+02  0.48015660002E+02  0.51100000000E-03 0.  1.
         11    1    1    0    0    0  0.11745888712E+02 -0.17446890291E+01 -0.85119696217E+01  0.14610389062E+02  0.51100000000E-03 0. -1.
         22    1    1    0    0    0 -0.50913995968E+02  0.16588471256E+02  0.31985893630E+02  0.62373950936E+02  0.00000000000E+00 0.  1.
</event>
<event>
 4    1  0.1988088E-002  0.9118800E+02  0.7818608E-02  0.1130116E+00
         25   -1    0    0    0    0  0.00000000000E+00  0.00000000000E+00  0.99999998245E-14  0.12500000000E+03  0.12500000000E+03 0.  0.
        -11    1    1    0    0    0 -0.27104256023E+02 -0.15954130433E+02  0.14050731896E+02  0.34447032376E+02  0.51100000000E-03 0.  1.
         11    1    1    0    0    0 -0.21880093865E+02 -0.13058723865E+02  0.11736073356E+02  0.28053595039E+02  0.51100000000E-03 0. -1.
         22    1    1    0    0    0  0.48984349888E+02  0.29012854298E+02 -0.25786805252E+02  0.62499372585E+02  0.00000000000E+00 0.  1.
</event>
<event>
 4    1  0.1988088E-002  0.9118800E+02  0.7818608E-02  0.1130116E+00
         25   -1    0    0    0    0  0.00000000000E+00  0.00000000000E+00  0.99999998245E-14  0.12500000000E+03  0.12500000000E+03 0.  0.
        -11    1    1    0    0    0  0.15330819084E+02  0.23452815972E+02  0.29520228892E+02  0.40700276472E+02  0.51100000000E-03 0. -1.
         11    1    1    0    0    0  0.80368972243E+01  0.12564646508E+02  0.15899003150E+02  0.21800008264E+02  0.51100000000E-03 0.  1.
         22    1    1    0    0    0 -0.23367716308E+02 -0.36017462479E+02 -0.45419232042E+02  0.62499715265E+02  0.00000000000E+00 0. -1.
</event>
<event>
 4    1  0.1988088E-002  0.9118800E+02  0.7818608E-02  0.1130116E+00
         25   -1    0    0    0    0  0.00000000000E+00  0.00000000000E+00  0.99999998245E-14  0.12500000000E+03  0.12500000000E+03 0.  0.
        -11    1    1    0    0    0  0.14423388890E+00  0.60911580327E+00 -0.17522416964E+02  0.17533594098E+02  0.51100000000E-03 0. -1.
         11    1    1    0    0    0  0.36453981473E+00  0.15738472372E+01 -0.44937376412E+02  0.44966406166E+02  0.51100000000E-03 0.  1.
         22    1    1    0    0    0 -0.50877370363E+00 -0.21829630405E+01  0.62459793377E+02  0.62499999736E+02  0.00000000000E+00 0. -1.
</event>
<event>
 4    1  0.1988088E-002  0.9118800E+02  0.7818608E-02  0.1130116E+00
         25   -1    0    0    0    0  0.00000000000E+00  0.00000000000E+00  0.99999998245E-14  0.12500000000E+03  0.12500000000E+03 0.  0.
        -11    1    1    0    0    0 -0.56536810573E+01 -0.13264993955E+00 -0.49689237034E+01  0.75280746899E+01  0.51100000000E-03 0. -1.
         11    1    1    0    0    0 -0.41282902693E+02 -0.97460467158E+00 -0.36286149790E+02  0.54971925343E+02  0.51100000000E-03 0. -1.
         22    1    1    0    0    0  0.46936583751E+02  0.11072546111E+01  0.41255073493E+02  0.62499999967E+02  0.00000000000E+00 0. -1.
</event>
<event>
 4    1  0.1988088E-002  0.9118800E+02  0.7818608E-02  0.1130116E+00
         25   -1    0    0    0    0  0.00000000000E+00  0.00000000000E+00  0.99999998245E-14  0.12500000000E+03  0.12500000000E+03 0.  0.
        -11    1    1    0    0    0 -0.25915243462E+02 -0.13858319427E+02 -0.41674376748E+02  0.50994181419E+02  0.51100000000E-03 0.  1.
         11    1    1    0    0    0 -0.60961454351E+01 -0.29468092564E+01 -0.93048168185E+01  0.11507662241E+02  0.51100000000E-03 0. -1.
         22    1    1    0    0    0  0.32011388897E+02  0.16805128684E+02  0.50979193567E+02  0.62498156340E+02  0.00000000000E+00 0.  1.
</event>
<event>
 4    1  0.1988088E-002  0.9118800E+02  0.7818608E-02  0.1130116E+00
         25   -1    0    0    0    0  0.00000000000E+00  0.00000000000E+00  0.99999998245E-14  0.12500000000E+03  0.12500000000E+03 0.  0.
        -11    1    1    0    0    0 -0.69124063736E+01  0.49335868801E+02 -0.37542535279E+02  0.62379894739E+02  0.51100000000E-03 0. -1.
         11    1    1    0    0    0 -0.12645046487E-01  0.94941078889E-01 -0.72468447596E-01  0.12010679697E+00  0.51100000000E-03 0.  1.
         22    1    1    0    0    0  0.69250514201E+01 -0.49430809880E+02  0.37615003727E+02  0.62499998464E+02  0.00000000000E+00 0. -1.
</event>
<event>
 4    1  0.1988088E-002  0.9118800E+02  0.7818608E-02  0.1130116E+00
         25   -1    0    0    0    0  0.00000000000E+00  0.00000000000E+00  0.99999998245E-14  0.12500000000E+03  0.12500000000E+03 0.  0.
        -11    1    1    0    0    0  0.25325900449E+00 -0.25050899864E+01  0.58920489322E+01  0.64074844396E+01  0.51100000000E-03 0. -1.
         11    1    1    0    0    0  0.19778728388E+01 -0.22438558598E+02  0.51371079789E+02  0.56092679842E+02  0.51100000000E-03 0.  1.
         22    1    1    0    0    0 -0.22311318433E+01  0.24943648584E+02 -0.57263128721E+02  0.62499835719E+02  0.00000000000E+00 0.  1.
</event>
<event>
 4    1  0.1988088E-002  0.9118800E+02  0.7818608E-02  0.1130116E+00
         25   -1    0    0    0    0  0.00000000000E+00  0.00000000000E+00  0.99999998245E-14  0.12500000000E+03  0.12500000000E+03 0.  0.
        -11    1    1    0    0    0 -0.94689861477E+00 -0.40843348052E-01  0.10031030963E+01  0.13800366838E+01  0.51100000000E-03 0.  1.
         11    1    1    0    0    0 -0.41970577841E+02 -0.17989967380E+01  0.44394641033E+02  0.61119963565E+02  0.51100000000E-03 0. -1.
         22    1    1    0    0    0  0.42917476456E+02  0.18398400861E+01 -0.45397744129E+02  0.62499999751E+02  0.00000000000E+00 0. -1.
</event>
<event>
 4    1  0.1988088E-002  0.9118800E+02  0.7818608E-02  0.1130116E+00
         25   -1    0    0    0    0  0.00000000000E+00  0.00000000000E+00  0.99999998245E-14  0.12500000000E+03  0.12500000000E+03 0.  0.
        -11    1    1    0    0    0  0.48980392220E+01  0.94263083722E+01 -0.87718765655E+00  0.10659058879E+02  0.51100000000E-03 0. -1.
         11    1    1    0    0    0  0.23820557027E+02  0.45846091948E+02 -0.42661566961E+01  0.51840941130E+02  0.51100000000E-03 0. -1.
         22    1    1    0    0    0 -0.28718596249E+02 -0.55272400321E+02  0.51433443527E+01  0.62499999991E+02  0.00000000000E+00 0. -1.
</event>
<event>
 4    1  0.1988088E-002  0.9118800E+02  0.7818608E-02  0.1130116E+00
         25   -1    0    0    0    0  0.00000000000E+00  0.00000000000E+00  0.99999998245E-14  0.12500000000E+03  0.12500000000E+03 0.  0.
        -11    1    1    0    0    0  0.19687883329E+02  0.50419156201E+01  0.89241349199E+01  0.22196257510E+02  0.51100000000E-03 0.  1.
         11    1    1    0    0    0  0.35762661995E+02  0.90967578889E+01  0.16207199007E+02  0.40303750408E+02  0.51100000000E-03 0. -1.
         22    1    1    0    0    0 -0.55450545324E+02 -0.14138673509E+02 -0.25131333927E+02  0.62499992082E+02  0.00000000000E+00 0.  1.
</event>
<event>
 4    1  0.1988088E-002  0.9118800E+02  0.7818608E-02  0.1130116E+00
         25   -1    0    0    0    0  0.00000000000E+00  0.00000000000E+00  0.99999998245E-14  0.12500000000E+03  0.12500000000E+03 0.  0.
        -11    1    1    0    0    0  0.46801991993E+01 -0.17505801507E+01 -0.15824196228E+02  0.16594396101E+02  0.51100000000E-03 0. -1.
         11    1    1    0    0    0  0.12940107669E+02 -0.48479009090E+01 -0.43776431445E+02  0.45905604015E+02  0.51100000000E-03 0. -1.
         22    1    1    0    0    0 -0.17620306869E+02  0.65984810597E+01  0.59600627673E+02  0.62499999884E+02  0.00000000000E+00 0. -1.
</event>
<event>
 4    1  0.1988088E-002  0.9118800E+02  0.7818608E-02  0.1130116E+00
         25   -1    0    0    0    0  0.00000000000E+00  0.00000000000E+00  0.99999998245E-14  0.12500000000E+03  0.12500000000E+03 0.  0.
        -11    1    1    0    0    0  0.30742385084E+02 -0.32354574223E+02  0.43396348050E+02  0.62250748896E+02  0.51100000000E-03 0.  1.
         11    1    1    0    0    0  0.14334768632E+00 -0.12304678830E+00  0.16344838379E+00  0.24980934044E+00  0.51100000000E-03 0. -1.
         22    1    1    0    0    0 -0.30885732771E+02  0.32477621012E+02 -0.43559796434E+02  0.62499441763E+02  0.00000000000E+00 0.  1.
</event>
