<event>
 5    1  0.1258677E-009  0.9118800E+02  0.7561462E-02  0.1125453E+00
         25   -1    0    0    0    0  0.00000000000E+00  0.00000000000E+00  0.99999998245E-14  0.12509000000E+03  0.12509000000E+03 0.  0.
        -13    1    3    3    0    0  0.29049357735E+02 -0.21705485685E+02 -0.50020666125E+02  0.61782452988E+02  0.10566000000E+00 0. -1.
         23    2    1    0    0    0  0.14453261118E+02 -0.15991368768E+02 -0.19824957242E+02  0.95804345463E+02  0.91218545526E+02 0.  0.
         13    1    3    3    0    0 -0.14596096617E+02  0.57141169171E+01  0.30195708882E+02  0.34021892474E+02  0.10566000000E+00 0.  1.
         22    1    1    0    0    0 -0.14453261118E+02  0.15991368768E+02  0.19824957242E+02  0.29285654537E+02  0.00000000000E+00 0. -1.
</event>
<event>
 5    1  0.1258677E-009  0.9118800E+02  0.7561462E-02  0.1125453E+00
         25   -1    0    0    0    0  0.00000000000E+00  0.00000000000E+00  0.99999998245E-14  0.12509000000E+03  0.12509000000E+03 0.  0.
        -13    1    3    3    0    0 -0.21188592644E+02 -0.54164697798E+02 -0.14205237413E+02  0.59871285937E+02  0.10566000000E+00 0. -1.
         23    2    1    0    0    0 -0.13532496920E+02 -0.18015527793E+02 -0.16905743895E+02  0.96921011889E+02  0.92737212889E+02 0.  0.
         13    1    3    3    0    0  0.76560957245E+01  0.36149170005E+02 -0.27005064822E+01  0.37049725952E+02  0.10566000000E+00 0.  1.
         22    1    1    0    0    0  0.13532496920E+02  0.18015527793E+02  0.16905743895E+02  0.28168988111E+02  0.00000000000E+00 0. -1.
</event>
<event>
 5    1  0.1258677E-009  0.9118800E+02  0.7561462E-02  0.1125453E+00
         25   -1    0    0    0    0  0.00000000000E+00  0.00000000000E+00  0.99999998245E-14  0.12509000000E+03  0.12509000000E+03 0.  0.
        -13    1    3    3    0    0  0.89652036327E+01 -0.16785576903E+02 -0.55159513720E+02  0.58349923616E+02  0.10566000000E+00 0.  1.
         23    2    1    0    0    0 -0.10104303652E+02 -0.82125785065E+00 -0.28650448811E+02  0.94698888901E+02  0.89689798334E+02 0.  0.
         13    1    3    3    0    0 -0.19069507285E+02  0.15964319052E+02  0.26509064909E+02  0.36348965285E+02  0.10566000000E+00 0. -1.
         22    1    1    0    0    0  0.10104303652E+02  0.82125785065E+00  0.28650448811E+02  0.30391111099E+02  0.00000000000E+00 0.  1.
</event>
<event>
 5    1  0.1258677E-009  0.9118800E+02  0.7561462E-02  0.1125453E+00
         25   -1    0    0    0    0  0.00000000000E+00  0.00000000000E+00  0.99999998245E-14  0.12509000000E+03  0.12509000000E+03 0.  0.
        -13    1    3    3    0    0  0.25579606586E+02  0.43314507622E+02 -0.31971008814E+02  0.59603854005E+02  0.10566000000E+00 0.  1.
         23    2    1    0    0    0  0.23018349243E+02  0.12949954961E+02 -0.11696732986E+02  0.96204721779E+02  0.91765947904E+02 0.  0.
         13    1    3    3    0    0 -0.25612573439E+01 -0.30364552660E+02  0.20274275828E+02  0.36600867774E+02  0.10566000000E+00 0. -1.
         22    1    1    0    0    0 -0.23018349243E+02 -0.12949954961E+02  0.11696732986E+02  0.28885278221E+02  0.00000000000E+00 0.  1.
</event>
<event>
 5    1  0.1258677E-009  0.9118800E+02  0.7561462E-02  0.1125453E+00
         25   -1    0    0    0    0  0.00000000000E+00  0.00000000000E+00  0.99999998245E-14  0.12509000000E+03  0.12509000000E+03 0.  0.
        -13    1    3    3    0    0 -0.46498483552E+02 -0.39880180943E+02 -0.67944049640E+01  0.61633699447E+02  0.10566000000E+00 0. -1.
         23    2    1    0    0    0 -0.39362403223E+02 -0.25517662212E+02 -0.69209849779E+01  0.77672177346E+02  0.61518429989E+02 0.  0.
         13    1    3    3    0    0  0.71360803294E+01  0.14362518731E+02 -0.12658001387E+00  0.16038477899E+02  0.10566000000E+00 0.  1.
         22    1    1    0    0    0  0.39362403223E+02  0.25517662212E+02  0.69209849779E+01  0.47417822654E+02  0.00000000000E+00 0. -1.
</event>
<event>
 5    1  0.1258677E-009  0.9118800E+02  0.7561462E-02  0.1125453E+00
         25   -1    0    0    0    0  0.00000000000E+00  0.00000000000E+00  0.99999998245E-14  0.12509000000E+03  0.12509000000E+03 0.  0.
        -13    1    3    3    0    0 -0.62142603481E+01  0.32306528156E+02 -0.94616099830E+01  0.34232470268E+02  0.10566000000E+00 0.  1.
         23    2    1    0    0    0 -0.72017900771E+01 -0.28248984926E+02 -0.81875602895E+01  0.94809526537E+02  0.89843971690E+02 0.  0.
         13    1    3    3    0    0 -0.98752972897E+00 -0.60555513082E+02  0.12740496935E+01  0.60577056269E+02  0.10566000000E+00 0. -1.
         22    1    1    0    0    0  0.72017900771E+01  0.28248984926E+02  0.81875602895E+01  0.30280473463E+02  0.00000000000E+00 0. -1.
</event>
<event>
 5    1  0.1258677E-009  0.9118800E+02  0.7561462E-02  0.1125453E+00
         25   -1    0    0    0    0  0.00000000000E+00  0.00000000000E+00  0.99999998245E-14  0.12509000000E+03  0.12509000000E+03 0.  0.
        -13    1    3    3    0    0 -0.37126007673E+02  0.48974546917E+01  0.33485852439E+02  0.50235833683E+02  0.10566000000E+00 0. -1.
         23    2    1    0    0    0 -0.36143207340E+02 -0.10831851719E+02 -0.12507399027E+00  0.87358367488E+02  0.78789645755E+02 0.  0.
         13    1    3    3    0    0  0.98280033294E+00 -0.15729306411E+02 -0.33610926429E+02  0.37122533805E+02  0.10566000000E+00 0.  1.
         22    1    1    0    0    0  0.36143207340E+02  0.10831851719E+02  0.12507399027E+00  0.37731632512E+02  0.00000000000E+00 0. -1.
</event>
<event>
 5    1  0.1258677E-009  0.9118800E+02  0.7561462E-02  0.1125453E+00
         25   -1    0    0    0    0  0.00000000000E+00  0.00000000000E+00  0.99999998245E-14  0.12509000000E+03  0.12509000000E+03 0.  0.
        -13    1    3    3    0    0  0.17128818149E+02 -0.44290315713E+02 -0.36661442008E+02  0.59992507627E+02  0.10566000000E+00 0.  1.
         23    2    1    0    0    0  0.16717050034E+02 -0.13864381481E+02 -0.23336201427E+02  0.93211180499E+02  0.87590325021E+02 0.  0.
         13    1    3    3    0    0 -0.41176811527E+00  0.30425934232E+02  0.13325240581E+02  0.33218672873E+02  0.10566000000E+00 0. -1.
         22    1    1    0    0    0 -0.16717050034E+02  0.13864381481E+02  0.23336201427E+02  0.31878819501E+02  0.00000000000E+00 0.  1.
</event>
<event>
 5    1  0.1258677E-009  0.9118800E+02  0.7561462E-02  0.1125453E+00
         25   -1    0    0    0    0  0.00000000000E+00  0.00000000000E+00  0.99999998245E-14  0.12509000000E+03  0.12509000000E+03 0.  0.
        -13    1    3    3    0    0  0.59339100194E+02 -0.36760438043E+00  0.29557732943E+01  0.59413901611E+02  0.10566000000E+00 0.  1.
         23    2    1    0    0    0  0.25605750277E+02  0.93011343390E+01  0.11481712122E+02  0.95526589160E+02  0.90836853623E+02 0.  0.
         13    1    3    3    0    0 -0.33733349918E+02  0.96687387195E+01  0.85259388277E+01  0.36112687549E+02  0.10566000000E+00 0. -1.
         22    1    1    0    0    0 -0.25605750277E+02 -0.93011343390E+01 -0.11481712122E+02  0.29563410840E+02  0.00000000000E+00 0.  1.
</event>
<event>
 5    1  0.1258677E-009  0.9118800E+02  0.7561462E-02  0.1125453E+00
         25   -1    0    0    0    0  0.00000000000E+00  0.00000000000E+00  0.99999998245E-14  0.12509000000E+03  0.12509000000E+03 0.  0.
        -13    1    3    3    0    0 -0.28838331068E+02 -0.18759935408E+02 -0.47228786166E+02  0.58430761778E+02  0.10566000000E+00 0.  1.
         23    2    1    0    0    0  0.35459635320E+00 -0.75337515589E+01 -0.30035299937E+02  0.94122236222E+02  0.88881904559E+02 0.  0.
         13    1    3    3    0    0  0.29192927421E+02  0.11226183849E+02  0.17193486229E+02  0.35691474444E+02  0.10566000000E+00 0. -1.
         22    1    1    0    0    0 -0.35459635320E+00  0.75337515589E+01  0.30035299937E+02  0.30967763778E+02  0.00000000000E+00 0.  1.
</event>
<event>
 5    1  0.1258677E-009  0.9118800E+02  0.7561462E-02  0.1125453E+00
         25   -1    0    0    0    0  0.00000000000E+00  0.00000000000E+00  0.99999998245E-14  0.12509000000E+03  0.12509000000E+03 0.  0.
        -13    1    3    3    0    0  0.20510730426E+02 -0.24851097266E+02  0.95113962052E+01  0.33596799248E+02  0.10566000000E+00 0.  1.
         23    2    1    0    0    0 -0.19635390283E+02  0.10337767177E+02 -0.20534345807E+02  0.94856288030E+02  0.89909054268E+02 0.  0.
         13    1    3    3    0    0 -0.40146120709E+02  0.35188864442E+02 -0.30045742012E+02  0.61259488782E+02  0.10566000000E+00 0. -1.
         22    1    1    0    0    0  0.19635390283E+02 -0.10337767177E+02  0.20534345807E+02  0.30233711970E+02  0.00000000000E+00 0. -1.
</event>
<event>
 5    1  0.1258677E-009  0.9118800E+02  0.7561462E-02  0.1125453E+00
         25   -1    0    0    0    0  0.00000000000E+00  0.00000000000E+00  0.99999998245E-14  0.12509000000E+03  0.12509000000E+03 0.  0.
        -13    1    3    3    0    0  0.27095151138E+02  0.52330294602E+02  0.11950995236E+02  0.60128565587E+02  0.10566000000E+00 0.  1.
         23    2    1    0    0    0  0.14200075086E+02  0.24883328496E+02 -0.66154288849E+01  0.95686155543E+02  0.91056324843E+02 0.  0.
         13    1    3    3    0    0 -0.12895076052E+02 -0.27446966106E+02 -0.18566424121E+02  0.35557589956E+02  0.10566000000E+00 0. -1.
         22    1    1    0    0    0 -0.14200075086E+02 -0.24883328496E+02  0.66154288849E+01  0.29403844457E+02  0.00000000000E+00 0.  1.
</event>
<event>
 5    1  0.1258677E-009  0.9118800E+02  0.7561462E-02  0.1125453E+00
         25   -1    0    0    0    0  0.00000000000E+00  0.00000000000E+00  0.99999998245E-14  0.12509000000E+03  0.12509000000E+03 0.  0.
        -13    1    3    3    0    0 -0.24383944899E+02 -0.17081701733E+01 -0.25425424736E+02  0.35269788789E+02  0.10566000000E+00 0.  1.
         23    2    1    0    0    0 -0.28859571000E+00 -0.23118186416E+01  0.29629128855E+02  0.95369416734E+02  0.90620155477E+02 0.  0.
         13    1    3    3    0    0  0.24095349189E+02 -0.60364846829E+00  0.55054553591E+02  0.60099627946E+02  0.10566000000E+00 0. -1.
         22    1    1    0    0    0  0.28859571000E+00  0.23118186416E+01 -0.29629128855E+02  0.29720583266E+02  0.00000000000E+00 0. -1.
</event>
<event>
 5    1  0.1258677E-009  0.9118800E+02  0.7561462E-02  0.1125453E+00
         25   -1    0    0    0    0  0.00000000000E+00  0.00000000000E+00  0.99999998245E-14  0.12509000000E+03  0.12509000000E+03 0.  0.
        -13    1    3    3    0    0  0.18711860706E+02  0.36394037651E+01  0.29617789394E+02  0.35222203273E+02  0.10566000000E+00 0.  1.
         23    2    1    0    0    0 -0.27728975365E+02 -0.60472713034E+01 -0.78156319280E+01  0.95652784312E+02  0.91010469064E+02 0.  0.
         13    1    3    3    0    0 -0.46440836071E+02 -0.96866750684E+01 -0.37433421322E+02  0.60430581039E+02  0.10566000000E+00 0. -1.
         22    1    1    0    0    0  0.27728975365E+02  0.60472713034E+01  0.78156319280E+01  0.29437215688E+02  0.00000000000E+00 0. -1.
</event>
<event>
 5    1  0.1258677E-009  0.9118800E+02  0.7561462E-02  0.1125453E+00
         25   -1    0    0    0    0  0.00000000000E+00  0.00000000000E+00  0.99999998245E-14  0.12509000000E+03  0.12509000000E+03 0.  0.
        -13    1    3    3    0    0  0.27356096287E+02  0.37952578320E+02 -0.15878979729E+01  0.46811182310E+02  0.10566000000E+00 0.  1.
         23    2    1    0    0    0 -0.19294492567E+02  0.21099072160E+02  0.10127222468E+01  0.96481017219E+02  0.92141808034E+02 0.  0.
         13    1    3    3    0    0 -0.46650588854E+02 -0.16853506160E+02  0.26006202198E+01  0.49669834909E+02  0.10566000000E+00 0. -1.
         22    1    1    0    0    0  0.19294492567E+02 -0.21099072160E+02 -0.10127222468E+01  0.28608982781E+02  0.00000000000E+00 0. -1.
</event>
<event>
 5    1  0.1258677E-009  0.9118800E+02  0.7561462E-02  0.1125453E+00
         25   -1    0    0    0    0  0.00000000000E+00  0.00000000000E+00  0.99999998245E-14  0.12509000000E+03  0.12509000000E+03 0.  0.
        -13    1    3    3    0    0 -0.19122372107E+02 -0.18808451663E+02  0.35137115709E+02  0.44204649454E+02  0.10566000000E+00 0. -1.
         23    2    1    0    0    0 -0.86246506036E+01 -0.22030578121E+02 -0.16013901929E+02  0.96521205392E+02  0.92196350605E+02 0.  0.
         13    1    3    3    0    0  0.10497721504E+02 -0.32221264575E+01 -0.51151017638E+02  0.52316555937E+02  0.10566000000E+00 0.  1.
         22    1    1    0    0    0  0.86246506036E+01  0.22030578121E+02  0.16013901929E+02  0.28568794608E+02  0.00000000000E+00 0.  1.
</event>
<event>
 5    1  0.1258677E-009  0.9118800E+02  0.7561462E-02  0.1125453E+00
         25   -1    0    0    0    0  0.00000000000E+00  0.00000000000E+00  0.99999998245E-14  0.12509000000E+03  0.12509000000E+03 0.  0.
        -13    1    3    3    0    0  0.23847752368E+02 -0.40086263475E+02 -0.17478666434E+02  0.49811030472E+02  0.10566000000E+00 0.  1.
         23    2    1    0    0    0 -0.16540845584E+02 -0.24217755617E+02 -0.27623472707E+01  0.95632745848E+02  0.90982922882E+02 0.  0.
         13    1    3    3    0    0 -0.40388597952E+02  0.15868507858E+02  0.14716319163E+02  0.45821715375E+02  0.10566000000E+00 0. -1.
         22    1    1    0    0    0  0.16540845584E+02  0.24217755617E+02  0.27623472707E+01  0.29457254152E+02  0.00000000000E+00 0.  1.
</event>
<event>
 5    1  0.1258677E-009  0.9118800E+02  0.7561462E-02  0.1125453E+00
         25   -1    0    0    0    0  0.00000000000E+00  0.00000000000E+00  0.99999998245E-14  0.12509000000E+03  0.12509000000E+03 0.  0.
        -13    1    3    3    0    0  0.21186810133E+01  0.31540435380E+02 -0.24411244343E+02  0.39940053676E+02  0.10566000000E+00 0. -1.
         23    2    1    0    0    0  0.32189504844E+01  0.93012455152E+01  0.27207684040E+02  0.96156751286E+02  0.91700534004E+02 0.  0.
         13    1    3    3    0    0  0.11002694711E+01 -0.22239189865E+02  0.51618928383E+02  0.56216697610E+02  0.10566000000E+00 0.  1.
         22    1    1    0    0    0 -0.32189504844E+01 -0.93012455152E+01 -0.27207684040E+02  0.28933248714E+02  0.00000000000E+00 0.  1.
</event>
<event>
 5    1  0.1258677E-009  0.9118800E+02  0.7561462E-02  0.1125453E+00
         25   -1    0    0    0    0  0.00000000000E+00  0.00000000000E+00  0.99999998245E-14  0.12509000000E+03  0.12509000000E+03 0.  0.
        -13    1    3    3    0    0  0.21653290471E+02 -0.18964732631E+02 -0.28352600362E+02  0.40403059084E+02  0.10566000000E+00 0.  1.
         23    2    1    0    0    0 -0.14486431803E+02  0.21225645143E+02 -0.77106459983E+01  0.98260188598E+02  0.94526323760E+02 0.  0.
         13    1    3    3    0    0 -0.36139722274E+02  0.40190377774E+02  0.20641954364E+02  0.57857129515E+02  0.10566000000E+00 0. -1.
         22    1    1    0    0    0  0.14486431803E+02 -0.21225645143E+02  0.77106459983E+01  0.26829811402E+02  0.00000000000E+00 0. -1.
</event>
<event>
 5    1  0.1258677E-009  0.9118800E+02  0.7561462E-02  0.1125453E+00
         25   -1    0    0    0    0  0.00000000000E+00  0.00000000000E+00  0.99999998245E-14  0.12509000000E+03  0.12509000000E+03 0.  0.
        -13    1    3    3    0    0  0.43400304238E+02  0.18684869007E+02  0.18371623404E+02  0.50697519153E+02  0.10566000000E+00 0.  1.
         23    2    1    0    0    0  0.21390420327E+01  0.29303245281E+02  0.55651492661E+01  0.95186378628E+02  0.90367140628E+02 0.  0.
         13    1    3    3    0    0 -0.41261262206E+02  0.10618376273E+02 -0.12806474138E+02  0.44488859475E+02  0.10566000000E+00 0. -1.
         22    1    1    0    0    0 -0.21390420327E+01 -0.29303245281E+02 -0.55651492661E+01  0.29903621372E+02  0.00000000000E+00 0.  1.
</event>
<event>
 5    1  0.1258677E-009  0.9118800E+02  0.7561462E-02  0.1125453E+00
         25   -1    0    0    0    0  0.00000000000E+00  0.00000000000E+00  0.99999998245E-14  0.12509000000E+03  0.12509000000E+03 0.  0.
        -13    1    3    3    0    0 -0.15163702158E+02 -0.35901539294E+02  0.18944790349E+02  0.43333297038E+02  0.10566000000E+00 0.  1.
         23    2    1    0    0    0  0.18391792605E+02 -0.15654004392E+02 -0.16227540273E+02  0.95992939117E+02  0.91476802569E+02 0.  0.
         13    1    3    3    0    0  0.33555494763E+02  0.20247534901E+02 -0.35172330622E+02  0.52659642078E+02  0.10566000000E+00 0. -1.
         22    1    1    0    0    0 -0.18391792605E+02  0.15654004392E+02  0.16227540273E+02  0.29097060883E+02  0.00000000000E+00 0. -1.
</event>
<event>
 5    1  0.1258677E-009  0.9118800E+02  0.7561462E-02  0.1125453E+00
         25   -1    0    0    0    0  0.00000000000E+00  0.00000000000E+00  0.99999998245E-14  0.12509000000E+03  0.12509000000E+03 0.  0.
        -13    1    3    3    0    0  0.42948906741E+02 -0.20190625523E+02 -0.22305817191E+02  0.52438827159E+02  0.10566000000E+00 0. -1.
         23    2    1    0    0    0  0.26072891143E+02 -0.55406223794E+01 -0.37222517822E+02  0.79307798416E+02  0.64758913731E+02 0.  0.
         13    1    3    3    0    0 -0.16876015599E+02  0.14650003144E+02 -0.14916700632E+02  0.26868971256E+02  0.10566000000E+00 0.  1.
         22    1    1    0    0    0 -0.26072891143E+02  0.55406223794E+01  0.37222517822E+02  0.45782201584E+02  0.00000000000E+00 0. -1.
</event>
<event>
 5    1  0.1258677E-009  0.9118800E+02  0.7561462E-02  0.1125453E+00
         25   -1    0    0    0    0  0.00000000000E+00  0.00000000000E+00  0.99999998245E-14  0.12509000000E+03  0.12509000000E+03 0.  0.
        -13    1    3    3    0    0  0.55431210480E+02 -0.13677993984E+02  0.53768520933E+01  0.57346563255E+02  0.10566000000E+00 0.  1.
         23    2    1    0    0    0  0.25281609585E+02 -0.23675984970E+01 -0.15138151738E+02  0.95527710780E+02  0.90838398175E+02 0.  0.
         13    1    3    3    0    0 -0.30149600894E+02  0.11310395487E+02 -0.20515003831E+02  0.38181147526E+02  0.10566000000E+00 0. -1.
         22    1    1    0    0    0 -0.25281609585E+02  0.23675984970E+01  0.15138151738E+02  0.29562289220E+02  0.00000000000E+00 0.  1.
</event>
<event>
 5    1  0.1258677E-009  0.9118800E+02  0.7561462E-02  0.1125453E+00
         25   -1    0    0    0    0  0.00000000000E+00  0.00000000000E+00  0.99999998245E-14  0.12509000000E+03  0.12509000000E+03 0.  0.
        -13    1    3    3    0    0  0.33948131977E+02  0.51648218403E+01  0.28578300111E+02  0.44675289038E+02  0.10566000000E+00 0. -1.
         23    2    1    0    0    0  0.20924246259E+02  0.78958385693E+01 -0.20026870873E+02  0.95069275406E+02  0.90204895771E+02 0.  0.
         13    1    3    3    0    0 -0.13023885718E+02  0.27310167290E+01 -0.48605170984E+02  0.50393986367E+02  0.10566000000E+00 0.  1.
         22    1    1    0    0    0 -0.20924246259E+02 -0.78958385693E+01  0.20026870873E+02  0.30020724594E+02  0.00000000000E+00 0.  1.
</event>
<event>
 5    1  0.1258677E-009  0.9118800E+02  0.7561462E-02  0.1125453E+00
         25   -1    0    0    0    0  0.00000000000E+00  0.00000000000E+00  0.99999998245E-14  0.12509000000E+03  0.12509000000E+03 0.  0.
        -13    1    3    3    0    0  0.30012535823E+02 -0.15847717700E+02 -0.17905123164E+01  0.33987049905E+02  0.10566000000E+00 0. -1.
         23    2    1    0    0    0 -0.20873664041E+02  0.18470990094E+02  0.78873968093E+01  0.96122805556E+02  0.91654216455E+02 0.  0.
         13    1    3    3    0    0 -0.50886199864E+02  0.34318707794E+02  0.96779091257E+01  0.62135755651E+02  0.10566000000E+00 0.  1.
         22    1    1    0    0    0  0.20873664041E+02 -0.18470990094E+02 -0.78873968093E+01  0.28967194444E+02  0.00000000000E+00 0.  1.
</event>
<event>
 5    1  0.1258677E-009  0.9118800E+02  0.7561462E-02  0.1125453E+00
         25   -1    0    0    0    0  0.00000000000E+00  0.00000000000E+00  0.99999998245E-14  0.12509000000E+03  0.12509000000E+03 0.  0.
        -13    1    3    3    0    0 -0.12148988395E+02  0.32230731968E+02 -0.21508011635E+02  0.40608173201E+02  0.10566000000E+00 0.  1.
         23    2    1    0    0    0  0.18911169452E+02 -0.13680178757E+02 -0.16986067921E+02  0.96222957819E+02  0.91790802846E+02 0.  0.
         13    1    3    3    0    0  0.31060157848E+02 -0.45910910725E+02  0.45219437140E+01  0.55614784618E+02  0.10566000000E+00 0. -1.
         22    1    1    0    0    0 -0.18911169452E+02  0.13680178757E+02  0.16986067921E+02  0.28867042181E+02  0.00000000000E+00 0. -1.
</event>
<event>
 5    1  0.1258677E-009  0.9118800E+02  0.7561462E-02  0.1125453E+00
         25   -1    0    0    0    0  0.00000000000E+00  0.00000000000E+00  0.99999998245E-14  0.12509000000E+03  0.12509000000E+03 0.  0.
        -13    1    3    3    0    0  0.31467880202E+02  0.25380584890E+01 -0.42235780520E+01  0.31851514892E+02  0.10566000000E+00 0. -1.
         23    2    1    0    0    0 -0.30782596399E+02  0.18109515534E+01 -0.28681202105E+01  0.94121081709E+02  0.88880279713E+02 0.  0.
         13    1    3    3    0    0 -0.62250476601E+02 -0.72710693561E+00  0.13554578415E+01  0.62269566817E+02  0.10566000000E+00 0.  1.
         22    1    1    0    0    0  0.30782596399E+02 -0.18109515534E+01  0.28681202105E+01  0.30968918291E+02  0.00000000000E+00 0.  1.
</event>
<event>
 5    1  0.1258677E-009  0.9118800E+02  0.7561462E-02  0.1125453E+00
         25   -1    0    0    0    0  0.00000000000E+00  0.00000000000E+00  0.99999998245E-14  0.12509000000E+03  0.12509000000E+03 0.  0.
        -13    1    3    3    0    0  0.25717274172E+01 -0.35987972388E+01  0.49479523595E+02  0.49676951825E+02  0.10566000000E+00 0. -1.
         23    2    1    0    0    0  0.28126608343E+02 -0.34067422706E+01  0.13770565021E+02  0.93588564306E+02  0.88127628574E+02 0.  0.
         13    1    3    3    0    0  0.25554880926E+02  0.19205496821E+00 -0.35708958574E+02  0.43911612481E+02  0.10566000000E+00 0.  1.
         22    1    1    0    0    0 -0.28126608343E+02  0.34067422706E+01 -0.13770565021E+02  0.31501435694E+02  0.00000000000E+00 0. -1.
</event>
<event>
 5    1  0.1258677E-009  0.9118800E+02  0.7561462E-02  0.1125453E+00
         25   -1    0    0    0    0  0.00000000000E+00  0.00000000000E+00  0.99999998245E-14  0.12509000000E+03  0.12509000000E+03 0.  0.
        -13    1    3    3    0    0 -0.31117984056E+00 -0.19909443850E+02  0.36265701345E+02  0.41372636433E+02  0.10566000000E+00 0. -1.
         23    2    1    0    0    0  0.30221217717E+02  0.90634816597E+01  0.66309839467E+01  0.92849673571E+02  0.87072517100E+02 0.  0.
         13    1    3    3    0    0  0.30532397558E+02  0.28972925510E+02 -0.29634717399E+02  0.51477037139E+02  0.10566000000E+00 0.  1.
         22    1    1    0    0    0 -0.30221217717E+02 -0.90634816597E+01 -0.66309839467E+01  0.32240326429E+02  0.00000000000E+00 0.  1.
</event>
<event>
 5    1  0.1258677E-009  0.9118800E+02  0.7561462E-02  0.1125453E+00
         25   -1    0    0    0    0  0.00000000000E+00  0.00000000000E+00  0.99999998245E-14  0.12509000000E+03  0.12509000000E+03 0.  0.
        -13    1    3    3    0    0  0.18092122152E+02 -0.32185458489E+02 -0.10783261897E+02  0.38464509918E+02  0.10566000000E+00 0.  1.
         23    2    1    0    0    0  0.84434399864E+01  0.24547678515E+02 -0.13005232296E+02  0.96055257598E+02  0.91561980351E+02 0.  0.
         13    1    3    3    0    0 -0.96486821652E+01  0.56733137004E+02 -0.22219703995E+01  0.57590747680E+02  0.10566000000E+00 0. -1.
         22    1    1    0    0    0 -0.84434399864E+01 -0.24547678515E+02  0.13005232296E+02  0.29034742402E+02  0.00000000000E+00 0. -1.
</event>
<event>
 5    1  0.1258677E-009  0.9118800E+02  0.7561462E-02  0.1125453E+00
         25   -1    0    0    0    0  0.00000000000E+00  0.00000000000E+00  0.99999998245E-14  0.12509000000E+03  0.12509000000E+03 0.  0.
        -13    1    3    3    0    0  0.20704879703E+02 -0.97615812437E+01 -0.46633575693E+02  0.51948840775E+02  0.10566000000E+00 0. -1.
         23    2    1    0    0    0  0.91671886317E+01 -0.26020758893E+02 -0.65232117550E+01  0.96740934189E+02  0.92493993401E+02 0.  0.
         13    1    3    3    0    0 -0.11537691071E+02 -0.16259177649E+02  0.40110363938E+02  0.44792093414E+02  0.10566000000E+00 0.  1.
         22    1    1    0    0    0 -0.91671886317E+01  0.26020758893E+02  0.65232117550E+01  0.28349065811E+02  0.00000000000E+00 0. -1.
</event>
<event>
 5    1  0.1258677E-009  0.9118800E+02  0.7561462E-02  0.1125453E+00
         25   -1    0    0    0    0  0.00000000000E+00  0.00000000000E+00  0.99999998245E-14  0.12509000000E+03  0.12509000000E+03 0.  0.
        -13    1    3    3    0    0 -0.16856616999E+02 -0.23360624181E+02  0.23383896553E+02  0.37103666676E+02  0.10566000000E+00 0.  1.
         23    2    1    0    0    0  0.30319350701E+02 -0.10960607946E+00 -0.26212676980E+00  0.94769318101E+02  0.89787971925E+02 0.  0.
         13    1    3    3    0    0  0.47175967700E+02  0.23251018101E+02 -0.23646023323E+02  0.57665651424E+02  0.10566000000E+00 0. -1.
         22    1    1    0    0    0 -0.30319350701E+02  0.10960607946E+00  0.26212676980E+00  0.30320681899E+02  0.00000000000E+00 0. -1.
</event>
<event>
 5    1  0.1258677E-009  0.9118800E+02  0.7561462E-02  0.1125453E+00
         25   -1    0    0    0    0  0.00000000000E+00  0.00000000000E+00  0.99999998245E-14  0.12509000000E+03  0.12509000000E+03 0.  0.
        -13    1    3    3    0    0  0.11536906870E+02 -0.41754552617E+02  0.42601742675E+02  0.60757407182E+02  0.10566000000E+00 0. -1.
         23    2    1    0    0    0  0.13169235561E+02 -0.12735741044E+02  0.22394728101E+02  0.96156425870E+02  0.91700090100E+02 0.  0.
         13    1    3    3    0    0  0.16323286903E+01  0.29018811573E+02 -0.20207014574E+02  0.35399018689E+02  0.10566000000E+00 0.  1.
         22    1    1    0    0    0 -0.13169235561E+02  0.12735741044E+02 -0.22394728101E+02  0.28933574130E+02  0.00000000000E+00 0. -1.
</event>
<event>
 5    1  0.1258677E-009  0.9118800E+02  0.7561462E-02  0.1125453E+00
         25   -1    0    0    0    0  0.00000000000E+00  0.00000000000E+00  0.99999998245E-14  0.12509000000E+03  0.12509000000E+03 0.  0.
        -13    1    3    3    0    0 -0.36969843055E+02  0.35334447037E+02  0.24793382771E+02  0.56833224756E+02  0.10566000000E+00 0.  1.
         23    2    1    0    0    0 -0.26727660144E+02  0.14259283167E+02 -0.46273609868E+01  0.94445140024E+02  0.89335194808E+02 0.  0.
         13    1    3    3    0    0  0.10242182911E+02 -0.21075163870E+02 -0.29420743757E+02  0.37611915269E+02  0.10566000000E+00 0. -1.
         22    1    1    0    0    0  0.26727660144E+02 -0.14259283167E+02  0.46273609868E+01  0.30644859976E+02  0.00000000000E+00 0.  1.
</event>
<event>
 5    1  0.1258677E-009  0.9118800E+02  0.7561462E-02  0.1125453E+00
         25   -1    0    0    0    0  0.00000000000E+00  0.00000000000E+00  0.99999998245E-14  0.12509000000E+03  0.12509000000E+03 0.  0.
        -13    1    3    3    0    0 -0.18760653963E+02  0.24111066581E+02  0.80466507734E+01  0.31592173422E+02  0.10566000000E+00 0. -1.
         23    2    1    0    0    0  0.14562489734E+02 -0.24958919264E+02 -0.11417702764E+02  0.94019472253E+02  0.88737159455E+02 0.  0.
         13    1    3    3    0    0  0.33323143697E+02 -0.49069985845E+02 -0.19464353537E+02  0.62427298831E+02  0.10566000000E+00 0.  1.
         22    1    1    0    0    0 -0.14562489734E+02  0.24958919264E+02  0.11417702764E+02  0.31070527747E+02  0.00000000000E+00 0.  1.
</event>
<event>
 5    1  0.1258677E-009  0.9118800E+02  0.7561462E-02  0.1125453E+00
         25   -1    0    0    0    0  0.00000000000E+00  0.00000000000E+00  0.99999998245E-14  0.12509000000E+03  0.12509000000E+03 0.  0.
        -13    1    3    3    0    0  0.20995516864E+02 -0.82957182468E+01  0.46261561024E+02  0.51475954212E+02  0.10566000000E+00 0. -1.
         23    2    1    0    0    0 -0.15932166702E+02  0.16763448359E+01  0.25439107202E+02  0.95026862388E+02  0.90146061102E+02 0.  0.
         13    1    3    3    0    0 -0.36927683567E+02  0.99720630826E+01 -0.20822453822E+02  0.43550908176E+02  0.10566000000E+00 0.  1.
         22    1    1    0    0    0  0.15932166702E+02 -0.16763448359E+01 -0.25439107202E+02  0.30063137612E+02  0.00000000000E+00 0. -1.
</event>
<event>
 5    1  0.1258677E-009  0.9118800E+02  0.7561462E-02  0.1125453E+00
         25   -1    0    0    0    0  0.00000000000E+00  0.00000000000E+00  0.99999998245E-14  0.12509000000E+03  0.12509000000E+03 0.  0.
        -13    1    3    3    0    0  0.14175729231E+02 -0.42254068477E+02 -0.38864597858E+01  0.44737828912E+02  0.10566000000E+00 0. -1.
         23    2    1    0    0    0 -0.10561761366E+02 -0.59733749930E+01  0.25001374923E+02  0.97299700253E+02  0.93246613394E+02 0.  0.
         13    1    3    3    0    0 -0.24737490596E+02  0.36280693484E+02  0.28887834709E+02  0.52561871341E+02  0.10566000000E+00 0.  1.
         22    1    1    0    0    0  0.10561761366E+02  0.59733749930E+01 -0.25001374923E+02  0.27790299747E+02  0.00000000000E+00 0.  1.
</event>
<event>
 5    1  0.1258677E-009  0.9118800E+02  0.7561462E-02  0.1125453E+00
         25   -1    0    0    0    0  0.00000000000E+00  0.00000000000E+00  0.99999998245E-14  0.12509000000E+03  0.12509000000E+03 0.  0.
        -13    1    3    3    0    0  0.19712350561E+02 -0.21425843677E+02  0.11163671197E+02  0.31181440964E+02  0.10566000000E+00 0.  1.
         23    2    1    0    0    0 -0.30595351231E+02  0.11572905844E+02  0.79219261299E+01  0.91433431841E+02  0.85013574669E+02 0.  0.
         13    1    3    3    0    0 -0.50307701793E+02  0.32998749521E+02 -0.32417450668E+01  0.60251990878E+02  0.10566000000E+00 0. -1.
         22    1    1    0    0    0  0.30595351231E+02 -0.11572905844E+02 -0.79219261299E+01  0.33656568159E+02  0.00000000000E+00 0. -1.
</event>
<event>
 5    1  0.1258677E-009  0.9118800E+02  0.7561462E-02  0.1125453E+00
         25   -1    0    0    0    0  0.00000000000E+00  0.00000000000E+00  0.99999998245E-14  0.12509000000E+03  0.12509000000E+03 0.  0.
        -13    1    3    3    0    0  0.12173932085E+02 -0.20407842013E+01  0.34336259013E+02  0.36487796174E+02  0.10566000000E+00 0.  1.
         23    2    1    0    0    0  0.18324581077E+02  0.93789888259E+01 -0.22388181112E+02  0.94676411647E+02  0.89658443918E+02 0.  0.
         13    1    3    3    0    0  0.61506489915E+01  0.11419773027E+02 -0.56724440126E+02  0.58188615472E+02  0.10566000000E+00 0. -1.
         22    1    1    0    0    0 -0.18324581077E+02 -0.93789888259E+01  0.22388181112E+02  0.30413588353E+02  0.00000000000E+00 0. -1.
</event>
<event>
 5    1  0.1258677E-009  0.9118800E+02  0.7561462E-02  0.1125453E+00
         25   -1    0    0    0    0  0.00000000000E+00  0.00000000000E+00  0.99999998245E-14  0.12509000000E+03  0.12509000000E+03 0.  0.
        -13    1    3    3    0    0  0.41527782809E+02  0.32543586986E+02 -0.27951607823E+02  0.59707163246E+02  0.10566000000E+00 0.  1.
         23    2    1    0    0    0  0.16258266471E+02  0.22956820326E+02 -0.24727471035E+01  0.96850642600E+02  0.92642245578E+02 0.  0.
         13    1    3    3    0    0 -0.25269516338E+02 -0.95867666594E+01  0.25478860719E+02  0.37143479354E+02  0.10566000000E+00 0. -1.
         22    1    1    0    0    0 -0.16258266471E+02 -0.22956820326E+02  0.24727471035E+01  0.28239357400E+02  0.00000000000E+00 0.  1.
</event>
<event>
 5    1  0.1258677E-009  0.9118800E+02  0.7561462E-02  0.1125453E+00
         25   -1    0    0    0    0  0.00000000000E+00  0.00000000000E+00  0.99999998245E-14  0.12509000000E+03  0.12509000000E+03 0.  0.
        -13    1    3    3    0    0  0.10921196880E+02  0.18045928637E+02 -0.69071442909E+01  0.22195672730E+02  0.10566000000E+00 0.  1.
         23    2    1    0    0    0 -0.34471694598E+02 -0.17689086865E+01 -0.32266902119E+02  0.77839817580E+02  0.61858366145E+02 0.  0.
         13    1    3    3    0    0 -0.45392891478E+02 -0.19814837324E+02 -0.25359757828E+02  0.55644144849E+02  0.10566000000E+00 0. -1.
         22    1    1    0    0    0  0.34471694598E+02  0.17689086865E+01  0.32266902119E+02  0.47250182420E+02  0.00000000000E+00 0. -1.
</event>
<event>
 5    1  0.1258677E-009  0.9118800E+02  0.7561462E-02  0.1125453E+00
         25   -1    0    0    0    0  0.00000000000E+00  0.00000000000E+00  0.99999998245E-14  0.12509000000E+03  0.12509000000E+03 0.  0.
        -13    1    3    3    0    0 -0.33726791092E+02 -0.13311272748E+02  0.38116101854E+02  0.52607364543E+02  0.10566000000E+00 0. -1.
         23    2    1    0    0    0  0.32817289855E+01  0.33853939602E+01  0.30885194760E+02  0.93846986497E+02  0.88493677638E+02 0.  0.
         13    1    3    3    0    0  0.37008520077E+02  0.16696666709E+02 -0.72309070947E+01  0.41239621954E+02  0.10566000000E+00 0.  1.
         22    1    1    0    0    0 -0.32817289855E+01 -0.33853939602E+01 -0.30885194760E+02  0.31243013503E+02  0.00000000000E+00 0. -1.
</event>
<event>
 5    1  0.1258677E-009  0.9118800E+02  0.7561462E-02  0.1125453E+00
         25   -1    0    0    0    0  0.00000000000E+00  0.00000000000E+00  0.99999998245E-14  0.12509000000E+03  0.12509000000E+03 0.  0.
        -13    1    3    3    0    0 -0.24991410943E+02  0.43813846132E+02 -0.21727339797E+02  0.54920963142E+02  0.10566000000E+00 0.  1.
         23    2    1    0    0    0 -0.28062309106E+02  0.90629248725E+01 -0.82724308687E+00  0.95588913059E+02  0.90922638375E+02 0.  0.
         13    1    3    3    0    0 -0.30708981623E+01 -0.34750921259E+02  0.20900096710E+02  0.40667949917E+02  0.10566000000E+00 0. -1.
         22    1    1    0    0    0  0.28062309106E+02 -0.90629248725E+01  0.82724308687E+00  0.29501086941E+02  0.00000000000E+00 0.  1.
</event>
<event>
 5    1  0.1258677E-009  0.9118800E+02  0.7561462E-02  0.1125453E+00
         25   -1    0    0    0    0  0.00000000000E+00  0.00000000000E+00  0.99999998245E-14  0.12509000000E+03  0.12509000000E+03 0.  0.
        -13    1    3    3    0    0 -0.16468671160E+02  0.17800243643E+02  0.24529225697E+02  0.34492896092E+02  0.10566000000E+00 0.  1.
         23    2    1    0    0    0 -0.37514217789E+01 -0.25544330395E+02 -0.15608090430E+02  0.94920504354E+02  0.89998353758E+02 0.  0.
         13    1    3    3    0    0  0.12717249381E+02 -0.43344574037E+02 -0.40137316127E+02  0.60427608262E+02  0.10566000000E+00 0. -1.
         22    1    1    0    0    0  0.37514217789E+01  0.25544330395E+02  0.15608090430E+02  0.30169495646E+02  0.00000000000E+00 0. -1.
</event>
<event>
 5    1  0.1258677E-009  0.9118800E+02  0.7561462E-02  0.1125453E+00
         25   -1    0    0    0    0  0.00000000000E+00  0.00000000000E+00  0.99999998245E-14  0.12509000000E+03  0.12509000000E+03 0.  0.
        -13    1    3    3    0    0  0.33179334037E+02 -0.10366115985E+02  0.31822004680E+02  0.47127229004E+02  0.10566000000E+00 0.  1.
         23    2    1    0    0    0  0.90785348578E+01 -0.28282053261E+02 -0.53440955314E+01  0.94909647303E+02  0.89983262123E+02 0.  0.
         13    1    3    3    0    0 -0.24100799179E+02 -0.17915937277E+02 -0.37166100211E+02  0.47782418299E+02  0.10566000000E+00 0. -1.
         22    1    1    0    0    0 -0.90785348578E+01  0.28282053261E+02  0.53440955314E+01  0.30180352697E+02  0.00000000000E+00 0.  1.
</event>
<event>
 5    1  0.1258677E-009  0.9118800E+02  0.7561462E-02  0.1125453E+00
         25   -1    0    0    0    0  0.00000000000E+00  0.00000000000E+00  0.99999998245E-14  0.12509000000E+03  0.12509000000E+03 0.  0.
        -13    1    3    3    0    0  0.30980726885E+02  0.22838911695E+02  0.18190143124E+01  0.38532340999E+02  0.10566000000E+00 0. -1.
         23    2    1    0    0    0 -0.34337329952E+00 -0.19741539439E+02 -0.21139400522E+02  0.96163877912E+02  0.91710255020E+02 0.  0.
         13    1    3    3    0    0 -0.31324100185E+02 -0.42580451134E+02 -0.22958414834E+02  0.57631536913E+02  0.10566000000E+00 0.  1.
         22    1    1    0    0    0  0.34337329952E+00  0.19741539439E+02  0.21139400522E+02  0.28926122088E+02  0.00000000000E+00 0.  1.
</event>
<event>
 5    1  0.1258677E-009  0.9118800E+02  0.7561462E-02  0.1125453E+00
         25   -1    0    0    0    0  0.00000000000E+00  0.00000000000E+00  0.99999998245E-14  0.12509000000E+03  0.12509000000E+03 0.  0.
        -13    1    3    3    0    0  0.47604544468E+01 -0.17917474145E+02  0.52282085481E+02  0.55471843602E+02  0.10566000000E+00 0.  1.
         23    2    1    0    0    0 -0.12792383132E+02  0.67444045798E+01  0.24928007730E+02  0.96270950246E+02  0.91856182332E+02 0.  0.
         13    1    3    3    0    0 -0.17552837579E+02  0.24661878725E+02 -0.27354077751E+02  0.40799106644E+02  0.10566000000E+00 0. -1.
         22    1    1    0    0    0  0.12792383132E+02 -0.67444045798E+01 -0.24928007730E+02  0.28819049754E+02  0.00000000000E+00 0.  1.
</event>
<event>
 5    1  0.1258677E-009  0.9118800E+02  0.7561462E-02  0.1125453E+00
         25   -1    0    0    0    0  0.00000000000E+00  0.00000000000E+00  0.99999998245E-14  0.12509000000E+03  0.12509000000E+03 0.  0.
        -13    1    3    3    0    0  0.69048885684E+01 -0.40767668532E+02  0.32446332313E+02  0.52559070847E+02  0.10566000000E+00 0.  1.
         23    2    1    0    0    0  0.15825997698E+02  0.73690985767E+00  0.24749631017E+02  0.95703787676E+02  0.91080544030E+02 0.  0.
         13    1    3    3    0    0  0.89211091298E+01  0.41504578389E+02 -0.76967012970E+01  0.43144716829E+02  0.10566000000E+00 0. -1.
         22    1    1    0    0    0 -0.15825997698E+02 -0.73690985767E+00 -0.24749631017E+02  0.29386212324E+02  0.00000000000E+00 0. -1.
</event>
<event>
 5    1  0.1258677E-009  0.9118800E+02  0.7561462E-02  0.1125453E+00
         25   -1    0    0    0    0  0.00000000000E+00  0.00000000000E+00  0.99999998245E-14  0.12509000000E+03  0.12509000000E+03 0.  0.
        -13    1    3    3    0    0 -0.48214753200E+02  0.49647961580E+01  0.22965452131E+02  0.53635200966E+02  0.10566000000E+00 0. -1.
         23    2    1    0    0    0 -0.26803578380E+02 -0.57734892433E+01 -0.11292935682E+02  0.95437084657E+02  0.90713514646E+02 0.  0.
         13    1    3    3    0    0  0.21411174819E+02 -0.10738285401E+02 -0.34258387814E+02  0.41801883691E+02  0.10566000000E+00 0.  1.
         22    1    1    0    0    0  0.26803578380E+02  0.57734892433E+01  0.11292935682E+02  0.29652915343E+02  0.00000000000E+00 0. -1.
</event>
<event>
 5    1  0.1258677E-009  0.9118800E+02  0.7561462E-02  0.1125453E+00
         25   -1    0    0    0    0  0.00000000000E+00  0.00000000000E+00  0.99999998245E-14  0.12509000000E+03  0.12509000000E+03 0.  0.
        -13    1    3    3    0    0  0.52572240810E+02  0.25147325855E+02 -0.15445309463E+01  0.58297729298E+02  0.10566000000E+00 0.  1.
         23    2    1    0    0    0  0.19866723337E+02  0.18362534499E+02  0.13411216802E+02  0.94895131140E+02  0.89963080253E+02 0.  0.
         13    1    3    3    0    0 -0.32705517472E+02 -0.67847913559E+01  0.14955747748E+02  0.36597401842E+02  0.10566000000E+00 0. -1.
         22    1    1    0    0    0 -0.19866723337E+02 -0.18362534499E+02 -0.13411216802E+02  0.30194868860E+02  0.00000000000E+00 0.  1.
</event>
<event>
 5    1  0.1258677E-009  0.9118800E+02  0.7561462E-02  0.1125453E+00
         25   -1    0    0    0    0  0.00000000000E+00  0.00000000000E+00  0.99999998245E-14  0.12509000000E+03  0.12509000000E+03 0.  0.
        -13    1    3    3    0    0 -0.12623335452E+01 -0.27984365768E+02 -0.54098607047E+02  0.60921167601E+02  0.10566000000E+00 0. -1.
         23    2    1    0    0    0 -0.72427668484E+01 -0.57673832261E+01 -0.27411545723E+02  0.96157091058E+02  0.91700997491E+02 0.  0.
         13    1    3    3    0    0 -0.59804333031E+01  0.22216982542E+02  0.26687061323E+02  0.35235923457E+02  0.10566000000E+00 0.  1.
         22    1    1    0    0    0  0.72427668484E+01  0.57673832261E+01  0.27411545723E+02  0.28932908942E+02  0.00000000000E+00 0. -1.
</event>
<event>
 5    1  0.1258677E-009  0.9118800E+02  0.7561462E-02  0.1125453E+00
         25   -1    0    0    0    0  0.00000000000E+00  0.00000000000E+00  0.99999998245E-14  0.12509000000E+03  0.12509000000E+03 0.  0.
        -13    1    3    3    0    0  0.43783609762E+02 -0.11780307191E+02  0.58773082724E+01  0.45720171017E+02  0.10566000000E+00 0. -1.
         23    2    1    0    0    0  0.85705958127E+01  0.18838335467E+02  0.21804840015E+02  0.95026915597E+02  0.90146134936E+02 0.  0.
         13    1    3    3    0    0 -0.35213013949E+02  0.30618642657E+02  0.15927531743E+02  0.49306744579E+02  0.10566000000E+00 0.  1.
         22    1    1    0    0    0 -0.85705958127E+01 -0.18838335467E+02 -0.21804840015E+02  0.30063084403E+02  0.00000000000E+00 0.  1.
</event>
<event>
 5    1  0.1258677E-009  0.9118800E+02  0.7561462E-02  0.1125453E+00
         25   -1    0    0    0    0  0.00000000000E+00  0.00000000000E+00  0.99999998245E-14  0.12509000000E+03  0.12509000000E+03 0.  0.
        -13    1    3    3    0    0 -0.25393255054E+02  0.14832843762E+02 -0.28378715248E+02  0.40867998477E+02  0.10566000000E+00 0.  1.
         23    2    1    0    0    0 -0.13568936732E+02  0.51150576241E+01  0.24885570917E+02  0.96287717132E+02  0.91879012686E+02 0.  0.
         13    1    3    3    0    0  0.11824318323E+02 -0.97177861384E+01  0.53264286165E+02  0.55419718656E+02  0.10566000000E+00 0. -1.
         22    1    1    0    0    0  0.13568936732E+02 -0.51150576241E+01 -0.24885570917E+02  0.28802282868E+02  0.00000000000E+00 0. -1.
</event>
<event>
 5    1  0.1258677E-009  0.9118800E+02  0.7561462E-02  0.1125453E+00
         25   -1    0    0    0    0  0.00000000000E+00  0.00000000000E+00  0.99999998245E-14  0.12509000000E+03  0.12509000000E+03 0.  0.
        -13    1    3    3    0    0 -0.42562062174E+02 -0.20972684108E+02  0.11176155619E+02  0.48747310015E+02  0.10566000000E+00 0.  1.
         23    2    1    0    0    0 -0.24163360614E+01 -0.58296527965E+01  0.29148506289E+02  0.95266201607E+02  0.90477567486E+02 0.  0.
         13    1    3    3    0    0  0.40145726113E+02  0.15143031311E+02  0.17972350670E+02  0.46518891593E+02  0.10566000000E+00 0. -1.
         22    1    1    0    0    0  0.24163360614E+01  0.58296527965E+01 -0.29148506289E+02  0.29823798393E+02  0.00000000000E+00 0. -1.
</event>
<event>
 5    1  0.1258677E-009  0.9118800E+02  0.7561462E-02  0.1125453E+00
         25   -1    0    0    0    0  0.00000000000E+00  0.00000000000E+00  0.99999998245E-14  0.12509000000E+03  0.12509000000E+03 0.  0.
        -13    1    3    3    0    0 -0.33079130427E+02  0.31717017469E+02  0.41228431464E+02  0.61644081565E+02  0.10566000000E+00 0. -1.
         23    2    1    0    0    0 -0.20595518781E+02  0.93909686899E+01  0.18723667191E+02  0.95714135759E+02  0.91094754977E+02 0.  0.
         13    1    3    3    0    0  0.12483611646E+02 -0.22326048779E+02 -0.22504764273E+02  0.34070054195E+02  0.10566000000E+00 0.  1.
         22    1    1    0    0    0  0.20595518781E+02 -0.93909686899E+01 -0.18723667191E+02  0.29375864241E+02  0.00000000000E+00 0. -1.
</event>
<event>
 5    1  0.1258677E-009  0.9118800E+02  0.7561462E-02  0.1125453E+00
         25   -1    0    0    0    0  0.00000000000E+00  0.00000000000E+00  0.99999998245E-14  0.12509000000E+03  0.12509000000E+03 0.  0.
        -13    1    3    3    0    0  0.32289283725E+02  0.11998769953E+01 -0.39871898143E+02  0.51320726552E+02  0.10566000000E+00 0.  1.
         23    2    1    0    0    0  0.26489978869E+02 -0.16639507780E+02 -0.18087141942E+01  0.93755296448E+02  0.88363974364E+02 0.  0.
         13    1    3    3    0    0 -0.57993048556E+01 -0.17839384775E+02  0.38063183948E+02  0.42434569896E+02  0.10566000000E+00 0. -1.
         22    1    1    0    0    0 -0.26489978869E+02  0.16639507780E+02  0.18087141942E+01  0.31334703552E+02  0.00000000000E+00 0.  1.
</event>
<event>
 5    1  0.1258677E-009  0.9118800E+02  0.7561462E-02  0.1125453E+00
         25   -1    0    0    0    0  0.00000000000E+00  0.00000000000E+00  0.99999998245E-14  0.12509000000E+03  0.12509000000E+03 0.  0.
        -13    1    3    3    0    0 -0.39171797772E+02 -0.87927611414E+01 -0.68418264971E+01  0.40725472901E+02  0.10566000000E+00 0.  1.
         23    2    1    0    0    0  0.89888953839E+01 -0.13337162785E+02 -0.27424673735E+02  0.93297030953E+02  0.87712844577E+02 0.  0.
         13    1    3    3    0    0  0.48160693156E+02 -0.45444016432E+01 -0.20582847237E+02  0.52571558052E+02  0.10566000000E+00 0. -1.
         22    1    1    0    0    0 -0.89888953839E+01  0.13337162785E+02  0.27424673735E+02  0.31792969047E+02  0.00000000000E+00 0. -1.
</event>
<event>
 5    1  0.1258677E-009  0.9118800E+02  0.7561462E-02  0.1125453E+00
         25   -1    0    0    0    0  0.00000000000E+00  0.00000000000E+00  0.99999998245E-14  0.12509000000E+03  0.12509000000E+03 0.  0.
        -13    1    3    3    0    0 -0.16373611091E+02 -0.12553279479E+02  0.28465563653E+02  0.35156499314E+02  0.10566000000E+00 0.  1.
         23    2    1    0    0    0  0.13730877174E+02 -0.14271167547E+02 -0.22959045432E+02  0.94769693632E+02  0.89788495102E+02 0.  0.
         13    1    3    3    0    0  0.30104488265E+02 -0.17178880679E+01 -0.51424609085E+02  0.59613194318E+02  0.10566000000E+00 0. -1.
         22    1    1    0    0    0 -0.13730877174E+02  0.14271167547E+02  0.22959045432E+02  0.30320306368E+02  0.00000000000E+00 0. -1.
</event>
<event>
 5    1  0.1258677E-009  0.9118800E+02  0.7561462E-02  0.1125453E+00
         25   -1    0    0    0    0  0.00000000000E+00  0.00000000000E+00  0.99999998245E-14  0.12509000000E+03  0.12509000000E+03 0.  0.
        -13    1    3    3    0    0 -0.16590571323E+02  0.23165007237E+02 -0.46431251096E+02  0.54476938786E+02  0.10566000000E+00 0.  1.
         23    2    1    0    0    0  0.79001713959E+01 -0.39363072594E+01 -0.28666141665E+02  0.95095752203E+02  0.90241604519E+02 0.  0.
         13    1    3    3    0    0  0.24490742719E+02 -0.27101314496E+02  0.17765109431E+02  0.40618813418E+02  0.10566000000E+00 0. -1.
         22    1    1    0    0    0 -0.79001713959E+01  0.39363072594E+01  0.28666141665E+02  0.29994247797E+02  0.00000000000E+00 0.  1.
</event>
<event>
 5    1  0.1258677E-009  0.9118800E+02  0.7561462E-02  0.1125453E+00
         25   -1    0    0    0    0  0.00000000000E+00  0.00000000000E+00  0.99999998245E-14  0.12509000000E+03  0.12509000000E+03 0.  0.
        -13    1    3    3    0    0 -0.23119423926E+02 -0.32634450251E+02 -0.20549280389E+01  0.40046835070E+02  0.10566000000E+00 0. -1.
         23    2    1    0    0    0  0.17077287815E+02  0.46746954495E+00 -0.23225453492E+02  0.96258177706E+02  0.91838787005E+02 0.  0.
         13    1    3    3    0    0  0.40196711741E+02  0.33101919796E+02 -0.21170525453E+02  0.56211342636E+02  0.10566000000E+00 0.  1.
         22    1    1    0    0    0 -0.17077287815E+02 -0.46746954495E+00  0.23225453492E+02  0.28831822294E+02  0.00000000000E+00 0.  1.
</event>
<event>
 5    1  0.1258677E-009  0.9118800E+02  0.7561462E-02  0.1125453E+00
         25   -1    0    0    0    0  0.00000000000E+00  0.00000000000E+00  0.99999998245E-14  0.12509000000E+03  0.12509000000E+03 0.  0.
        -13    1    3    3    0    0 -0.83672422299E+01  0.32846142326E+02 -0.69419014417E+01  0.34598857899E+02  0.10566000000E+00 0.  1.
         23    2    1    0    0    0  0.50081184850E+01  0.36874988801E+02  0.32024776418E+02  0.75993845828E+02  0.58005450169E+02 0.  0.
         13    1    3    3    0    0  0.13375360715E+02  0.40288464746E+01  0.38966677860E+02  0.41394987929E+02  0.10566000000E+00 0. -1.
         22    1    1    0    0    0 -0.50081184850E+01 -0.36874988801E+02 -0.32024776418E+02  0.49096154172E+02  0.00000000000E+00 0.  1.
</event>
<event>
 5    1  0.1258677E-009  0.9118800E+02  0.7561462E-02  0.1125453E+00
         25   -1    0    0    0    0  0.00000000000E+00  0.00000000000E+00  0.99999998245E-14  0.12509000000E+03  0.12509000000E+03 0.  0.
        -13    1    3    3    0    0 -0.32217013865E+02 -0.17819336180E+02 -0.28553519051E+02  0.46591623051E+02  0.10566000000E+00 0.  1.
         23    2    1    0    0    0  0.26586522906E+01  0.16245633996E+02 -0.24582190840E+02  0.95504984157E+02  0.90807096840E+02 0.  0.
         13    1    3    3    0    0  0.34875666156E+02  0.34064970176E+02  0.39713282111E+01  0.48913361106E+02  0.10566000000E+00 0. -1.
         22    1    1    0    0    0 -0.26586522906E+01 -0.16245633996E+02  0.24582190840E+02  0.29585015843E+02  0.00000000000E+00 0. -1.
</event>
<event>
 5    1  0.1258677E-009  0.9118800E+02  0.7561462E-02  0.1125453E+00
         25   -1    0    0    0    0  0.00000000000E+00  0.00000000000E+00  0.99999998245E-14  0.12509000000E+03  0.12509000000E+03 0.  0.
        -13    1    3    3    0    0  0.20697751385E+02 -0.43039882601E+01 -0.53945417616E+02  0.57939973016E+02  0.10566000000E+00 0. -1.
         23    2    1    0    0    0 -0.69001572614E+01 -0.11494697694E+01 -0.28945849015E+02  0.95310886075E+02  0.90539325037E+02 0.  0.
         13    1    3    3    0    0 -0.27597908646E+02  0.31545184907E+01  0.24999568601E+02  0.37370913058E+02  0.10566000000E+00 0.  1.
         22    1    1    0    0    0  0.69001572614E+01  0.11494697694E+01  0.28945849015E+02  0.29779113925E+02  0.00000000000E+00 0. -1.
</event>
<event>
 5    1  0.1258677E-009  0.9118800E+02  0.7561462E-02  0.1125453E+00
         25   -1    0    0    0    0  0.00000000000E+00  0.00000000000E+00  0.99999998245E-14  0.12509000000E+03  0.12509000000E+03 0.  0.
        -13    1    3    3    0    0  0.49591697580E+02  0.13626918383E+02 -0.32878167868E+02  0.61041088292E+02  0.10566000000E+00 0.  1.
         23    2    1    0    0    0  0.20688012866E+02  0.15484222408E+02 -0.13056479578E+02  0.96137855366E+02  0.91674754188E+02 0.  0.
         13    1    3    3    0    0 -0.28903684714E+02  0.18573040254E+01  0.19821688290E+02  0.35096767073E+02  0.10566000000E+00 0. -1.
         22    1    1    0    0    0 -0.20688012866E+02 -0.15484222408E+02  0.13056479578E+02  0.28952144634E+02  0.00000000000E+00 0.  1.
</event>
<event>
 5    1  0.1258677E-009  0.9118800E+02  0.7561462E-02  0.1125453E+00
         25   -1    0    0    0    0  0.00000000000E+00  0.00000000000E+00  0.99999998245E-14  0.12509000000E+03  0.12509000000E+03 0.  0.
        -13    1    3    3    0    0  0.44259435145E+01  0.30823416232E+02 -0.23106096726E+02  0.38775956909E+02  0.10566000000E+00 0. -1.
         23    2    1    0    0    0  0.10994206692E+02  0.16630655589E+01  0.26308703163E+02  0.96528028254E+02  0.92205607252E+02 0.  0.
         13    1    3    3    0    0  0.65682631779E+01 -0.29160350673E+02  0.49414799890E+02  0.57752071346E+02  0.10566000000E+00 0.  1.
         22    1    1    0    0    0 -0.10994206692E+02 -0.16630655589E+01 -0.26308703163E+02  0.28561971746E+02  0.00000000000E+00 0.  1.
</event>
<event>
 5    1  0.1258677E-009  0.9118800E+02  0.7561462E-02  0.1125453E+00
         25   -1    0    0    0    0  0.00000000000E+00  0.00000000000E+00  0.99999998245E-14  0.12509000000E+03  0.12509000000E+03 0.  0.
        -13    1    3    3    0    0 -0.85250459025E+01  0.16104386166E+02  0.39469079234E+02  0.43472371008E+02  0.10566000000E+00 0.  1.
         23    2    1    0    0    0 -0.24391011456E+02  0.11142646208E+02 -0.10619899106E+02  0.96247977509E+02  0.91824892666E+02 0.  0.
         13    1    3    3    0    0 -0.15865965554E+02 -0.49617399580E+01 -0.50088978340E+02  0.52775606501E+02  0.10566000000E+00 0. -1.
         22    1    1    0    0    0  0.24391011456E+02 -0.11142646208E+02  0.10619899106E+02  0.28842022491E+02  0.00000000000E+00 0. -1.
</event>
<event>
 5    1  0.1258677E-009  0.9118800E+02  0.7561462E-02  0.1125453E+00
         25   -1    0    0    0    0  0.00000000000E+00  0.00000000000E+00  0.99999998245E-14  0.12509000000E+03  0.12509000000E+03 0.  0.
        -13    1    3    3    0    0  0.30389207136E+02  0.21449131226E+00 -0.30894745712E+02  0.43336432634E+02  0.10566000000E+00 0. -1.
         23    2    1    0    0    0  0.21850411118E+02 -0.13140827307E+02  0.17436306982E+02  0.94200736339E+02  0.88992314934E+02 0.  0.
         13    1    3    3    0    0 -0.85387960172E+01 -0.13355318620E+02  0.48331052693E+02  0.50864303704E+02  0.10566000000E+00 0.  1.
         22    1    1    0    0    0 -0.21850411118E+02  0.13140827307E+02 -0.17436306982E+02  0.30889263661E+02  0.00000000000E+00 0.  1.
</event>
<event>
 5    1  0.1258677E-009  0.9118800E+02  0.7561462E-02  0.1125453E+00
         25   -1    0    0    0    0  0.00000000000E+00  0.00000000000E+00  0.99999998245E-14  0.12509000000E+03  0.12509000000E+03 0.  0.
        -13    1    3    3    0    0  0.38328577544E+02 -0.42708030210E+02  0.14740774943E+02  0.59248268422E+02  0.10566000000E+00 0. -1.
         23    2    1    0    0    0  0.21102605053E+02 -0.17290542931E+02 -0.70651142395E+01  0.96908469628E+02  0.92720293526E+02 0.  0.
         13    1    3    3    0    0 -0.17225972491E+02  0.25417487280E+02 -0.21805889183E+02  0.37660201207E+02  0.10566000000E+00 0.  1.
         22    1    1    0    0    0 -0.21102605053E+02  0.17290542931E+02  0.70651142395E+01  0.28181530372E+02  0.00000000000E+00 0. -1.
</event>
<event>
 5    1  0.1258677E-009  0.9118800E+02  0.7561462E-02  0.1125453E+00
         25   -1    0    0    0    0  0.00000000000E+00  0.00000000000E+00  0.99999998245E-14  0.12509000000E+03  0.12509000000E+03 0.  0.
        -13    1    3    3    0    0  0.38919101645E+02  0.14609871635E+02 -0.29061875835E+02  0.50722269401E+02  0.10566000000E+00 0.  1.
         23    2    1    0    0    0  0.20621745040E+02 -0.16990109274E+02  0.14845737067E+01  0.98329504101E+02  0.94618006934E+02 0.  0.
         13    1    3    3    0    0 -0.18297356605E+02 -0.31599980909E+02  0.30546449542E+02  0.47607234701E+02  0.10566000000E+00 0. -1.
         22    1    1    0    0    0 -0.20621745040E+02  0.16990109274E+02 -0.14845737067E+01  0.26760495899E+02  0.00000000000E+00 0.  1.
</event>
<event>
 5    1  0.1258677E-009  0.9118800E+02  0.7561462E-02  0.1125453E+00
         25   -1    0    0    0    0  0.00000000000E+00  0.00000000000E+00  0.99999998245E-14  0.12509000000E+03  0.12509000000E+03 0.  0.
        -13    1    3    3    0    0 -0.40440081222E+02  0.33973637583E+02 -0.25228633830E+02  0.58532925340E+02  0.10566000000E+00 0. -1.
         23    2    1    0    0    0 -0.15947627661E+02  0.70056518562E+01 -0.24573652276E+02  0.94969070862E+02  0.90065831747E+02 0.  0.
         13    1    3    3    0    0  0.24492453561E+02 -0.26967985727E+02  0.65498155412E+00  0.36436145522E+02  0.10566000000E+00 0.  1.
         22    1    1    0    0    0  0.15947627661E+02 -0.70056518562E+01  0.24573652276E+02  0.30120929138E+02  0.00000000000E+00 0. -1.
</event>
<event>
 5    1  0.1258677E-009  0.9118800E+02  0.7561462E-02  0.1125453E+00
         25   -1    0    0    0    0  0.00000000000E+00  0.00000000000E+00  0.99999998245E-14  0.12509000000E+03  0.12509000000E+03 0.  0.
        -13    1    3    3    0    0  0.38776170835E+02  0.34639592687E+02  0.32868979456E+01  0.52099017920E+02  0.10566000000E+00 0. -1.
         23    2    1    0    0    0  0.27880167772E+02 -0.38789631272E+01  0.14161125612E+02  0.93579881172E+02  0.88115302709E+02 0.  0.
         13    1    3    3    0    0 -0.10896003062E+02 -0.38518555814E+02  0.10874227667E+02  0.41480863252E+02  0.10566000000E+00 0.  1.
         22    1    1    0    0    0 -0.27880167772E+02  0.38789631272E+01 -0.14161125612E+02  0.31510118828E+02  0.00000000000E+00 0. -1.
</event>
<event>
 5    1  0.1258677E-009  0.9118800E+02  0.7561462E-02  0.1125453E+00
         25   -1    0    0    0    0  0.00000000000E+00  0.00000000000E+00  0.99999998245E-14  0.12509000000E+03  0.12509000000E+03 0.  0.
        -13    1    3    3    0    0  0.47555350352E+02 -0.21861096102E+02  0.16576536167E+02  0.54901835901E+02  0.10566000000E+00 0.  1.
         23    2    1    0    0    0  0.27815873494E+02 -0.11671106099E+01 -0.11489695861E+02  0.94971931065E+02  0.90069804118E+02 0.  0.
         13    1    3    3    0    0 -0.19739476858E+02  0.20693985493E+02 -0.28066232028E+02  0.40070095164E+02  0.10566000000E+00 0. -1.
         22    1    1    0    0    0 -0.27815873494E+02  0.11671106099E+01  0.11489695861E+02  0.30118068935E+02  0.00000000000E+00 0.  1.
</event>
<event>
 5    1  0.1258677E-009  0.9118800E+02  0.7561462E-02  0.1125453E+00
         25   -1    0    0    0    0  0.00000000000E+00  0.00000000000E+00  0.99999998245E-14  0.12509000000E+03  0.12509000000E+03 0.  0.
        -13    1    3    3    0    0 -0.27360802697E+02 -0.34530933269E+02 -0.37569026719E+02  0.57900274692E+02  0.10566000000E+00 0.  1.
         23    2    1    0    0    0  0.20166987086E+01 -0.14667140970E+02 -0.25942046319E+02  0.95220586462E+02  0.90414480152E+02 0.  0.
         13    1    3    3    0    0  0.29377501406E+02  0.19863792299E+02  0.11626980401E+02  0.37320311770E+02  0.10566000000E+00 0. -1.
         22    1    1    0    0    0 -0.20166987086E+01  0.14667140970E+02  0.25942046319E+02  0.29869413538E+02  0.00000000000E+00 0.  1.
</event>
<event>
 5    1  0.1258677E-009  0.9118800E+02  0.7561462E-02  0.1125453E+00
         25   -1    0    0    0    0  0.00000000000E+00  0.00000000000E+00  0.99999998245E-14  0.12509000000E+03  0.12509000000E+03 0.  0.
        -13    1    3    3    0    0  0.25434501343E+02  0.46636742928E+02  0.17532073621E+02  0.55940007320E+02  0.10566000000E+00 0. -1.
         23    2    1    0    0    0 -0.46605107405E+01  0.33740962512E+02  0.71711144851E+01  0.90281986633E+02  0.83302096707E+02 0.  0.
         13    1    3    3    0    0 -0.30095012083E+02 -0.12895780416E+02 -0.10360959136E+02  0.34341979312E+02  0.10566000000E+00 0.  1.
         22    1    1    0    0    0  0.46605107405E+01 -0.33740962512E+02 -0.71711144851E+01  0.34808013367E+02  0.00000000000E+00 0. -1.
</event>
<event>
 5    1  0.1258677E-009  0.9118800E+02  0.7561462E-02  0.1125453E+00
         25   -1    0    0    0    0  0.00000000000E+00  0.00000000000E+00  0.99999998245E-14  0.12509000000E+03  0.12509000000E+03 0.  0.
        -13    1    3    3    0    0  0.41023721497E+02 -0.40180883579E+01 -0.79397774371E+01  0.41977874997E+02  0.10566000000E+00 0. -1.
         23    2    1    0    0    0  0.35680114120E+01 -0.67437895850E+01  0.29268166396E+02  0.94843761100E+02  0.89891623926E+02 0.  0.
         13    1    3    3    0    0 -0.37455710085E+02 -0.27257012271E+01  0.37207943833E+02  0.52865886103E+02  0.10566000000E+00 0.  1.
         22    1    1    0    0    0 -0.35680114120E+01  0.67437895850E+01 -0.29268166396E+02  0.30246238900E+02  0.00000000000E+00 0.  1.
</event>
<event>
 5    1  0.1258677E-009  0.9118800E+02  0.7561462E-02  0.1125453E+00
         25   -1    0    0    0    0  0.00000000000E+00  0.00000000000E+00  0.99999998245E-14  0.12509000000E+03  0.12509000000E+03 0.  0.
        -13    1    3    3    0    0 -0.10647314842E+02 -0.33012291108E+01  0.33261090996E+02  0.35079549103E+02  0.10566000000E+00 0.  1.
         23    2    1    0    0    0 -0.11741221976E+02  0.50818920686E+01 -0.26620309757E+02  0.95554888488E+02  0.90875815825E+02 0.  0.
         13    1    3    3    0    0 -0.10939071338E+01  0.83831211793E+01 -0.59881400753E+02  0.60475339385E+02  0.10566000000E+00 0. -1.
         22    1    1    0    0    0  0.11741221976E+02 -0.50818920686E+01  0.26620309757E+02  0.29535111512E+02  0.00000000000E+00 0. -1.
</event>
<event>
 5    1  0.1258677E-009  0.9118800E+02  0.7561462E-02  0.1125453E+00
         25   -1    0    0    0    0  0.00000000000E+00  0.00000000000E+00  0.99999998245E-14  0.12509000000E+03  0.12509000000E+03 0.  0.
        -13    1    3    3    0    0 -0.41872373396E+02  0.19735185022E+02  0.22456753331E+02  0.51449879649E+02  0.10566000000E+00 0.  1.
         23    2    1    0    0    0  0.35020771502E+01  0.20927309094E+02  0.18371341546E+02  0.97023596588E+02  0.92875482741E+02 0.  0.
         13    1    3    3    0    0  0.45374450546E+02  0.11921240720E+01 -0.40854117844E+01  0.45573716939E+02  0.10566000000E+00 0. -1.
         22    1    1    0    0    0 -0.35020771502E+01 -0.20927309094E+02 -0.18371341546E+02  0.28066403412E+02  0.00000000000E+00 0. -1.
</event>
<event>
 5    1  0.1258677E-009  0.9118800E+02  0.7561462E-02  0.1125453E+00
         25   -1    0    0    0    0  0.00000000000E+00  0.00000000000E+00  0.99999998245E-14  0.12509000000E+03  0.12509000000E+03 0.  0.
        -13    1    3    3    0    0  0.29669351408E+02  0.17776916237E+02  0.50246567997E+02  0.61000146913E+02  0.10566000000E+00 0. -1.
         23    2    1    0    0    0  0.52137028279E+01  0.11241018313E+02  0.27057818209E+02  0.95329813238E+02  0.90565471212E+02 0.  0.
         13    1    3    3    0    0 -0.24455648581E+02 -0.65358979244E+01 -0.23188749788E+02  0.34329666325E+02  0.10566000000E+00 0.  1.
         22    1    1    0    0    0 -0.52137028279E+01 -0.11241018313E+02 -0.27057818209E+02  0.29760186762E+02  0.00000000000E+00 0. -1.
</event>
<event>
 5    1  0.1258677E-009  0.9118800E+02  0.7561462E-02  0.1125453E+00
         25   -1    0    0    0    0  0.00000000000E+00  0.00000000000E+00  0.99999998245E-14  0.12509000000E+03  0.12509000000E+03 0.  0.
        -13    1    3    3    0    0  0.34405884922E+02  0.15291812747E+02  0.25103118614E+02  0.45252427366E+02  0.10566000000E+00 0. -1.
         23    2    1    0    0    0 -0.15323562167E+02  0.15002047482E+02  0.20875867822E+02  0.95162172757E+02  0.90333627627E+02 0.  0.
         13    1    3    3    0    0 -0.49729447089E+02 -0.28976526439E+00 -0.42272507915E+01  0.49909745391E+02  0.10566000000E+00 0.  1.
         22    1    1    0    0    0  0.15323562167E+02 -0.15002047482E+02 -0.20875867822E+02  0.29927827243E+02  0.00000000000E+00 0. -1.
</event>
<event>
 5    1  0.1258677E-009  0.9118800E+02  0.7561462E-02  0.1125453E+00
         25   -1    0    0    0    0  0.00000000000E+00  0.00000000000E+00  0.99999998245E-14  0.12509000000E+03  0.12509000000E+03 0.  0.
        -13    1    3    3    0    0  0.19952457363E+02  0.26921837628E+02 -0.11276991029E+02  0.35356294868E+02  0.10566000000E+00 0.  1.
         23    2    1    0    0    0 -0.77618553692E+01 -0.12336475585E+02  0.25397577402E+02  0.95807377738E+02  0.91222703657E+02 0.  0.
         13    1    3    3    0    0 -0.27714312732E+02 -0.39258313213E+02  0.36674568431E+02  0.60451082870E+02  0.10566000000E+00 0. -1.
         22    1    1    0    0    0  0.77618553692E+01  0.12336475585E+02 -0.25397577402E+02  0.29282622262E+02  0.00000000000E+00 0. -1.
</event>
<event>
 5    1  0.1258677E-009  0.9118800E+02  0.7561462E-02  0.1125453E+00
         25   -1    0    0    0    0  0.00000000000E+00  0.00000000000E+00  0.99999998245E-14  0.12509000000E+03  0.12509000000E+03 0.  0.
        -13    1    3    3    0    0  0.25146857187E+02 -0.49514956673E+02  0.17994025461E+02  0.58377148586E+02  0.10566000000E+00 0.  1.
         23    2    1    0    0    0  0.45351448183E+01 -0.22776494455E+02  0.22878972408E+02  0.92489637784E+02  0.86553737532E+02 0.  0.
         13    1    3    3    0    0 -0.20611712368E+02  0.26738462218E+02  0.48849469473E+01  0.34112489198E+02  0.10566000000E+00 0. -1.
         22    1    1    0    0    0 -0.45351448183E+01  0.22776494455E+02 -0.22878972408E+02  0.32600362216E+02  0.00000000000E+00 0.  1.
</event>
<event>
 5    1  0.1258677E-009  0.9118800E+02  0.7561462E-02  0.1125453E+00
         25   -1    0    0    0    0  0.00000000000E+00  0.00000000000E+00  0.99999998245E-14  0.12509000000E+03  0.12509000000E+03 0.  0.
        -13    1    3    3    0    0 -0.40682329954E+02 -0.19234081812E+02  0.24402399684E+02  0.51190723261E+02  0.10566000000E+00 0. -1.
         23    2    1    0    0    0 -0.23605097146E+02  0.17405430940E+02  0.10000805689E+02  0.94103458536E+02  0.88855473419E+02 0.  0.
         13    1    3    3    0    0  0.17077232808E+02  0.36639512753E+02 -0.14401593995E+02  0.42912735275E+02  0.10566000000E+00 0.  1.
         22    1    1    0    0    0  0.23605097146E+02 -0.17405430940E+02 -0.10000805689E+02  0.30986541464E+02  0.00000000000E+00 0. -1.
</event>
<event>
 5    1  0.1258677E-009  0.9118800E+02  0.7561462E-02  0.1125453E+00
         25   -1    0    0    0    0  0.00000000000E+00  0.00000000000E+00  0.99999998245E-14  0.12509000000E+03  0.12509000000E+03 0.  0.
        -13    1    3    3    0    0 -0.24477668265E+02  0.29044639770E+02  0.28172747594E+01  0.38087997376E+02  0.10566000000E+00 0.  1.
         23    2    1    0    0    0 -0.96469232317E+01 -0.26850184533E+02 -0.38529152762E+01  0.96300409981E+02  0.91896291923E+02 0.  0.
         13    1    3    3    0    0  0.14830745033E+02 -0.55894824303E+02 -0.66701900356E+01  0.58212412605E+02  0.10566000000E+00 0. -1.
         22    1    1    0    0    0  0.96469232317E+01  0.26850184533E+02  0.38529152762E+01  0.28789590019E+02  0.00000000000E+00 0. -1.
</event>
<event>
 5    1  0.1258677E-009  0.9118800E+02  0.7561462E-02  0.1125453E+00
         25   -1    0    0    0    0  0.00000000000E+00  0.00000000000E+00  0.99999998245E-14  0.12509000000E+03  0.12509000000E+03 0.  0.
        -13    1    3    3    0    0  0.44258751445E+02  0.26458479974E+02 -0.19185498641E+02  0.55018022176E+02  0.10566000000E+00 0.  1.
         23    2    1    0    0    0  0.24505542022E+02 -0.92138840480E+01 -0.11419474539E+02  0.96527408245E+02  0.92204766117E+02 0.  0.
         13    1    3    3    0    0 -0.19753209423E+02 -0.35672364022E+02  0.77660241019E+01  0.41509386069E+02  0.10566000000E+00 0. -1.
         22    1    1    0    0    0 -0.24505542022E+02  0.92138840480E+01  0.11419474539E+02  0.28562591755E+02  0.00000000000E+00 0.  1.
</event>
<event>
 5    1  0.1258677E-009  0.9118800E+02  0.7561462E-02  0.1125453E+00
         25   -1    0    0    0    0  0.00000000000E+00  0.00000000000E+00  0.99999998245E-14  0.12509000000E+03  0.12509000000E+03 0.  0.
        -13    1    3    3    0    0 -0.73071530846E+01  0.80134837847E+01  0.43434624813E+02  0.44768160619E+02  0.10566000000E+00 0.  1.
         23    2    1    0    0    0 -0.25337883732E+02 -0.13231935843E+02 -0.15651631784E+00  0.96504741990E+02  0.92174010713E+02 0.  0.
         13    1    3    3    0    0 -0.18030730647E+02 -0.21245419627E+02 -0.43591141130E+02  0.51736581371E+02  0.10566000000E+00 0. -1.
         22    1    1    0    0    0  0.25337883732E+02  0.13231935843E+02  0.15651631784E+00  0.28585258010E+02  0.00000000000E+00 0. -1.
</event>
<event>
 5    1  0.1258677E-009  0.9118800E+02  0.7561462E-02  0.1125453E+00
         25   -1    0    0    0    0  0.00000000000E+00  0.00000000000E+00  0.99999998245E-14  0.12509000000E+03  0.12509000000E+03 0.  0.
        -13    1    3    3    0    0 -0.80759321294E+01 -0.48134139642E+02 -0.25996087289E+02  0.55298497241E+02  0.10566000000E+00 0.  1.
         23    2    1    0    0    0 -0.11494074255E+02 -0.90137234022E+01 -0.26790573784E+02  0.94576137638E+02  0.89518433936E+02 0.  0.
         13    1    3    3    0    0 -0.34181421254E+01  0.39120416239E+02 -0.79448649519E+00  0.39277640397E+02  0.10566000000E+00 0. -1.
         22    1    1    0    0    0  0.11494074255E+02  0.90137234022E+01  0.26790573784E+02  0.30513862362E+02  0.00000000000E+00 0.  1.
</event>
<event>
 5    1  0.1258677E-009  0.9118800E+02  0.7561462E-02  0.1125453E+00
         25   -1    0    0    0    0  0.00000000000E+00  0.00000000000E+00  0.99999998245E-14  0.12509000000E+03  0.12509000000E+03 0.  0.
        -13    1    3    3    0    0  0.25212645509E+02 -0.35574961760E+02 -0.23368391512E+02  0.49470681051E+02  0.10566000000E+00 0.  1.
         23    2    1    0    0    0  0.83270939833E+01  0.73699832855E+01 -0.27130278349E+02  0.95769202755E+02  0.91170340820E+02 0.  0.
         13    1    3    3    0    0 -0.16885551526E+02  0.42944945045E+02 -0.37618868367E+01  0.46298521703E+02  0.10566000000E+00 0. -1.
         22    1    1    0    0    0 -0.83270939833E+01 -0.73699832855E+01  0.27130278349E+02  0.29320797245E+02  0.00000000000E+00 0. -1.
</event>
<event>
 5    1  0.1258677E-009  0.9118800E+02  0.7561462E-02  0.1125453E+00
         25   -1    0    0    0    0  0.00000000000E+00  0.00000000000E+00  0.99999998245E-14  0.12509000000E+03  0.12509000000E+03 0.  0.
        -13    1    3    3    0    0  0.12322943943E+01 -0.15122509496E+02 -0.27785019375E+02  0.31657973856E+02  0.10566000000E+00 0.  1.
         23    2    1    0    0    0 -0.14593507459E+02  0.22369918428E+02  0.17974429382E+02  0.92895841802E+02  0.87138817998E+02 0.  0.
         13    1    3    3    0    0 -0.15825801853E+02  0.37492427924E+02  0.45759448758E+02  0.61237867946E+02  0.10566000000E+00 0. -1.
         22    1    1    0    0    0  0.14593507459E+02 -0.22369918428E+02 -0.17974429382E+02  0.32194158198E+02  0.00000000000E+00 0. -1.
</event>
<event>
 5    1  0.1258677E-009  0.9118800E+02  0.7561462E-02  0.1125453E+00
         25   -1    0    0    0    0  0.00000000000E+00  0.00000000000E+00  0.99999998245E-14  0.12509000000E+03  0.12509000000E+03 0.  0.
        -13    1    3    3    0    0  0.10081035325E+02  0.28521172441E+02 -0.18903660687E+02  0.35671334459E+02  0.10566000000E+00 0.  1.
         23    2    1    0    0    0  0.55609759137E+01 -0.28914070023E+02 -0.26836235286E+01  0.95523976702E+02  0.90833255977E+02 0.  0.
         13    1    3    3    0    0 -0.45200594118E+01 -0.57435242464E+02  0.16220037159E+02  0.59852642243E+02  0.10566000000E+00 0. -1.
         22    1    1    0    0    0 -0.55609759137E+01  0.28914070023E+02  0.26836235286E+01  0.29566023298E+02  0.00000000000E+00 0. -1.
</event>
<event>
 5    1  0.1258677E-009  0.9118800E+02  0.7561462E-02  0.1125453E+00
         25   -1    0    0    0    0  0.00000000000E+00  0.00000000000E+00  0.99999998245E-14  0.12509000000E+03  0.12509000000E+03 0.  0.
        -13    1    3    3    0    0 -0.20890609542E+02 -0.36917278548E+00 -0.46936041375E+02  0.51376619192E+02  0.10566000000E+00 0. -1.
         23    2    1    0    0    0 -0.26969847956E+02 -0.11835309170E+02 -0.50748818733E+01  0.95203520316E+02  0.90390865758E+02 0.  0.
         13    1    3    3    0    0 -0.60792384137E+01 -0.11466136384E+02  0.41861159502E+02  0.43826901124E+02  0.10566000000E+00 0.  1.
         22    1    1    0    0    0  0.26969847956E+02  0.11835309170E+02  0.50748818733E+01  0.29886479684E+02  0.00000000000E+00 0. -1.
</event>
<event>
 5    1  0.1258677E-009  0.9118800E+02  0.7561462E-02  0.1125453E+00
         25   -1    0    0    0    0  0.00000000000E+00  0.00000000000E+00  0.99999998245E-14  0.12509000000E+03  0.12509000000E+03 0.  0.
        -13    1    3    3    0    0 -0.32238244275E+02 -0.29553868192E+01 -0.29051541443E+02  0.43497608318E+02  0.10566000000E+00 0.  1.
         23    2    1    0    0    0  0.34929392260E+01 -0.30762309757E+02 -0.11190522466E+02  0.92169670125E+02  0.86090068951E+02 0.  0.
         13    1    3    3    0    0  0.35731183501E+02 -0.27806922937E+02  0.17861018977E+02  0.48672061807E+02  0.10566000000E+00 0. -1.
         22    1    1    0    0    0 -0.34929392260E+01  0.30762309757E+02  0.11190522466E+02  0.32920329875E+02  0.00000000000E+00 0. -1.
</event>
<event>
 5    1  0.1258677E-009  0.9118800E+02  0.7561462E-02  0.1125453E+00
         25   -1    0    0    0    0  0.00000000000E+00  0.00000000000E+00  0.99999998245E-14  0.12509000000E+03  0.12509000000E+03 0.  0.
        -13    1    3    3    0    0 -0.11433916262E+02  0.44236926857E+02 -0.23022865998E+02  0.51163499310E+02  0.10566000000E+00 0. -1.
         23    2    1    0    0    0 -0.25591401982E+02  0.12551015792E+02  0.54698036332E+01  0.96066447416E+02  0.91577266364E+02 0.  0.
         13    1    3    3    0    0 -0.14157485720E+02 -0.31685911065E+02  0.28492669631E+02  0.44902948107E+02  0.10566000000E+00 0.  1.
         22    1    1    0    0    0  0.25591401982E+02 -0.12551015792E+02 -0.54698036332E+01  0.29023552584E+02  0.00000000000E+00 0.  1.
</event>
<event>
 5    1  0.1258677E-009  0.9118800E+02  0.7561462E-02  0.1125453E+00
         25   -1    0    0    0    0  0.00000000000E+00  0.00000000000E+00  0.99999998245E-14  0.12509000000E+03  0.12509000000E+03 0.  0.
        -13    1    3    3    0    0 -0.29323162827E+02  0.27007688931E+02 -0.26717012994E+02  0.47990343684E+02  0.10566000000E+00 0. -1.
         23    2    1    0    0    0 -0.22938780541E+02  0.10711566372E+02  0.16672326520E+02  0.94776772220E+02  0.89798356188E+02 0.  0.
         13    1    3    3    0    0  0.63843822864E+01 -0.16296122559E+02  0.43389339514E+02  0.46786428536E+02  0.10566000000E+00 0.  1.
         22    1    1    0    0    0  0.22938780541E+02 -0.10711566372E+02 -0.16672326520E+02  0.30313227780E+02  0.00000000000E+00 0. -1.
</event>
<event>
 5    1  0.1258677E-009  0.9118800E+02  0.7561462E-02  0.1125453E+00
         25   -1    0    0    0    0  0.00000000000E+00  0.00000000000E+00  0.99999998245E-14  0.12509000000E+03  0.12509000000E+03 0.  0.
        -13    1    3    3    0    0 -0.13764578380E+02 -0.57418717279E+01 -0.40257961618E+02  0.42931891953E+02  0.10566000000E+00 0. -1.
         23    2    1    0    0    0 -0.14220370386E+02  0.24059581881E+02  0.45770517933E+01  0.96769833734E+02  0.92533069243E+02 0.  0.
         13    1    3    3    0    0 -0.45579200626E+00  0.29801453609E+02  0.44835013412E+02  0.53837941781E+02  0.10566000000E+00 0.  1.
         22    1    1    0    0    0  0.14220370386E+02 -0.24059581881E+02 -0.45770517933E+01  0.28320166266E+02  0.00000000000E+00 0.  1.
</event>
<event>
 5    1  0.1258677E-009  0.9118800E+02  0.7561462E-02  0.1125453E+00
         25   -1    0    0    0    0  0.00000000000E+00  0.00000000000E+00  0.99999998245E-14  0.12509000000E+03  0.12509000000E+03 0.  0.
        -13    1    3    3    0    0  0.26697394764E+02  0.48704584081E+02  0.17751058519E+02  0.58309507288E+02  0.10566000000E+00 0.  1.
         23    2    1    0    0    0  0.21205745103E+02  0.18992702665E+02 -0.50697446276E+01  0.96174455902E+02  0.91724681943E+02 0.  0.
         13    1    3    3    0    0 -0.54916496616E+01 -0.29711881415E+02 -0.22820803146E+02  0.37864948614E+02  0.10566000000E+00 0. -1.
         22    1    1    0    0    0 -0.21205745103E+02 -0.18992702665E+02  0.50697446276E+01  0.28915544098E+02  0.00000000000E+00 0.  1.
</event>
<event>
 5    1  0.1258677E-009  0.9118800E+02  0.7561462E-02  0.1125453E+00
         25   -1    0    0    0    0  0.00000000000E+00  0.00000000000E+00  0.99999998245E-14  0.12509000000E+03  0.12509000000E+03 0.  0.
        -13    1    3    3    0    0  0.24151724709E+02 -0.21699097992E+02 -0.55568202178E+01  0.32940037569E+02  0.10566000000E+00 0. -1.
         23    2    1    0    0    0  0.97381655219E+00  0.12121170229E+02  0.33429713093E+02  0.89517302550E+02  0.82145789009E+02 0.  0.
         13    1    3    3    0    0 -0.23177908157E+02  0.33820268221E+02  0.38986533311E+02  0.56577264981E+02  0.10566000000E+00 0.  1.
         22    1    1    0    0    0 -0.97381655219E+00 -0.12121170229E+02 -0.33429713093E+02  0.35572697450E+02  0.00000000000E+00 0.  1.
</event>
<event>
 5    1  0.1258677E-009  0.9118800E+02  0.7561462E-02  0.1125453E+00
         25   -1    0    0    0    0  0.00000000000E+00  0.00000000000E+00  0.99999998245E-14  0.12509000000E+03  0.12509000000E+03 0.  0.
        -13    1    3    3    0    0  0.22256261827E+02  0.10605914245E+02  0.27452386070E+02  0.36898120175E+02  0.10566000000E+00 0.  1.
         23    2    1    0    0    0 -0.20145455850E+02  0.16151819074E+02 -0.13365709467E+02  0.96014875919E+02  0.91506795143E+02 0.  0.
         13    1    3    3    0    0 -0.42401717677E+02  0.55459048284E+01 -0.40818095537E+02  0.59116755743E+02  0.10566000000E+00 0. -1.
         22    1    1    0    0    0  0.20145455850E+02 -0.16151819074E+02  0.13365709467E+02  0.29075124081E+02  0.00000000000E+00 0. -1.
</event>
<event>
 5    1  0.1258677E-009  0.9118800E+02  0.7561462E-02  0.1125453E+00
         25   -1    0    0    0    0  0.00000000000E+00  0.00000000000E+00  0.99999998245E-14  0.12509000000E+03  0.12509000000E+03 0.  0.
        -13    1    3    3    0    0  0.23675949810E+02  0.39225690848E+02  0.71090432074E+01  0.46365451376E+02  0.10566000000E+00 0. -1.
         23    2    1    0    0    0  0.27667640085E+02 -0.80743166183E+01 -0.60842360160E+01  0.95633068309E+02  0.90983366225E+02 0.  0.
         13    1    3    3    0    0  0.39916902756E+01 -0.47300007466E+02 -0.13193279223E+02  0.49267616933E+02  0.10566000000E+00 0.  1.
         22    1    1    0    0    0 -0.27667640085E+02  0.80743166183E+01  0.60842360160E+01  0.29456931691E+02  0.00000000000E+00 0.  1.
</event>
<event>
 5    1  0.1258677E-009  0.9118800E+02  0.7561462E-02  0.1125453E+00
         25   -1    0    0    0    0  0.00000000000E+00  0.00000000000E+00  0.99999998245E-14  0.12509000000E+03  0.12509000000E+03 0.  0.
        -13    1    3    3    0    0  0.30623811747E+02 -0.23276448792E+02 -0.99540786009E+01  0.39732930412E+02  0.10566000000E+00 0. -1.
         23    2    1    0    0    0  0.11015499210E+02  0.24638370042E+02  0.11473262263E+02  0.95763795879E+02  0.91162922030E+02 0.  0.
         13    1    3    3    0    0 -0.19608312537E+02  0.47914818834E+02  0.21427340864E+02  0.56030865467E+02  0.10566000000E+00 0.  1.
         22    1    1    0    0    0 -0.11015499210E+02 -0.24638370042E+02 -0.11473262263E+02  0.29326204121E+02  0.00000000000E+00 0.  1.
</event>
<event>
 5    1  0.1258677E-009  0.9118800E+02  0.7561462E-02  0.1125453E+00
         25   -1    0    0    0    0  0.00000000000E+00  0.00000000000E+00  0.99999998245E-14  0.12509000000E+03  0.12509000000E+03 0.  0.
        -13    1    3    3    0    0 -0.25822135580E+02  0.46442226511E+00  0.55115609704E+02  0.60866575155E+02  0.10566000000E+00 0.  1.
         23    2    1    0    0    0 -0.21153356618E+02 -0.24495762869E+01  0.21868436466E+02  0.94566346325E+02  0.89504750844E+02 0.  0.
         13    1    3    3    0    0  0.46687789616E+01 -0.29139985520E+01 -0.33247173239E+02  0.33699771171E+02  0.10566000000E+00 0. -1.
         22    1    1    0    0    0  0.21153356618E+02  0.24495762869E+01 -0.21868436466E+02  0.30523653675E+02  0.00000000000E+00 0.  1.
</event>
<event>
 5    1  0.1258677E-009  0.9118800E+02  0.7561462E-02  0.1125453E+00
         25   -1    0    0    0    0  0.00000000000E+00  0.00000000000E+00  0.99999998245E-14  0.12509000000E+03  0.12509000000E+03 0.  0.
        -13    1    3    3    0    0  0.48130255489E+02 -0.88648067444E+01 -0.14142061068E+02  0.50942274658E+02  0.10566000000E+00 0.  1.
         23    2    1    0    0    0  0.17247860072E+02  0.21450807654E+02  0.28149883556E+01  0.97421426030E+02  0.93409765358E+02 0.  0.
         13    1    3    3    0    0 -0.30882395417E+02  0.30315614398E+02  0.16957049424E+02  0.46479151372E+02  0.10566000000E+00 0. -1.
         22    1    1    0    0    0 -0.17247860072E+02 -0.21450807654E+02 -0.28149883556E+01  0.27668573970E+02  0.00000000000E+00 0.  1.
</event>
<event>
 5    1  0.1258677E-009  0.9118800E+02  0.7561462E-02  0.1125453E+00
         25   -1    0    0    0    0  0.00000000000E+00  0.00000000000E+00  0.99999998245E-14  0.12509000000E+03  0.12509000000E+03 0.  0.
        -13    1    3    3    0    0  0.39841209550E+02 -0.22569632827E+02 -0.14687801358E+02  0.48087971231E+02  0.10566000000E+00 0.  1.
         23    2    1    0    0    0  0.20875539442E+02  0.78208202368E+01  0.17888186812E+02  0.96507827171E+02  0.92178197540E+02 0.  0.
         13    1    3    3    0    0 -0.18965670108E+02  0.30390453063E+02  0.32575988170E+02  0.48419855941E+02  0.10566000000E+00 0. -1.
         22    1    1    0    0    0 -0.20875539442E+02 -0.78208202368E+01 -0.17888186812E+02  0.28582172829E+02  0.00000000000E+00 0.  1.
</event>
<event>
 5    1  0.1258677E-009  0.9118800E+02  0.7561462E-02  0.1125453E+00
         25   -1    0    0    0    0  0.00000000000E+00  0.00000000000E+00  0.99999998245E-14  0.12509000000E+03  0.12509000000E+03 0.  0.
        -13    1    3    3    0    0 -0.26799496698E+02  0.26517821843E+01 -0.49366658781E+02  0.56234536854E+02  0.10566000000E+00 0. -1.
         23    2    1    0    0    0 -0.20993423349E+02  0.15580030203E+02 -0.11758958741E+02  0.96424092100E+02  0.92064495119E+02 0.  0.
         13    1    3    3    0    0  0.58060733482E+01  0.12928248019E+02  0.37607700039E+02  0.40189555246E+02  0.10566000000E+00 0.  1.
         22    1    1    0    0    0  0.20993423349E+02 -0.15580030203E+02  0.11758958741E+02  0.28665907900E+02  0.00000000000E+00 0. -1.
</event>
<event>
 5    1  0.1258677E-009  0.9118800E+02  0.7561462E-02  0.1125453E+00
         25   -1    0    0    0    0  0.00000000000E+00  0.00000000000E+00  0.99999998245E-14  0.12509000000E+03  0.12509000000E+03 0.  0.
        -13    1    3    3    0    0  0.30925124196E+02 -0.88181340296E+01 -0.10489909677E+02  0.33825614014E+02  0.10566000000E+00 0.  1.
         23    2    1    0    0    0 -0.22131183401E+02  0.73546449502E+01  0.17479706465E+02  0.95945185381E+02  0.91411478375E+02 0.  0.
         13    1    3    3    0    0 -0.53056307597E+02  0.16172778980E+02  0.27969616142E+02  0.62119571368E+02  0.10566000000E+00 0. -1.
         22    1    1    0    0    0  0.22131183401E+02 -0.73546449502E+01 -0.17479706465E+02  0.29144814619E+02  0.00000000000E+00 0. -1.
</event>
<event>
 5    1  0.1258677E-009  0.9118800E+02  0.7561462E-02  0.1125453E+00
         25   -1    0    0    0    0  0.00000000000E+00  0.00000000000E+00  0.99999998245E-14  0.12509000000E+03  0.12509000000E+03 0.  0.
        -13    1    3    3    0    0 -0.34749543183E+02 -0.11682573751E+01  0.76823956119E+01  0.35607947752E+02  0.10566000000E+00 0. -1.
         23    2    1    0    0    0  0.17746110305E+02 -0.93818900926E+01  0.26384380329E+02  0.91937627264E+02  0.85752244805E+02 0.  0.
         13    1    3    3    0    0  0.52495653488E+02 -0.82136327175E+01  0.18701984717E+02  0.56329679512E+02  0.10566000000E+00 0.  1.
         22    1    1    0    0    0 -0.17746110305E+02  0.93818900926E+01 -0.26384380329E+02  0.33152372736E+02  0.00000000000E+00 0.  1.
</event>
<event>
 5    1  0.1258677E-009  0.9118800E+02  0.7561462E-02  0.1125453E+00
         25   -1    0    0    0    0  0.00000000000E+00  0.00000000000E+00  0.99999998245E-14  0.12509000000E+03  0.12509000000E+03 0.  0.
        -13    1    3    3    0    0  0.26424331040E+02 -0.14989345567E+02  0.39645896293E+02  0.49947312323E+02  0.10566000000E+00 0.  1.
         23    2    1    0    0    0  0.20967075539E+01  0.19585600927E+02  0.21435217702E+02  0.95978825098E+02  0.91457500310E+02 0.  0.
         13    1    3    3    0    0 -0.24327623486E+02  0.34574946494E+02 -0.18210678591E+02  0.46031512775E+02  0.10566000000E+00 0. -1.
         22    1    1    0    0    0 -0.20967075539E+01 -0.19585600927E+02 -0.21435217702E+02  0.29111174902E+02  0.00000000000E+00 0.  1.
</event>
<event>
 5    1  0.1258677E-009  0.9118800E+02  0.7561462E-02  0.1125453E+00
         25   -1    0    0    0    0  0.00000000000E+00  0.00000000000E+00  0.99999998245E-14  0.12509000000E+03  0.12509000000E+03 0.  0.
        -13    1    3    3    0    0  0.60892507010E+01  0.87626264185E+01 -0.35667188369E+02  0.37229317561E+02  0.10566000000E+00 0.  1.
         23    2    1    0    0    0 -0.21628337656E+02 -0.17452234482E+02  0.89118929369E+01  0.95904604442E+02  0.91355929415E+02 0.  0.
         13    1    3    3    0    0 -0.27717588357E+02 -0.26214860901E+02  0.44579081306E+02  0.58675286881E+02  0.10566000000E+00 0. -1.
         22    1    1    0    0    0  0.21628337656E+02  0.17452234482E+02 -0.89118929369E+01  0.29185395558E+02  0.00000000000E+00 0. -1.
</event>
<event>
 5    1  0.1258677E-009  0.9118800E+02  0.7561462E-02  0.1125453E+00
         25   -1    0    0    0    0  0.00000000000E+00  0.00000000000E+00  0.99999998245E-14  0.12509000000E+03  0.12509000000E+03 0.  0.
        -13    1    3    3    0    0  0.40677540126E+02 -0.24074307057E+01 -0.27597376470E+02  0.49214676118E+02  0.10566000000E+00 0.  1.
         23    2    1    0    0    0 -0.49126148156E+01 -0.20069458169E+02 -0.14554690692E+02  0.99816378244E+02  0.96563727192E+02 0.  0.
         13    1    3    3    0    0 -0.45590154942E+02 -0.17662027463E+02  0.13042685779E+02  0.50601702126E+02  0.10566000000E+00 0. -1.
         22    1    1    0    0    0  0.49126148156E+01  0.20069458169E+02  0.14554690692E+02  0.25273621756E+02  0.00000000000E+00 0. -1.
</event>
<event>
 5    1  0.1258677E-009  0.9118800E+02  0.7561462E-02  0.1125453E+00
         25   -1    0    0    0    0  0.00000000000E+00  0.00000000000E+00  0.99999998245E-14  0.12509000000E+03  0.12509000000E+03 0.  0.
        -13    1    3    3    0    0 -0.40050447844E+02  0.23849517315E+02 -0.18509776542E+02  0.50154370102E+02  0.10566000000E+00 0.  1.
         23    2    1    0    0    0  0.37042126583E+01  0.27048078938E+02  0.47837246080E-01  0.97789412935E+02  0.93901263187E+02 0.  0.
         13    1    3    3    0    0  0.43754660503E+02  0.31985616230E+01  0.18557613788E+02  0.47635042833E+02  0.10566000000E+00 0. -1.
         22    1    1    0    0    0 -0.37042126583E+01 -0.27048078938E+02 -0.47837246080E-01  0.27300587065E+02  0.00000000000E+00 0. -1.
</event>
<event>
 5    1  0.1258677E-009  0.9118800E+02  0.7561462E-02  0.1125453E+00
         25   -1    0    0    0    0  0.00000000000E+00  0.00000000000E+00  0.99999998245E-14  0.12509000000E+03  0.12509000000E+03 0.  0.
        -13    1    3    3    0    0 -0.40786825176E+01  0.11485256890E+02 -0.40039284117E+02  0.41853341725E+02  0.10566000000E+00 0.  1.
         23    2    1    0    0    0 -0.20557330922E+02 -0.21351044891E+02 -0.10396103824E+01  0.95432762058E+02  0.90707553775E+02 0.  0.
         13    1    3    3    0    0 -0.16478648404E+02 -0.32836301781E+02  0.38999673734E+02  0.53579420334E+02  0.10566000000E+00 0. -1.
         22    1    1    0    0    0  0.20557330922E+02  0.21351044891E+02  0.10396103824E+01  0.29657237942E+02  0.00000000000E+00 0. -1.
</event>
<event>
 5    1  0.1258677E-009  0.9118800E+02  0.7561462E-02  0.1125453E+00
         25   -1    0    0    0    0  0.00000000000E+00  0.00000000000E+00  0.99999998245E-14  0.12509000000E+03  0.12509000000E+03 0.  0.
        -13    1    3    3    0    0  0.24883492848E+02  0.15294155377E+02 -0.13613091065E+02  0.32224630601E+02  0.10566000000E+00 0.  1.
         23    2    1    0    0    0 -0.30951340662E+02 -0.65382595314E+01 -0.81374229675E+01  0.92425769119E+02  0.86461383393E+02 0.  0.
         13    1    3    3    0    0 -0.55834833510E+02 -0.21832414908E+02  0.54756680970E+01  0.60201138518E+02  0.10566000000E+00 0. -1.
         22    1    1    0    0    0  0.30951340662E+02  0.65382595314E+01  0.81374229675E+01  0.32664230881E+02  0.00000000000E+00 0. -1.
</event>
<event>
 5    1  0.1258677E-009  0.9118800E+02  0.7561462E-02  0.1125453E+00
         25   -1    0    0    0    0  0.00000000000E+00  0.00000000000E+00  0.99999998245E-14  0.12509000000E+03  0.12509000000E+03 0.  0.
        -13    1    3    3    0    0 -0.43319180017E+02 -0.20860152934E+02  0.26557064533E+02  0.54927098762E+02  0.10566000000E+00 0.  1.
         23    2    1    0    0    0 -0.21357966919E+01 -0.18833950678E+02  0.21433471673E+02  0.96477537093E+02  0.92137083359E+02 0.  0.
         13    1    3    3    0    0  0.41183383325E+02  0.20262022566E+01 -0.51235928594E+01  0.41550438331E+02  0.10566000000E+00 0. -1.
         22    1    1    0    0    0  0.21357966919E+01  0.18833950678E+02 -0.21433471673E+02  0.28612462907E+02  0.00000000000E+00 0.  1.
</event>
<event>
 5    1  0.1258677E-009  0.9118800E+02  0.7561462E-02  0.1125453E+00
         25   -1    0    0    0    0  0.00000000000E+00  0.00000000000E+00  0.99999998245E-14  0.12509000000E+03  0.12509000000E+03 0.  0.
        -13    1    3    3    0    0  0.63286906957E+01 -0.10257785866E+01 -0.42262767416E+02  0.42746429340E+02  0.10566000000E+00 0. -1.
         23    2    1    0    0    0  0.39933210841E+00 -0.29133822692E+02  0.24051162333E+01  0.95854342408E+02  0.91287081691E+02 0.  0.
         13    1    3    3    0    0 -0.59293585873E+01 -0.28108044105E+02  0.44667883649E+02  0.53107913068E+02  0.10566000000E+00 0.  1.
         22    1    1    0    0    0 -0.39933210841E+00  0.29133822692E+02 -0.24051162333E+01  0.29235657592E+02  0.00000000000E+00 0.  1.
</event>
<event>
 5    1  0.1258677E-009  0.9118800E+02  0.7561462E-02  0.1125453E+00
         25   -1    0    0    0    0  0.00000000000E+00  0.00000000000E+00  0.99999998245E-14  0.12509000000E+03  0.12509000000E+03 0.  0.
        -13    1    3    3    0    0 -0.19453022291E+02  0.83986920125E+01 -0.26772778829E+02  0.34143095262E+02  0.10566000000E+00 0. -1.
         23    2    1    0    0    0  0.33353946704E+02 -0.46979406335E+00 -0.95090983073E+01  0.90403844003E+02  0.83484882420E+02 0.  0.
         13    1    3    3    0    0  0.52806968995E+02 -0.88684860758E+01  0.17263680522E+02  0.56260748741E+02  0.10566000000E+00 0.  1.
         22    1    1    0    0    0 -0.33353946704E+02  0.46979406335E+00  0.95090983073E+01  0.34686155997E+02  0.00000000000E+00 0.  1.
</event>
<event>
 5    1  0.1258677E-009  0.9118800E+02  0.7561462E-02  0.1125453E+00
         25   -1    0    0    0    0  0.00000000000E+00  0.00000000000E+00  0.99999998245E-14  0.12509000000E+03  0.12509000000E+03 0.  0.
        -13    1    3    3    0    0  0.35862040688E+02 -0.99460568270E+00 -0.26703824377E+02  0.44723378710E+02  0.10566000000E+00 0. -1.
         23    2    1    0    0    0 -0.17526280086E+02 -0.39597457970E+00 -0.19936129998E+02  0.98542371691E+02  0.94899011848E+02 0.  0.
         13    1    3    3    0    0 -0.53388320774E+02  0.59863110301E+00  0.67676943788E+01  0.53818992981E+02  0.10566000000E+00 0.  1.
         22    1    1    0    0    0  0.17526280086E+02  0.39597457970E+00  0.19936129998E+02  0.26547628309E+02  0.00000000000E+00 0.  1.
</event>
<event>
 5    1  0.1258677E-009  0.9118800E+02  0.7561462E-02  0.1125453E+00
         25   -1    0    0    0    0  0.00000000000E+00  0.00000000000E+00  0.99999998245E-14  0.12509000000E+03  0.12509000000E+03 0.  0.
        -13    1    3    3    0    0 -0.13687475815E+02  0.26324949261E+02  0.42586285486E+02  0.51903302625E+02  0.10566000000E+00 0.  1.
         23    2    1    0    0    0  0.19383723864E+02  0.90011052855E+01  0.21474248774E+02  0.94793267377E+02  0.89821331166E+02 0.  0.
         13    1    3    3    0    0  0.33071199679E+02 -0.17323843975E+02 -0.21112036713E+02  0.42889964753E+02  0.10566000000E+00 0. -1.
         22    1    1    0    0    0 -0.19383723864E+02 -0.90011052855E+01 -0.21474248774E+02  0.30296732623E+02  0.00000000000E+00 0.  1.
</event>
<event>
 5    1  0.1258677E-009  0.9118800E+02  0.7561462E-02  0.1125453E+00
         25   -1    0    0    0    0  0.00000000000E+00  0.00000000000E+00  0.99999998245E-14  0.12509000000E+03  0.12509000000E+03 0.  0.
        -13    1    3    3    0    0 -0.24278015811E+02 -0.85516198370E+01 -0.30087024060E+02  0.39595358748E+02  0.10566000000E+00 0.  1.
         23    2    1    0    0    0  0.20992242406E+02  0.17161988441E+02 -0.16298898884E+02  0.93453593862E+02  0.87935840318E+02 0.  0.
         13    1    3    3    0    0  0.45270258217E+02  0.25713608278E+02  0.13788125176E+02  0.53858235114E+02  0.10566000000E+00 0. -1.
         22    1    1    0    0    0 -0.20992242406E+02 -0.17161988441E+02  0.16298898884E+02  0.31636406138E+02  0.00000000000E+00 0. -1.
</event>
<event>
 5    1  0.1258677E-009  0.9118800E+02  0.7561462E-02  0.1125453E+00
         25   -1    0    0    0    0  0.00000000000E+00  0.00000000000E+00  0.99999998245E-14  0.12509000000E+03  0.12509000000E+03 0.  0.
        -13    1    3    3    0    0 -0.37464164824E+01  0.45382587453E+02  0.33911495041E+02  0.56776892662E+02  0.10566000000E+00 0.  1.
         23    2    1    0    0    0  0.57372560859E+01  0.94642318995E+01  0.28750219411E+02  0.94283135359E+02  0.89108061948E+02 0.  0.
         13    1    3    3    0    0  0.94836725683E+01 -0.35918355554E+02 -0.51612756308E+01  0.37506242697E+02  0.10566000000E+00 0. -1.
         22    1    1    0    0    0 -0.57372560859E+01 -0.94642318995E+01 -0.28750219411E+02  0.30806864641E+02  0.00000000000E+00 0. -1.
</event>
<event>
 5    1  0.1258677E-009  0.9118800E+02  0.7561462E-02  0.1125453E+00
         25   -1    0    0    0    0  0.00000000000E+00  0.00000000000E+00  0.99999998245E-14  0.12509000000E+03  0.12509000000E+03 0.  0.
        -13    1    3    3    0    0 -0.11882720436E+02 -0.12427014758E+02 -0.32359314903E+02  0.36643773902E+02  0.10566000000E+00 0.  1.
         23    2    1    0    0    0  0.27813759755E+02  0.86208618514E+01  0.55686907818E+01  0.95443165299E+02  0.90721899200E+02 0.  0.
         13    1    3    3    0    0  0.39696480192E+02  0.21047876609E+02  0.37928005685E+02  0.58799391397E+02  0.10566000000E+00 0. -1.
         22    1    1    0    0    0 -0.27813759755E+02 -0.86208618514E+01 -0.55686907818E+01  0.29646834701E+02  0.00000000000E+00 0. -1.
</event>
<event>
 5    1  0.1258677E-009  0.9118800E+02  0.7561462E-02  0.1125453E+00
         25   -1    0    0    0    0  0.00000000000E+00  0.00000000000E+00  0.99999998245E-14  0.12509000000E+03  0.12509000000E+03 0.  0.
        -13    1    3    3    0    0  0.20734665320E+02  0.29347728287E+02  0.44301654313E+01  0.36205704403E+02  0.10566000000E+00 0. -1.
         23    2    1    0    0    0 -0.21765594972E+02 -0.18472842212E+01 -0.21044587543E+02  0.94758032567E+02  0.89772247871E+02 0.  0.
         13    1    3    3    0    0 -0.42500260292E+02 -0.31195012508E+02 -0.25474752974E+02  0.58552328164E+02  0.10566000000E+00 0.  1.
         22    1    1    0    0    0  0.21765594972E+02  0.18472842212E+01  0.21044587543E+02  0.30331967433E+02  0.00000000000E+00 0.  1.
</event>
<event>
 5    1  0.1258677E-009  0.9118800E+02  0.7561462E-02  0.1125453E+00
         25   -1    0    0    0    0  0.00000000000E+00  0.00000000000E+00  0.99999998245E-14  0.12509000000E+03  0.12509000000E+03 0.  0.
        -13    1    3    3    0    0  0.16453566548E+02  0.20876152013E+02 -0.17361865555E+02  0.31748686817E+02  0.10566000000E+00 0. -1.
         23    2    1    0    0    0 -0.91666365511E+01 -0.18038644304E+02  0.23752858652E+02  0.93887144231E+02  0.88550424300E+02 0.  0.
         13    1    3    3    0    0 -0.25620203099E+02 -0.38914796316E+02  0.41114724207E+02  0.62138457414E+02  0.10566000000E+00 0.  1.
         22    1    1    0    0    0  0.91666365511E+01  0.18038644304E+02 -0.23752858652E+02  0.31202855769E+02  0.00000000000E+00 0.  1.
</event>
<event>
 5    1  0.1258677E-009  0.9118800E+02  0.7561462E-02  0.1125453E+00
         25   -1    0    0    0    0  0.00000000000E+00  0.00000000000E+00  0.99999998245E-14  0.12509000000E+03  0.12509000000E+03 0.  0.
        -13    1    3    3    0    0 -0.28304724997E+02 -0.32244695349E+02  0.36456722686E+02  0.56302589890E+02  0.10566000000E+00 0.  1.
         23    2    1    0    0    0  0.15158027865E+01 -0.27200442763E+02  0.11478813678E+02  0.95527779041E+02  0.90838492174E+02 0.  0.
         13    1    3    3    0    0  0.29820527783E+02  0.50442525857E+01 -0.24977909009E+02  0.39225189150E+02  0.10566000000E+00 0. -1.
         22    1    1    0    0    0 -0.15158027865E+01  0.27200442763E+02 -0.11478813678E+02  0.29562220959E+02  0.00000000000E+00 0.  1.
</event>
<event>
 5    1  0.1258677E-009  0.9118800E+02  0.7561462E-02  0.1125453E+00
         25   -1    0    0    0    0  0.00000000000E+00  0.00000000000E+00  0.99999998245E-14  0.12509000000E+03  0.12509000000E+03 0.  0.
        -13    1    3    3    0    0  0.27942555312E+02  0.23595676192E+02 -0.16212036489E+02  0.40004795006E+02  0.10566000000E+00 0.  1.
         23    2    1    0    0    0  0.13240552886E+02 -0.25028810954E+02  0.71015745947E+01  0.95897775347E+02  0.91346578131E+02 0.  0.
         13    1    3    3    0    0 -0.14702002426E+02 -0.48624487146E+02  0.23313611083E+02  0.55892980340E+02  0.10566000000E+00 0. -1.
         22    1    1    0    0    0 -0.13240552886E+02  0.25028810954E+02 -0.71015745947E+01  0.29192224653E+02  0.00000000000E+00 0. -1.
</event>
<event>
 5    1  0.1258677E-009  0.9118800E+02  0.7561462E-02  0.1125453E+00
         25   -1    0    0    0    0  0.00000000000E+00  0.00000000000E+00  0.99999998245E-14  0.12509000000E+03  0.12509000000E+03 0.  0.
        -13    1    3    3    0    0 -0.51600332737E+01 -0.39770534728E+02  0.21115077414E+02  0.45323051907E+02  0.10566000000E+00 0. -1.
         23    2    1    0    0    0 -0.16083190363E+02 -0.15542977527E+02 -0.20532836062E+02  0.94728008639E+02  0.89730402324E+02 0.  0.
         13    1    3    3    0    0 -0.10923157089E+02  0.24227557201E+02 -0.41647913476E+02  0.49404956732E+02  0.10566000000E+00 0.  1.
         22    1    1    0    0    0  0.16083190363E+02  0.15542977527E+02  0.20532836062E+02  0.30361991361E+02  0.00000000000E+00 0.  1.
</event>
<event>
 5    1  0.1258677E-009  0.9118800E+02  0.7561462E-02  0.1125453E+00
         25   -1    0    0    0    0  0.00000000000E+00  0.00000000000E+00  0.99999998245E-14  0.12509000000E+03  0.12509000000E+03 0.  0.
        -13    1    3    3    0    0 -0.77334620311E+01 -0.94006324085E+01 -0.31077741274E+02  0.33376870605E+02  0.10566000000E+00 0.  1.
         23    2    1    0    0    0  0.15117349819E+02  0.10675379198E+01  0.25578949270E+02  0.95358593230E+02  0.90605213726E+02 0.  0.
         13    1    3    3    0    0  0.22850811850E+02  0.10468170328E+02  0.56656690543E+02  0.61981722625E+02  0.10566000000E+00 0. -1.
         22    1    1    0    0    0 -0.15117349819E+02 -0.10675379198E+01 -0.25578949270E+02  0.29731406770E+02  0.00000000000E+00 0. -1.
</event>
<event>
 5    1  0.1258677E-009  0.9118800E+02  0.7561462E-02  0.1125453E+00
         25   -1    0    0    0    0  0.00000000000E+00  0.00000000000E+00  0.99999998245E-14  0.12509000000E+03  0.12509000000E+03 0.  0.
        -13    1    3    3    0    0  0.24420846013E+02  0.49245901147E+02 -0.20060525388E+02  0.58514719026E+02  0.10566000000E+00 0.  1.
         23    2    1    0    0    0  0.14219409597E+01  0.20335387271E+02 -0.21469434011E+02  0.95484485508E+02  0.90778854831E+02 0.  0.
         13    1    3    3    0    0 -0.22998905054E+02 -0.28910513876E+02 -0.14089086230E+01  0.36969766483E+02  0.10566000000E+00 0. -1.
         22    1    1    0    0    0 -0.14219409597E+01 -0.20335387271E+02  0.21469434011E+02  0.29605514492E+02  0.00000000000E+00 0.  1.
</event>
<event>
 5    1  0.1258677E-009  0.9118800E+02  0.7561462E-02  0.1125453E+00
         25   -1    0    0    0    0  0.00000000000E+00  0.00000000000E+00  0.99999998245E-14  0.12509000000E+03  0.12509000000E+03 0.  0.
        -13    1    3    3    0    0  0.19284376899E+02  0.26487963251E+02  0.23639703074E+01  0.32849640930E+02  0.10566000000E+00 0. -1.
         23    2    1    0    0    0 -0.86790424300E+01 -0.28881478388E+02 -0.18391467996E+00  0.94932092314E+02  0.90014458589E+02 0.  0.
         13    1    3    3    0    0 -0.27963419329E+02 -0.55369441639E+02 -0.25478849874E+01  0.62082451385E+02  0.10566000000E+00 0.  1.
         22    1    1    0    0    0  0.86790424300E+01  0.28881478388E+02  0.18391467996E+00  0.30157907686E+02  0.00000000000E+00 0.  1.
</event>
<event>
 5    1  0.1258677E-009  0.9118800E+02  0.7561462E-02  0.1125453E+00
         25   -1    0    0    0    0  0.00000000000E+00  0.00000000000E+00  0.99999998245E-14  0.12509000000E+03  0.12509000000E+03 0.  0.
        -13    1    3    3    0    0  0.34615658788E+02  0.31477432295E+02 -0.14986722430E+02  0.49129274271E+02  0.10566000000E+00 0.  1.
         23    2    1    0    0    0  0.78589209281E+01  0.80028242526E+00 -0.31169857854E+02  0.92934702944E+02  0.87194586315E+02 0.  0.
         13    1    3    3    0    0 -0.26756737860E+02 -0.30677149870E+02 -0.16183135424E+02  0.43805428673E+02  0.10566000000E+00 0. -1.
         22    1    1    0    0    0 -0.78589209281E+01 -0.80028242526E+00  0.31169857854E+02  0.32155297056E+02  0.00000000000E+00 0. -1.
</event>
<event>
 5    1  0.1258677E-009  0.9118800E+02  0.7561462E-02  0.1125453E+00
         25   -1    0    0    0    0  0.00000000000E+00  0.00000000000E+00  0.99999998245E-14  0.12509000000E+03  0.12509000000E+03 0.  0.
        -13    1    3    3    0    0  0.44443206934E+02 -0.89027131070E+01  0.80782635613E+01  0.46040487068E+02  0.10566000000E+00 0. -1.
         23    2    1    0    0    0  0.87217611329E+01  0.25545251434E+02  0.11424596827E+02  0.95778732529E+02  0.91183415181E+02 0.  0.
         13    1    3    3    0    0 -0.35721445801E+02  0.34447964541E+02  0.33463332659E+01  0.49738245461E+02  0.10566000000E+00 0.  1.
         22    1    1    0    0    0 -0.87217611329E+01 -0.25545251434E+02 -0.11424596827E+02  0.29311267471E+02  0.00000000000E+00 0.  1.
</event>
<event>
 5    1  0.1258677E-009  0.9118800E+02  0.7561462E-02  0.1125453E+00
         25   -1    0    0    0    0  0.00000000000E+00  0.00000000000E+00  0.99999998245E-14  0.12509000000E+03  0.12509000000E+03 0.  0.
        -13    1    3    3    0    0 -0.23680137975E+01 -0.15151491715E+02 -0.31501294523E+02  0.35035951696E+02  0.10566000000E+00 0.  1.
         23    2    1    0    0    0  0.11710501068E+02 -0.44985455191E+01  0.26556927575E+02  0.95719212655E+02  0.91101726230E+02 0.  0.
         13    1    3    3    0    0  0.14078514866E+02  0.10652946196E+02  0.58058222098E+02  0.60683260959E+02  0.10566000000E+00 0. -1.
         22    1    1    0    0    0 -0.11710501068E+02  0.44985455191E+01 -0.26556927575E+02  0.29370787345E+02  0.00000000000E+00 0. -1.
</event>
<event>
 5    1  0.1258677E-009  0.9118800E+02  0.7561462E-02  0.1125453E+00
         25   -1    0    0    0    0  0.00000000000E+00  0.00000000000E+00  0.99999998245E-14  0.12509000000E+03  0.12509000000E+03 0.  0.
        -13    1    3    3    0    0 -0.33027958566E+02  0.15617589261E+02 -0.11949026528E+02  0.38438854567E+02  0.10566000000E+00 0.  1.
         23    2    1    0    0    0  0.24078626836E+02  0.21917761796E+01 -0.14023672544E+02  0.97139194202E+02  0.93031045923E+02 0.  0.
         13    1    3    3    0    0  0.57106585402E+02 -0.13425813082E+02 -0.20746460157E+01  0.58700339636E+02  0.10566000000E+00 0. -1.
         22    1    1    0    0    0 -0.24078626836E+02 -0.21917761796E+01  0.14023672544E+02  0.27950805798E+02  0.00000000000E+00 0. -1.
</event>
<event>
 5    1  0.1258677E-009  0.9118800E+02  0.7561462E-02  0.1125453E+00
         25   -1    0    0    0    0  0.00000000000E+00  0.00000000000E+00  0.99999998245E-14  0.12509000000E+03  0.12509000000E+03 0.  0.
        -13    1    3    3    0    0  0.45588797076E+02  0.97596184703E+01  0.41101034847E+01  0.46802699561E+02  0.10566000000E+00 0.  1.
         23    2    1    0    0    0  0.54859493958E+01  0.21972506111E+02 -0.19751926082E+02  0.95039621475E+02  0.90163764343E+02 0.  0.
         13    1    3    3    0    0 -0.40102847680E+02  0.12212887641E+02 -0.23862029567E+02  0.48236921913E+02  0.10566000000E+00 0. -1.
         22    1    1    0    0    0 -0.54859493958E+01 -0.21972506111E+02  0.19751926082E+02  0.30050378525E+02  0.00000000000E+00 0. -1.
</event>
<event>
 5    1  0.1258677E-009  0.9118800E+02  0.7561462E-02  0.1125453E+00
         25   -1    0    0    0    0  0.00000000000E+00  0.00000000000E+00  0.99999998245E-14  0.12509000000E+03  0.12509000000E+03 0.  0.
        -13    1    3    3    0    0  0.34339579351E+01 -0.28972802673E+02  0.15722225703E+02  0.33142343112E+02  0.10566000000E+00 0.  1.
         23    2    1    0    0    0  0.85780800163E+01  0.22053114347E+02 -0.18718781646E+02  0.94918554965E+02  0.89995644235E+02 0.  0.
         13    1    3    3    0    0  0.51441220812E+01  0.51025917020E+02 -0.34441007350E+02  0.61776211854E+02  0.10566000000E+00 0. -1.
         22    1    1    0    0    0 -0.85780800163E+01 -0.22053114347E+02  0.18718781646E+02  0.30171445035E+02  0.00000000000E+00 0. -1.
</event>
<event>
 5    1  0.1258677E-009  0.9118800E+02  0.7561462E-02  0.1125453E+00
         25   -1    0    0    0    0  0.00000000000E+00  0.00000000000E+00  0.99999998245E-14  0.12509000000E+03  0.12509000000E+03 0.  0.
        -13    1    3    3    0    0 -0.23333880943E+02 -0.10335421011E+02  0.27117709259E+02  0.37238048376E+02  0.10566000000E+00 0. -1.
         23    2    1    0    0    0  0.14363791265E+02 -0.14603909227E+02 -0.19134305936E+02  0.97059403720E+02  0.92923697314E+02 0.  0.
         13    1    3    3    0    0  0.37697672208E+02 -0.42684882155E+01 -0.46252015195E+02  0.59821355344E+02  0.10566000000E+00 0.  1.
         22    1    1    0    0    0 -0.14363791265E+02  0.14603909227E+02  0.19134305936E+02  0.28030596280E+02  0.00000000000E+00 0.  1.
</event>
<event>
 5    1  0.1258677E-009  0.9118800E+02  0.7561462E-02  0.1125453E+00
         25   -1    0    0    0    0  0.00000000000E+00  0.00000000000E+00  0.99999998245E-14  0.12509000000E+03  0.12509000000E+03 0.  0.
        -13    1    3    3    0    0 -0.23611735282E+02  0.90530357940E+01 -0.40485198092E+02  0.47733991335E+02  0.10566000000E+00 0.  1.
         23    2    1    0    0    0 -0.26841732936E+01 -0.25052914011E+02 -0.10244338676E+02  0.97890739686E+02  0.94036148127E+02 0.  0.
         13    1    3    3    0    0  0.20927561988E+02 -0.34105949805E+02  0.30240859416E+02  0.50156748351E+02  0.10566000000E+00 0. -1.
         22    1    1    0    0    0  0.26841732936E+01  0.25052914011E+02  0.10244338676E+02  0.27199260314E+02  0.00000000000E+00 0.  1.
</event>
<event>
 5    1  0.1258677E-009  0.9118800E+02  0.7561462E-02  0.1125453E+00
         25   -1    0    0    0    0  0.00000000000E+00  0.00000000000E+00  0.99999998245E-14  0.12509000000E+03  0.12509000000E+03 0.  0.
        -13    1    3    3    0    0 -0.12984220599E+02  0.27199265550E+02  0.19754393018E+02  0.36036609699E+02  0.10566000000E+00 0.  1.
         23    2    1    0    0    0 -0.93884938987E+01 -0.20045489529E+02 -0.17951706235E+02  0.96590364478E+02  0.92290136445E+02 0.  0.
         13    1    3    3    0    0  0.35957267002E+01 -0.47244755079E+02 -0.37706099253E+02  0.60553754779E+02  0.10566000000E+00 0. -1.
         22    1    1    0    0    0  0.93884938987E+01  0.20045489529E+02  0.17951706235E+02  0.28499635522E+02  0.00000000000E+00 0. -1.
</event>
<event>
 5    1  0.1258677E-009  0.9118800E+02  0.7561462E-02  0.1125453E+00
         25   -1    0    0    0    0  0.00000000000E+00  0.00000000000E+00  0.99999998245E-14  0.12509000000E+03  0.12509000000E+03 0.  0.
        -13    1    3    3    0    0 -0.53329723264E+02 -0.10347589864E+02 -0.28617405702E+01  0.54399749287E+02  0.10566000000E+00 0.  1.
         23    2    1    0    0    0 -0.17820960352E+02 -0.85606311093E+00 -0.22739938498E+02  0.96186293061E+02  0.91740823508E+02 0.  0.
         13    1    3    3    0    0  0.35508762912E+02  0.94915267533E+01 -0.19878197928E+02  0.41786543773E+02  0.10566000000E+00 0. -1.
         22    1    1    0    0    0  0.17820960352E+02  0.85606311093E+00  0.22739938498E+02  0.28903706939E+02  0.00000000000E+00 0.  1.
</event>
<event>
 5    1  0.1258677E-009  0.9118800E+02  0.7561462E-02  0.1125453E+00
         25   -1    0    0    0    0  0.00000000000E+00  0.00000000000E+00  0.99999998245E-14  0.12509000000E+03  0.12509000000E+03 0.  0.
        -13    1    3    3    0    0  0.43496128253E+02  0.34938792734E+01  0.59692796515E+01  0.44042750016E+02  0.10566000000E+00 0. -1.
         23    2    1    0    0    0  0.53535199115E+01  0.14123782240E+02 -0.26058422316E+02  0.94970525008E+02  0.90067851348E+02 0.  0.
         13    1    3    3    0    0 -0.38142608342E+02  0.10629902966E+02 -0.32027701968E+02  0.50927774991E+02  0.10566000000E+00 0.  1.
         22    1    1    0    0    0 -0.53535199115E+01 -0.14123782240E+02  0.26058422316E+02  0.30119474992E+02  0.00000000000E+00 0.  1.
</event>
<event>
 5    1  0.1258677E-009  0.9118800E+02  0.7561462E-02  0.1125453E+00
         25   -1    0    0    0    0  0.00000000000E+00  0.00000000000E+00  0.99999998245E-14  0.12509000000E+03  0.12509000000E+03 0.  0.
        -13    1    3    3    0    0  0.20715135468E+02  0.40510882415E+02 -0.14636972710E+02  0.47796449300E+02  0.10566000000E+00 0.  1.
         23    2    1    0    0    0 -0.51075517977E+01  0.19193757845E+02  0.20647398537E+02  0.96440349183E+02  0.92086581317E+02 0.  0.
         13    1    3    3    0    0 -0.25822687266E+02 -0.21317124570E+02  0.35284371247E+02  0.48643899884E+02  0.10566000000E+00 0. -1.
         22    1    1    0    0    0  0.51075517977E+01 -0.19193757845E+02 -0.20647398537E+02  0.28649650817E+02  0.00000000000E+00 0.  1.
</event>
<event>
 5    1  0.1258677E-009  0.9118800E+02  0.7561462E-02  0.1125453E+00
         25   -1    0    0    0    0  0.00000000000E+00  0.00000000000E+00  0.99999998245E-14  0.12509000000E+03  0.12509000000E+03 0.  0.
        -13    1    3    3    0    0 -0.27703802247E+02 -0.30020074679E+02  0.12842622806E+02  0.42821135753E+02  0.10566000000E+00 0. -1.
         23    2    1    0    0    0  0.49877284432E+00 -0.10315581202E+02 -0.27425068366E+02  0.95784806522E+02  0.91191747410E+02 0.  0.
         13    1    3    3    0    0  0.28202575091E+02  0.19704493477E+02 -0.40267691172E+02  0.52963670769E+02  0.10566000000E+00 0.  1.
         22    1    1    0    0    0 -0.49877284432E+00  0.10315581202E+02  0.27425068366E+02  0.29305193478E+02  0.00000000000E+00 0.  1.
</event>
<event>
 5    1  0.1258677E-009  0.9118800E+02  0.7561462E-02  0.1125453E+00
         25   -1    0    0    0    0  0.00000000000E+00  0.00000000000E+00  0.99999998245E-14  0.12509000000E+03  0.12509000000E+03 0.  0.
        -13    1    3    3    0    0 -0.21051886000E+01 -0.23605689275E+02 -0.25771484010E+02  0.35012011330E+02  0.10566000000E+00 0.  1.
         23    2    1    0    0    0 -0.11529255369E+01  0.18374546329E+01  0.29313334572E+02  0.95696513298E+02  0.91070552852E+02 0.  0.
         13    1    3    3    0    0  0.95226306309E+00  0.25443143908E+02  0.55084818582E+02  0.60684501968E+02  0.10566000000E+00 0. -1.
         22    1    1    0    0    0  0.11529255369E+01 -0.18374546329E+01 -0.29313334572E+02  0.29393486702E+02  0.00000000000E+00 0. -1.
</event>
<event>
 5    1  0.1258677E-009  0.9118800E+02  0.7561462E-02  0.1125453E+00
         25   -1    0    0    0    0  0.00000000000E+00  0.00000000000E+00  0.99999998245E-14  0.12509000000E+03  0.12509000000E+03 0.  0.
        -13    1    3    3    0    0  0.14910248972E+02 -0.25575946079E+02  0.25862577867E+02  0.39310668275E+02  0.10566000000E+00 0. -1.
         23    2    1    0    0    0  0.19074014970E+02 -0.67297318227E+01 -0.24543728665E+02  0.93285881489E+02  0.87696942540E+02 0.  0.
         13    1    3    3    0    0  0.41637659981E+01  0.18846214257E+02 -0.50406306533E+02  0.53975213213E+02  0.10566000000E+00 0.  1.
         22    1    1    0    0    0 -0.19074014970E+02  0.67297318227E+01  0.24543728665E+02  0.31804118511E+02  0.00000000000E+00 0.  1.
</event>
<event>
 5    1  0.1258677E-009  0.9118800E+02  0.7561462E-02  0.1125453E+00
         25   -1    0    0    0    0  0.00000000000E+00  0.00000000000E+00  0.99999998245E-14  0.12509000000E+03  0.12509000000E+03 0.  0.
        -13    1    3    3    0    0  0.23418282606E+02 -0.29649921809E+02  0.16488144038E+01  0.37818825688E+02  0.10566000000E+00 0.  1.
         23    2    1    0    0    0 -0.45306091183E-02  0.20299186269E+02  0.20616995230E+02  0.96157017506E+02  0.91700897158E+02 0.  0.
         13    1    3    3    0    0 -0.23422813215E+02  0.49949108078E+02  0.18968180826E+02  0.58338191817E+02  0.10566000000E+00 0. -1.
         22    1    1    0    0    0  0.45306091183E-02 -0.20299186269E+02 -0.20616995230E+02  0.28932982494E+02  0.00000000000E+00 0. -1.
</event>
<event>
 5    1  0.1258677E-009  0.9118800E+02  0.7561462E-02  0.1125453E+00
         25   -1    0    0    0    0  0.00000000000E+00  0.00000000000E+00  0.99999998245E-14  0.12509000000E+03  0.12509000000E+03 0.  0.
        -13    1    3    3    0    0 -0.18582947820E+02  0.25688409381E+02 -0.40278850462E+01  0.31960215083E+02  0.10566000000E+00 0.  1.
         23    2    1    0    0    0  0.16021813958E+02 -0.13079543767E+02 -0.28883837399E+02  0.89564670296E+02  0.82217888046E+02 0.  0.
         13    1    3    3    0    0  0.34604761778E+02 -0.38767953147E+02 -0.24855952353E+02  0.57604455213E+02  0.10566000000E+00 0. -1.
         22    1    1    0    0    0 -0.16021813958E+02  0.13079543767E+02  0.28883837399E+02  0.35525329704E+02  0.00000000000E+00 0. -1.
</event>
<event>
 5    1  0.1258677E-009  0.9118800E+02  0.7561462E-02  0.1125453E+00
         25   -1    0    0    0    0  0.00000000000E+00  0.00000000000E+00  0.99999998245E-14  0.12509000000E+03  0.12509000000E+03 0.  0.
        -13    1    3    3    0    0 -0.37166635642E+02 -0.26219175568E+02 -0.12220270354E+02  0.47097241362E+02  0.10566000000E+00 0.  1.
         23    2    1    0    0    0  0.56654753407E+01 -0.25594226696E+02  0.11948186269E+02  0.96281646939E+02  0.91870747962E+02 0.  0.
         13    1    3    3    0    0  0.42832110982E+02  0.62494887255E+00  0.24168456623E+02  0.49184405576E+02  0.10566000000E+00 0. -1.
         22    1    1    0    0    0 -0.56654753407E+01  0.25594226696E+02 -0.11948186269E+02  0.28808353061E+02  0.00000000000E+00 0.  1.
</event>
<event>
 5    1  0.1258677E-009  0.9118800E+02  0.7561462E-02  0.1125453E+00
         25   -1    0    0    0    0  0.00000000000E+00  0.00000000000E+00  0.99999998245E-14  0.12509000000E+03  0.12509000000E+03 0.  0.
        -13    1    3    3    0    0  0.22940957324E+02  0.49474540221E+01  0.26129766673E+02  0.35121797998E+02  0.10566000000E+00 0.  1.
         23    2    1    0    0    0 -0.27834630087E+02  0.70801415670E+01 -0.66660716446E+01  0.95605571095E+02  0.90945553364E+02 0.  0.
         13    1    3    3    0    0 -0.50775587410E+02  0.21326875448E+01 -0.32795838317E+02  0.60483773097E+02  0.10566000000E+00 0. -1.
         22    1    1    0    0    0  0.27834630087E+02 -0.70801415670E+01  0.66660716446E+01  0.29484428905E+02  0.00000000000E+00 0. -1.
</event>
<event>
 5    1  0.1258677E-009  0.9118800E+02  0.7561462E-02  0.1125453E+00
         25   -1    0    0    0    0  0.00000000000E+00  0.00000000000E+00  0.99999998245E-14  0.12509000000E+03  0.12509000000E+03 0.  0.
        -13    1    3    3    0    0  0.24804876079E+02  0.34946907758E+00  0.30053244122E+02  0.38969380957E+02  0.10566000000E+00 0. -1.
         23    2    1    0    0    0 -0.11507179543E+02 -0.18330602189E+02 -0.14215404323E+02  0.99195910371E+02  0.95756591191E+02 0.  0.
         13    1    3    3    0    0 -0.36312055622E+02 -0.18680071267E+02 -0.44268648445E+02  0.60226529413E+02  0.10566000000E+00 0.  1.
         22    1    1    0    0    0  0.11507179543E+02  0.18330602189E+02  0.14215404323E+02  0.25894089629E+02  0.00000000000E+00 0.  1.
</event>
<event>
 5    1  0.1258677E-009  0.9118800E+02  0.7561462E-02  0.1125453E+00
         25   -1    0    0    0    0  0.00000000000E+00  0.00000000000E+00  0.99999998245E-14  0.12509000000E+03  0.12509000000E+03 0.  0.
        -13    1    3    3    0    0 -0.40025212264E+01 -0.69008457282E+01  0.32034134098E+02  0.33012706030E+02  0.10566000000E+00 0.  1.
         23    2    1    0    0    0 -0.14602518805E+02  0.20030676817E+02 -0.20454442904E+02  0.92952081528E+02  0.87219514196E+02 0.  0.
         13    1    3    3    0    0 -0.10599997579E+02  0.26931522545E+02 -0.52488577003E+02  0.59939375498E+02  0.10566000000E+00 0. -1.
         22    1    1    0    0    0  0.14602518805E+02 -0.20030676817E+02  0.20454442904E+02  0.32137918472E+02  0.00000000000E+00 0. -1.
</event>
<event>
 5    1  0.1258677E-009  0.9118800E+02  0.7561462E-02  0.1125453E+00
         25   -1    0    0    0    0  0.00000000000E+00  0.00000000000E+00  0.99999998245E-14  0.12509000000E+03  0.12509000000E+03 0.  0.
        -13    1    3    3    0    0 -0.48236613575E+02 -0.12698646759E+02 -0.32051539517E+01  0.49983104091E+02  0.10566000000E+00 0. -1.
         23    2    1    0    0    0 -0.10626154462E+02 -0.13838977044E+02  0.23279808512E+02  0.95997356108E+02  0.91482842386E+02 0.  0.
         13    1    3    3    0    0  0.37610459114E+02 -0.11403302853E+01  0.26484962464E+02  0.46014252017E+02  0.10566000000E+00 0.  1.
         22    1    1    0    0    0  0.10626154462E+02  0.13838977044E+02 -0.23279808512E+02  0.29092643892E+02  0.00000000000E+00 0.  1.
</event>
<event>
 5    1  0.1258677E-009  0.9118800E+02  0.7561462E-02  0.1125453E+00
         25   -1    0    0    0    0  0.00000000000E+00  0.00000000000E+00  0.99999998245E-14  0.12509000000E+03  0.12509000000E+03 0.  0.
        -13    1    3    3    0    0  0.44870196796E+01 -0.31541245286E+02  0.52727480170E+02  0.61605047106E+02  0.10566000000E+00 0.  1.
         23    2    1    0    0    0  0.93855554576E+01 -0.12260184031E+02  0.24190260345E+02  0.96392100090E+02  0.92021016624E+02 0.  0.
         13    1    3    3    0    0  0.48985357779E+01  0.19281061255E+02 -0.28537219826E+02  0.34787052984E+02  0.10566000000E+00 0. -1.
         22    1    1    0    0    0 -0.93855554576E+01  0.12260184031E+02 -0.24190260345E+02  0.28697899910E+02  0.00000000000E+00 0.  1.
</event>
<event>
 5    1  0.1258677E-009  0.9118800E+02  0.7561462E-02  0.1125453E+00
         25   -1    0    0    0    0  0.00000000000E+00  0.00000000000E+00  0.99999998245E-14  0.12509000000E+03  0.12509000000E+03 0.  0.
        -13    1    3    3    0    0  0.22516857618E+02 -0.16835980315E+01 -0.34067434129E+02  0.40871073041E+02  0.10566000000E+00 0.  1.
         23    2    1    0    0    0 -0.10575785847E+02 -0.19555495913E+02  0.11584848955E+02  0.10002062841E+03  0.96827954204E+02 0.  0.
         13    1    3    3    0    0 -0.33092643465E+02 -0.17871897881E+02  0.45652283084E+02  0.59149555368E+02  0.10566000000E+00 0. -1.
         22    1    1    0    0    0  0.10575785847E+02  0.19555495913E+02 -0.11584848955E+02  0.25069371591E+02  0.00000000000E+00 0. -1.
</event>
<event>
 5    1  0.1258677E-009  0.9118800E+02  0.7561462E-02  0.1125453E+00
         25   -1    0    0    0    0  0.00000000000E+00  0.00000000000E+00  0.99999998245E-14  0.12509000000E+03  0.12509000000E+03 0.  0.
        -13    1    3    3    0    0  0.41420442743E+02 -0.26597117553E+02  0.12616525259E+02  0.50815820497E+02  0.10566000000E+00 0. -1.
         23    2    1    0    0    0  0.17344300648E+02  0.10753444576E+02  0.20743614546E+02  0.95990878370E+02  0.91473984557E+02 0.  0.
         13    1    3    3    0    0 -0.24076142096E+02  0.37350562128E+02  0.81270892864E+01  0.45175057873E+02  0.10566000000E+00 0.  1.
         22    1    1    0    0    0 -0.17344300648E+02 -0.10753444576E+02 -0.20743614546E+02  0.29099121630E+02  0.00000000000E+00 0. -1.
</event>
<event>
 5    1  0.1258677E-009  0.9118800E+02  0.7561462E-02  0.1125453E+00
         25   -1    0    0    0    0  0.00000000000E+00  0.00000000000E+00  0.99999998245E-14  0.12509000000E+03  0.12509000000E+03 0.  0.
        -13    1    3    3    0    0  0.34484839858E+02 -0.78019807553E+01  0.22524785921E+02  0.41921977870E+02  0.10566000000E+00 0.  1.
         23    2    1    0    0    0 -0.14473770070E+02  0.15826588055E+02  0.19064910945E+02  0.96394325433E+02  0.92024041624E+02 0.  0.
         13    1    3    3    0    0 -0.48958609928E+02  0.23628568811E+02 -0.34598749768E+01  0.54472347563E+02  0.10566000000E+00 0. -1.
         22    1    1    0    0    0  0.14473770070E+02 -0.15826588055E+02 -0.19064910945E+02  0.28695674567E+02  0.00000000000E+00 0. -1.
</event>
<event>
 5    1  0.1258677E-009  0.9118800E+02  0.7561462E-02  0.1125453E+00
         25   -1    0    0    0    0  0.00000000000E+00  0.00000000000E+00  0.99999998245E-14  0.12509000000E+03  0.12509000000E+03 0.  0.
        -13    1    3    3    0    0 -0.19044092157E+02  0.34029926943E+02 -0.89402294736E+01  0.40008152181E+02  0.10566000000E+00 0.  1.
         23    2    1    0    0    0  0.62162103142E+01 -0.11282698130E+02 -0.27190254101E+02  0.95002619492E+02  0.90112414486E+02 0.  0.
         13    1    3    3    0    0  0.25260302471E+02 -0.45312625072E+02 -0.18250024628E+02  0.54994467311E+02  0.10566000000E+00 0. -1.
         22    1    1    0    0    0 -0.62162103142E+01  0.11282698130E+02  0.27190254101E+02  0.30087380508E+02  0.00000000000E+00 0. -1.
</event>
<event>
 5    1  0.1258677E-009  0.9118800E+02  0.7561462E-02  0.1125453E+00
         25   -1    0    0    0    0  0.00000000000E+00  0.00000000000E+00  0.99999998245E-14  0.12509000000E+03  0.12509000000E+03 0.  0.
        -13    1    3    3    0    0 -0.36198248833E+02  0.16228616819E+02 -0.66389969418E+01  0.40221495085E+02  0.10566000000E+00 0.  1.
         23    2    1    0    0    0  0.17890214699E+02  0.21462780054E+02 -0.11700379217E+02  0.94797928703E+02  0.89827822544E+02 0.  0.
         13    1    3    3    0    0  0.54088463531E+02  0.52341632349E+01 -0.50613822752E+01  0.54576433619E+02  0.10566000000E+00 0. -1.
         22    1    1    0    0    0 -0.17890214699E+02 -0.21462780054E+02  0.11700379217E+02  0.30292071297E+02  0.00000000000E+00 0. -1.
</event>
<event>
 5    1  0.1258677E-009  0.9118800E+02  0.7561462E-02  0.1125453E+00
         25   -1    0    0    0    0  0.00000000000E+00  0.00000000000E+00  0.99999998245E-14  0.12509000000E+03  0.12509000000E+03 0.  0.
        -13    1    3    3    0    0 -0.59766409004E+00 -0.24548086183E+02 -0.33039560182E+02  0.41165391273E+02  0.10566000000E+00 0.  1.
         23    2    1    0    0    0  0.71992182140E+01  0.25497156915E+02 -0.11769969119E+02  0.96099209622E+02  0.91622006982E+02 0.  0.
         13    1    3    3    0    0  0.77968823040E+01  0.50045243098E+02  0.21269591063E+02  0.54933818349E+02  0.10566000000E+00 0. -1.
         22    1    1    0    0    0 -0.71992182140E+01 -0.25497156915E+02  0.11769969119E+02  0.28990790378E+02  0.00000000000E+00 0. -1.
</event>
<event>
 5    1  0.1258677E-009  0.9118800E+02  0.7561462E-02  0.1125453E+00
         25   -1    0    0    0    0  0.00000000000E+00  0.00000000000E+00  0.99999998245E-14  0.12509000000E+03  0.12509000000E+03 0.  0.
        -13    1    3    3    0    0  0.28522269730E+02 -0.11736145824E+02  0.44426968234E+02  0.54083487867E+02  0.10566000000E+00 0.  1.
         23    2    1    0    0    0  0.11436886113E+02  0.17327398201E+02  0.23356417680E+02  0.93839986573E+02  0.88483782360E+02 0.  0.
         13    1    3    3    0    0 -0.17085383617E+02  0.29063544025E+02 -0.21070550555E+02  0.39756498706E+02  0.10566000000E+00 0. -1.
         22    1    1    0    0    0 -0.11436886113E+02 -0.17327398201E+02 -0.23356417680E+02  0.31250013427E+02  0.00000000000E+00 0.  1.
</event>
<event>
 5    1  0.1258677E-009  0.9118800E+02  0.7561462E-02  0.1125453E+00
         25   -1    0    0    0    0  0.00000000000E+00  0.00000000000E+00  0.99999998245E-14  0.12509000000E+03  0.12509000000E+03 0.  0.
        -13    1    3    3    0    0 -0.18134567470E+01  0.11950476476E+02  0.57086118090E+02  0.58351851350E+02  0.10566000000E+00 0. -1.
         23    2    1    0    0    0  0.14990745280E+02  0.77013623795E+01  0.23189771813E+02  0.96422964170E+02  0.92062962564E+02 0.  0.
         13    1    3    3    0    0  0.16804202027E+02 -0.42491140962E+01 -0.33896346277E+02  0.38071112820E+02  0.10566000000E+00 0.  1.
         22    1    1    0    0    0 -0.14990745280E+02 -0.77013623795E+01 -0.23189771813E+02  0.28667035830E+02  0.00000000000E+00 0. -1.
</event>
<event>
 5    1  0.1258677E-009  0.9118800E+02  0.7561462E-02  0.1125453E+00
         25   -1    0    0    0    0  0.00000000000E+00  0.00000000000E+00  0.99999998245E-14  0.12509000000E+03  0.12509000000E+03 0.  0.
        -13    1    3    3    0    0 -0.87532057518E+01 -0.14742861718E+02  0.36144999797E+02  0.40005534078E+02  0.10566000000E+00 0.  1.
         23    2    1    0    0    0  0.27490984629E+02 -0.97169462213E+01 -0.54742783081E+01  0.95422829546E+02  0.90693855337E+02 0.  0.
         13    1    3    3    0    0  0.36244190381E+02  0.50259154966E+01 -0.41619278105E+02  0.55417295468E+02  0.10566000000E+00 0. -1.
         22    1    1    0    0    0 -0.27490984629E+02  0.97169462213E+01  0.54742783081E+01  0.29667170454E+02  0.00000000000E+00 0. -1.
</event>
<event>
 5    1  0.1258677E-009  0.9118800E+02  0.7561462E-02  0.1125453E+00
         25   -1    0    0    0    0  0.00000000000E+00  0.00000000000E+00  0.99999998245E-14  0.12509000000E+03  0.12509000000E+03 0.  0.
        -13    1    3    3    0    0 -0.51408660094E+02 -0.29624058903E+02  0.78161053967E+01  0.59845951126E+02  0.10566000000E+00 0. -1.
         23    2    1    0    0    0 -0.29172535181E+02 -0.19000541375E+01  0.34910637146E+01  0.95647946056E+02  0.91003818844E+02 0.  0.
         13    1    3    3    0    0  0.22236124913E+02  0.27724004765E+02 -0.43250416821E+01  0.35801994930E+02  0.10566000000E+00 0.  1.
         22    1    1    0    0    0  0.29172535181E+02  0.19000541375E+01 -0.34910637146E+01  0.29442053944E+02  0.00000000000E+00 0. -1.
</event>
<event>
 5    1  0.1258677E-009  0.9118800E+02  0.7561462E-02  0.1125453E+00
         25   -1    0    0    0    0  0.00000000000E+00  0.00000000000E+00  0.99999998245E-14  0.12509000000E+03  0.12509000000E+03 0.  0.
        -13    1    3    3    0    0  0.31089260612E+02 -0.16980123551E+02  0.50944759145E+02  0.62050353501E+02  0.10566000000E+00 0.  1.
         23    2    1    0    0    0  0.19558713142E+02 -0.60664654346E+01  0.22205359482E+02  0.94883655428E+02  0.89947122328E+02 0.  0.
         13    1    3    3    0    0 -0.11530547469E+02  0.10913658117E+02 -0.28739399663E+02  0.32833301927E+02  0.10566000000E+00 0. -1.
         22    1    1    0    0    0 -0.19558713142E+02  0.60664654346E+01 -0.22205359482E+02  0.30206344572E+02  0.00000000000E+00 0.  1.
</event>
<event>
 5    1  0.1258677E-009  0.9118800E+02  0.7561462E-02  0.1125453E+00
         25   -1    0    0    0    0  0.00000000000E+00  0.00000000000E+00  0.99999998245E-14  0.12509000000E+03  0.12509000000E+03 0.  0.
        -13    1    3    3    0    0  0.37572093176E+02  0.99946014200E+01  0.41179829978E+02  0.56633415968E+02  0.10566000000E+00 0. -1.
         23    2    1    0    0    0  0.28236917221E+02 -0.89282204663E+01  0.10914880766E+02  0.93527819515E+02  0.88041364065E+02 0.  0.
         13    1    3    3    0    0 -0.93351759558E+01 -0.18922821886E+02 -0.30264949212E+02  0.36894403547E+02  0.10566000000E+00 0.  1.
         22    1    1    0    0    0 -0.28236917221E+02  0.89282204663E+01 -0.10914880766E+02  0.31562180485E+02  0.00000000000E+00 0. -1.
</event>
<event>
 5    1  0.1258677E-009  0.9118800E+02  0.7561462E-02  0.1125453E+00
         25   -1    0    0    0    0  0.00000000000E+00  0.00000000000E+00  0.99999998245E-14  0.12509000000E+03  0.12509000000E+03 0.  0.
        -13    1    3    3    0    0  0.17733982567E+02 -0.10231434697E+02 -0.44798077607E+02  0.49255002943E+02  0.10566000000E+00 0. -1.
         23    2    1    0    0    0  0.28983686123E+02 -0.90198905144E+01 -0.75769107474E+00  0.94725768049E+02  0.89727278743E+02 0.  0.
         13    1    3    3    0    0  0.11249703557E+02  0.12115441824E+01  0.44040386532E+02  0.45470765106E+02  0.10566000000E+00 0.  1.
         22    1    1    0    0    0 -0.28983686123E+02  0.90198905144E+01  0.75769107474E+00  0.30364231951E+02  0.00000000000E+00 0. -1.
</event>
<event>
 5    1  0.1258677E-009  0.9118800E+02  0.7561462E-02  0.1125453E+00
         25   -1    0    0    0    0  0.00000000000E+00  0.00000000000E+00  0.99999998245E-14  0.12509000000E+03  0.12509000000E+03 0.  0.
        -13    1    3    3    0    0 -0.14701399145E+02  0.32489821336E+02  0.27281087114E+01  0.35765533247E+02  0.10566000000E+00 0. -1.
         23    2    1    0    0    0 -0.82813749656E+01 -0.26653808642E+02  0.94215081582E+01  0.95632038386E+02  0.90981950207E+02 0.  0.
         13    1    3    3    0    0  0.64200241792E+01 -0.59143629978E+02  0.66933994467E+01  0.59866505140E+02  0.10566000000E+00 0.  1.
         22    1    1    0    0    0  0.82813749656E+01  0.26653808642E+02 -0.94215081582E+01  0.29457961614E+02  0.00000000000E+00 0.  1.
</event>
<event>
 5    1  0.1258677E-009  0.9118800E+02  0.7561462E-02  0.1125453E+00
         25   -1    0    0    0    0  0.00000000000E+00  0.00000000000E+00  0.99999998245E-14  0.12509000000E+03  0.12509000000E+03 0.  0.
        -13    1    3    3    0    0  0.49939273526E+02  0.11429035244E+02  0.66060609165E+01  0.51654671539E+02  0.10566000000E+00 0. -1.
         23    2    1    0    0    0  0.11104884440E+02 -0.23012346675E+01  0.25657805584E+02  0.97037600338E+02  0.92894341876E+02 0.  0.
         13    1    3    3    0    0 -0.38834389085E+02 -0.13730269912E+02  0.19051744667E+02  0.45382928799E+02  0.10566000000E+00 0.  1.
         22    1    1    0    0    0 -0.11104884440E+02  0.23012346675E+01 -0.25657805584E+02  0.28052399662E+02  0.00000000000E+00 0. -1.
</event>
<event>
 5    1  0.1258677E-009  0.9118800E+02  0.7561462E-02  0.1125453E+00
         25   -1    0    0    0    0  0.00000000000E+00  0.00000000000E+00  0.99999998245E-14  0.12509000000E+03  0.12509000000E+03 0.  0.
        -13    1    3    3    0    0 -0.15178935121E+02 -0.33894148035E+02 -0.75685130887E+01  0.37901278301E+02  0.10566000000E+00 0. -1.
         23    2    1    0    0    0  0.24145708142E+02  0.97682927403E+01 -0.11118632761E+02  0.96769358072E+02  0.92532426221E+02 0.  0.
         13    1    3    3    0    0  0.39324643263E+02  0.43662440775E+02 -0.35501196719E+01  0.58868079771E+02  0.10566000000E+00 0.  1.
         22    1    1    0    0    0 -0.24145708142E+02 -0.97682927403E+01  0.11118632761E+02  0.28320641928E+02  0.00000000000E+00 0.  1.
</event>
<event>
 5    1  0.1258677E-009  0.9118800E+02  0.7561462E-02  0.1125453E+00
         25   -1    0    0    0    0  0.00000000000E+00  0.00000000000E+00  0.99999998245E-14  0.12509000000E+03  0.12509000000E+03 0.  0.
        -13    1    3    3    0    0 -0.46401058124E+01 -0.46019306801E+02 -0.14831320152E+02  0.48572486058E+02  0.10566000000E+00 0.  1.
         23    2    1    0    0    0 -0.27588847252E+02 -0.53632331289E+01 -0.87579010997E+01  0.95651766460E+02  0.91009070058E+02 0.  0.
         13    1    3    3    0    0 -0.22948741440E+02  0.40656073672E+02  0.60734190524E+01  0.47079280401E+02  0.10566000000E+00 0. -1.
         22    1    1    0    0    0  0.27588847252E+02  0.53632331289E+01  0.87579010997E+01  0.29438233540E+02  0.00000000000E+00 0. -1.
</event>
<event>
 5    1  0.1258677E-009  0.9118800E+02  0.7561462E-02  0.1125453E+00
         25   -1    0    0    0    0  0.00000000000E+00  0.00000000000E+00  0.99999998245E-14  0.12509000000E+03  0.12509000000E+03 0.  0.
        -13    1    3    3    0    0  0.12339128057E+02  0.22761995012E+02 -0.50832476164E+02  0.57046597577E+02  0.10566000000E+00 0.  1.
         23    2    1    0    0    0 -0.90256088370E+01  0.20826393836E+02 -0.18705950839E+02  0.95677198504E+02  0.91044019143E+02 0.  0.
         13    1    3    3    0    0 -0.21364736894E+02 -0.19356011761E+01  0.32126525325E+02  0.38630600927E+02  0.10566000000E+00 0. -1.
         22    1    1    0    0    0  0.90256088370E+01 -0.20826393836E+02  0.18705950839E+02  0.29412801496E+02  0.00000000000E+00 0.  1.
</event>
<event>
 5    1  0.1258677E-009  0.9118800E+02  0.7561462E-02  0.1125453E+00
         25   -1    0    0    0    0  0.00000000000E+00  0.00000000000E+00  0.99999998245E-14  0.12509000000E+03  0.12509000000E+03 0.  0.
        -13    1    3    3    0    0 -0.87995127919E+01 -0.33684631589E+01  0.48260896402E+02  0.49172179685E+02  0.10566000000E+00 0.  1.
         23    2    1    0    0    0 -0.12070842840E+02 -0.25789006241E+02  0.77648598651E+01  0.95576085680E+02  0.90904988947E+02 0.  0.
         13    1    3    3    0    0 -0.32713300476E+01 -0.22420543082E+02 -0.40496036537E+02  0.46403905995E+02  0.10566000000E+00 0. -1.
         22    1    1    0    0    0  0.12070842840E+02  0.25789006241E+02 -0.77648598651E+01  0.29513914320E+02  0.00000000000E+00 0.  1.
</event>
<event>
 5    1  0.1258677E-009  0.9118800E+02  0.7561462E-02  0.1125453E+00
         25   -1    0    0    0    0  0.00000000000E+00  0.00000000000E+00  0.99999998245E-14  0.12509000000E+03  0.12509000000E+03 0.  0.
        -13    1    3    3    0    0 -0.77506721322E+01  0.41195523505E+02  0.90828258734E+01  0.42891175844E+02  0.10566000000E+00 0.  1.
         23    2    1    0    0    0 -0.23317474555E+02 -0.12014994764E+02  0.38397658403E+01  0.98579463972E+02  0.94947892007E+02 0.  0.
         13    1    3    3    0    0 -0.15566802422E+02 -0.53210518269E+02 -0.52430600332E+01  0.55688288128E+02  0.10566000000E+00 0. -1.
         22    1    1    0    0    0  0.23317474555E+02  0.12014994764E+02 -0.38397658403E+01  0.26510536028E+02  0.00000000000E+00 0.  1.
</event>
<event>
 5    1  0.1258677E-009  0.9118800E+02  0.7561462E-02  0.1125453E+00
         25   -1    0    0    0    0  0.00000000000E+00  0.00000000000E+00  0.99999998245E-14  0.12509000000E+03  0.12509000000E+03 0.  0.
        -13    1    3    3    0    0  0.19057835840E+02 -0.29497235723E+02  0.21946129117E+02  0.41411734683E+02  0.10566000000E+00 0.  1.
         23    2    1    0    0    0 -0.21444163423E+02 -0.13397365917E+02 -0.12423493274E+02  0.96917588964E+02  0.92732595710E+02 0.  0.
         13    1    3    3    0    0 -0.40501999263E+02  0.16099869805E+02 -0.34369622392E+02  0.55505854281E+02  0.10566000000E+00 0. -1.
         22    1    1    0    0    0  0.21444163423E+02  0.13397365917E+02  0.12423493274E+02  0.28172411036E+02  0.00000000000E+00 0. -1.
</event>
<event>
 5    1  0.1258677E-009  0.9118800E+02  0.7561462E-02  0.1125453E+00
         25   -1    0    0    0    0  0.00000000000E+00  0.00000000000E+00  0.99999998245E-14  0.12509000000E+03  0.12509000000E+03 0.  0.
        -13    1    3    3    0    0  0.42455363190E+02 -0.14607066432E+02  0.35386648676E+02  0.57166863845E+02  0.10566000000E+00 0.  1.
         23    2    1    0    0    0  0.47322817554E+01 -0.12750344561E+02  0.25470699764E+02  0.96215749819E+02  0.91780979455E+02 0.  0.
         13    1    3    3    0    0 -0.37723081434E+02  0.18567218702E+01 -0.99159489122E+01  0.39048885975E+02  0.10566000000E+00 0. -1.
         22    1    1    0    0    0 -0.47322817554E+01  0.12750344561E+02 -0.25470699764E+02  0.28874250181E+02  0.00000000000E+00 0.  1.
</event>
<event>
 5    1  0.1258677E-009  0.9118800E+02  0.7561462E-02  0.1125453E+00
         25   -1    0    0    0    0  0.00000000000E+00  0.00000000000E+00  0.99999998245E-14  0.12509000000E+03  0.12509000000E+03 0.  0.
        -13    1    3    3    0    0  0.32073199953E+02  0.23391743759E+02 -0.21926063093E+02  0.45350052240E+02  0.10566000000E+00 0.  1.
         23    2    1    0    0    0 -0.17858117574E+02  0.14357444197E+02 -0.17447735218E+02  0.96289443905E+02  0.91881363595E+02 0.  0.
         13    1    3    3    0    0 -0.49931317527E+02 -0.90342995623E+01  0.44783278756E+01  0.50939391665E+02  0.10566000000E+00 0. -1.
         22    1    1    0    0    0  0.17858117574E+02 -0.14357444197E+02  0.17447735218E+02  0.28800556095E+02  0.00000000000E+00 0. -1.
</event>
<event>
 5    1  0.1258677E-009  0.9118800E+02  0.7561462E-02  0.1125453E+00
         25   -1    0    0    0    0  0.00000000000E+00  0.00000000000E+00  0.99999998245E-14  0.12509000000E+03  0.12509000000E+03 0.  0.
        -13    1    3    3    0    0  0.39079044013E+02 -0.16818503124E+02  0.37337282677E+02  0.56604925316E+02  0.10566000000E+00 0.  1.
         23    2    1    0    0    0  0.22983866102E+02 -0.18591489087E+02  0.20178898620E+01  0.95459383285E+02  0.90744258276E+02 0.  0.
         13    1    3    3    0    0 -0.16095177911E+02 -0.17729859629E+01 -0.35319392815E+02  0.38854457969E+02  0.10566000000E+00 0. -1.
         22    1    1    0    0    0 -0.22983866102E+02  0.18591489087E+02 -0.20178898620E+01  0.29630616715E+02  0.00000000000E+00 0.  1.
</event>
<event>
 5    1  0.1258677E-009  0.9118800E+02  0.7561462E-02  0.1125453E+00
         25   -1    0    0    0    0  0.00000000000E+00  0.00000000000E+00  0.99999998245E-14  0.12509000000E+03  0.12509000000E+03 0.  0.
        -13    1    3    3    0    0  0.12251992525E+02 -0.34290864243E+02  0.47975291061E+02  0.60229680456E+02  0.10566000000E+00 0. -1.
         23    2    1    0    0    0  0.16782167891E+02 -0.11365997179E+02  0.23032921782E+02  0.94408694017E+02  0.89284147357E+02 0.  0.
         13    1    3    3    0    0  0.45301753662E+01  0.22924867064E+02 -0.24942369280E+02  0.34179013562E+02  0.10566000000E+00 0.  1.
         22    1    1    0    0    0 -0.16782167891E+02  0.11365997179E+02 -0.23032921782E+02  0.30681305983E+02  0.00000000000E+00 0. -1.
</event>
<event>
 5    1  0.1258677E-009  0.9118800E+02  0.7561462E-02  0.1125453E+00
         25   -1    0    0    0    0  0.00000000000E+00  0.00000000000E+00  0.99999998245E-14  0.12509000000E+03  0.12509000000E+03 0.  0.
        -13    1    3    3    0    0 -0.22747626129E+02 -0.14965338780E+02 -0.23203080429E+02  0.35774431718E+02  0.10566000000E+00 0.  1.
         23    2    1    0    0    0  0.24986237806E+02  0.10072634684E+02  0.65807334799E+01  0.97357778626E+02  0.93324492802E+02 0.  0.
         13    1    3    3    0    0  0.47733863936E+02  0.25037973464E+02  0.29783813909E+02  0.61583346908E+02  0.10566000000E+00 0. -1.
         22    1    1    0    0    0 -0.24986237806E+02 -0.10072634684E+02 -0.65807334799E+01  0.27732221374E+02  0.00000000000E+00 0. -1.
</event>
<event>
 5    1  0.1258677E-009  0.9118800E+02  0.7561462E-02  0.1125453E+00
         25   -1    0    0    0    0  0.00000000000E+00  0.00000000000E+00  0.99999998245E-14  0.12509000000E+03  0.12509000000E+03 0.  0.
        -13    1    3    3    0    0  0.80277179934E+01 -0.27410819128E+02 -0.19758116711E+02  0.34730269239E+02  0.10566000000E+00 0.  1.
         23    2    1    0    0    0 -0.88422613537E+01  0.76680843355E+01  0.27054847852E+02  0.95612043905E+02  0.90954455879E+02 0.  0.
         13    1    3    3    0    0 -0.16869979347E+02  0.35078903463E+02  0.46812964562E+02  0.60881774666E+02  0.10566000000E+00 0. -1.
         22    1    1    0    0    0  0.88422613537E+01 -0.76680843355E+01 -0.27054847852E+02  0.29477956095E+02  0.00000000000E+00 0. -1.
</event>
<event>
 5    1  0.1258677E-009  0.9118800E+02  0.7561462E-02  0.1125453E+00
         25   -1    0    0    0    0  0.00000000000E+00  0.00000000000E+00  0.99999998245E-14  0.12509000000E+03  0.12509000000E+03 0.  0.
        -13    1    3    3    0    0  0.22703503392E+02 -0.20196130040E+02  0.12052400878E+02  0.32689513086E+02  0.10566000000E+00 0. -1.
         23    2    1    0    0    0 -0.19344602686E+02  0.23773241679E+02  0.17838040519E+01  0.94388817125E+02  0.89256294839E+02 0.  0.
         13    1    3    3    0    0 -0.42048106077E+02  0.43969371719E+02 -0.10268596826E+02  0.61699304039E+02  0.10566000000E+00 0.  1.
         22    1    1    0    0    0  0.19344602686E+02 -0.23773241679E+02 -0.17838040519E+01  0.30701182875E+02  0.00000000000E+00 0.  1.
</event>
<event>
 5    1  0.1258677E-009  0.9118800E+02  0.7561462E-02  0.1125453E+00
         25   -1    0    0    0    0  0.00000000000E+00  0.00000000000E+00  0.99999998245E-14  0.12509000000E+03  0.12509000000E+03 0.  0.
        -13    1    3    3    0    0 -0.38437260378E+01 -0.60419874460E+02 -0.60601727700E+01  0.60844657265E+02  0.10566000000E+00 0.  1.
         23    2    1    0    0    0  0.12900014933E+01 -0.31793737594E+02  0.66481542598E+01  0.92583019071E+02  0.86688589856E+02 0.  0.
         13    1    3    3    0    0  0.51337275310E+01  0.28626136866E+02  0.12708327030E+02  0.31738361807E+02  0.10566000000E+00 0. -1.
         22    1    1    0    0    0 -0.12900014933E+01  0.31793737594E+02 -0.66481542598E+01  0.32506980929E+02  0.00000000000E+00 0.  1.
</event>
<event>
 5    1  0.1258677E-009  0.9118800E+02  0.7561462E-02  0.1125453E+00
         25   -1    0    0    0    0  0.00000000000E+00  0.00000000000E+00  0.99999998245E-14  0.12509000000E+03  0.12509000000E+03 0.  0.
        -13    1    3    3    0    0  0.42680882250E+02 -0.31068373822E+02 -0.31847179914E+02  0.61653512423E+02  0.10566000000E+00 0.  1.
         23    2    1    0    0    0  0.21640261198E+02 -0.18508413931E+02 -0.88201074200E+01  0.95279656395E+02  0.90496167526E+02 0.  0.
         13    1    3    3    0    0 -0.21040621052E+02  0.12559959891E+02  0.23027072494E+02  0.33626143972E+02  0.10566000000E+00 0. -1.
         22    1    1    0    0    0 -0.21640261198E+02  0.18508413931E+02  0.88201074200E+01  0.29810343605E+02  0.00000000000E+00 0.  1.
</event>
<event>
 5    1  0.1258677E-009  0.9118800E+02  0.7561462E-02  0.1125453E+00
         25   -1    0    0    0    0  0.00000000000E+00  0.00000000000E+00  0.99999998245E-14  0.12509000000E+03  0.12509000000E+03 0.  0.
        -13    1    3    3    0    0  0.39568138542E+01 -0.62046714235E+01  0.35372431585E+02  0.36129965453E+02  0.10566000000E+00 0. -1.
         23    2    1    0    0    0  0.24934378423E+01  0.18639805789E+02 -0.20485476173E+02  0.97281470262E+02  0.93222154718E+02 0.  0.
         13    1    3    3    0    0 -0.14633760119E+01  0.24844477213E+02 -0.55857907758E+02  0.61151504810E+02  0.10566000000E+00 0.  1.
         22    1    1    0    0    0 -0.24934378423E+01 -0.18639805789E+02  0.20485476173E+02  0.27808529738E+02  0.00000000000E+00 0.  1.
</event>
<event>
 5    1  0.1258677E-009  0.9118800E+02  0.7561462E-02  0.1125453E+00
         25   -1    0    0    0    0  0.00000000000E+00  0.00000000000E+00  0.99999998245E-14  0.12509000000E+03  0.12509000000E+03 0.  0.
        -13    1    3    3    0    0  0.50922334783E+02  0.79313352011E+01 -0.91008056248E+01  0.52333794864E+02  0.10566000000E+00 0.  1.
         23    2    1    0    0    0  0.10741904406E+02  0.18065203643E+02 -0.20930588748E+02  0.95428077637E+02  0.90701093506E+02 0.  0.
         13    1    3    3    0    0 -0.40180430377E+02  0.10133868442E+02 -0.11829783124E+02  0.43094282772E+02  0.10566000000E+00 0. -1.
         22    1    1    0    0    0 -0.10741904406E+02 -0.18065203643E+02  0.20930588748E+02  0.29661922363E+02  0.00000000000E+00 0.  1.
</event>
<event>
 5    1  0.1258677E-009  0.9118800E+02  0.7561462E-02  0.1125453E+00
         25   -1    0    0    0    0  0.00000000000E+00  0.00000000000E+00  0.99999998245E-14  0.12509000000E+03  0.12509000000E+03 0.  0.
        -13    1    3    3    0    0 -0.24642589195E+02  0.14371575607E+02 -0.63866000094E+01  0.29233528891E+02  0.10566000000E+00 0.  1.
         23    2    1    0    0    0  0.23294157715E+02  0.82317037410E+01 -0.32578491715E+02  0.84203121267E+02  0.73609977439E+02 0.  0.
         13    1    3    3    0    0  0.47936746910E+02 -0.61398718661E+01 -0.26191891705E+02  0.54969592376E+02  0.10566000000E+00 0. -1.
         22    1    1    0    0    0 -0.23294157715E+02 -0.82317037410E+01  0.32578491715E+02  0.40886878733E+02  0.00000000000E+00 0. -1.
</event>
<event>
 5    1  0.1258677E-009  0.9118800E+02  0.7561462E-02  0.1125453E+00
         25   -1    0    0    0    0  0.00000000000E+00  0.00000000000E+00  0.99999998245E-14  0.12509000000E+03  0.12509000000E+03 0.  0.
        -13    1    3    3    0    0 -0.22803549191E+02  0.27461098040E+02  0.21598733053E+02  0.41720860428E+02  0.10566000000E+00 0.  1.
         23    2    1    0    0    0  0.22154603441E+01 -0.20950143748E+02  0.19698681462E+02  0.96248106183E+02  0.91825067955E+02 0.  0.
         13    1    3    3    0    0  0.25019009535E+02 -0.48411241788E+02 -0.19000515909E+01  0.54527245756E+02  0.10566000000E+00 0. -1.
         22    1    1    0    0    0 -0.22154603441E+01  0.20950143748E+02 -0.19698681462E+02  0.28841893817E+02  0.00000000000E+00 0. -1.
</event>
<event>
 5    1  0.1258677E-009  0.9118800E+02  0.7561462E-02  0.1125453E+00
         25   -1    0    0    0    0  0.00000000000E+00  0.00000000000E+00  0.99999998245E-14  0.12509000000E+03  0.12509000000E+03 0.  0.
        -13    1    3    3    0    0  0.17229385959E+02  0.53600078070E+02  0.11008051425E+02  0.57367311858E+02  0.10566000000E+00 0.  1.
         23    2    1    0    0    0 -0.95791472952E+01  0.27946550788E+02  0.24567491620E+01  0.95445348201E+02  0.90724908999E+02 0.  0.
         13    1    3    3    0    0 -0.26808533254E+02 -0.25653527282E+02 -0.85513022629E+01  0.38078036342E+02  0.10566000000E+00 0. -1.
         22    1    1    0    0    0  0.95791472952E+01 -0.27946550788E+02 -0.24567491620E+01  0.29644651799E+02  0.00000000000E+00 0.  1.
</event>
<event>
 5    1  0.1258677E-009  0.9118800E+02  0.7561462E-02  0.1125453E+00
         25   -1    0    0    0    0  0.00000000000E+00  0.00000000000E+00  0.99999998245E-14  0.12509000000E+03  0.12509000000E+03 0.  0.
        -13    1    3    3    0    0 -0.89164414624E+01 -0.17790323451E+02  0.57098977354E+02  0.60467370670E+02  0.10566000000E+00 0. -1.
         23    2    1    0    0    0 -0.13987518944E+02 -0.11754771148E+02  0.21752905525E+02  0.96682004124E+02  0.92414261300E+02 0.  0.
         13    1    3    3    0    0 -0.50710774812E+01  0.60355523031E+01 -0.35346071829E+02  0.36214633454E+02  0.10566000000E+00 0.  1.
         22    1    1    0    0    0  0.13987518944E+02  0.11754771148E+02 -0.21752905525E+02  0.28407995876E+02  0.00000000000E+00 0. -1.
</event>
<event>
 5    1  0.1258677E-009  0.9118800E+02  0.7561462E-02  0.1125453E+00
         25   -1    0    0    0    0  0.00000000000E+00  0.00000000000E+00  0.99999998245E-14  0.12509000000E+03  0.12509000000E+03 0.  0.
        -13    1    3    3    0    0  0.11584943406E+02  0.35011564142E+02  0.81564798355E+01  0.37769827439E+02  0.10566000000E+00 0. -1.
         23    2    1    0    0    0  0.12436698521E+02 -0.24180030529E+02  0.71438443022E+01  0.96976304798E+02  0.92811765603E+02 0.  0.
         13    1    3    3    0    0  0.85175511490E+00 -0.59191594671E+02 -0.10126355333E+01  0.59206477359E+02  0.10566000000E+00 0.  1.
         22    1    1    0    0    0 -0.12436698521E+02  0.24180030529E+02 -0.71438443022E+01  0.28113695202E+02  0.00000000000E+00 0.  1.
</event>
<event>
 5    1  0.1258677E-009  0.9118800E+02  0.7561462E-02  0.1125453E+00
         25   -1    0    0    0    0  0.00000000000E+00  0.00000000000E+00  0.99999998245E-14  0.12509000000E+03  0.12509000000E+03 0.  0.
        -13    1    3    3    0    0 -0.27804436883E+02 -0.24925746944E+01 -0.34450449412E+02  0.44341225374E+02  0.10566000000E+00 0.  1.
         23    2    1    0    0    0  0.21462218682E+02  0.84270866080E+00 -0.19873794298E+02  0.95827315768E+02  0.91250039774E+02 0.  0.
         13    1    3    3    0    0  0.49266655566E+02  0.33352833552E+01  0.14576655114E+02  0.51486090393E+02  0.10566000000E+00 0. -1.
         22    1    1    0    0    0 -0.21462218682E+02 -0.84270866080E+00  0.19873794298E+02  0.29262684232E+02  0.00000000000E+00 0.  1.
</event>
<event>
 5    1  0.1258677E-009  0.9118800E+02  0.7561462E-02  0.1125453E+00
         25   -1    0    0    0    0  0.00000000000E+00  0.00000000000E+00  0.99999998245E-14  0.12509000000E+03  0.12509000000E+03 0.  0.
        -13    1    3    3    0    0 -0.48645984400E+02 -0.87194165815E+01 -0.53791600402E+01  0.49713243211E+02  0.10566000000E+00 0.  1.
         23    2    1    0    0    0 -0.65143154016E+01 -0.12691424565E+02 -0.24958871962E+02  0.96341889588E+02  0.91952736974E+02 0.  0.
         13    1    3    3    0    0  0.42131668998E+02 -0.39720079836E+01 -0.19579711922E+02  0.46628646377E+02  0.10566000000E+00 0. -1.
         22    1    1    0    0    0  0.65143154016E+01  0.12691424565E+02  0.24958871962E+02  0.28748110412E+02  0.00000000000E+00 0. -1.
</event>
<event>
 5    1  0.1258677E-009  0.9118800E+02  0.7561462E-02  0.1125453E+00
         25   -1    0    0    0    0  0.00000000000E+00  0.00000000000E+00  0.99999998245E-14  0.12509000000E+03  0.12509000000E+03 0.  0.
        -13    1    3    3    0    0 -0.77210934616E+01 -0.27108343017E+02  0.26140448063E+02  0.38442316974E+02  0.10566000000E+00 0. -1.
         23    2    1    0    0    0 -0.21443046215E+02 -0.27089782255E+01 -0.22075539518E+02  0.94195465872E+02  0.88984906315E+02 0.  0.
         13    1    3    3    0    0 -0.13721952753E+02  0.24399364791E+02 -0.48215987581E+02  0.55753148898E+02  0.10566000000E+00 0.  1.
         22    1    1    0    0    0  0.21443046215E+02  0.27089782255E+01  0.22075539518E+02  0.30894534128E+02  0.00000000000E+00 0.  1.
</event>
<event>
 5    1  0.1258677E-009  0.9118800E+02  0.7561462E-02  0.1125453E+00
         25   -1    0    0    0    0  0.00000000000E+00  0.00000000000E+00  0.99999998245E-14  0.12509000000E+03  0.12509000000E+03 0.  0.
        -13    1    3    3    0    0 -0.43207199030E+02  0.39121259329E+02 -0.22257165296E+02  0.62391726619E+02  0.10566000000E+00 0. -1.
         23    2    1    0    0    0 -0.20447700532E+02  0.17402280980E+02 -0.13439353605E+02  0.95063943555E+02  0.90197501620E+02 0.  0.
         13    1    3    3    0    0  0.22759498498E+02 -0.21718978349E+02  0.88178116915E+01  0.32672216935E+02  0.10566000000E+00 0.  1.
         22    1    1    0    0    0  0.20447700532E+02 -0.17402280980E+02  0.13439353605E+02  0.30026056445E+02  0.00000000000E+00 0. -1.
</event>
<event>
 5    1  0.1258677E-009  0.9118800E+02  0.7561462E-02  0.1125453E+00
         25   -1    0    0    0    0  0.00000000000E+00  0.00000000000E+00  0.99999998245E-14  0.12509000000E+03  0.12509000000E+03 0.  0.
        -13    1    3    3    0    0  0.21942837633E+02 -0.25962655455E+02 -0.18384881092E+02  0.38646637868E+02  0.10566000000E+00 0.  1.
         23    2    1    0    0    0 -0.26539176168E+02 -0.10319061289E+02  0.72936747373E+01  0.95695976989E+02  0.91069816203E+02 0.  0.
         13    1    3    3    0    0 -0.48482013801E+02  0.15643594166E+02  0.25678555830E+02  0.57049339121E+02  0.10566000000E+00 0. -1.
         22    1    1    0    0    0  0.26539176168E+02  0.10319061289E+02 -0.72936747373E+01  0.29394023011E+02  0.00000000000E+00 0. -1.
</event>
<event>
 5    1  0.1258677E-009  0.9118800E+02  0.7561462E-02  0.1125453E+00
         25   -1    0    0    0    0  0.00000000000E+00  0.00000000000E+00  0.99999998245E-14  0.12509000000E+03  0.12509000000E+03 0.  0.
        -13    1    3    3    0    0 -0.26005350882E+02  0.47590710465E+02  0.24925580611E+02  0.59686260813E+02  0.10566000000E+00 0.  1.
         23    2    1    0    0    0 -0.14232966434E+00  0.27986398863E+02  0.12526392078E+02  0.94427820079E+02  0.89310939572E+02 0.  0.
         13    1    3    3    0    0  0.25863021218E+02 -0.19604311602E+02 -0.12399188533E+02  0.34741559265E+02  0.10566000000E+00 0. -1.
         22    1    1    0    0    0  0.14232966434E+00 -0.27986398863E+02 -0.12526392078E+02  0.30662179921E+02  0.00000000000E+00 0.  1.
</event>
<event>
 5    1  0.1258677E-009  0.9118800E+02  0.7561462E-02  0.1125453E+00
         25   -1    0    0    0    0  0.00000000000E+00  0.00000000000E+00  0.99999998245E-14  0.12509000000E+03  0.12509000000E+03 0.  0.
        -13    1    3    3    0    0  0.20383252929E+02  0.39023769959E+02 -0.30956687118E+02  0.53820621169E+02  0.10566000000E+00 0. -1.
         23    2    1    0    0    0 -0.39512306044E+01  0.65189289801E+01 -0.29681397873E+02  0.94445358738E+02  0.89335501057E+02 0.  0.
         13    1    3    3    0    0 -0.24334483533E+02 -0.32504840979E+02  0.12752892441E+01  0.40624737569E+02  0.10566000000E+00 0.  1.
         22    1    1    0    0    0  0.39512306044E+01 -0.65189289801E+01  0.29681397873E+02  0.30644641262E+02  0.00000000000E+00 0. -1.
</event>
<event>
 5    1  0.1258677E-009  0.9118800E+02  0.7561462E-02  0.1125453E+00
         25   -1    0    0    0    0  0.00000000000E+00  0.00000000000E+00  0.99999998245E-14  0.12509000000E+03  0.12509000000E+03 0.  0.
        -13    1    3    3    0    0  0.47448063150E+02 -0.29103134058E+02 -0.56780724271E+01  0.55951432325E+02  0.10566000000E+00 0. -1.
         23    2    1    0    0    0  0.85203556264E+01 -0.28717212860E+02 -0.33095348716E+01  0.94953182061E+02  0.90043761516E+02 0.  0.
         13    1    3    3    0    0 -0.38927707524E+02  0.38592119860E+00  0.23685375555E+01  0.39001749736E+02  0.10566000000E+00 0.  1.
         22    1    1    0    0    0 -0.85203556264E+01  0.28717212860E+02  0.33095348716E+01  0.30136817939E+02  0.00000000000E+00 0. -1.
</event>
<event>
 5    1  0.1258677E-009  0.9118800E+02  0.7561462E-02  0.1125453E+00
         25   -1    0    0    0    0  0.00000000000E+00  0.00000000000E+00  0.99999998245E-14  0.12509000000E+03  0.12509000000E+03 0.  0.
        -13    1    3    3    0    0  0.31120488542E+02 -0.17488472654E+02  0.16652660516E+02  0.39391036406E+02  0.10566000000E+00 0.  1.
         23    2    1    0    0    0 -0.22270958252E+02  0.95306426199E+01  0.50693841396E+01  0.10034070939E+03  0.97240580905E+02 0.  0.
         13    1    3    3    0    0 -0.53391446794E+02  0.27019115274E+02 -0.11583276377E+02  0.60949672982E+02  0.10566000000E+00 0. -1.
         22    1    1    0    0    0  0.22270958252E+02 -0.95306426199E+01 -0.50693841396E+01  0.24749290612E+02  0.00000000000E+00 0. -1.
</event>
<event>
 5    1  0.1258677E-009  0.9118800E+02  0.7561462E-02  0.1125453E+00
         25   -1    0    0    0    0  0.00000000000E+00  0.00000000000E+00  0.99999998245E-14  0.12509000000E+03  0.12509000000E+03 0.  0.
        -13    1    3    3    0    0  0.13625701319E+02 -0.22779148565E+02  0.22322919073E+02  0.34682462798E+02  0.10566000000E+00 0. -1.
         23    2    1    0    0    0  0.41883705610E+01  0.27004060712E+02 -0.11327461229E+02  0.95508365144E+02  0.90811754149E+02 0.  0.
         13    1    3    3    0    0 -0.94373307583E+01  0.49783209276E+02 -0.33650380302E+02  0.60825902346E+02  0.10566000000E+00 0.  1.
         22    1    1    0    0    0 -0.41883705610E+01 -0.27004060712E+02  0.11327461229E+02  0.29581634856E+02  0.00000000000E+00 0.  1.
</event>
<event>
 5    1  0.1258677E-009  0.9118800E+02  0.7561462E-02  0.1125453E+00
         25   -1    0    0    0    0  0.00000000000E+00  0.00000000000E+00  0.99999998245E-14  0.12509000000E+03  0.12509000000E+03 0.  0.
        -13    1    3    3    0    0  0.22508648993E+02  0.54818329204E+02 -0.17007708549E+02  0.61651940848E+02  0.10566000000E+00 0.  1.
         23    2    1    0    0    0  0.16542393523E+02  0.20901362175E+02 -0.82701624905E+01  0.97180981532E+02  0.93087216414E+02 0.  0.
         13    1    3    3    0    0 -0.59662554694E+01 -0.33916967029E+02  0.87375460585E+01  0.35529040684E+02  0.10566000000E+00 0. -1.
         22    1    1    0    0    0 -0.16542393523E+02 -0.20901362175E+02  0.82701624905E+01  0.27909018468E+02  0.00000000000E+00 0.  1.
</event>
<event>
 5    1  0.1258677E-009  0.9118800E+02  0.7561462E-02  0.1125453E+00
         25   -1    0    0    0    0  0.00000000000E+00  0.00000000000E+00  0.99999998245E-14  0.12509000000E+03  0.12509000000E+03 0.  0.
        -13    1    3    3    0    0  0.11692393611E+02 -0.71338325796E+01 -0.41843096543E+02  0.44027940311E+02  0.10566000000E+00 0. -1.
         23    2    1    0    0    0 -0.15965257623E+02 -0.24477878693E+02 -0.16355338806E+01  0.95820033015E+02  0.91240055675E+02 0.  0.
         13    1    3    3    0    0 -0.27657651234E+02 -0.17344046113E+02  0.40207562663E+02  0.51792092704E+02  0.10566000000E+00 0.  1.
         22    1    1    0    0    0  0.15965257623E+02  0.24477878693E+02  0.16355338806E+01  0.29269966985E+02  0.00000000000E+00 0.  1.
</event>
<event>
 5    1  0.1258677E-009  0.9118800E+02  0.7561462E-02  0.1125453E+00
         25   -1    0    0    0    0  0.00000000000E+00  0.00000000000E+00  0.99999998245E-14  0.12509000000E+03  0.12509000000E+03 0.  0.
        -13    1    3    3    0    0 -0.11011872062E+02  0.14613708532E+02  0.51402494594E+02  0.54562344321E+02  0.10566000000E+00 0.  1.
         23    2    1    0    0    0  0.11597585780E+02  0.20145759270E+02  0.16230930648E+02  0.96738655726E+02  0.92490911929E+02 0.  0.
         13    1    3    3    0    0  0.22609457841E+02  0.55320507381E+01 -0.35171563946E+02  0.42176311404E+02  0.10566000000E+00 0. -1.
         22    1    1    0    0    0 -0.11597585780E+02 -0.20145759270E+02 -0.16230930648E+02  0.28351344274E+02  0.00000000000E+00 0.  1.
</event>
<event>
 5    1  0.1258677E-009  0.9118800E+02  0.7561462E-02  0.1125453E+00
         25   -1    0    0    0    0  0.00000000000E+00  0.00000000000E+00  0.99999998245E-14  0.12509000000E+03  0.12509000000E+03 0.  0.
        -13    1    3    3    0    0  0.33251161575E+01 -0.43339078775E+01  0.39671768197E+02  0.40046217185E+02  0.10566000000E+00 0. -1.
         23    2    1    0    0    0  0.59874368703E+01 -0.26707283096E+02 -0.11070276838E+02  0.95565782823E+02  0.90890810573E+02 0.  0.
         13    1    3    3    0    0  0.26623207128E+01 -0.22373375218E+02 -0.50742045035E+02  0.55519565638E+02  0.10566000000E+00 0.  1.
         22    1    1    0    0    0 -0.59874368703E+01  0.26707283096E+02  0.11070276838E+02  0.29524217177E+02  0.00000000000E+00 0.  1.
</event>
<event>
 5    1  0.1258677E-009  0.9118800E+02  0.7561462E-02  0.1125453E+00
         25   -1    0    0    0    0  0.00000000000E+00  0.00000000000E+00  0.99999998245E-14  0.12509000000E+03  0.12509000000E+03 0.  0.
        -13    1    3    3    0    0 -0.30419091292E+02 -0.20880947375E+02  0.18202074938E+02  0.41141970959E+02  0.10566000000E+00 0. -1.
         23    2    1    0    0    0  0.14203977380E+02  0.16358253170E+02  0.13745308635E+02  0.99433052994E+02  0.96065878948E+02 0.  0.
         13    1    3    3    0    0  0.44623068672E+02  0.37239200545E+02 -0.44567663029E+01  0.58291082035E+02  0.10566000000E+00 0.  1.
         22    1    1    0    0    0 -0.14203977380E+02 -0.16358253170E+02 -0.13745308635E+02  0.25656947006E+02  0.00000000000E+00 0.  1.
</event>
<event>
 5    1  0.1258677E-009  0.9118800E+02  0.7561462E-02  0.1125453E+00
         25   -1    0    0    0    0  0.00000000000E+00  0.00000000000E+00  0.99999998245E-14  0.12509000000E+03  0.12509000000E+03 0.  0.
        -13    1    3    3    0    0 -0.42036140854E+02 -0.23810397941E+02 -0.14597841552E+02  0.50468607371E+02  0.10566000000E+00 0. -1.
         23    2    1    0    0    0 -0.22164659881E+02  0.32824675189E+01  0.17288019808E+02  0.96789428106E+02  0.92559553929E+02 0.  0.
         13    1    3    3    0    0  0.19871480973E+02  0.27092865460E+02  0.31885861360E+02  0.46320820735E+02  0.10566000000E+00 0.  1.
         22    1    1    0    0    0  0.22164659881E+02 -0.32824675189E+01 -0.17288019808E+02  0.28300571894E+02  0.00000000000E+00 0. -1.
</event>
<event>
 5    1  0.1258677E-009  0.9118800E+02  0.7561462E-02  0.1125453E+00
         25   -1    0    0    0    0  0.00000000000E+00  0.00000000000E+00  0.99999998245E-14  0.12509000000E+03  0.12509000000E+03 0.  0.
        -13    1    3    3    0    0 -0.60392993730E+02 -0.13830960270E+02 -0.71610147097E+01  0.62369066447E+02  0.10566000000E+00 0. -1.
         23    2    1    0    0    0 -0.28279301232E+02 -0.73496537300E+01 -0.15678016143E+00  0.95870813356E+02  0.91309648917E+02 0.  0.
         13    1    3    3    0    0  0.32113692498E+02  0.64813065400E+01  0.70042345483E+01  0.33501746910E+02  0.10566000000E+00 0.  1.
         22    1    1    0    0    0  0.28279301232E+02  0.73496537300E+01  0.15678016143E+00  0.29219186644E+02  0.00000000000E+00 0. -1.
</event>
<event>
 5    1  0.1258677E-009  0.9118800E+02  0.7561462E-02  0.1125453E+00
         25   -1    0    0    0    0  0.00000000000E+00  0.00000000000E+00  0.99999998245E-14  0.12509000000E+03  0.12509000000E+03 0.  0.
        -13    1    3    3    0    0  0.91975893905E+01  0.36581225434E+02  0.59825642721E+01  0.38191411916E+02  0.10566000000E+00 0. -1.
         23    2    1    0    0    0 -0.27465269798E+02 -0.54460640504E+01 -0.85286223940E+01  0.95819911878E+02  0.91239889597E+02 0.  0.
         13    1    3    3    0    0 -0.36662859189E+02 -0.42027289485E+02 -0.14511186666E+02  0.57628499962E+02  0.10566000000E+00 0.  1.
         22    1    1    0    0    0  0.27465269798E+02  0.54460640504E+01  0.85286223940E+01  0.29270088122E+02  0.00000000000E+00 0.  1.
</event>
<event>
 5    1  0.1258677E-009  0.9118800E+02  0.7561462E-02  0.1125453E+00
         25   -1    0    0    0    0  0.00000000000E+00  0.00000000000E+00  0.99999998245E-14  0.12509000000E+03  0.12509000000E+03 0.  0.
        -13    1    3    3    0    0  0.36845770144E+01 -0.56454849412E+02 -0.13029534017E+02  0.58056059551E+02  0.10566000000E+00 0.  1.
         23    2    1    0    0    0  0.41885859593E+01 -0.17298425590E+02  0.11157803447E+02  0.10408342108E+03  0.10194156260E+03 0.  0.
         13    1    3    3    0    0  0.50400894493E+00  0.39156423822E+02  0.24187337464E+02  0.46027361527E+02  0.10566000000E+00 0. -1.
         22    1    1    0    0    0 -0.41885859593E+01  0.17298425590E+02 -0.11157803447E+02  0.21006578922E+02  0.00000000000E+00 0.  1.
</event>
<event>
 5    1  0.1258677E-009  0.9118800E+02  0.7561462E-02  0.1125453E+00
         25   -1    0    0    0    0  0.00000000000E+00  0.00000000000E+00  0.99999998245E-14  0.12509000000E+03  0.12509000000E+03 0.  0.
        -13    1    3    3    0    0  0.37928611807E+00  0.56065475559E+02  0.18081514823E+02  0.58910387454E+02  0.10566000000E+00 0.  1.
         23    2    1    0    0    0 -0.12213124226E+02  0.27019461470E+02 -0.14011021580E+00  0.95438164772E+02  0.90715004066E+02 0.  0.
         13    1    3    3    0    0 -0.12592410344E+02 -0.29046014089E+02 -0.18221625039E+02  0.36527777318E+02  0.10566000000E+00 0. -1.
         22    1    1    0    0    0  0.12213124226E+02 -0.27019461470E+02  0.14011021580E+00  0.29651835228E+02  0.00000000000E+00 0.  1.
</event>
<event>
 5    1  0.1258677E-009  0.9118800E+02  0.7561462E-02  0.1125453E+00
         25   -1    0    0    0    0  0.00000000000E+00  0.00000000000E+00  0.99999998245E-14  0.12509000000E+03  0.12509000000E+03 0.  0.
        -13    1    3    3    0    0  0.15108845063E+02  0.26530915865E+02  0.17083987569E+02  0.34986290045E+02  0.10566000000E+00 0.  1.
         23    2    1    0    0    0  0.29470103821E+01 -0.27910316003E+02 -0.76402729113E+01  0.96003157962E+02  0.91490775267E+02 0.  0.
         13    1    3    3    0    0 -0.12161834681E+02 -0.54441231868E+02 -0.24724260481E+02  0.61016867918E+02  0.10566000000E+00 0. -1.
         22    1    1    0    0    0 -0.29470103821E+01  0.27910316003E+02  0.76402729113E+01  0.29086842038E+02  0.00000000000E+00 0. -1.
</event>
<event>
 5    1  0.1258677E-009  0.9118800E+02  0.7561462E-02  0.1125453E+00
         25   -1    0    0    0    0  0.00000000000E+00  0.00000000000E+00  0.99999998245E-14  0.12509000000E+03  0.12509000000E+03 0.  0.
        -13    1    3    3    0    0 -0.57331566518E+02 -0.25891591910E+00  0.51257877951E+01  0.57560927906E+02  0.10566000000E+00 0.  1.
         23    2    1    0    0    0 -0.25251397807E+02 -0.10966817364E+02  0.16198886496E+02  0.93147738057E+02  0.87499674326E+02 0.  0.
         13    1    3    3    0    0  0.32080168710E+02 -0.10707901445E+02  0.11073098701E+02  0.35586810151E+02  0.10566000000E+00 0. -1.
         22    1    1    0    0    0  0.25251397807E+02  0.10966817364E+02 -0.16198886496E+02  0.31942261943E+02  0.00000000000E+00 0.  1.
</event>
<event>
 5    1  0.1258677E-009  0.9118800E+02  0.7561462E-02  0.1125453E+00
         25   -1    0    0    0    0  0.00000000000E+00  0.00000000000E+00  0.99999998245E-14  0.12509000000E+03  0.12509000000E+03 0.  0.
        -13    1    3    3    0    0 -0.50522408349E+02  0.26978378555E+02  0.42122077452E+01  0.57429091174E+02  0.10566000000E+00 0. -1.
         23    2    1    0    0    0 -0.26175704923E+02  0.67372511024E+00  0.15067783330E+02  0.94879744651E+02  0.89941683422E+02 0.  0.
         13    1    3    3    0    0  0.24346703426E+02 -0.26304653445E+02  0.10855575585E+02  0.37450653478E+02  0.10566000000E+00 0.  1.
         22    1    1    0    0    0  0.26175704923E+02 -0.67372511024E+00 -0.15067783330E+02  0.30210255349E+02  0.00000000000E+00 0. -1.
</event>
<event>
 5    1  0.1258677E-009  0.9118800E+02  0.7561462E-02  0.1125453E+00
         25   -1    0    0    0    0  0.00000000000E+00  0.00000000000E+00  0.99999998245E-14  0.12509000000E+03  0.12509000000E+03 0.  0.
        -13    1    3    3    0    0 -0.17665838982E+02  0.11115897782E+02 -0.27033947752E+02  0.34153924306E+02  0.10566000000E+00 0. -1.
         23    2    1    0    0    0  0.23384271459E+02  0.54904915874E+01  0.17793598321E+02  0.95197161548E+02  0.90382065566E+02 0.  0.
         13    1    3    3    0    0  0.41050110441E+02 -0.56254061942E+01  0.44827546073E+02  0.61043237242E+02  0.10566000000E+00 0.  1.
         22    1    1    0    0    0 -0.23384271459E+02 -0.54904915874E+01 -0.17793598321E+02  0.29892838452E+02  0.00000000000E+00 0.  1.
</event>
<event>
 5    1  0.1258677E-009  0.9118800E+02  0.7561462E-02  0.1125453E+00
         25   -1    0    0    0    0  0.00000000000E+00  0.00000000000E+00  0.99999998245E-14  0.12509000000E+03  0.12509000000E+03 0.  0.
        -13    1    3    3    0    0  0.96531325329E+01  0.59055710108E+01  0.35943563446E+02  0.37683015456E+02  0.10566000000E+00 0.  1.
         23    2    1    0    0    0  0.80430428051E+01 -0.25953238097E+02 -0.12095211457E+02  0.95348526508E+02  0.90591314494E+02 0.  0.
         13    1    3    3    0    0 -0.16100897278E+01 -0.31858809108E+02 -0.48038774903E+02  0.57665511052E+02  0.10566000000E+00 0. -1.
         22    1    1    0    0    0 -0.80430428051E+01  0.25953238097E+02  0.12095211457E+02  0.29741473492E+02  0.00000000000E+00 0. -1.
</event>
<event>
 5    1  0.1258677E-009  0.9118800E+02  0.7561462E-02  0.1125453E+00
         25   -1    0    0    0    0  0.00000000000E+00  0.00000000000E+00  0.99999998245E-14  0.12509000000E+03  0.12509000000E+03 0.  0.
        -13    1    3    3    0    0 -0.38778094498E+02  0.94667860599E+01 -0.32820097225E+02  0.51677176752E+02  0.10566000000E+00 0.  1.
         23    2    1    0    0    0 -0.58437630013E+00  0.24192022690E+02 -0.16782674551E+02  0.95640829849E+02  0.90994036682E+02 0.  0.
         13    1    3    3    0    0  0.38193718197E+02  0.14725236630E+02  0.16037422674E+02  0.43963653097E+02  0.10566000000E+00 0. -1.
         22    1    1    0    0    0  0.58437630013E+00 -0.24192022690E+02  0.16782674551E+02  0.29449170151E+02  0.00000000000E+00 0.  1.
</event>
<event>
 5    1  0.1258677E-009  0.9118800E+02  0.7561462E-02  0.1125453E+00
         25   -1    0    0    0    0  0.00000000000E+00  0.00000000000E+00  0.99999998245E-14  0.12509000000E+03  0.12509000000E+03 0.  0.
        -13    1    3    3    0    0  0.25345903835E+02  0.17342782092E+02 -0.52309123802E+02  0.60658408558E+02  0.10566000000E+00 0.  1.
         23    2    1    0    0    0  0.97866015985E+01  0.17967335127E+02 -0.20229362685E+02  0.96317968145E+02  0.91920189134E+02 0.  0.
         13    1    3    3    0    0 -0.15559302237E+02  0.62455303544E+00  0.32079761116E+02  0.35659559587E+02  0.10566000000E+00 0. -1.
         22    1    1    0    0    0 -0.97866015985E+01 -0.17967335127E+02  0.20229362685E+02  0.28772031855E+02  0.00000000000E+00 0.  1.
</event>
<event>
 5    1  0.1258677E-009  0.9118800E+02  0.7561462E-02  0.1125453E+00
         25   -1    0    0    0    0  0.00000000000E+00  0.00000000000E+00  0.99999998245E-14  0.12509000000E+03  0.12509000000E+03 0.  0.
        -13    1    3    3    0    0  0.25635538500E+02 -0.68394621248E+01  0.36821608626E+02  0.45385031698E+02  0.10566000000E+00 0.  1.
         23    2    1    0    0    0 -0.20167609855E+02  0.37859805044E+01  0.22723402784E+02  0.94472698197E+02  0.89373774312E+02 0.  0.
         13    1    3    3    0    0 -0.45803148355E+02  0.10625442629E+02 -0.14098205842E+02  0.49087666499E+02  0.10566000000E+00 0. -1.
         22    1    1    0    0    0  0.20167609855E+02 -0.37859805044E+01 -0.22723402784E+02  0.30617301803E+02  0.00000000000E+00 0. -1.
</event>
<event>
 5    1  0.1258677E-009  0.9118800E+02  0.7561462E-02  0.1125453E+00
         25   -1    0    0    0    0  0.00000000000E+00  0.00000000000E+00  0.99999998245E-14  0.12509000000E+03  0.12509000000E+03 0.  0.
        -13    1    3    3    0    0  0.16493084602E+02  0.81808170131E+01  0.20115320185E+02  0.27268752756E+02  0.10566000000E+00 0.  1.
         23    2    1    0    0    0 -0.73806954919E+01 -0.72619384573E+01 -0.34623348107E+02  0.88951562703E+02  0.81279725991E+02 0.  0.
         13    1    3    3    0    0 -0.23873780094E+02 -0.15442755470E+02 -0.54738668292E+02  0.61682809947E+02  0.10566000000E+00 0. -1.
         22    1    1    0    0    0  0.73806954919E+01  0.72619384573E+01  0.34623348107E+02  0.36138437297E+02  0.00000000000E+00 0. -1.
</event>
<event>
 5    1  0.1258677E-009  0.9118800E+02  0.7561462E-02  0.1125453E+00
         25   -1    0    0    0    0  0.00000000000E+00  0.00000000000E+00  0.99999998245E-14  0.12509000000E+03  0.12509000000E+03 0.  0.
        -13    1    3    3    0    0  0.84498574462E+01  0.53571913277E+02 -0.18380655435E+02  0.57264383707E+02  0.10566000000E+00 0.  1.
         23    2    1    0    0    0 -0.13936668233E+02  0.26960715438E+02 -0.61837507855E+01  0.94116629629E+02  0.88874013640E+02 0.  0.
         13    1    3    3    0    0 -0.22386525679E+02 -0.26611197839E+02  0.12196904650E+02  0.36852245922E+02  0.10566000000E+00 0. -1.
         22    1    1    0    0    0  0.13936668233E+02 -0.26960715438E+02  0.61837507855E+01  0.30973370371E+02  0.00000000000E+00 0.  1.
</event>
<event>
 5    1  0.1258677E-009  0.9118800E+02  0.7561462E-02  0.1125453E+00
         25   -1    0    0    0    0  0.00000000000E+00  0.00000000000E+00  0.99999998245E-14  0.12509000000E+03  0.12509000000E+03 0.  0.
        -13    1    3    3    0    0 -0.25521514640E+02  0.53828490157E+02 -0.16605040134E+02  0.61843290533E+02  0.10566000000E+00 0.  1.
         23    2    1    0    0    0 -0.71254036521E+01  0.26517445014E+02 -0.12118635548E+02  0.95076543105E+02  0.90214973557E+02 0.  0.
         13    1    3    3    0    0  0.18396110988E+02 -0.27311045144E+02  0.44864045853E+01  0.33233252571E+02  0.10566000000E+00 0. -1.
         22    1    1    0    0    0  0.71254036521E+01 -0.26517445014E+02  0.12118635548E+02  0.30013456895E+02  0.00000000000E+00 0.  1.
</event>
<event>
 5    1  0.1258677E-009  0.9118800E+02  0.7561462E-02  0.1125453E+00
         25   -1    0    0    0    0  0.00000000000E+00  0.00000000000E+00  0.99999998245E-14  0.12509000000E+03  0.12509000000E+03 0.  0.
        -13    1    3    3    0    0  0.13184796521E+01  0.20441403307E+02 -0.33049235362E+02  0.38882547239E+02  0.10566000000E+00 0. -1.
         23    2    1    0    0    0 -0.27828520277E+02 -0.69245479394E+01  0.71041907292E+01  0.95546042396E+02  0.90863638418E+02 0.  0.
         13    1    3    3    0    0 -0.29146999929E+02 -0.27365951246E+02  0.40153426091E+02  0.56663495157E+02  0.10566000000E+00 0.  1.
         22    1    1    0    0    0  0.27828520277E+02  0.69245479394E+01 -0.71041907292E+01  0.29543957604E+02  0.00000000000E+00 0.  1.
</event>
<event>
 5    1  0.1258677E-009  0.9118800E+02  0.7561462E-02  0.1125453E+00
         25   -1    0    0    0    0  0.00000000000E+00  0.00000000000E+00  0.99999998245E-14  0.12509000000E+03  0.12509000000E+03 0.  0.
        -13    1    3    3    0    0  0.48990672811E+02  0.77723440093E+01 -0.27178473383E+02  0.56561258237E+02  0.10566000000E+00 0.  1.
         23    2    1    0    0    0  0.16210674389E+02  0.21842056918E+02 -0.10606165935E+02  0.95894929005E+02  0.91342680268E+02 0.  0.
         13    1    3    3    0    0 -0.32779998422E+02  0.14069712909E+02  0.16572307448E+02  0.39333670768E+02  0.10566000000E+00 0. -1.
         22    1    1    0    0    0 -0.16210674389E+02 -0.21842056918E+02  0.10606165935E+02  0.29195070995E+02  0.00000000000E+00 0.  1.
</event>
<event>
 5    1  0.1258677E-009  0.9118800E+02  0.7561462E-02  0.1125453E+00
         25   -1    0    0    0    0  0.00000000000E+00  0.00000000000E+00  0.99999998245E-14  0.12509000000E+03  0.12509000000E+03 0.  0.
        -13    1    3    3    0    0  0.98862658398E+01  0.60031786033E+02  0.26066248018E+01  0.60896299095E+02  0.10566000000E+00 0.  1.
         23    2    1    0    0    0  0.70245393533E+01  0.25792334262E+02  0.10866174344E+02  0.96234109705E+02  0.91805999075E+02 0.  0.
         13    1    3    3    0    0 -0.28617264865E+01 -0.34239451771E+02  0.82595495420E+01  0.35337810610E+02  0.10566000000E+00 0. -1.
         22    1    1    0    0    0 -0.70245393533E+01 -0.25792334262E+02 -0.10866174344E+02  0.28855890295E+02  0.00000000000E+00 0.  1.
</event>
<event>
 5    1  0.1258677E-009  0.9118800E+02  0.7561462E-02  0.1125453E+00
         25   -1    0    0    0    0  0.00000000000E+00  0.00000000000E+00  0.99999998245E-14  0.12509000000E+03  0.12509000000E+03 0.  0.
        -13    1    3    3    0    0 -0.86721030431E+01 -0.30069564178E+02 -0.43989623432E+02  0.53985944418E+02  0.10566000000E+00 0.  1.
         23    2    1    0    0    0 -0.16424742052E+00 -0.29481616501E+02 -0.34572541267E+01  0.95405908388E+02  0.90670513733E+02 0.  0.
         13    1    3    3    0    0  0.85078556226E+01  0.58794767663E+00  0.40532369305E+02  0.41419963970E+02  0.10566000000E+00 0. -1.
         22    1    1    0    0    0  0.16424742052E+00  0.29481616501E+02  0.34572541267E+01  0.29684091612E+02  0.00000000000E+00 0.  1.
</event>
<event>
 5    1  0.1258677E-009  0.9118800E+02  0.7561462E-02  0.1125453E+00
         25   -1    0    0    0    0  0.00000000000E+00  0.00000000000E+00  0.99999998245E-14  0.12509000000E+03  0.12509000000E+03 0.  0.
        -13    1    3    3    0    0  0.52249262059E+02 -0.33338263472E+02  0.10909568682E+01  0.61988922784E+02  0.10566000000E+00 0. -1.
         23    2    1    0    0    0  0.20075158031E+02 -0.19565699857E+02 -0.89216503255E+00  0.97043172385E+02  0.92901844800E+02 0.  0.
         13    1    3    3    0    0 -0.32174104028E+02  0.13772563615E+02 -0.19831219007E+01  0.35054249600E+02  0.10566000000E+00 0.  1.
         22    1    1    0    0    0 -0.20075158031E+02  0.19565699857E+02  0.89216503255E+00  0.28046827615E+02  0.00000000000E+00 0. -1.
</event>
<event>
 5    1  0.1258677E-009  0.9118800E+02  0.7561462E-02  0.1125453E+00
         25   -1    0    0    0    0  0.00000000000E+00  0.00000000000E+00  0.99999998245E-14  0.12509000000E+03  0.12509000000E+03 0.  0.
        -13    1    3    3    0    0  0.32222541523E+02 -0.81007693066E+01 -0.48139051447E+01  0.33572302458E+02  0.10566000000E+00 0.  1.
         23    2    1    0    0    0 -0.16237914816E+02  0.24309610367E+02  0.10796924922E+02  0.93925908139E+02  0.88605166882E+02 0.  0.
         13    1    3    3    0    0 -0.48460456340E+02  0.32410379673E+02  0.15610830067E+02  0.60353605680E+02  0.10566000000E+00 0. -1.
         22    1    1    0    0    0  0.16237914816E+02 -0.24309610367E+02 -0.10796924922E+02  0.31164091861E+02  0.00000000000E+00 0. -1.
</event>
<event>
 5    1  0.1258677E-009  0.9118800E+02  0.7561462E-02  0.1125453E+00
         25   -1    0    0    0    0  0.00000000000E+00  0.00000000000E+00  0.99999998245E-14  0.12509000000E+03  0.12509000000E+03 0.  0.
        -13    1    3    3    0    0 -0.13730050696E+02 -0.46842390429E+02  0.13170420302E+01  0.48831031086E+02  0.10566000000E+00 0.  1.
         23    2    1    0    0    0 -0.16014019562E+02 -0.16464378647E+01  0.21375101595E+02  0.98330804414E+02  0.94619726000E+02 0.  0.
         13    1    3    3    0    0 -0.22839688664E+01  0.45195952564E+02  0.20058059565E+02  0.49499773328E+02  0.10566000000E+00 0. -1.
         22    1    1    0    0    0  0.16014019562E+02  0.16464378647E+01 -0.21375101595E+02  0.26759195586E+02  0.00000000000E+00 0.  1.
</event>
<event>
 5    1  0.1258677E-009  0.9118800E+02  0.7561462E-02  0.1125453E+00
         25   -1    0    0    0    0  0.00000000000E+00  0.00000000000E+00  0.99999998245E-14  0.12509000000E+03  0.12509000000E+03 0.  0.
        -13    1    3    3    0    0 -0.58292279939E+02  0.19921547409E+01  0.11901018493E+02  0.59528178085E+02  0.10566000000E+00 0. -1.
         23    2    1    0    0    0 -0.27083491452E+02 -0.94122742814E+01 -0.35982340876E+01  0.96192704194E+02  0.91749564768E+02 0.  0.
         13    1    3    3    0    0  0.31208788487E+02 -0.11404429022E+02 -0.15499252581E+02  0.36664526108E+02  0.10566000000E+00 0.  1.
         22    1    1    0    0    0  0.27083491452E+02  0.94122742814E+01  0.35982340876E+01  0.28897295806E+02  0.00000000000E+00 0. -1.
</event>
<event>
 5    1  0.1258677E-009  0.9118800E+02  0.7561462E-02  0.1125453E+00
         25   -1    0    0    0    0  0.00000000000E+00  0.00000000000E+00  0.99999998245E-14  0.12509000000E+03  0.12509000000E+03 0.  0.
        -13    1    3    3    0    0  0.24007996005E+02 -0.18199188983E+02 -0.41985117743E+02  0.51675483817E+02  0.10566000000E+00 0.  1.
         23    2    1    0    0    0 -0.12785176006E+02 -0.14905754129E+02 -0.27374052034E+02  0.91400521577E+02  0.84965136309E+02 0.  0.
         13    1    3    3    0    0 -0.36793172011E+02  0.32934348548E+01  0.14611065709E+02  0.39725037759E+02  0.10566000000E+00 0. -1.
         22    1    1    0    0    0  0.12785176006E+02  0.14905754129E+02  0.27374052034E+02  0.33689478423E+02  0.00000000000E+00 0.  1.
</event>
<event>
 5    1  0.1258677E-009  0.9118800E+02  0.7561462E-02  0.1125453E+00
         25   -1    0    0    0    0  0.00000000000E+00  0.00000000000E+00  0.99999998245E-14  0.12509000000E+03  0.12509000000E+03 0.  0.
        -13    1    3    3    0    0 -0.13318468980E+02  0.21550005003E+02  0.24353571012E+02  0.35141028965E+02  0.10566000000E+00 0.  1.
         23    2    1    0    0    0  0.19109867285E+02  0.46806951806E+01 -0.22910339774E+02  0.94890999957E+02  0.89957335828E+02 0.  0.
         13    1    3    3    0    0  0.32428336265E+02 -0.16869309823E+02 -0.47263910786E+02  0.59749970993E+02  0.10566000000E+00 0. -1.
         22    1    1    0    0    0 -0.19109867285E+02 -0.46806951806E+01  0.22910339774E+02  0.30199000043E+02  0.00000000000E+00 0. -1.
</event>
<event>
 5    1  0.1258677E-009  0.9118800E+02  0.7561462E-02  0.1125453E+00
         25   -1    0    0    0    0  0.00000000000E+00  0.00000000000E+00  0.99999998245E-14  0.12509000000E+03  0.12509000000E+03 0.  0.
        -13    1    3    3    0    0  0.40442777008E+02  0.57375170824E+01  0.88260829671E+01  0.41790527862E+02  0.10566000000E+00 0.  1.
         23    2    1    0    0    0  0.69044604705E+01 -0.67027283838E+01 -0.29407058450E+02  0.94148551603E+02  0.88918932405E+02 0.  0.
         13    1    3    3    0    0 -0.33538316538E+02 -0.12440245466E+02 -0.38233141417E+02  0.52358023742E+02  0.10566000000E+00 0. -1.
         22    1    1    0    0    0 -0.69044604705E+01  0.67027283838E+01  0.29407058450E+02  0.30941448397E+02  0.00000000000E+00 0. -1.
</event>
<event>
 5    1  0.1258677E-009  0.9118800E+02  0.7561462E-02  0.1125453E+00
         25   -1    0    0    0    0  0.00000000000E+00  0.00000000000E+00  0.99999998245E-14  0.12509000000E+03  0.12509000000E+03 0.  0.
        -13    1    3    3    0    0 -0.21583816895E+02  0.20982988626E+02 -0.31473908167E+02  0.43551865894E+02  0.10566000000E+00 0. -1.
         23    2    1    0    0    0  0.25047569594E+02  0.10953146237E+02 -0.87512281814E+01  0.96385711997E+02  0.92012332475E+02 0.  0.
         13    1    3    3    0    0  0.46631386490E+02 -0.10029842390E+02  0.22722679986E+02  0.52833846103E+02  0.10566000000E+00 0.  1.
         22    1    1    0    0    0 -0.25047569594E+02 -0.10953146237E+02  0.87512281814E+01  0.28704288003E+02  0.00000000000E+00 0.  1.
</event>
<event>
 5    1  0.1258677E-009  0.9118800E+02  0.7561462E-02  0.1125453E+00
         25   -1    0    0    0    0  0.00000000000E+00  0.00000000000E+00  0.99999998245E-14  0.12509000000E+03  0.12509000000E+03 0.  0.
        -13    1    3    3    0    0 -0.47358297401E+02 -0.12533117076E+02  0.25539099525E+02  0.55246213670E+02  0.10566000000E+00 0. -1.
         23    2    1    0    0    0 -0.65902608306E+01 -0.69715244550E+01  0.27018806266E+02  0.96418592935E+02  0.92057022983E+02 0.  0.
         13    1    3    3    0    0  0.40768036570E+02  0.55615926212E+01  0.14797067414E+01  0.41172379265E+02  0.10566000000E+00 0.  1.
         22    1    1    0    0    0  0.65902608306E+01  0.69715244550E+01 -0.27018806266E+02  0.28671407065E+02  0.00000000000E+00 0. -1.
</event>
<event>
 5    1  0.1258677E-009  0.9118800E+02  0.7561462E-02  0.1125453E+00
         25   -1    0    0    0    0  0.00000000000E+00  0.00000000000E+00  0.99999998245E-14  0.12509000000E+03  0.12509000000E+03 0.  0.
        -13    1    3    3    0    0  0.82893324605E+01 -0.29992746851E+02  0.16256026087E+02  0.35107655070E+02  0.10566000000E+00 0.  1.
         23    2    1    0    0    0 -0.20133602262E+02  0.17115144525E+02 -0.10950960611E+02  0.96485565895E+02  0.92147983026E+02 0.  0.
         13    1    3    3    0    0 -0.28422934722E+02  0.47107891376E+02 -0.27206986698E+02  0.61377910826E+02  0.10566000000E+00 0. -1.
         22    1    1    0    0    0  0.20133602262E+02 -0.17115144525E+02  0.10950960611E+02  0.28604434105E+02  0.00000000000E+00 0. -1.
</event>
<event>
 5    1  0.1258677E-009  0.9118800E+02  0.7561462E-02  0.1125453E+00
         25   -1    0    0    0    0  0.00000000000E+00  0.00000000000E+00  0.99999998245E-14  0.12509000000E+03  0.12509000000E+03 0.  0.
        -13    1    3    3    0    0  0.24302873670E+02 -0.62419017359E+01  0.31283511488E+02  0.40103120340E+02  0.10566000000E+00 0.  1.
         23    2    1    0    0    0  0.11817965003E+02  0.19046448532E+02 -0.17635208798E+02  0.96569269157E+02  0.92261539428E+02 0.  0.
         13    1    3    3    0    0 -0.12484908667E+02  0.25288350267E+02 -0.48918720287E+02  0.56466148817E+02  0.10566000000E+00 0. -1.
         22    1    1    0    0    0 -0.11817965003E+02 -0.19046448532E+02  0.17635208798E+02  0.28520730843E+02  0.00000000000E+00 0. -1.
</event>
<event>
 5    1  0.1258677E-009  0.9118800E+02  0.7561462E-02  0.1125453E+00
         25   -1    0    0    0    0  0.00000000000E+00  0.00000000000E+00  0.99999998245E-14  0.12509000000E+03  0.12509000000E+03 0.  0.
        -13    1    3    3    0    0  0.86326353177E+01  0.33217049037E+02 -0.18723902020E+02  0.39095912960E+02  0.10566000000E+00 0.  1.
         23    2    1    0    0    0 -0.33700308528E+02  0.84099191362E+01 -0.53997011889E+01  0.89938978568E+02  0.82785418753E+02 0.  0.
         13    1    3    3    0    0 -0.42332943846E+02 -0.24807129901E+02  0.13324200831E+02  0.50843065608E+02  0.10566000000E+00 0. -1.
         22    1    1    0    0    0  0.33700308528E+02 -0.84099191362E+01  0.53997011889E+01  0.35151021432E+02  0.00000000000E+00 0.  1.
</event>
<event>
 5    1  0.1258677E-009  0.9118800E+02  0.7561462E-02  0.1125453E+00
         25   -1    0    0    0    0  0.00000000000E+00  0.00000000000E+00  0.99999998245E-14  0.12509000000E+03  0.12509000000E+03 0.  0.
        -13    1    3    3    0    0  0.24041970245E+02 -0.59372397182E+01  0.24923070387E+02  0.35134566317E+02  0.10566000000E+00 0.  1.
         23    2    1    0    0    0 -0.22838680385E+02 -0.11078128261E+02 -0.13836681183E+02  0.96180071019E+02  0.91732339268E+02 0.  0.
         13    1    3    3    0    0 -0.46880650630E+02 -0.51408885425E+01 -0.38759751570E+02  0.61045504702E+02  0.10566000000E+00 0. -1.
         22    1    1    0    0    0  0.22838680385E+02  0.11078128261E+02  0.13836681183E+02  0.28909928981E+02  0.00000000000E+00 0. -1.
</event>
<event>
 5    1  0.1258677E-009  0.9118800E+02  0.7561462E-02  0.1125453E+00
         25   -1    0    0    0    0  0.00000000000E+00  0.00000000000E+00  0.99999998245E-14  0.12509000000E+03  0.12509000000E+03 0.  0.
        -13    1    3    3    0    0  0.41396203522E+01  0.60308346957E+02 -0.11876083612E+02  0.61605890102E+02  0.10566000000E+00 0. -1.
         23    2    1    0    0    0 -0.38015292602E+01  0.27063836347E+02 -0.10497723308E+02  0.95813643376E+02  0.91231295068E+02 0.  0.
         13    1    3    3    0    0 -0.79411496124E+01 -0.33244510610E+02  0.13783603038E+01  0.34207753273E+02  0.10566000000E+00 0.  1.
         22    1    1    0    0    0  0.38015292602E+01 -0.27063836347E+02  0.10497723308E+02  0.29276356624E+02  0.00000000000E+00 0. -1.
</event>
<event>
 5    1  0.1258677E-009  0.9118800E+02  0.7561462E-02  0.1125453E+00
         25   -1    0    0    0    0  0.00000000000E+00  0.00000000000E+00  0.99999998245E-14  0.12509000000E+03  0.12509000000E+03 0.  0.
        -13    1    3    3    0    0  0.43392276381E+02 -0.38872018294E+00 -0.71821303762E+01  0.43984484920E+02  0.10566000000E+00 0.  1.
         23    2    1    0    0    0 -0.15972487554E+02  0.12194911742E+02 -0.22592264040E+01  0.10486772676E+03  0.10289946443E+03 0.  0.
         13    1    3    3    0    0 -0.59364763934E+02  0.12583631925E+02  0.49229039722E+01  0.60883241840E+02  0.10566000000E+00 0. -1.
         22    1    1    0    0    0  0.15972487554E+02 -0.12194911742E+02  0.22592264040E+01  0.20222273240E+02  0.00000000000E+00 0. -1.
</event>
<event>
 5    1  0.1258677E-009  0.9118800E+02  0.7561462E-02  0.1125453E+00
         25   -1    0    0    0    0  0.00000000000E+00  0.00000000000E+00  0.99999998245E-14  0.12509000000E+03  0.12509000000E+03 0.  0.
        -13    1    3    3    0    0 -0.56730958525E+02 -0.12345469952E+02  0.48164637562E+01  0.58258233501E+02  0.10566000000E+00 0. -1.
         23    2    1    0    0    0 -0.20420908897E+02 -0.20951991109E+02  0.37847384330E+01  0.95588750931E+02  0.90922415322E+02 0.  0.
         13    1    3    3    0    0  0.36310049628E+02 -0.86065211568E+01 -0.10317253232E+01  0.37330517430E+02  0.10566000000E+00 0.  1.
         22    1    1    0    0    0  0.20420908897E+02  0.20951991109E+02 -0.37847384330E+01  0.29501249069E+02  0.00000000000E+00 0. -1.
</event>
<event>
 5    1  0.1258677E-009  0.9118800E+02  0.7561462E-02  0.1125453E+00
         25   -1    0    0    0    0  0.00000000000E+00  0.00000000000E+00  0.99999998245E-14  0.12509000000E+03  0.12509000000E+03 0.  0.
        -13    1    3    3    0    0 -0.33619190488E+02  0.40563142426E+02 -0.28680918633E+02  0.59985204428E+02  0.10566000000E+00 0.  1.
         23    2    1    0    0    0 -0.10511012056E+02  0.26175805893E+02 -0.42456685210E+01  0.96564925245E+02  0.92255649679E+02 0.  0.
         13    1    3    3    0    0  0.23108178432E+02 -0.14387336533E+02  0.24435250112E+02  0.36579720817E+02  0.10566000000E+00 0. -1.
         22    1    1    0    0    0  0.10511012056E+02 -0.26175805893E+02  0.42456685210E+01  0.28525074755E+02  0.00000000000E+00 0.  1.
</event>
<event>
 5    1  0.1258677E-009  0.9118800E+02  0.7561462E-02  0.1125453E+00
         25   -1    0    0    0    0  0.00000000000E+00  0.00000000000E+00  0.99999998245E-14  0.12509000000E+03  0.12509000000E+03 0.  0.
        -13    1    3    3    0    0  0.56447286483E+02 -0.14830919756E+02  0.23383577184E+01  0.58410028360E+02  0.10566000000E+00 0. -1.
         23    2    1    0    0    0  0.26373234974E+02  0.43065946572E+01  0.12658633072E+02  0.95520839177E+02  0.90828935067E+02 0.  0.
         13    1    3    3    0    0 -0.30074051510E+02  0.19137514413E+02  0.10320275354E+02  0.37110810817E+02  0.10566000000E+00 0.  1.
         22    1    1    0    0    0 -0.26373234974E+02 -0.43065946572E+01 -0.12658633072E+02  0.29569160823E+02  0.00000000000E+00 0. -1.
</event>
<event>
 5    1  0.1258677E-009  0.9118800E+02  0.7561462E-02  0.1125453E+00
         25   -1    0    0    0    0  0.00000000000E+00  0.00000000000E+00  0.99999998245E-14  0.12509000000E+03  0.12509000000E+03 0.  0.
        -13    1    3    3    0    0  0.98590227770E+01  0.52573135414E+01 -0.29881545051E+02  0.31902312995E+02  0.10566000000E+00 0. -1.
         23    2    1    0    0    0 -0.89058992494E+01  0.36981306739E+01  0.29424370302E+02  0.94125749976E+02  0.88886849584E+02 0.  0.
         13    1    3    3    0    0 -0.18764922026E+02 -0.15591828674E+01  0.59305915352E+02  0.62223436981E+02  0.10566000000E+00 0.  1.
         22    1    1    0    0    0  0.89058992494E+01 -0.36981306739E+01 -0.29424370302E+02  0.30964250024E+02  0.00000000000E+00 0.  1.
</event>
<event>
 5    1  0.1258677E-009  0.9118800E+02  0.7561462E-02  0.1125453E+00
         25   -1    0    0    0    0  0.00000000000E+00  0.00000000000E+00  0.99999998245E-14  0.12509000000E+03  0.12509000000E+03 0.  0.
        -13    1    3    3    0    0  0.11316542028E+02  0.34015812238E+02  0.37051231270E+02  0.51555256845E+02  0.10566000000E+00 0.  1.
         23    2    1    0    0    0  0.20681183227E+02 -0.49120560469E+01  0.22450468980E+02  0.94172962760E+02  0.88953267075E+02 0.  0.
         13    1    3    3    0    0  0.93646411993E+01 -0.38927868285E+02 -0.14600762290E+02  0.42617705915E+02  0.10566000000E+00 0. -1.
         22    1    1    0    0    0 -0.20681183227E+02  0.49120560469E+01 -0.22450468980E+02  0.30917037240E+02  0.00000000000E+00 0.  1.
</event>
<event>
 5    1  0.1258677E-009  0.9118800E+02  0.7561462E-02  0.1125453E+00
         25   -1    0    0    0    0  0.00000000000E+00  0.00000000000E+00  0.99999998245E-14  0.12509000000E+03  0.12509000000E+03 0.  0.
        -13    1    3    3    0    0  0.34474838261E+02 -0.93012068293E+00 -0.20408052842E+02  0.40073424891E+02  0.10566000000E+00 0.  1.
         23    2    1    0    0    0 -0.17094325478E+02 -0.21101203259E+02 -0.68417411464E+01  0.97084890387E+02  0.92958000070E+02 0.  0.
         13    1    3    3    0    0 -0.51569163739E+02 -0.20171082576E+02  0.13566311696E+02  0.57011465497E+02  0.10566000000E+00 0. -1.
         22    1    1    0    0    0  0.17094325478E+02  0.21101203259E+02  0.68417411464E+01  0.28005109613E+02  0.00000000000E+00 0. -1.
</event>
<event>
 5    1  0.1258677E-009  0.9118800E+02  0.7561462E-02  0.1125453E+00
         25   -1    0    0    0    0  0.00000000000E+00  0.00000000000E+00  0.99999998245E-14  0.12509000000E+03  0.12509000000E+03 0.  0.
        -13    1    3    3    0    0  0.29179220187E+02  0.12614654336E+02  0.33263001023E+02  0.46010811727E+02  0.10566000000E+00 0. -1.
         23    2    1    0    0    0  0.22881518145E+02 -0.13133249283E+02 -0.10105209979E+02  0.96838250000E+02  0.92625510983E+02 0.  0.
         13    1    3    3    0    0 -0.62977020423E+01 -0.25747903619E+02 -0.43368211002E+02  0.50827438272E+02  0.10566000000E+00 0.  1.
         22    1    1    0    0    0 -0.22881518145E+02  0.13133249283E+02  0.10105209979E+02  0.28251750000E+02  0.00000000000E+00 0.  1.
</event>
<event>
 5    1  0.1258677E-009  0.9118800E+02  0.7561462E-02  0.1125453E+00
         25   -1    0    0    0    0  0.00000000000E+00  0.00000000000E+00  0.99999998245E-14  0.12509000000E+03  0.12509000000E+03 0.  0.
        -13    1    3    3    0    0  0.27561536622E+02  0.58972511739E+01  0.26619756729E+02  0.38769040287E+02  0.10566000000E+00 0.  1.
         23    2    1    0    0    0 -0.26162360993E+02  0.10359867764E+02  0.74930895888E+01  0.95970549723E+02  0.91446181056E+02 0.  0.
         13    1    3    3    0    0 -0.53723897616E+02  0.44626165904E+01 -0.19126667140E+02  0.57201509436E+02  0.10566000000E+00 0. -1.
         22    1    1    0    0    0  0.26162360993E+02 -0.10359867764E+02 -0.74930895888E+01  0.29119450277E+02  0.00000000000E+00 0. -1.
</event>
<event>
 5    1  0.1258677E-009  0.9118800E+02  0.7561462E-02  0.1125453E+00
         25   -1    0    0    0    0  0.00000000000E+00  0.00000000000E+00  0.99999998245E-14  0.12509000000E+03  0.12509000000E+03 0.  0.
        -13    1    3    3    0    0 -0.46888439018E+02 -0.23922644629E+02 -0.22745489112E+02  0.57342716002E+02  0.10566000000E+00 0. -1.
         23    2    1    0    0    0 -0.23597536659E+02  0.57771371555E+01 -0.16802872172E+02  0.95550948504E+02  0.90870392299E+02 0.  0.
         13    1    3    3    0    0  0.23290902359E+02  0.29699781784E+02  0.59426169397E+01  0.38208232501E+02  0.10566000000E+00 0.  1.
         22    1    1    0    0    0  0.23597536659E+02 -0.57771371555E+01  0.16802872172E+02  0.29539051496E+02  0.00000000000E+00 0. -1.
</event>
<event>
 5    1  0.1258677E-009  0.9118800E+02  0.7561462E-02  0.1125453E+00
         25   -1    0    0    0    0  0.00000000000E+00  0.00000000000E+00  0.99999998245E-14  0.12509000000E+03  0.12509000000E+03 0.  0.
        -13    1    3    3    0    0 -0.26726465032E+02 -0.14657453748E+02  0.23213404032E+02  0.38314725293E+02  0.10566000000E+00 0. -1.
         23    2    1    0    0    0 -0.48592217306E+01 -0.33110369179E+02 -0.16909875297E+02  0.87595300834E+02  0.79164918131E+02 0.  0.
         13    1    3    3    0    0  0.21867243302E+02 -0.18452915431E+02 -0.40123279328E+02  0.49280575541E+02  0.10566000000E+00 0.  1.
         22    1    1    0    0    0  0.48592217306E+01  0.33110369179E+02  0.16909875297E+02  0.37494699166E+02  0.00000000000E+00 0. -1.
</event>
<event>
 5    1  0.1258677E-009  0.9118800E+02  0.7561462E-02  0.1125453E+00
         25   -1    0    0    0    0  0.00000000000E+00  0.00000000000E+00  0.99999998245E-14  0.12509000000E+03  0.12509000000E+03 0.  0.
        -13    1    3    3    0    0 -0.21972613572E+02 -0.39420585729E+01  0.12405581036E+02  0.25539091171E+02  0.10566000000E+00 0.  1.
         23    2    1    0    0    0  0.35055724652E+02  0.13901195333E+02 -0.30356853957E+01  0.87256648993E+02  0.78627987035E+02 0.  0.
         13    1    3    3    0    0  0.57028338224E+02  0.17843253906E+02 -0.15441266431E+02  0.61717557822E+02  0.10566000000E+00 0. -1.
         22    1    1    0    0    0 -0.35055724652E+02 -0.13901195333E+02  0.30356853957E+01  0.37833351007E+02  0.00000000000E+00 0. -1.
</event>
<event>
 5    1  0.1258677E-009  0.9118800E+02  0.7561462E-02  0.1125453E+00
         25   -1    0    0    0    0  0.00000000000E+00  0.00000000000E+00  0.99999998245E-14  0.12509000000E+03  0.12509000000E+03 0.  0.
        -13    1    3    3    0    0 -0.37316271468E+01  0.33674151584E+02  0.26260312426E+02  0.42865938678E+02  0.10566000000E+00 0.  1.
         23    2    1    0    0    0 -0.26768288383E+02 -0.99694439974E+01  0.92831315717E+01  0.95054893735E+02  0.90184950045E+02 0.  0.
         13    1    3    3    0    0 -0.23036661236E+02 -0.43643595581E+02 -0.16977180854E+02  0.52188955057E+02  0.10566000000E+00 0. -1.
         22    1    1    0    0    0  0.26768288383E+02  0.99694439974E+01 -0.92831315717E+01  0.30035106265E+02  0.00000000000E+00 0.  1.
</event>
<event>
 5    1  0.1258677E-009  0.9118800E+02  0.7561462E-02  0.1125453E+00
         25   -1    0    0    0    0  0.00000000000E+00  0.00000000000E+00  0.99999998245E-14  0.12509000000E+03  0.12509000000E+03 0.  0.
        -13    1    3    3    0    0  0.29919720230E+02  0.29220491079E+02 -0.42785705782E+02  0.59830214281E+02  0.10566000000E+00 0.  1.
         23    2    1    0    0    0  0.28569267719E+01  0.10401019063E+02 -0.26253834807E+02  0.96706781891E+02  0.92447793882E+02 0.  0.
         13    1    3    3    0    0 -0.27062793459E+02 -0.18819472016E+02  0.16531870975E+02  0.36876567610E+02  0.10566000000E+00 0. -1.
         22    1    1    0    0    0 -0.28569267719E+01 -0.10401019063E+02  0.26253834807E+02  0.28383218109E+02  0.00000000000E+00 0.  1.
</event>
<event>
 5    1  0.1258677E-009  0.9118800E+02  0.7561462E-02  0.1125453E+00
         25   -1    0    0    0    0  0.00000000000E+00  0.00000000000E+00  0.99999998245E-14  0.12509000000E+03  0.12509000000E+03 0.  0.
        -13    1    3    3    0    0 -0.10654668650E+02 -0.57365026783E+02 -0.31867601883E+01  0.58433165809E+02  0.10566000000E+00 0. -1.
         23    2    1    0    0    0 -0.24700246644E-01 -0.32907676276E+02  0.13088439398E+02  0.89674988862E+02  0.82385560711E+02 0.  0.
         13    1    3    3    0    0  0.10629968403E+02  0.24457350507E+02  0.16275199587E+02  0.31241823054E+02  0.10566000000E+00 0.  1.
         22    1    1    0    0    0  0.24700246644E-01  0.32907676276E+02 -0.13088439398E+02  0.35415011138E+02  0.00000000000E+00 0. -1.
</event>
<event>
 5    1  0.1258677E-009  0.9118800E+02  0.7561462E-02  0.1125453E+00
         25   -1    0    0    0    0  0.00000000000E+00  0.00000000000E+00  0.99999998245E-14  0.12509000000E+03  0.12509000000E+03 0.  0.
        -13    1    3    3    0    0  0.33768886544E+02  0.32513308330E+02 -0.26887509305E+02  0.54040746087E+02  0.10566000000E+00 0. -1.
         23    2    1    0    0    0  0.29208796534E+02 -0.10427011315E+01 -0.25339121097E+01  0.95752963149E+02  0.91148056593E+02 0.  0.
         13    1    3    3    0    0 -0.45600900100E+01 -0.33556009461E+02  0.24353597196E+02  0.41712217062E+02  0.10566000000E+00 0.  1.
         22    1    1    0    0    0 -0.29208796534E+02  0.10427011315E+01  0.25339121097E+01  0.29337036851E+02  0.00000000000E+00 0. -1.
</event>
<event>
 5    1  0.1258677E-009  0.9118800E+02  0.7561462E-02  0.1125453E+00
         25   -1    0    0    0    0  0.00000000000E+00  0.00000000000E+00  0.99999998245E-14  0.12509000000E+03  0.12509000000E+03 0.  0.
        -13    1    3    3    0    0  0.45222335530E+02  0.14851890669E+02  0.10000158083E+02  0.48637975009E+02  0.10566000000E+00 0.  1.
         23    2    1    0    0    0  0.15735025031E+02 -0.36374649706E+01 -0.23255729442E+02  0.96776555913E+02  0.92542156115E+02 0.  0.
         13    1    3    3    0    0 -0.29487310499E+02 -0.18489355639E+02 -0.33255887526E+02  0.48138580905E+02  0.10566000000E+00 0. -1.
         22    1    1    0    0    0 -0.15735025031E+02  0.36374649706E+01  0.23255729442E+02  0.28313444087E+02  0.00000000000E+00 0.  1.
</event>
<event>
 5    1  0.1258677E-009  0.9118800E+02  0.7561462E-02  0.1125453E+00
         25   -1    0    0    0    0  0.00000000000E+00  0.00000000000E+00  0.99999998245E-14  0.12509000000E+03  0.12509000000E+03 0.  0.
        -13    1    3    3    0    0 -0.29850681477E+02  0.17122549328E+02  0.57872784718E+01  0.34896255333E+02  0.10566000000E+00 0. -1.
         23    2    1    0    0    0  0.88162615341E+01 -0.13842757615E+02 -0.26422875245E+02  0.93985068847E+02  0.88688648790E+02 0.  0.
         13    1    3    3    0    0  0.38666943011E+02 -0.30965306943E+02 -0.32210153717E+02  0.59088813513E+02  0.10566000000E+00 0.  1.
         22    1    1    0    0    0 -0.88162615341E+01  0.13842757615E+02  0.26422875245E+02  0.31104931153E+02  0.00000000000E+00 0.  1.
</event>
<event>
 5    1  0.1258677E-009  0.9118800E+02  0.7561462E-02  0.1125453E+00
         25   -1    0    0    0    0  0.00000000000E+00  0.00000000000E+00  0.99999998245E-14  0.12509000000E+03  0.12509000000E+03 0.  0.
        -13    1    3    3    0    0  0.43380248519E+02  0.87053492307E+01 -0.39471700052E+02  0.59292961942E+02  0.10566000000E+00 0.  1.
         23    2    1    0    0    0  0.27095944897E+02 -0.88010399714E+01 -0.18295730928E+02  0.91231732108E+02  0.84716271393E+02 0.  0.
         13    1    3    3    0    0 -0.16284303622E+02 -0.17506389202E+02  0.21175969124E+02  0.31938770166E+02  0.10566000000E+00 0. -1.
         22    1    1    0    0    0 -0.27095944897E+02  0.88010399714E+01  0.18295730928E+02  0.33858267892E+02  0.00000000000E+00 0.  1.
</event>
<event>
 5    1  0.1258677E-009  0.9118800E+02  0.7561462E-02  0.1125453E+00
         25   -1    0    0    0    0  0.00000000000E+00  0.00000000000E+00  0.99999998245E-14  0.12509000000E+03  0.12509000000E+03 0.  0.
        -13    1    3    3    0    0 -0.27555080662E+02 -0.49180881056E+02  0.25846233812E+02  0.62016775940E+02  0.10566000000E+00 0.  1.
         23    2    1    0    0    0 -0.77881370679E+01 -0.25471671214E+02  0.12989540923E+02  0.95455741332E+02  0.90739237744E+02 0.  0.
         13    1    3    3    0    0  0.19766943594E+02  0.23709209842E+02 -0.12856692889E+02  0.33438965391E+02  0.10566000000E+00 0. -1.
         22    1    1    0    0    0  0.77881370679E+01  0.25471671214E+02 -0.12989540923E+02  0.29634258668E+02  0.00000000000E+00 0.  1.
</event>
<event>
 5    1  0.1258677E-009  0.9118800E+02  0.7561462E-02  0.1125453E+00
         25   -1    0    0    0    0  0.00000000000E+00  0.00000000000E+00  0.99999998245E-14  0.12509000000E+03  0.12509000000E+03 0.  0.
        -13    1    3    3    0    0 -0.33519564355E+02  0.23519277813E+01  0.93979340821E+01  0.34891619164E+02  0.10566000000E+00 0. -1.
         23    2    1    0    0    0  0.44102085459E+01  0.27385115115E+02 -0.21626501794E+02  0.89917566915E+02  0.82753059102E+02 0.  0.
         13    1    3    3    0    0  0.37929772901E+02  0.25033187333E+02 -0.31024435876E+02  0.55025947751E+02  0.10566000000E+00 0.  1.
         22    1    1    0    0    0 -0.44102085459E+01 -0.27385115115E+02  0.21626501794E+02  0.35172433085E+02  0.00000000000E+00 0.  1.
</event>
<event>
 5    1  0.1258677E-009  0.9118800E+02  0.7561462E-02  0.1125453E+00
         25   -1    0    0    0    0  0.00000000000E+00  0.00000000000E+00  0.99999998245E-14  0.12509000000E+03  0.12509000000E+03 0.  0.
        -13    1    3    3    0    0  0.25442979034E+02 -0.24627598588E+02  0.12408270173E+02  0.37521195704E+02  0.10566000000E+00 0. -1.
         23    2    1    0    0    0 -0.23310883757E+02 -0.12372185476E+02 -0.14954890177E+02  0.94756569347E+02  0.89770208973E+02 0.  0.
         13    1    3    3    0    0 -0.48753862791E+02  0.12255413112E+02 -0.27363160350E+02  0.57235373642E+02  0.10566000000E+00 0.  1.
         22    1    1    0    0    0  0.23310883757E+02  0.12372185476E+02  0.14954890177E+02  0.30333430653E+02  0.00000000000E+00 0.  1.
</event>
<event>
 5    1  0.1258677E-009  0.9118800E+02  0.7561462E-02  0.1125453E+00
         25   -1    0    0    0    0  0.00000000000E+00  0.00000000000E+00  0.99999998245E-14  0.12509000000E+03  0.12509000000E+03 0.  0.
        -13    1    3    3    0    0 -0.25885752267E+02 -0.12393106936E+02 -0.41445205968E+01  0.28997404797E+02  0.10566000000E+00 0. -1.
         23    2    1    0    0    0  0.31196733019E+02  0.10996239062E+02  0.58748104271E+01  0.91494363049E+02  0.85103182359E+02 0.  0.
         13    1    3    3    0    0  0.57082485286E+02  0.23389345998E+02  0.10019331024E+02  0.62496958252E+02  0.10566000000E+00 0.  1.
         22    1    1    0    0    0 -0.31196733019E+02 -0.10996239062E+02 -0.58748104271E+01  0.33595636951E+02  0.00000000000E+00 0.  1.
</event>
<event>
 5    1  0.1258677E-009  0.9118800E+02  0.7561462E-02  0.1125453E+00
         25   -1    0    0    0    0  0.00000000000E+00  0.00000000000E+00  0.99999998245E-14  0.12509000000E+03  0.12509000000E+03 0.  0.
        -13    1    3    3    0    0 -0.60444619418E+02 -0.10602664066E+02 -0.10554028453E+02  0.62268508754E+02  0.10566000000E+00 0.  1.
         23    2    1    0    0    0 -0.25716462161E+02 -0.83300296058E+01 -0.28989438753E+01  0.97903060214E+02  0.94052535875E+02 0.  0.
         13    1    3    3    0    0  0.34728157257E+02  0.22726344600E+01  0.76550845774E+01  0.35634551460E+02  0.10566000000E+00 0. -1.
         22    1    1    0    0    0  0.25716462161E+02  0.83300296058E+01  0.28989438753E+01  0.27186939786E+02  0.00000000000E+00 0.  1.
</event>
<event>
 5    1  0.1258677E-009  0.9118800E+02  0.7561462E-02  0.1125453E+00
         25   -1    0    0    0    0  0.00000000000E+00  0.00000000000E+00  0.99999998245E-14  0.12509000000E+03  0.12509000000E+03 0.  0.
        -13    1    3    3    0    0  0.43495845241E+01  0.15722567962E+02  0.37154915104E+02  0.40578527688E+02  0.10566000000E+00 0. -1.
         23    2    1    0    0    0  0.25070903269E+01 -0.28867093715E+02  0.47567001483E+01  0.95726403528E+02  0.91111599342E+02 0.  0.
         13    1    3    3    0    0 -0.18424941971E+01 -0.44589661677E+02 -0.32398214956E+02  0.55147875840E+02  0.10566000000E+00 0.  1.
         22    1    1    0    0    0 -0.25070903269E+01  0.28867093715E+02 -0.47567001483E+01  0.29363596472E+02  0.00000000000E+00 0.  1.
</event>
<event>
 5    1  0.1258677E-009  0.9118800E+02  0.7561462E-02  0.1125453E+00
         25   -1    0    0    0    0  0.00000000000E+00  0.00000000000E+00  0.99999998245E-14  0.12509000000E+03  0.12509000000E+03 0.  0.
        -13    1    3    3    0    0  0.59767750368E+02 -0.16397256176E+02 -0.65658643436E+01  0.62323155671E+02  0.10566000000E+00 0.  1.
         23    2    1    0    0    0  0.25131381650E+02 -0.41390952636E+01 -0.15725632088E+00  0.99619562572E+02  0.96308431948E+02 0.  0.
         13    1    3    3    0    0 -0.34636368718E+02  0.12258160913E+02  0.64086080227E+01  0.37296406901E+02  0.10566000000E+00 0. -1.
         22    1    1    0    0    0 -0.25131381650E+02  0.41390952636E+01  0.15725632088E+00  0.25470437428E+02  0.00000000000E+00 0.  1.
</event>
<event>
 5    1  0.1258677E-009  0.9118800E+02  0.7561462E-02  0.1125453E+00
         25   -1    0    0    0    0  0.00000000000E+00  0.00000000000E+00  0.99999998245E-14  0.12509000000E+03  0.12509000000E+03 0.  0.
        -13    1    3    3    0    0 -0.40344077718E+02 -0.45469029193E+02  0.95440140027E+01  0.61531915215E+02  0.10566000000E+00 0.  1.
         23    2    1    0    0    0 -0.12495961391E+02 -0.25112095601E+02  0.73321043491E+01  0.96098170966E+02  0.91620588910E+02 0.  0.
         13    1    3    3    0    0  0.27848116328E+02  0.20356933592E+02 -0.22119096536E+01  0.34566255751E+02  0.10566000000E+00 0. -1.
         22    1    1    0    0    0  0.12495961391E+02  0.25112095601E+02 -0.73321043491E+01  0.28991829034E+02  0.00000000000E+00 0.  1.
</event>
<event>
 5    1  0.1258677E-009  0.9118800E+02  0.7561462E-02  0.1125453E+00
         25   -1    0    0    0    0  0.00000000000E+00  0.00000000000E+00  0.99999998245E-14  0.12509000000E+03  0.12509000000E+03 0.  0.
        -13    1    3    3    0    0  0.34624556604E+02 -0.33099585374E+02 -0.16230996632E+02  0.50575674861E+02  0.10566000000E+00 0. -1.
         23    2    1    0    0    0  0.64092784036E+00 -0.27914392882E+02  0.11647555790E+02  0.94836245285E+02  0.89881164575E+02 0.  0.
         13    1    3    3    0    0 -0.33983628764E+02  0.51851924916E+01  0.27878552422E+02  0.44260570424E+02  0.10566000000E+00 0.  1.
         22    1    1    0    0    0 -0.64092784036E+00  0.27914392882E+02 -0.11647555790E+02  0.30253754715E+02  0.00000000000E+00 0. -1.
</event>
<event>
 5    1  0.1258677E-009  0.9118800E+02  0.7561462E-02  0.1125453E+00
         25   -1    0    0    0    0  0.00000000000E+00  0.00000000000E+00  0.99999998245E-14  0.12509000000E+03  0.12509000000E+03 0.  0.
        -13    1    3    3    0    0 -0.48492873673E+02 -0.14468088862E+02  0.29324890609E+02  0.58487988217E+02  0.10566000000E+00 0.  1.
         23    2    1    0    0    0 -0.27687268363E+02 -0.46186064410E+01 -0.15238896093E+01  0.96978817271E+02  0.92815151807E+02 0.  0.
         13    1    3    3    0    0  0.20805605310E+02  0.98494824210E+01 -0.30848780219E+02  0.38490829054E+02  0.10566000000E+00 0. -1.
         22    1    1    0    0    0  0.27687268363E+02  0.46186064410E+01  0.15238896093E+01  0.28111182729E+02  0.00000000000E+00 0.  1.
</event>
<event>
 5    1  0.1258677E-009  0.9118800E+02  0.7561462E-02  0.1125453E+00
         25   -1    0    0    0    0  0.00000000000E+00  0.00000000000E+00  0.99999998245E-14  0.12509000000E+03  0.12509000000E+03 0.  0.
        -13    1    3    3    0    0 -0.16394687650E+02 -0.47876962389E+02 -0.61578370491E+01  0.50979598193E+02  0.10566000000E+00 0.  1.
         23    2    1    0    0    0  0.18681028065E+02 -0.27631869894E+02 -0.26083035671E+01  0.91633994696E+02  0.85308174831E+02 0.  0.
         13    1    3    3    0    0  0.35075715715E+02  0.20245092495E+02  0.35495334820E+01  0.40654396503E+02  0.10566000000E+00 0. -1.
         22    1    1    0    0    0 -0.18681028065E+02  0.27631869894E+02  0.26083035671E+01  0.33456005304E+02  0.00000000000E+00 0.  1.
</event>
<event>
 5    1  0.1258677E-009  0.9118800E+02  0.7561462E-02  0.1125453E+00
         25   -1    0    0    0    0  0.00000000000E+00  0.00000000000E+00  0.99999998245E-14  0.12509000000E+03  0.12509000000E+03 0.  0.
        -13    1    3    3    0    0 -0.10398914859E+01  0.41034335033E+02 -0.14800839848E+02  0.43634551105E+02  0.10566000000E+00 0.  1.
         23    2    1    0    0    0  0.29221150146E+02  0.79380060569E+00 -0.99242170367E+01  0.94219369636E+02  0.89018502546E+02 0.  0.
         13    1    3    3    0    0  0.30261041632E+02 -0.40240534427E+02  0.48766228118E+01  0.50584818531E+02  0.10566000000E+00 0. -1.
         22    1    1    0    0    0 -0.29221150146E+02 -0.79380060569E+00  0.99242170367E+01  0.30870630364E+02  0.00000000000E+00 0. -1.
</event>
<event>
 5    1  0.1258677E-009  0.9118800E+02  0.7561462E-02  0.1125453E+00
         25   -1    0    0    0    0  0.00000000000E+00  0.00000000000E+00  0.99999998245E-14  0.12509000000E+03  0.12509000000E+03 0.  0.
        -13    1    3    3    0    0  0.17586805035E+02 -0.11639466325E+02  0.45872873065E+02  0.50488657488E+02  0.10566000000E+00 0.  1.
         23    2    1    0    0    0  0.27762280686E+02 -0.51550155460E+01  0.11294321724E+01  0.96830593934E+02  0.92615170952E+02 0.  0.
         13    1    3    3    0    0  0.10175475651E+02  0.64844507787E+01 -0.44743440893E+02  0.46341936446E+02  0.10566000000E+00 0. -1.
         22    1    1    0    0    0 -0.27762280686E+02  0.51550155460E+01 -0.11294321724E+01  0.28259406066E+02  0.00000000000E+00 0.  1.
</event>
<event>
 5    1  0.1258677E-009  0.9118800E+02  0.7561462E-02  0.1125453E+00
         25   -1    0    0    0    0  0.00000000000E+00  0.00000000000E+00  0.99999998245E-14  0.12509000000E+03  0.12509000000E+03 0.  0.
        -13    1    3    3    0    0 -0.33964261889E+02 -0.40409521989E+00 -0.17519625544E+02  0.38218880437E+02  0.10566000000E+00 0.  1.
         23    2    1    0    0    0  0.13066002476E+02 -0.26286627101E+02  0.27642838508E+01  0.95605284464E+02  0.90945159119E+02 0.  0.
         13    1    3    3    0    0  0.47030264365E+02 -0.25882531881E+02  0.20283909395E+02  0.57386404027E+02  0.10566000000E+00 0. -1.
         22    1    1    0    0    0 -0.13066002476E+02  0.26286627101E+02 -0.27642838508E+01  0.29484715536E+02  0.00000000000E+00 0. -1.
</event>
<event>
 5    1  0.1258677E-009  0.9118800E+02  0.7561462E-02  0.1125453E+00
         25   -1    0    0    0    0  0.00000000000E+00  0.00000000000E+00  0.99999998245E-14  0.12509000000E+03  0.12509000000E+03 0.  0.
        -13    1    3    3    0    0  0.90997039256E+01  0.11774502325E+02  0.31133101022E+02  0.34506878442E+02  0.10566000000E+00 0. -1.
         23    2    1    0    0    0  0.39972367942E+01 -0.17278316979E+02 -0.22935009346E+02  0.96098056407E+02  0.91620432502E+02 0.  0.
         13    1    3    3    0    0 -0.51024671314E+01 -0.29052819304E+02 -0.54068110368E+02  0.61591177965E+02  0.10566000000E+00 0.  1.
         22    1    1    0    0    0 -0.39972367942E+01  0.17278316979E+02  0.22935009346E+02  0.28991943593E+02  0.00000000000E+00 0.  1.
</event>
<event>
 5    1  0.1258677E-009  0.9118800E+02  0.7561462E-02  0.1125453E+00
         25   -1    0    0    0    0  0.00000000000E+00  0.00000000000E+00  0.99999998245E-14  0.12509000000E+03  0.12509000000E+03 0.  0.
        -13    1    3    3    0    0 -0.59236738996E+01 -0.36321968180E+02  0.14487516080E+02  0.39550911129E+02  0.10566000000E+00 0. -1.
         23    2    1    0    0    0 -0.20042747562E+02  0.48429921053E+01 -0.20966050908E+02  0.95683511038E+02  0.91052691841E+02 0.  0.
         13    1    3    3    0    0 -0.14119073663E+02  0.41164960285E+02 -0.35453566988E+02  0.56132599909E+02  0.10566000000E+00 0.  1.
         22    1    1    0    0    0  0.20042747562E+02 -0.48429921053E+01  0.20966050908E+02  0.29406488962E+02  0.00000000000E+00 0.  1.
</event>
<event>
 5    1  0.1258677E-009  0.9118800E+02  0.7561462E-02  0.1125453E+00
         25   -1    0    0    0    0  0.00000000000E+00  0.00000000000E+00  0.99999998245E-14  0.12509000000E+03  0.12509000000E+03 0.  0.
        -13    1    3    3    0    0 -0.25597896239E+02 -0.88108615063E+01  0.26637510401E+02  0.37979622125E+02  0.10566000000E+00 0.  1.
         23    2    1    0    0    0  0.28164587683E+02 -0.73673464483E+01  0.10705857916E+02  0.94071663701E+02  0.88810701634E+02 0.  0.
         13    1    3    3    0    0  0.53762483922E+02  0.14435150580E+01 -0.15931652485E+02  0.56092041576E+02  0.10566000000E+00 0. -1.
         22    1    1    0    0    0 -0.28164587683E+02  0.73673464483E+01 -0.10705857916E+02  0.31018336299E+02  0.00000000000E+00 0. -1.
</event>
<event>
 5    1  0.1258677E-009  0.9118800E+02  0.7561462E-02  0.1125453E+00
         25   -1    0    0    0    0  0.00000000000E+00  0.00000000000E+00  0.99999998245E-14  0.12509000000E+03  0.12509000000E+03 0.  0.
        -13    1    3    3    0    0  0.42825857589E+02 -0.29021412978E+02 -0.39571925171E+01  0.51884169321E+02  0.10566000000E+00 0. -1.
         23    2    1    0    0    0  0.94442806090E+01 -0.95381323514E+01 -0.25601357811E+02  0.96183254650E+02  0.91736680495E+02 0.  0.
         13    1    3    3    0    0 -0.33381576980E+02  0.19483280627E+02 -0.21644165294E+02  0.44299085329E+02  0.10566000000E+00 0.  1.
         22    1    1    0    0    0 -0.94442806090E+01  0.95381323514E+01  0.25601357811E+02  0.28906745350E+02  0.00000000000E+00 0.  1.
</event>
<event>
 5    1  0.1258677E-009  0.9118800E+02  0.7561462E-02  0.1125453E+00
         25   -1    0    0    0    0  0.00000000000E+00  0.00000000000E+00  0.99999998245E-14  0.12509000000E+03  0.12509000000E+03 0.  0.
        -13    1    3    3    0    0 -0.19133223905E+01 -0.20722725366E+02 -0.53834884645E+02  0.57717398746E+02  0.10566000000E+00 0. -1.
         23    2    1    0    0    0  0.10940028082E+02 -0.81509732564E+01 -0.45599484247E+02  0.77493408284E+02  0.61153845214E+02 0.  0.
         13    1    3    3    0    0  0.12853350472E+02  0.12571752110E+02  0.82354003989E+01  0.19776009538E+02  0.10566000000E+00 0.  1.
         22    1    1    0    0    0 -0.10940028082E+02  0.81509732564E+01  0.45599484247E+02  0.47596591716E+02  0.00000000000E+00 0. -1.
</event>
<event>
 5    1  0.1258677E-009  0.9118800E+02  0.7561462E-02  0.1125453E+00
         25   -1    0    0    0    0  0.00000000000E+00  0.00000000000E+00  0.99999998245E-14  0.12509000000E+03  0.12509000000E+03 0.  0.
        -13    1    3    3    0    0 -0.32538329192E+01 -0.11425879527E+02  0.50304883242E+02  0.51688785957E+02  0.10566000000E+00 0. -1.
         23    2    1    0    0    0  0.15131926504E+01 -0.29373824646E+02  0.13896704106E+02  0.92559557161E+02  0.86654728148E+02 0.  0.
         13    1    3    3    0    0  0.47670255696E+01 -0.17947945118E+02 -0.36408179136E+02  0.40870771204E+02  0.10566000000E+00 0.  1.
         22    1    1    0    0    0 -0.15131926504E+01  0.29373824646E+02 -0.13896704106E+02  0.32530442839E+02  0.00000000000E+00 0.  1.
</event>
<event>
 5    1  0.1258677E-009  0.9118800E+02  0.7561462E-02  0.1125453E+00
         25   -1    0    0    0    0  0.00000000000E+00  0.00000000000E+00  0.99999998245E-14  0.12509000000E+03  0.12509000000E+03 0.  0.
        -13    1    3    3    0    0 -0.43704505000E+01 -0.48379793411E+02  0.45666796744E+01  0.48791095246E+02  0.10566000000E+00 0.  1.
         23    2    1    0    0    0 -0.24604678879E+02 -0.98156232548E+01  0.16417178623E+02  0.93924948475E+02  0.88603812048E+02 0.  0.
         13    1    3    3    0    0 -0.20234228379E+02  0.38564170156E+02  0.11850498949E+02  0.45133853229E+02  0.10566000000E+00 0. -1.
         22    1    1    0    0    0  0.24604678879E+02  0.98156232548E+01 -0.16417178623E+02  0.31165051525E+02  0.00000000000E+00 0.  1.
</event>
<event>
 5    1  0.1258677E-009  0.9118800E+02  0.7561462E-02  0.1125453E+00
         25   -1    0    0    0    0  0.00000000000E+00  0.00000000000E+00  0.99999998245E-14  0.12509000000E+03  0.12509000000E+03 0.  0.
        -13    1    3    3    0    0 -0.13769803154E+02 -0.50382674533E+02 -0.22805763365E+02  0.56992415098E+02  0.10566000000E+00 0.  1.
         23    2    1    0    0    0  0.12026135340E+02 -0.25731254664E+02 -0.11813786901E+02  0.94328157423E+02  0.89171241575E+02 0.  0.
         13    1    3    3    0    0  0.25795938493E+02  0.24651419869E+02  0.10991976464E+02  0.37335742325E+02  0.10566000000E+00 0. -1.
         22    1    1    0    0    0 -0.12026135340E+02  0.25731254664E+02  0.11813786901E+02  0.30761842577E+02  0.00000000000E+00 0.  1.
</event>
<event>
 5    1  0.1258677E-009  0.9118800E+02  0.7561462E-02  0.1125453E+00
         25   -1    0    0    0    0  0.00000000000E+00  0.00000000000E+00  0.99999998245E-14  0.12509000000E+03  0.12509000000E+03 0.  0.
        -13    1    3    3    0    0 -0.55011138561E+01 -0.56111808749E+02 -0.22776937186E+02  0.60807872569E+02  0.10566000000E+00 0.  1.
         23    2    1    0    0    0  0.78455675648E+00 -0.22416953658E+02 -0.19725583335E+02  0.95219714121E+02  0.90413273244E+02 0.  0.
         13    1    3    3    0    0  0.62856706126E+01  0.33694855091E+02  0.30513538513E+01  0.34411841552E+02  0.10566000000E+00 0. -1.
         22    1    1    0    0    0 -0.78455675648E+00  0.22416953658E+02  0.19725583335E+02  0.29870285879E+02  0.00000000000E+00 0.  1.
</event>
<event>
 5    1  0.1258677E-009  0.9118800E+02  0.7561462E-02  0.1125453E+00
         25   -1    0    0    0    0  0.00000000000E+00  0.00000000000E+00  0.99999998245E-14  0.12509000000E+03  0.12509000000E+03 0.  0.
        -13    1    3    3    0    0 -0.31211074792E+02 -0.32541246756E+02 -0.43308471625E+02  0.62519587399E+02  0.10566000000E+00 0.  1.
         23    2    1    0    0    0 -0.15647648409E+02 -0.15326861249E+02 -0.19564818298E+02  0.95720905844E+02  0.91104051085E+02 0.  0.
         13    1    3    3    0    0  0.15563426383E+02  0.17214385507E+02  0.23743653327E+02  0.33201318445E+02  0.10566000000E+00 0. -1.
         22    1    1    0    0    0  0.15647648409E+02  0.15326861249E+02  0.19564818298E+02  0.29369094156E+02  0.00000000000E+00 0.  1.
</event>
<event>
 5    1  0.1258677E-009  0.9118800E+02  0.7561462E-02  0.1125453E+00
         25   -1    0    0    0    0  0.00000000000E+00  0.00000000000E+00  0.99999998245E-14  0.12509000000E+03  0.12509000000E+03 0.  0.
        -13    1    3    3    0    0 -0.32217995670E+01 -0.28767342199E+02 -0.19529635723E+02  0.34919304191E+02  0.10566000000E+00 0.  1.
         23    2    1    0    0    0  0.22596472099E+01  0.29234106927E+02 -0.22756647589E+01  0.95680517457E+02  0.91048579107E+02 0.  0.
         13    1    3    3    0    0  0.54814467769E+01  0.58001449126E+02  0.17253970965E+02  0.60761213266E+02  0.10566000000E+00 0. -1.
         22    1    1    0    0    0 -0.22596472099E+01 -0.29234106927E+02  0.22756647589E+01  0.29409482543E+02  0.00000000000E+00 0. -1.
</event>
<event>
 5    1  0.1258677E-009  0.9118800E+02  0.7561462E-02  0.1125453E+00
         25   -1    0    0    0    0  0.00000000000E+00  0.00000000000E+00  0.99999998245E-14  0.12509000000E+03  0.12509000000E+03 0.  0.
        -13    1    3    3    0    0  0.26858423035E+02 -0.47190197615E+02 -0.11964379480E+02  0.55600783981E+02  0.10566000000E+00 0.  1.
         23    2    1    0    0    0  0.28612772109E+02 -0.89832191598E+01 -0.79897702974E+01  0.94054127471E+02  0.88785998393E+02 0.  0.
         13    1    3    3    0    0  0.17543490746E+01  0.38206978455E+02  0.39746091829E+01  0.38453343490E+02  0.10566000000E+00 0. -1.
         22    1    1    0    0    0 -0.28612772109E+02  0.89832191598E+01  0.79897702974E+01  0.31035872529E+02  0.00000000000E+00 0.  1.
</event>
<event>
 5    1  0.1258677E-009  0.9118800E+02  0.7561462E-02  0.1125453E+00
         25   -1    0    0    0    0  0.00000000000E+00  0.00000000000E+00  0.99999998245E-14  0.12509000000E+03  0.12509000000E+03 0.  0.
        -13    1    3    3    0    0 -0.39679041969E+02  0.10062372703E+02  0.15376944378E+02  0.43728015030E+02  0.10566000000E+00 0. -1.
         23    2    1    0    0    0 -0.22804925287E+01  0.20536131772E+02 -0.20051748380E+02  0.96297536274E+02  0.91892380125E+02 0.  0.
         13    1    3    3    0    0  0.37398549441E+02  0.10473759069E+02 -0.35428692758E+02  0.52569521244E+02  0.10566000000E+00 0.  1.
         22    1    1    0    0    0  0.22804925287E+01 -0.20536131772E+02  0.20051748380E+02  0.28792463726E+02  0.00000000000E+00 0.  1.
</event>
<event>
 5    1  0.1258677E-009  0.9118800E+02  0.7561462E-02  0.1125453E+00
         25   -1    0    0    0    0  0.00000000000E+00  0.00000000000E+00  0.99999998245E-14  0.12509000000E+03  0.12509000000E+03 0.  0.
        -13    1    3    3    0    0  0.49048783424E+02  0.81449179730E+01  0.34227776808E+01  0.49838232465E+02  0.10566000000E+00 0. -1.
         23    2    1    0    0    0  0.12219465657E+02 -0.97045859394E+01  0.24629715664E+02  0.95933230239E+02  0.91395117163E+02 0.  0.
         13    1    3    3    0    0 -0.36829317767E+02 -0.17849503912E+02  0.21206937983E+02  0.46094997774E+02  0.10566000000E+00 0.  1.
         22    1    1    0    0    0 -0.12219465657E+02  0.97045859394E+01 -0.24629715664E+02  0.29156769761E+02  0.00000000000E+00 0. -1.
</event>
<event>
 5    1  0.1258677E-009  0.9118800E+02  0.7561462E-02  0.1125453E+00
         25   -1    0    0    0    0  0.00000000000E+00  0.00000000000E+00  0.99999998245E-14  0.12509000000E+03  0.12509000000E+03 0.  0.
        -13    1    3    3    0    0 -0.25570514826E+02 -0.44219226148E+02  0.10189853158E+02  0.52086806976E+02  0.10566000000E+00 0. -1.
         23    2    1    0    0    0 -0.71947744266E+00 -0.20361701230E+02 -0.18993295749E+02  0.97235703955E+02  0.93160723029E+02 0.  0.
         13    1    3    3    0    0  0.24851037383E+02  0.23857524918E+02 -0.29183148907E+02  0.45148896978E+02  0.10566000000E+00 0.  1.
         22    1    1    0    0    0  0.71947744266E+00  0.20361701230E+02  0.18993295749E+02  0.27854296045E+02  0.00000000000E+00 0. -1.
</event>
<event>
 5    1  0.1258677E-009  0.9118800E+02  0.7561462E-02  0.1125453E+00
         25   -1    0    0    0    0  0.00000000000E+00  0.00000000000E+00  0.99999998245E-14  0.12509000000E+03  0.12509000000E+03 0.  0.
        -13    1    3    3    0    0  0.38862928727E+01  0.33611000773E+01 -0.37445719825E+02  0.37796737468E+02  0.10566000000E+00 0. -1.
         23    2    1    0    0    0 -0.25618245536E+02 -0.18195686595E+02  0.44109436534E+01  0.93359353317E+02  0.87801679442E+02 0.  0.
         13    1    3    3    0    0 -0.29504538409E+02 -0.21556786672E+02  0.41856663478E+02  0.55562615848E+02  0.10566000000E+00 0.  1.
         22    1    1    0    0    0  0.25618245536E+02  0.18195686595E+02 -0.44109436534E+01  0.31730646683E+02  0.00000000000E+00 0.  1.
</event>
<event>
 5    1  0.1258677E-009  0.9118800E+02  0.7561462E-02  0.1125453E+00
         25   -1    0    0    0    0  0.00000000000E+00  0.00000000000E+00  0.99999998245E-14  0.12509000000E+03  0.12509000000E+03 0.  0.
        -13    1    3    3    0    0 -0.39376296004E+02 -0.34815360824E+02  0.19652138682E+01  0.52597293332E+02  0.10566000000E+00 0.  1.
         23    2    1    0    0    0  0.22508279898E+01 -0.28094604500E+02  0.93285917503E+01  0.95401691650E+02  0.90664696090E+02 0.  0.
         13    1    3    3    0    0  0.41627123993E+02  0.67207563238E+01  0.73633778821E+01  0.42804398318E+02  0.10566000000E+00 0. -1.
         22    1    1    0    0    0 -0.22508279898E+01  0.28094604500E+02 -0.93285917503E+01  0.29688308350E+02  0.00000000000E+00 0.  1.
</event>
<event>
 5    1  0.1258677E-009  0.9118800E+02  0.7561462E-02  0.1125453E+00
         25   -1    0    0    0    0  0.00000000000E+00  0.00000000000E+00  0.99999998245E-14  0.12509000000E+03  0.12509000000E+03 0.  0.
        -13    1    3    3    0    0  0.13964185014E+02 -0.17175565643E+02  0.36616220838E+02  0.42787349891E+02  0.10566000000E+00 0.  1.
         23    2    1    0    0    0 -0.44394764533E+01 -0.25995963066E+02 -0.12448500568E+02  0.95927280421E+02  0.91386973446E+02 0.  0.
         13    1    3    3    0    0 -0.18403661467E+02 -0.88203974228E+01 -0.49064721405E+02  0.53139930530E+02  0.10566000000E+00 0. -1.
         22    1    1    0    0    0  0.44394764533E+01  0.25995963066E+02  0.12448500568E+02  0.29162719579E+02  0.00000000000E+00 0. -1.
</event>
<event>
 5    1  0.1258677E-009  0.9118800E+02  0.7561462E-02  0.1125453E+00
         25   -1    0    0    0    0  0.00000000000E+00  0.00000000000E+00  0.99999998245E-14  0.12509000000E+03  0.12509000000E+03 0.  0.
        -13    1    3    3    0    0  0.38745929128E+02  0.80240969558E+01  0.13895183421E+02  0.41937101024E+02  0.10566000000E+00 0.  1.
         23    2    1    0    0    0  0.87325442247E+01  0.77534904985E+01 -0.28734441014E+02  0.94073197394E+02  0.88812861816E+02 0.  0.
         13    1    3    3    0    0 -0.30013384904E+02 -0.27060645739E+00 -0.42629624434E+02  0.52136096370E+02  0.10566000000E+00 0. -1.
         22    1    1    0    0    0 -0.87325442247E+01 -0.77534904985E+01  0.28734441014E+02  0.31016802606E+02  0.00000000000E+00 0.  1.
</event>
<event>
 5    1  0.1258677E-009  0.9118800E+02  0.7561462E-02  0.1125453E+00
         25   -1    0    0    0    0  0.00000000000E+00  0.00000000000E+00  0.99999998245E-14  0.12509000000E+03  0.12509000000E+03 0.  0.
        -13    1    3    3    0    0  0.30927929925E+02 -0.15825366495E+02  0.19895766274E+02  0.40035381275E+02  0.10566000000E+00 0.  1.
         23    2    1    0    0    0 -0.20095382481E+02 -0.15675220779E+02 -0.82434587368E+01  0.98303967157E+02  0.94584239720E+02 0.  0.
         13    1    3    3    0    0 -0.51023312406E+02  0.15014571636E+00 -0.28139225010E+02  0.58268585883E+02  0.10566000000E+00 0. -1.
         22    1    1    0    0    0  0.20095382481E+02  0.15675220779E+02  0.82434587368E+01  0.26786032843E+02  0.00000000000E+00 0. -1.
</event>
<event>
 5    1  0.1258677E-009  0.9118800E+02  0.7561462E-02  0.1125453E+00
         25   -1    0    0    0    0  0.00000000000E+00  0.00000000000E+00  0.99999998245E-14  0.12509000000E+03  0.12509000000E+03 0.  0.
        -13    1    3    3    0    0 -0.36695887813E+02  0.19099786048E+02 -0.26228586604E+02  0.48983057568E+02  0.10566000000E+00 0.  1.
         23    2    1    0    0    0 -0.17268095346E+02 -0.20360536648E+02 -0.15359320644E+02  0.94289881491E+02  0.89117531673E+02 0.  0.
         13    1    3    3    0    0  0.19427792466E+02 -0.39460322697E+02  0.10869265960E+02  0.45306823923E+02  0.10566000000E+00 0. -1.
         22    1    1    0    0    0  0.17268095346E+02  0.20360536648E+02  0.15359320644E+02  0.30800118509E+02  0.00000000000E+00 0. -1.
</event>
<event>
 5    1  0.1258677E-009  0.9118800E+02  0.7561462E-02  0.1125453E+00
         25   -1    0    0    0    0  0.00000000000E+00  0.00000000000E+00  0.99999998245E-14  0.12509000000E+03  0.12509000000E+03 0.  0.
        -13    1    3    3    0    0  0.26137409917E+02 -0.18317229538E+02  0.37108006610E+02  0.48945892715E+02  0.10566000000E+00 0.  1.
         23    2    1    0    0    0  0.28645902479E+02 -0.64119767749E+01 -0.71759189039E+01  0.94870883747E+02  0.89929358920E+02 0.  0.
         13    1    3    3    0    0  0.25084925622E+01  0.11905252763E+02 -0.44283925514E+02  0.45924991032E+02  0.10566000000E+00 0. -1.
         22    1    1    0    0    0 -0.28645902479E+02  0.64119767749E+01  0.71759189039E+01  0.30219116253E+02  0.00000000000E+00 0.  1.
</event>
<event>
 5    1  0.1258677E-009  0.9118800E+02  0.7561462E-02  0.1125453E+00
         25   -1    0    0    0    0  0.00000000000E+00  0.00000000000E+00  0.99999998245E-14  0.12509000000E+03  0.12509000000E+03 0.  0.
        -13    1    3    3    0    0  0.77694344755E+01  0.65182704558E+01 -0.35820043160E+02  0.37228196543E+02  0.10566000000E+00 0.  1.
         23    2    1    0    0    0  0.19877436567E+02  0.19731867385E+01  0.21355642866E+02  0.95848429717E+02  0.91278979215E+02 0.  0.
         13    1    3    3    0    0  0.12108002092E+02 -0.45450837173E+01  0.57175686027E+02  0.58620233174E+02  0.10566000000E+00 0. -1.
         22    1    1    0    0    0 -0.19877436567E+02 -0.19731867385E+01 -0.21355642866E+02  0.29241570283E+02  0.00000000000E+00 0. -1.
</event>
<event>
 5    1  0.1258677E-009  0.9118800E+02  0.7561462E-02  0.1125453E+00
         25   -1    0    0    0    0  0.00000000000E+00  0.00000000000E+00  0.99999998245E-14  0.12509000000E+03  0.12509000000E+03 0.  0.
        -13    1    3    3    0    0  0.34926871814E+02 -0.95965897361E+01  0.30089832052E+02  0.47089171433E+02  0.10566000000E+00 0.  1.
         23    2    1    0    0    0 -0.11280184566E+02 -0.47405883545E+01  0.29056497997E+02  0.93562300787E+02  0.88090341758E+02 0.  0.
         13    1    3    3    0    0 -0.46207056380E+02  0.48560013816E+01 -0.10333340553E+01  0.46473129355E+02  0.10566000000E+00 0. -1.
         22    1    1    0    0    0  0.11280184566E+02  0.47405883545E+01 -0.29056497997E+02  0.31527699213E+02  0.00000000000E+00 0. -1.
</event>
<event>
 5    1  0.1258677E-009  0.9118800E+02  0.7561462E-02  0.1125453E+00
         25   -1    0    0    0    0  0.00000000000E+00  0.00000000000E+00  0.99999998245E-14  0.12509000000E+03  0.12509000000E+03 0.  0.
        -13    1    3    3    0    0 -0.43644342775E+02  0.25616366624E+02 -0.12818665541E+01  0.50622931970E+02  0.10566000000E+00 0.  1.
         23    2    1    0    0    0 -0.20524184274E+02 -0.14733985520E+02 -0.99633417328E+01  0.97931195757E+02  0.94089948743E+02 0.  0.
         13    1    3    3    0    0  0.23120158501E+02 -0.40350352144E+02 -0.86814751787E+01  0.47308263787E+02  0.10566000000E+00 0. -1.
         22    1    1    0    0    0  0.20524184274E+02  0.14733985520E+02  0.99633417328E+01  0.27158804243E+02  0.00000000000E+00 0. -1.
</event>
<event>
 5    1  0.1258677E-009  0.9118800E+02  0.7561462E-02  0.1125453E+00
         25   -1    0    0    0    0  0.00000000000E+00  0.00000000000E+00  0.99999998245E-14  0.12509000000E+03  0.12509000000E+03 0.  0.
        -13    1    3    3    0    0  0.39784755087E+01  0.29271219013E+02 -0.17985917399E+02  0.34585212427E+02  0.10566000000E+00 0. -1.
         23    2    1    0    0    0 -0.12213200774E+02 -0.21271837016E+02  0.14290193662E+02  0.96702274518E+02  0.92441694807E+02 0.  0.
         13    1    3    3    0    0 -0.16191676282E+02 -0.50543056029E+02  0.32276111061E+02  0.62117062091E+02  0.10566000000E+00 0.  1.
         22    1    1    0    0    0  0.12213200774E+02  0.21271837016E+02 -0.14290193662E+02  0.28387725482E+02  0.00000000000E+00 0.  1.
</event>
<event>
 5    1  0.1258677E-009  0.9118800E+02  0.7561462E-02  0.1125453E+00
         25   -1    0    0    0    0  0.00000000000E+00  0.00000000000E+00  0.99999998245E-14  0.12509000000E+03  0.12509000000E+03 0.  0.
        -13    1    3    3    0    0 -0.86411615293E+00  0.86369597118E+01  0.50994997159E+02  0.51728567243E+02  0.10566000000E+00 0.  1.
         23    2    1    0    0    0  0.24634191330E+02  0.10771092678E+02  0.22448290614E+02  0.90064501125E+02  0.82974868434E+02 0.  0.
         13    1    3    3    0    0  0.25498307483E+02  0.21341329659E+01 -0.28546706545E+02  0.38335933882E+02  0.10566000000E+00 0. -1.
         22    1    1    0    0    0 -0.24634191330E+02 -0.10771092678E+02 -0.22448290614E+02  0.35025498875E+02  0.00000000000E+00 0. -1.
</event>
<event>
 5    1  0.1258677E-009  0.9118800E+02  0.7561462E-02  0.1125453E+00
         25   -1    0    0    0    0  0.00000000000E+00  0.00000000000E+00  0.99999998245E-14  0.12509000000E+03  0.12509000000E+03 0.  0.
        -13    1    3    3    0    0 -0.31012069743E+02 -0.27227389212E+02  0.93719627823E+01  0.42319310527E+02  0.10566000000E+00 0.  1.
         23    2    1    0    0    0  0.16208229516E+02 -0.33562691193E+01  0.22807085887E+02  0.96909609422E+02  0.92721831223E+02 0.  0.
         13    1    3    3    0    0  0.47220299259E+02  0.23871120093E+02  0.13435123105E+02  0.54590298895E+02  0.10566000000E+00 0. -1.
         22    1    1    0    0    0 -0.16208229516E+02  0.33562691193E+01 -0.22807085887E+02  0.28180390578E+02  0.00000000000E+00 0. -1.
</event>
<event>
 5    1  0.1258677E-009  0.9118800E+02  0.7561462E-02  0.1125453E+00
         25   -1    0    0    0    0  0.00000000000E+00  0.00000000000E+00  0.99999998245E-14  0.12509000000E+03  0.12509000000E+03 0.  0.
        -13    1    3    3    0    0 -0.40342640054E+02 -0.10060919112E+02  0.82980904874E+01  0.42398351025E+02  0.10566000000E+00 0.  1.
         23    2    1    0    0    0  0.41129252411E+01  0.86882309507E+01  0.28730423945E+02  0.94794145975E+02  0.89822554739E+02 0.  0.
         13    1    3    3    0    0  0.44455565295E+02  0.18749150063E+02  0.20432333457E+02  0.52395794949E+02  0.10566000000E+00 0. -1.
         22    1    1    0    0    0 -0.41129252411E+01 -0.86882309507E+01 -0.28730423945E+02  0.30295854025E+02  0.00000000000E+00 0.  1.
</event>
<event>
 5    1  0.1258677E-009  0.9118800E+02  0.7561462E-02  0.1125453E+00
         25   -1    0    0    0    0  0.00000000000E+00  0.00000000000E+00  0.99999998245E-14  0.12509000000E+03  0.12509000000E+03 0.  0.
        -13    1    3    3    0    0 -0.16602621526E+02 -0.11307383354E+02  0.38724896403E+02  0.43624909459E+02  0.10566000000E+00 0.  1.
         23    2    1    0    0    0  0.82516041404E+01  0.24830552385E+02  0.23104900252E+02  0.90183242513E+02  0.83153686099E+02 0.  0.
         13    1    3    3    0    0  0.24854225666E+02  0.36137935739E+02 -0.15619996151E+02  0.46558333054E+02  0.10566000000E+00 0. -1.
         22    1    1    0    0    0 -0.82516041404E+01 -0.24830552385E+02 -0.23104900252E+02  0.34906757487E+02  0.00000000000E+00 0.  1.
</event>
<event>
 5    1  0.1258677E-009  0.9118800E+02  0.7561462E-02  0.1125453E+00
         25   -1    0    0    0    0  0.00000000000E+00  0.00000000000E+00  0.99999998245E-14  0.12509000000E+03  0.12509000000E+03 0.  0.
        -13    1    3    3    0    0 -0.24661741607E+02 -0.30290259484E+02  0.46034947179E+02  0.60373246099E+02  0.10566000000E+00 0. -1.
         23    2    1    0    0    0 -0.55898752403E+01 -0.23001147840E+02  0.16671366386E+02  0.96137729548E+02  0.91674582510E+02 0.  0.
         13    1    3    3    0    0  0.19071866367E+02  0.72891116441E+01 -0.29363580794E+02  0.35764483449E+02  0.10566000000E+00 0.  1.
         22    1    1    0    0    0  0.55898752403E+01  0.23001147840E+02 -0.16671366386E+02  0.28952270452E+02  0.00000000000E+00 0. -1.
</event>
<event>
 5    1  0.1258677E-009  0.9118800E+02  0.7561462E-02  0.1125453E+00
         25   -1    0    0    0    0  0.00000000000E+00  0.00000000000E+00  0.99999998245E-14  0.12509000000E+03  0.12509000000E+03 0.  0.
        -13    1    3    3    0    0 -0.89401066756E+01 -0.49365393763E+02  0.60656986320E+01  0.50533864613E+02  0.10566000000E+00 0.  1.
         23    2    1    0    0    0 -0.22617651169E+02 -0.20295526057E+02 -0.17173114160E+02  0.90184665561E+02  0.83155826795E+02 0.  0.
         13    1    3    3    0    0 -0.13677544494E+02  0.29069867706E+02 -0.23238812792E+02  0.39650800948E+02  0.10566000000E+00 0. -1.
         22    1    1    0    0    0  0.22617651169E+02  0.20295526057E+02  0.17173114160E+02  0.34905334439E+02  0.00000000000E+00 0.  1.
</event>
<event>
 5    1  0.1258677E-009  0.9118800E+02  0.7561462E-02  0.1125453E+00
         25   -1    0    0    0    0  0.00000000000E+00  0.00000000000E+00  0.99999998245E-14  0.12509000000E+03  0.12509000000E+03 0.  0.
        -13    1    3    3    0    0  0.22720966658E+02  0.24066623099E+01  0.48132470238E+02  0.53280204623E+02  0.10566000000E+00 0.  1.
         23    2    1    0    0    0  0.29239383206E+01 -0.21792983295E+02  0.21190705670E+02  0.94552653308E+02  0.89485611718E+02 0.  0.
         13    1    3    3    0    0 -0.19797028338E+02 -0.24199645605E+02 -0.26941764568E+02  0.41272448685E+02  0.10566000000E+00 0. -1.
         22    1    1    0    0    0 -0.29239383206E+01  0.21792983295E+02 -0.21190705670E+02  0.30537346692E+02  0.00000000000E+00 0.  1.
</event>
<event>
 5    1  0.1258677E-009  0.9118800E+02  0.7561462E-02  0.1125453E+00
         25   -1    0    0    0    0  0.00000000000E+00  0.00000000000E+00  0.99999998245E-14  0.12509000000E+03  0.12509000000E+03 0.  0.
        -13    1    3    3    0    0 -0.27598464932E+02 -0.27763160613E+02  0.60518774520E+01  0.39611926721E+02  0.10566000000E+00 0.  1.
         23    2    1    0    0    0 -0.16755529190E+01  0.12183625154E+02  0.29819040396E+02  0.92834405607E+02  0.87050580095E+02 0.  0.
         13    1    3    3    0    0  0.25922912013E+02  0.39946785767E+02  0.23767162944E+02  0.53222478886E+02  0.10566000000E+00 0. -1.
         22    1    1    0    0    0  0.16755529190E+01 -0.12183625154E+02 -0.29819040396E+02  0.32255594393E+02  0.00000000000E+00 0.  1.
</event>
<event>
 5    1  0.1258677E-009  0.9118800E+02  0.7561462E-02  0.1125453E+00
         25   -1    0    0    0    0  0.00000000000E+00  0.00000000000E+00  0.99999998245E-14  0.12509000000E+03  0.12509000000E+03 0.  0.
        -13    1    3    3    0    0  0.20623506565E+02  0.14595453272E+02  0.39089359621E+02  0.46544016574E+02  0.10566000000E+00 0.  1.
         23    2    1    0    0    0 -0.12183448232E+02 -0.16506447091E+02  0.22353307694E+02  0.94749110573E+02  0.89759814968E+02 0.  0.
         13    1    3    3    0    0 -0.32806954797E+02 -0.31101900363E+02 -0.16736051927E+02  0.48205093999E+02  0.10566000000E+00 0. -1.
         22    1    1    0    0    0  0.12183448232E+02  0.16506447091E+02 -0.22353307694E+02  0.30340889427E+02  0.00000000000E+00 0. -1.
</event>
<event>
 5    1  0.1258677E-009  0.9118800E+02  0.7561462E-02  0.1125453E+00
         25   -1    0    0    0    0  0.00000000000E+00  0.00000000000E+00  0.99999998245E-14  0.12509000000E+03  0.12509000000E+03 0.  0.
        -13    1    3    3    0    0  0.11148100671E+01  0.57443771062E+02  0.48031695751E+01  0.57655105908E+02  0.10566000000E+00 0.  1.
         23    2    1    0    0    0  0.10018410628E+02  0.25503642968E+02 -0.12404333630E+02  0.95012236636E+02  0.90125763584E+02 0.  0.
         13    1    3    3    0    0  0.89036005611E+01 -0.31940128094E+02 -0.17207503206E+02  0.37357130728E+02  0.10566000000E+00 0. -1.
         22    1    1    0    0    0 -0.10018410628E+02 -0.25503642968E+02  0.12404333630E+02  0.30077763364E+02  0.00000000000E+00 0.  1.
</event>
<event>
 5    1  0.1258677E-009  0.9118800E+02  0.7561462E-02  0.1125453E+00
         25   -1    0    0    0    0  0.00000000000E+00  0.00000000000E+00  0.99999998245E-14  0.12509000000E+03  0.12509000000E+03 0.  0.
        -13    1    3    3    0    0 -0.34539689730E+02 -0.39301138259E+02  0.22276297392E+02  0.56866635425E+02  0.10566000000E+00 0.  1.
         23    2    1    0    0    0 -0.20239006831E+02 -0.21587166487E+02 -0.77052434805E+01  0.94512329527E+02  0.89429226214E+02 0.  0.
         13    1    3    3    0    0  0.14300682898E+02  0.17713971772E+02 -0.29981540872E+02  0.37645694102E+02  0.10566000000E+00 0. -1.
         22    1    1    0    0    0  0.20239006831E+02  0.21587166487E+02  0.77052434805E+01  0.30577670473E+02  0.00000000000E+00 0.  1.
</event>
<event>
 5    1  0.1258677E-009  0.9118800E+02  0.7561462E-02  0.1125453E+00
         25   -1    0    0    0    0  0.00000000000E+00  0.00000000000E+00  0.99999998245E-14  0.12509000000E+03  0.12509000000E+03 0.  0.
        -13    1    3    3    0    0  0.48622323154E+02 -0.54384883299E+01  0.29376714649E+02  0.57067591432E+02  0.10566000000E+00 0.  1.
         23    2    1    0    0    0  0.13267769176E+02  0.66929268427E+01  0.26689669466E+02  0.94542210803E+02  0.89471013175E+02 0.  0.
         13    1    3    3    0    0 -0.35354553979E+02  0.12131415173E+02 -0.26870451832E+01  0.37474619371E+02  0.10566000000E+00 0. -1.
         22    1    1    0    0    0 -0.13267769176E+02 -0.66929268427E+01 -0.26689669466E+02  0.30547789197E+02  0.00000000000E+00 0.  1.
</event>
<event>
 5    1  0.1258677E-009  0.9118800E+02  0.7561462E-02  0.1125453E+00
         25   -1    0    0    0    0  0.00000000000E+00  0.00000000000E+00  0.99999998245E-14  0.12509000000E+03  0.12509000000E+03 0.  0.
        -13    1    3    3    0    0  0.51644610507E+02  0.96478937860E+01  0.21316020718E+02  0.56697720873E+02  0.10566000000E+00 0.  1.
         23    2    1    0    0    0  0.27142136460E+02 -0.11372960905E+02 -0.49206442883E+00  0.95657332116E+02  0.91016719611E+02 0.  0.
         13    1    3    3    0    0 -0.24502474047E+02 -0.21020854691E+02 -0.21808085147E+02  0.38959611243E+02  0.10566000000E+00 0. -1.
         22    1    1    0    0    0 -0.27142136460E+02  0.11372960905E+02  0.49206442883E+00  0.29432667884E+02  0.00000000000E+00 0.  1.
</event>
<event>
 5    1  0.1258677E-009  0.9118800E+02  0.7561462E-02  0.1125453E+00
         25   -1    0    0    0    0  0.00000000000E+00  0.00000000000E+00  0.99999998245E-14  0.12509000000E+03  0.12509000000E+03 0.  0.
        -13    1    3    3    0    0  0.58774565133E+02  0.11971859076E+02 -0.31847562870E+01  0.60066036601E+02  0.10566000000E+00 0. -1.
         23    2    1    0    0    0  0.28055959125E+02 -0.23272197110E+01  0.81270688672E+01  0.95788088077E+02  0.91196248690E+02 0.  0.
         13    1    3    3    0    0 -0.30718606009E+02 -0.14299078787E+02  0.11311825154E+02  0.35722051476E+02  0.10566000000E+00 0.  1.
         22    1    1    0    0    0 -0.28055959125E+02  0.23272197110E+01 -0.81270688672E+01  0.29301911923E+02  0.00000000000E+00 0. -1.
</event>
<event>
 5    1  0.1258677E-009  0.9118800E+02  0.7561462E-02  0.1125453E+00
         25   -1    0    0    0    0  0.00000000000E+00  0.00000000000E+00  0.99999998245E-14  0.12509000000E+03  0.12509000000E+03 0.  0.
        -13    1    3    3    0    0  0.41678912607E+02  0.16706752659E+02  0.37113557346E+02  0.58255254213E+02  0.10566000000E+00 0. -1.
         23    2    1    0    0    0  0.23283324482E+02 -0.80823749033E+01  0.14845868472E+02  0.96317829528E+02  0.91920000496E+02 0.  0.
         13    1    3    3    0    0 -0.18395588126E+02 -0.24789127562E+02 -0.22267688874E+02  0.38062575315E+02  0.10566000000E+00 0.  1.
         22    1    1    0    0    0 -0.23283324482E+02  0.80823749033E+01 -0.14845868472E+02  0.28772170472E+02  0.00000000000E+00 0. -1.
</event>
<event>
 5    1  0.1258677E-009  0.9118800E+02  0.7561462E-02  0.1125453E+00
         25   -1    0    0    0    0  0.00000000000E+00  0.00000000000E+00  0.99999998245E-14  0.12509000000E+03  0.12509000000E+03 0.  0.
        -13    1    3    3    0    0  0.13115726609E+01  0.47251046068E+02 -0.10314563614E+02  0.48381638707E+02  0.10566000000E+00 0.  1.
         23    2    1    0    0    0  0.15311523250E+02 -0.75291400635E+01 -0.10748341005E+02  0.10492424862E+03  0.10296815246E+03 0.  0.
         13    1    3    3    0    0  0.13999950589E+02 -0.54780186131E+02 -0.43377739105E+00  0.56542609915E+02  0.10566000000E+00 0. -1.
         22    1    1    0    0    0 -0.15311523250E+02  0.75291400635E+01  0.10748341005E+02  0.20165751379E+02  0.00000000000E+00 0. -1.
</event>
<event>
 5    1  0.1258677E-009  0.9118800E+02  0.7561462E-02  0.1125453E+00
         25   -1    0    0    0    0  0.00000000000E+00  0.00000000000E+00  0.99999998245E-14  0.12509000000E+03  0.12509000000E+03 0.  0.
        -13    1    3    3    0    0 -0.79921622399E+01  0.36269995582E+01 -0.33216269352E+02  0.34356389461E+02  0.10566000000E+00 0.  1.
         23    2    1    0    0    0 -0.39189011557E+01  0.16652427142E+02  0.25358738352E+02  0.94500349351E+02  0.89412467255E+02 0.  0.
         13    1    3    3    0    0  0.40732610842E+01  0.13025427584E+02  0.58575007705E+02  0.60143959890E+02  0.10566000000E+00 0. -1.
         22    1    1    0    0    0  0.39189011557E+01 -0.16652427142E+02 -0.25358738352E+02  0.30589650649E+02  0.00000000000E+00 0. -1.
</event>
<event>
 5    1  0.1258677E-009  0.9118800E+02  0.7561462E-02  0.1125453E+00
         25   -1    0    0    0    0  0.00000000000E+00  0.00000000000E+00  0.99999998245E-14  0.12509000000E+03  0.12509000000E+03 0.  0.
        -13    1    3    3    0    0  0.14731190975E+02 -0.60866216159E+01 -0.32834575212E+02  0.36498978666E+02  0.10566000000E+00 0.  1.
         23    2    1    0    0    0 -0.81430659642E+01  0.24499860550E+02  0.13018750776E+02  0.96175633985E+02  0.91726288545E+02 0.  0.
         13    1    3    3    0    0 -0.22874256939E+02  0.30586482166E+02  0.45853325988E+02  0.59676655319E+02  0.10566000000E+00 0. -1.
         22    1    1    0    0    0  0.81430659642E+01 -0.24499860550E+02 -0.13018750776E+02  0.28914366015E+02  0.00000000000E+00 0.  1.
</event>
<event>
 5    1  0.1258677E-009  0.9118800E+02  0.7561462E-02  0.1125453E+00
         25   -1    0    0    0    0  0.00000000000E+00  0.00000000000E+00  0.99999998245E-14  0.12509000000E+03  0.12509000000E+03 0.  0.
        -13    1    3    3    0    0  0.21338907359E+02  0.20807977766E+02  0.28824255624E+02  0.41462872335E+02  0.10566000000E+00 0.  1.
         23    2    1    0    0    0  0.92243307178E+00  0.16138260338E+02 -0.22781268460E+02  0.97156498211E+02  0.93054310070E+02 0.  0.
         13    1    3    3    0    0 -0.20416474287E+02 -0.46697174277E+01 -0.51605524084E+02  0.55693625876E+02  0.10566000000E+00 0. -1.
         22    1    1    0    0    0 -0.92243307178E+00 -0.16138260338E+02  0.22781268460E+02  0.27933501789E+02  0.00000000000E+00 0. -1.
</event>
<event>
 5    1  0.1258677E-009  0.9118800E+02  0.7561462E-02  0.1125453E+00
         25   -1    0    0    0    0  0.00000000000E+00  0.00000000000E+00  0.99999998245E-14  0.12509000000E+03  0.12509000000E+03 0.  0.
        -13    1    3    3    0    0 -0.13530511274E+02 -0.25852178331E+02  0.39563129388E+02  0.49159558895E+02  0.10566000000E+00 0.  1.
         23    2    1    0    0    0 -0.25826997784E+02  0.78929850357E+01  0.26149103262E+02  0.87498662850E+02  0.79012071051E+02 0.  0.
         13    1    3    3    0    0 -0.12296486510E+02  0.33745163366E+02 -0.13414026126E+02  0.38339103955E+02  0.10566000000E+00 0. -1.
         22    1    1    0    0    0  0.25826997784E+02 -0.78929850357E+01 -0.26149103262E+02  0.37591337150E+02  0.00000000000E+00 0. -1.
</event>
<event>
 5    1  0.1258677E-009  0.9118800E+02  0.7561462E-02  0.1125453E+00
         25   -1    0    0    0    0  0.00000000000E+00  0.00000000000E+00  0.99999998245E-14  0.12509000000E+03  0.12509000000E+03 0.  0.
        -13    1    3    3    0    0  0.50155098201E+02  0.22668313183E+02  0.14175197840E+02  0.56836024632E+02  0.10566000000E+00 0.  1.
         23    2    1    0    0    0  0.11530891112E+02  0.25548392138E+02  0.55747281143E+01  0.96510997494E+02  0.92182499712E+02 0.  0.
         13    1    3    3    0    0 -0.38624207089E+02  0.28800789555E+01 -0.86004697260E+01  0.39674972862E+02  0.10566000000E+00 0. -1.
         22    1    1    0    0    0 -0.11530891112E+02 -0.25548392138E+02 -0.55747281143E+01  0.28579002506E+02  0.00000000000E+00 0.  1.
</event>
<event>
 5    1  0.1258677E-009  0.9118800E+02  0.7561462E-02  0.1125453E+00
         25   -1    0    0    0    0  0.00000000000E+00  0.00000000000E+00  0.99999998245E-14  0.12509000000E+03  0.12509000000E+03 0.  0.
        -13    1    3    3    0    0 -0.36752299042E+02  0.45492594043E+02 -0.12592706854E+02  0.59823866706E+02  0.10566000000E+00 0.  1.
         23    2    1    0    0    0 -0.26269274362E+02  0.12364945456E+02 -0.86571658788E+01  0.94792918083E+02  0.89820844719E+02 0.  0.
         13    1    3    3    0    0  0.10483024680E+02 -0.33127648588E+02  0.39355409756E+01  0.34969051377E+02  0.10566000000E+00 0. -1.
         22    1    1    0    0    0  0.26269274362E+02 -0.12364945456E+02  0.86571658788E+01  0.30297081917E+02  0.00000000000E+00 0.  1.
</event>
<event>
 5    1  0.1258677E-009  0.9118800E+02  0.7561462E-02  0.1125453E+00
         25   -1    0    0    0    0  0.00000000000E+00  0.00000000000E+00  0.99999998245E-14  0.12509000000E+03  0.12509000000E+03 0.  0.
        -13    1    3    3    0    0 -0.28474050429E+02  0.39412784541E+01 -0.20629007313E+02  0.35381807902E+02  0.10566000000E+00 0. -1.
         23    2    1    0    0    0  0.15754099818E+02  0.11605012396E+02  0.20847788950E+02  0.96498073204E+02  0.92164960013E+02 0.  0.
         13    1    3    3    0    0  0.44228150246E+02  0.76637339422E+01  0.41476796263E+02  0.61116265302E+02  0.10566000000E+00 0.  1.
         22    1    1    0    0    0 -0.15754099818E+02 -0.11605012396E+02 -0.20847788950E+02  0.28591926796E+02  0.00000000000E+00 0.  1.
</event>
<event>
 5    1  0.1258677E-009  0.9118800E+02  0.7561462E-02  0.1125453E+00
         25   -1    0    0    0    0  0.00000000000E+00  0.00000000000E+00  0.99999998245E-14  0.12509000000E+03  0.12509000000E+03 0.  0.
        -13    1    3    3    0    0 -0.10315021843E+02 -0.29698979324E+02  0.17750637135E+02  0.36104367204E+02  0.10566000000E+00 0.  1.
         23    2    1    0    0    0 -0.65418118157E+01  0.28300980069E+02  0.69675050982E+01  0.95218828245E+02  0.90412047595E+02 0.  0.
         13    1    3    3    0    0  0.37732100270E+01  0.57999959393E+02 -0.10783132037E+02  0.59114461040E+02  0.10566000000E+00 0. -1.
         22    1    1    0    0    0  0.65418118157E+01 -0.28300980069E+02 -0.69675050982E+01  0.29871171755E+02  0.00000000000E+00 0. -1.
</event>
<event>
 5    1  0.1258677E-009  0.9118800E+02  0.7561462E-02  0.1125453E+00
         25   -1    0    0    0    0  0.00000000000E+00  0.00000000000E+00  0.99999998245E-14  0.12509000000E+03  0.12509000000E+03 0.  0.
        -13    1    3    3    0    0 -0.40791012644E+02  0.21107302017E+02  0.73454797315E+00  0.45934471105E+02  0.10566000000E+00 0.  1.
         23    2    1    0    0    0 -0.17481498350E+02 -0.22145678601E+02  0.83750683080E+01  0.95659138062E+02  0.91019201602E+02 0.  0.
         13    1    3    3    0    0  0.23309514293E+02 -0.43252980618E+02  0.76405203349E+01  0.49724666957E+02  0.10566000000E+00 0. -1.
         22    1    1    0    0    0  0.17481498350E+02  0.22145678601E+02 -0.83750683080E+01  0.29430861938E+02  0.00000000000E+00 0.  1.
</event>
<event>
 5    1  0.1258677E-009  0.9118800E+02  0.7561462E-02  0.1125453E+00
         25   -1    0    0    0    0  0.00000000000E+00  0.00000000000E+00  0.99999998245E-14  0.12509000000E+03  0.12509000000E+03 0.  0.
        -13    1    3    3    0    0 -0.22004696028E+02  0.17106844540E+01  0.35092571923E+02  0.41456397055E+02  0.10566000000E+00 0. -1.
         23    2    1    0    0    0 -0.19803081633E+02  0.76486061022E+01 -0.19409686365E+02  0.96325453380E+02  0.91930374886E+02 0.  0.
         13    1    3    3    0    0  0.22016143953E+01  0.59379216482E+01 -0.54502258288E+02  0.54869056325E+02  0.10566000000E+00 0.  1.
         22    1    1    0    0    0  0.19803081633E+02 -0.76486061022E+01  0.19409686365E+02  0.28764546620E+02  0.00000000000E+00 0.  1.
</event>
<event>
 5    1  0.1258677E-009  0.9118800E+02  0.7561462E-02  0.1125453E+00
         25   -1    0    0    0    0  0.00000000000E+00  0.00000000000E+00  0.99999998245E-14  0.12509000000E+03  0.12509000000E+03 0.  0.
        -13    1    3    3    0    0  0.25498333500E+02 -0.26372482886E+02  0.50510302827E+02  0.62425753664E+02  0.10566000000E+00 0. -1.
         23    2    1    0    0    0  0.10755133019E+02 -0.14690114863E+02  0.22911393957E+02  0.95825613213E+02  0.91247705799E+02 0.  0.
         13    1    3    3    0    0 -0.14743200480E+02  0.11682368024E+02 -0.27598908870E+02  0.33399859549E+02  0.10566000000E+00 0.  1.
         22    1    1    0    0    0 -0.10755133019E+02  0.14690114863E+02 -0.22911393957E+02  0.29264386787E+02  0.00000000000E+00 0. -1.
</event>
<event>
 5    1  0.1258677E-009  0.9118800E+02  0.7561462E-02  0.1125453E+00
         25   -1    0    0    0    0  0.00000000000E+00  0.00000000000E+00  0.99999998245E-14  0.12509000000E+03  0.12509000000E+03 0.  0.
        -13    1    3    3    0    0 -0.20162663701E+02  0.36298149111E+02 -0.18999731567E+02  0.45662781344E+02  0.10566000000E+00 0.  1.
         23    2    1    0    0    0 -0.13824128792E+02 -0.13630425743E+02 -0.21585375055E+02  0.96058578074E+02  0.91566516601E+02 0.  0.
         13    1    3    3    0    0  0.63385349093E+01 -0.49928574854E+02 -0.25856434878E+01  0.50395796730E+02  0.10566000000E+00 0. -1.
         22    1    1    0    0    0  0.13824128792E+02  0.13630425743E+02  0.21585375055E+02  0.29031421926E+02  0.00000000000E+00 0. -1.
</event>
<event>
 5    1  0.1258677E-009  0.9118800E+02  0.7561462E-02  0.1125453E+00
         25   -1    0    0    0    0  0.00000000000E+00  0.00000000000E+00  0.99999998245E-14  0.12509000000E+03  0.12509000000E+03 0.  0.
        -13    1    3    3    0    0  0.24568784982E+02  0.13838257125E+01  0.28947720891E+02  0.37993708399E+02  0.10566000000E+00 0.  1.
         23    2    1    0    0    0 -0.17109566235E+02  0.22425762754E+02 -0.59231430056E+01  0.96267513728E+02  0.91851502353E+02 0.  0.
         13    1    3    3    0    0 -0.41678351217E+02  0.21041937041E+02 -0.34870863896E+02  0.58273805329E+02  0.10566000000E+00 0. -1.
         22    1    1    0    0    0  0.17109566235E+02 -0.22425762754E+02  0.59231430056E+01  0.28822486272E+02  0.00000000000E+00 0. -1.
</event>
<event>
 5    1  0.1258677E-009  0.9118800E+02  0.7561462E-02  0.1125453E+00
         25   -1    0    0    0    0  0.00000000000E+00  0.00000000000E+00  0.99999998245E-14  0.12509000000E+03  0.12509000000E+03 0.  0.
        -13    1    3    3    0    0  0.11648449170E+02  0.24591076819E+02 -0.20690368604E+02  0.34183474724E+02  0.10566000000E+00 0.  1.
         23    2    1    0    0    0 -0.18759990967E+02 -0.10309694221E+02  0.19984666170E+02  0.95804953680E+02  0.91219379584E+02 0.  0.
         13    1    3    3    0    0 -0.30408440138E+02 -0.34900771040E+02  0.40675034774E+02  0.61621478956E+02  0.10566000000E+00 0. -1.
         22    1    1    0    0    0  0.18759990967E+02  0.10309694221E+02 -0.19984666170E+02  0.29285046320E+02  0.00000000000E+00 0. -1.
</event>
<event>
 5    1  0.1258677E-009  0.9118800E+02  0.7561462E-02  0.1125453E+00
         25   -1    0    0    0    0  0.00000000000E+00  0.00000000000E+00  0.99999998245E-14  0.12509000000E+03  0.12509000000E+03 0.  0.
        -13    1    3    3    0    0  0.53592477281E+02  0.18052992393E+02 -0.16968036266E+02  0.59042269386E+02  0.10566000000E+00 0. -1.
         23    2    1    0    0    0  0.12783818152E+02  0.15542579497E+02 -0.15026711912E+02  0.99974270768E+02  0.96768047210E+02 0.  0.
         13    1    3    3    0    0 -0.40808659130E+02 -0.25104128956E+01  0.19413243544E+01  0.40932001382E+02  0.10566000000E+00 0.  1.
         22    1    1    0    0    0 -0.12783818152E+02 -0.15542579497E+02  0.15026711912E+02  0.25115729232E+02  0.00000000000E+00 0. -1.
</event>
<event>
 5    1  0.1258677E-009  0.9118800E+02  0.7561462E-02  0.1125453E+00
         25   -1    0    0    0    0  0.00000000000E+00  0.00000000000E+00  0.99999998245E-14  0.12509000000E+03  0.12509000000E+03 0.  0.
        -13    1    3    3    0    0  0.23655007004E+02  0.22075963546E+02  0.18874189253E+02  0.37458693341E+02  0.10566000000E+00 0.  1.
         23    2    1    0    0    0  0.17689211567E+02 -0.21120754245E+02 -0.15942580568E+02  0.93259820282E+02  0.87659761226E+02 0.  0.
         13    1    3    3    0    0 -0.59657954374E+01 -0.43196717790E+02 -0.34816769821E+02  0.55801126941E+02  0.10566000000E+00 0. -1.
         22    1    1    0    0    0 -0.17689211567E+02  0.21120754245E+02  0.15942580568E+02  0.31830179718E+02  0.00000000000E+00 0.  1.
</event>
<event>
 5    1  0.1258677E-009  0.9118800E+02  0.7561462E-02  0.1125453E+00
         25   -1    0    0    0    0  0.00000000000E+00  0.00000000000E+00  0.99999998245E-14  0.12509000000E+03  0.12509000000E+03 0.  0.
        -13    1    3    3    0    0  0.46759428821E+02  0.35446887516E+02  0.14294739290E+02  0.60392687915E+02  0.10566000000E+00 0.  1.
         23    2    1    0    0    0  0.16701067127E+02  0.19445727388E+02  0.16646209865E+02  0.94525997322E+02  0.89448342132E+02 0.  0.
         13    1    3    3    0    0 -0.30058361694E+02 -0.16001160128E+02  0.23514705749E+01  0.34133309407E+02  0.10566000000E+00 0. -1.
         22    1    1    0    0    0 -0.16701067127E+02 -0.19445727388E+02 -0.16646209865E+02  0.30564002678E+02  0.00000000000E+00 0.  1.
</event>
<event>
 5    1  0.1258677E-009  0.9118800E+02  0.7561462E-02  0.1125453E+00
         25   -1    0    0    0    0  0.00000000000E+00  0.00000000000E+00  0.99999998245E-14  0.12509000000E+03  0.12509000000E+03 0.  0.
        -13    1    3    3    0    0 -0.21538742483E+02 -0.45467293194E+01  0.32548685223E+02  0.39293997621E+02  0.10566000000E+00 0.  1.
         23    2    1    0    0    0 -0.13717069697E+02 -0.60587204487E+00 -0.24496606244E+02  0.97007820607E+02  0.92854232319E+02 0.  0.
         13    1    3    3    0    0  0.78216727859E+01  0.39408572745E+01 -0.57045291466E+02  0.57713822987E+02  0.10566000000E+00 0. -1.
         22    1    1    0    0    0  0.13717069697E+02  0.60587204487E+00  0.24496606244E+02  0.28082179393E+02  0.00000000000E+00 0. -1.
</event>
<event>
 5    1  0.1258677E-009  0.9118800E+02  0.7561462E-02  0.1125453E+00
         25   -1    0    0    0    0  0.00000000000E+00  0.00000000000E+00  0.99999998245E-14  0.12509000000E+03  0.12509000000E+03 0.  0.
        -13    1    3    3    0    0 -0.28945909634E+01 -0.23713569077E+02 -0.19727994666E+02  0.30982526572E+02  0.10566000000E+00 0.  1.
         23    2    1    0    0    0  0.27549895038E+02  0.79570013349E+01  0.19932128728E+02  0.90167223156E+02  0.83129584320E+02 0.  0.
         13    1    3    3    0    0  0.30444486001E+02  0.31670570412E+02  0.39660123394E+02  0.59184696584E+02  0.10566000000E+00 0. -1.
         22    1    1    0    0    0 -0.27549895038E+02 -0.79570013349E+01 -0.19932128728E+02  0.34922776844E+02  0.00000000000E+00 0. -1.
</event>
<event>
 5    1  0.1258677E-009  0.9118800E+02  0.7561462E-02  0.1125453E+00
         25   -1    0    0    0    0  0.00000000000E+00  0.00000000000E+00  0.99999998245E-14  0.12509000000E+03  0.12509000000E+03 0.  0.
        -13    1    3    3    0    0 -0.41338704204E+02  0.61971529202E+01  0.18088813806E+02  0.45546783844E+02  0.10566000000E+00 0. -1.
         23    2    1    0    0    0  0.14638894525E+01 -0.21306192231E+02  0.19106296536E+02  0.96434330979E+02  0.92078405852E+02 0.  0.
         13    1    3    3    0    0  0.42802593657E+02 -0.27503345151E+02  0.10174827308E+01  0.50887547135E+02  0.10566000000E+00 0.  1.
         22    1    1    0    0    0 -0.14638894525E+01  0.21306192231E+02 -0.19106296536E+02  0.28655669021E+02  0.00000000000E+00 0.  1.
</event>
<event>
 5    1  0.1258677E-009  0.9118800E+02  0.7561462E-02  0.1125453E+00
         25   -1    0    0    0    0  0.00000000000E+00  0.00000000000E+00  0.99999998245E-14  0.12509000000E+03  0.12509000000E+03 0.  0.
        -13    1    3    3    0    0 -0.35598072951E+02  0.73201416253E+01  0.50503043388E+02  0.62220381120E+02  0.10566000000E+00 0. -1.
         23    2    1    0    0    0 -0.17250594097E+02 -0.90653282330E+00  0.25141472109E+02  0.94585927842E+02  0.89532113387E+02 0.  0.
         13    1    3    3    0    0  0.18347478854E+02 -0.82266744486E+01 -0.25361571280E+02  0.32365546722E+02  0.10566000000E+00 0.  1.
         22    1    1    0    0    0  0.17250594097E+02  0.90653282330E+00 -0.25141472109E+02  0.30504072158E+02  0.00000000000E+00 0. -1.
</event>
<event>
 5    1  0.1258677E-009  0.9118800E+02  0.7561462E-02  0.1125453E+00
         25   -1    0    0    0    0  0.00000000000E+00  0.00000000000E+00  0.99999998245E-14  0.12509000000E+03  0.12509000000E+03 0.  0.
        -13    1    3    3    0    0  0.17025170840E+01  0.40485465074E+02 -0.18148407178E+02  0.44399856912E+02  0.10566000000E+00 0.  1.
         23    2    1    0    0    0 -0.25174056395E+02 -0.47752334312E+00 -0.19234749155E+02  0.93405039546E+02  0.87866743957E+02 0.  0.
         13    1    3    3    0    0 -0.26876573479E+02 -0.40962988417E+02 -0.10863419770E+01  0.49005182634E+02  0.10566000000E+00 0. -1.
         22    1    1    0    0    0  0.25174056395E+02  0.47752334312E+00  0.19234749155E+02  0.31684960454E+02  0.00000000000E+00 0. -1.
</event>
<event>
 5    1  0.1258677E-009  0.9118800E+02  0.7561462E-02  0.1125453E+00
         25   -1    0    0    0    0  0.00000000000E+00  0.00000000000E+00  0.99999998245E-14  0.12509000000E+03  0.12509000000E+03 0.  0.
        -13    1    3    3    0    0  0.34758357401E+00 -0.46093534597E+02  0.28626645676E+02  0.54260766237E+02  0.10566000000E+00 0.  1.
         23    2    1    0    0    0 -0.76745536977E+01 -0.28755854942E+02 -0.68458536018E+01  0.94550457118E+02  0.89482541660E+02 0.  0.
         13    1    3    3    0    0 -0.80221372717E+01  0.17337679656E+02 -0.35472499278E+02  0.40289690881E+02  0.10566000000E+00 0. -1.
         22    1    1    0    0    0  0.76745536977E+01  0.28755854942E+02  0.68458536018E+01  0.30539542882E+02  0.00000000000E+00 0.  1.
</event>
<event>
 5    1  0.1258677E-009  0.9118800E+02  0.7561462E-02  0.1125453E+00
         25   -1    0    0    0    0  0.00000000000E+00  0.00000000000E+00  0.99999998245E-14  0.12509000000E+03  0.12509000000E+03 0.  0.
        -13    1    3    3    0    0 -0.19900180880E+01 -0.24501187263E+02  0.18745108005E+02  0.30913728139E+02  0.10566000000E+00 0.  1.
         23    2    1    0    0    0  0.79871329767E+01 -0.28706395493E+02 -0.31157816809E+02  0.81977809337E+02  0.69725893612E+02 0.  0.
         13    1    3    3    0    0  0.99771510646E+01 -0.42052082306E+01 -0.49902924814E+02  0.51064081199E+02  0.10566000000E+00 0. -1.
         22    1    1    0    0    0 -0.79871329767E+01  0.28706395493E+02  0.31157816809E+02  0.43112190663E+02  0.00000000000E+00 0. -1.
</event>
<event>
 5    1  0.1258677E-009  0.9118800E+02  0.7561462E-02  0.1125453E+00
         25   -1    0    0    0    0  0.00000000000E+00  0.00000000000E+00  0.99999998245E-14  0.12509000000E+03  0.12509000000E+03 0.  0.
        -13    1    3    3    0    0  0.20908814168E+02  0.15179486278E+02 -0.56207777056E+02  0.61862110206E+02  0.10566000000E+00 0.  1.
         23    2    1    0    0    0  0.47182169583E+01  0.40080268445E+01 -0.29002948160E+02  0.95433687815E+02  0.90708830428E+02 0.  0.
         13    1    3    3    0    0 -0.16190597210E+02 -0.11171459433E+02  0.27204828896E+02  0.33571577609E+02  0.10566000000E+00 0. -1.
         22    1    1    0    0    0 -0.47182169583E+01 -0.40080268445E+01  0.29002948160E+02  0.29656312185E+02  0.00000000000E+00 0.  1.
</event>
<event>
 5    1  0.1258677E-009  0.9118800E+02  0.7561462E-02  0.1125453E+00
         25   -1    0    0    0    0  0.00000000000E+00  0.00000000000E+00  0.99999998245E-14  0.12509000000E+03  0.12509000000E+03 0.  0.
        -13    1    3    3    0    0 -0.31654594473E+02  0.16649961893E+02 -0.49931077894E+02  0.61419526911E+02  0.10566000000E+00 0. -1.
         23    2    1    0    0    0 -0.11610677992E+02  0.12249291516E+01 -0.27455652280E+02  0.95255102028E+02  0.90462220431E+02 0.  0.
         13    1    3    3    0    0  0.20043916481E+02 -0.15425032742E+02  0.22475425613E+02  0.33835575117E+02  0.10566000000E+00 0.  1.
         22    1    1    0    0    0  0.11610677992E+02 -0.12249291516E+01  0.27455652280E+02  0.29834897972E+02  0.00000000000E+00 0. -1.
</event>
<event>
 5    1  0.1258677E-009  0.9118800E+02  0.7561462E-02  0.1125453E+00
         25   -1    0    0    0    0  0.00000000000E+00  0.00000000000E+00  0.99999998245E-14  0.12509000000E+03  0.12509000000E+03 0.  0.
        -13    1    3    3    0    0  0.29873523259E+02 -0.30860169169E+01 -0.39767804722E+02  0.49834128353E+02  0.10566000000E+00 0. -1.
         23    2    1    0    0    0 -0.14328915649E+01 -0.23878486807E+02 -0.25743781349E+02  0.89947752084E+02  0.82798674606E+02 0.  0.
         13    1    3    3    0    0 -0.31306414824E+02 -0.20792469890E+02  0.14024023373E+02  0.40113623731E+02  0.10566000000E+00 0.  1.
         22    1    1    0    0    0  0.14328915649E+01  0.23878486807E+02  0.25743781349E+02  0.35142247916E+02  0.00000000000E+00 0. -1.
</event>
<event>
 5    1  0.1258677E-009  0.9118800E+02  0.7561462E-02  0.1125453E+00
         25   -1    0    0    0    0  0.00000000000E+00  0.00000000000E+00  0.99999998245E-14  0.12509000000E+03  0.12509000000E+03 0.  0.
        -13    1    3    3    0    0 -0.21637845134E+02 -0.36743777223E+02 -0.45041884471E+02  0.62024866202E+02  0.10566000000E+00 0. -1.
         23    2    1    0    0    0 -0.47875472447E+01 -0.19272521275E+02 -0.19612423833E+02  0.97179466979E+02  0.93085181145E+02 0.  0.
         13    1    3    3    0    0  0.16850297889E+02  0.17471255948E+02  0.25429460638E+02  0.35154600776E+02  0.10566000000E+00 0.  1.
         22    1    1    0    0    0  0.47875472447E+01  0.19272521275E+02  0.19612423833E+02  0.27910533021E+02  0.00000000000E+00 0. -1.
</event>
<event>
 5    1  0.1258677E-009  0.9118800E+02  0.7561462E-02  0.1125453E+00
         25   -1    0    0    0    0  0.00000000000E+00  0.00000000000E+00  0.99999998245E-14  0.12509000000E+03  0.12509000000E+03 0.  0.
        -13    1    3    3    0    0  0.95765642463E+00  0.38093841273E+02 -0.11325759058E+02  0.39753513443E+02  0.10566000000E+00 0.  1.
         23    2    1    0    0    0  0.22569573791E+02 -0.13949871590E+02 -0.11662469523E+02  0.96107284912E+02  0.91633031377E+02 0.  0.
         13    1    3    3    0    0  0.21611917367E+02 -0.52043712863E+02 -0.33671046445E+00  0.56353771469E+02  0.10566000000E+00 0. -1.
         22    1    1    0    0    0 -0.22569573791E+02  0.13949871590E+02  0.11662469523E+02  0.28982715088E+02  0.00000000000E+00 0. -1.
</event>
<event>
 5    1  0.1258677E-009  0.9118800E+02  0.7561462E-02  0.1125453E+00
         25   -1    0    0    0    0  0.00000000000E+00  0.00000000000E+00  0.99999998245E-14  0.12509000000E+03  0.12509000000E+03 0.  0.
        -13    1    3    3    0    0  0.57834807640E+02 -0.78013217070E+01 -0.99257097894E+01  0.59196760671E+02  0.10566000000E+00 0.  1.
         23    2    1    0    0    0  0.15612999123E+02 -0.10113592011E+02 -0.14185521271E+02  0.10169599438E+03  0.98968660571E+02 0.  0.
         13    1    3    3    0    0 -0.42221808516E+02 -0.23122703044E+01 -0.42598114815E+01  0.42499233714E+02  0.10566000000E+00 0. -1.
         22    1    1    0    0    0 -0.15612999123E+02  0.10113592011E+02  0.14185521271E+02  0.23394005615E+02  0.00000000000E+00 0.  1.
</event>
<event>
 5    1  0.1258677E-009  0.9118800E+02  0.7561462E-02  0.1125453E+00
         25   -1    0    0    0    0  0.00000000000E+00  0.00000000000E+00  0.99999998245E-14  0.12509000000E+03  0.12509000000E+03 0.  0.
        -13    1    3    3    0    0  0.62845050033E+01  0.33456972103E+02  0.14106322431E+02  0.36849199204E+02  0.10566000000E+00 0.  1.
         23    2    1    0    0    0 -0.25346011354E+02 -0.14296689076E+02  0.10171588178E+02  0.94263439761E+02  0.89080408954E+02 0.  0.
         13    1    3    3    0    0 -0.31630516357E+02 -0.47753661179E+02 -0.39347342525E+01  0.57414240557E+02  0.10566000000E+00 0. -1.
         22    1    1    0    0    0  0.25346011354E+02  0.14296689076E+02 -0.10171588178E+02  0.30826560239E+02  0.00000000000E+00 0. -1.
</event>
<event>
 5    1  0.1258677E-009  0.9118800E+02  0.7561462E-02  0.1125453E+00
         25   -1    0    0    0    0  0.00000000000E+00  0.00000000000E+00  0.99999998245E-14  0.12509000000E+03  0.12509000000E+03 0.  0.
        -13    1    3    3    0    0  0.22426137348E+02  0.19977456055E+02 -0.29192119395E+02  0.41883426144E+02  0.10566000000E+00 0. -1.
         23    2    1    0    0    0  0.38288716096E+02 -0.12018146830E+02 -0.58798325375E+01  0.84530980483E+02  0.74165036218E+02 0.  0.
         13    1    3    3    0    0  0.15862578748E+02 -0.31995602885E+02  0.23312286857E+02  0.42647554339E+02  0.10566000000E+00 0.  1.
         22    1    1    0    0    0 -0.38288716096E+02  0.12018146830E+02  0.58798325375E+01  0.40559019517E+02  0.00000000000E+00 0.  1.
</event>
<event>
 5    1  0.1258677E-009  0.9118800E+02  0.7561462E-02  0.1125453E+00
         25   -1    0    0    0    0  0.00000000000E+00  0.00000000000E+00  0.99999998245E-14  0.12509000000E+03  0.12509000000E+03 0.  0.
        -13    1    3    3    0    0 -0.98436989080E+00 -0.42597231103E+02  0.89696575995E+01  0.43542611350E+02  0.10566000000E+00 0.  1.
         23    2    1    0    0    0 -0.53642914529E+01 -0.65741932136E+01 -0.28290839258E+02  0.95554136628E+02  0.90874780889E+02 0.  0.
         13    1    3    3    0    0 -0.43799215621E+01  0.36023037889E+02 -0.37260496858E+02  0.52011525278E+02  0.10566000000E+00 0. -1.
         22    1    1    0    0    0  0.53642914529E+01  0.65741932136E+01  0.28290839258E+02  0.29535863372E+02  0.00000000000E+00 0. -1.
</event>
<event>
 5    1  0.1258677E-009  0.9118800E+02  0.7561462E-02  0.1125453E+00
         25   -1    0    0    0    0  0.00000000000E+00  0.00000000000E+00  0.99999998245E-14  0.12509000000E+03  0.12509000000E+03 0.  0.
        -13    1    3    3    0    0  0.96970549080E+01  0.15910955428E+02 -0.42237775577E+02  0.46165270781E+02  0.10566000000E+00 0. -1.
         23    2    1    0    0    0  0.23240500879E+02 -0.17593791742E+02 -0.10996496164E+02  0.93935781717E+02  0.88619104994E+02 0.  0.
         13    1    3    3    0    0  0.13543445971E+02 -0.33504747169E+02  0.31241279413E+02  0.47770510936E+02  0.10566000000E+00 0.  1.
         22    1    1    0    0    0 -0.23240500879E+02  0.17593791742E+02  0.10996496164E+02  0.31154218283E+02  0.00000000000E+00 0. -1.
</event>
<event>
 5    1  0.1258677E-009  0.9118800E+02  0.7561462E-02  0.1125453E+00
         25   -1    0    0    0    0  0.00000000000E+00  0.00000000000E+00  0.99999998245E-14  0.12509000000E+03  0.12509000000E+03 0.  0.
        -13    1    3    3    0    0 -0.48993824059E+01 -0.11615064396E+02  0.35575969714E+02  0.37743535261E+02  0.10566000000E+00 0. -1.
         23    2    1    0    0    0 -0.36554812686E+00  0.28773562377E+02 -0.57931806145E+01  0.95736764081E+02  0.91125822562E+02 0.  0.
         13    1    3    3    0    0  0.45338342790E+01  0.40388626773E+02 -0.41369150329E+02  0.57993228819E+02  0.10566000000E+00 0.  1.
         22    1    1    0    0    0  0.36554812686E+00 -0.28773562377E+02  0.57931806145E+01  0.29353235919E+02  0.00000000000E+00 0.  1.
</event>
<event>
 5    1  0.1258677E-009  0.9118800E+02  0.7561462E-02  0.1125453E+00
         25   -1    0    0    0    0  0.00000000000E+00  0.00000000000E+00  0.99999998245E-14  0.12509000000E+03  0.12509000000E+03 0.  0.
        -13    1    3    3    0    0 -0.45519205398E+01  0.43608081266E+02  0.40628586002E+02  0.59775228120E+02  0.10566000000E+00 0. -1.
         23    2    1    0    0    0 -0.58366710525E+00  0.98058299306E+01  0.26861378186E+02  0.96488800620E+02  0.92152374029E+02 0.  0.
         13    1    3    3    0    0  0.39682534346E+01 -0.33802251335E+02 -0.13767207816E+02  0.36713572500E+02  0.10566000000E+00 0.  1.
         22    1    1    0    0    0  0.58366710525E+00 -0.98058299306E+01 -0.26861378186E+02  0.28601199380E+02  0.00000000000E+00 0. -1.
</event>
<event>
 5    1  0.1258677E-009  0.9118800E+02  0.7561462E-02  0.1125453E+00
         25   -1    0    0    0    0  0.00000000000E+00  0.00000000000E+00  0.99999998245E-14  0.12509000000E+03  0.12509000000E+03 0.  0.
        -13    1    3    3    0    0 -0.82808435032E+01  0.23938228251E+02  0.46671075256E+02  0.53101897994E+02  0.10566000000E+00 0. -1.
         23    2    1    0    0    0 -0.18242086256E+02 -0.88756588028E+01  0.20583737856E+02  0.96189458582E+02  0.91745139643E+02 0.  0.
         13    1    3    3    0    0 -0.99612427524E+01 -0.32813887054E+02 -0.26087337401E+02  0.43087560588E+02  0.10566000000E+00 0.  1.
         22    1    1    0    0    0  0.18242086256E+02  0.88756588028E+01 -0.20583737856E+02  0.28900541418E+02  0.00000000000E+00 0. -1.
</event>
<event>
 5    1  0.1258677E-009  0.9118800E+02  0.7561462E-02  0.1125453E+00
         25   -1    0    0    0    0  0.00000000000E+00  0.00000000000E+00  0.99999998245E-14  0.12509000000E+03  0.12509000000E+03 0.  0.
        -13    1    3    3    0    0 -0.11356306997E+02  0.37901919617E+02  0.79880755878E+01  0.40365105411E+02  0.10566000000E+00 0. -1.
         23    2    1    0    0    0 -0.21301545553E+02 -0.17708259386E+02  0.50385238745E+01  0.96934627222E+02  0.92755576320E+02 0.  0.
         13    1    3    3    0    0 -0.99452385560E+01 -0.55610179002E+02 -0.29495517133E+01  0.56569521811E+02  0.10566000000E+00 0.  1.
         22    1    1    0    0    0  0.21301545553E+02  0.17708259386E+02 -0.50385238745E+01  0.28155372778E+02  0.00000000000E+00 0.  1.
</event>
<event>
 5    1  0.1258677E-009  0.9118800E+02  0.7561462E-02  0.1125453E+00
         25   -1    0    0    0    0  0.00000000000E+00  0.00000000000E+00  0.99999998245E-14  0.12509000000E+03  0.12509000000E+03 0.  0.
        -13    1    3    3    0    0 -0.93068534471E+01  0.46662924780E+02  0.35272905164E+02  0.59230356009E+02  0.10566000000E+00 0. -1.
         23    2    1    0    0    0  0.31497304643E+01  0.14076843349E+02  0.26046675082E+02  0.95315722452E+02  0.90546006775E+02 0.  0.
         13    1    3    3    0    0  0.12456583911E+02 -0.32586081431E+02 -0.92262300819E+01  0.36085366443E+02  0.10566000000E+00 0.  1.
         22    1    1    0    0    0 -0.31497304643E+01 -0.14076843349E+02 -0.26046675082E+02  0.29774277548E+02  0.00000000000E+00 0. -1.
</event>
<event>
 5    1  0.1258677E-009  0.9118800E+02  0.7561462E-02  0.1125453E+00
         25   -1    0    0    0    0  0.00000000000E+00  0.00000000000E+00  0.99999998245E-14  0.12509000000E+03  0.12509000000E+03 0.  0.
        -13    1    3    3    0    0  0.29122185033E+01 -0.27743924374E+02 -0.18042537169E+02  0.33222743232E+02  0.10566000000E+00 0.  1.
         23    2    1    0    0    0 -0.89219698382E+01  0.14816025987E+02  0.24862303361E+02  0.94803859602E+02  0.89836081254E+02 0.  0.
         13    1    3    3    0    0 -0.11834188341E+02  0.42559950361E+02  0.42904840530E+02  0.61581116370E+02  0.10566000000E+00 0. -1.
         22    1    1    0    0    0  0.89219698382E+01 -0.14816025987E+02 -0.24862303361E+02  0.30286140398E+02  0.00000000000E+00 0. -1.
</event>
<event>
 5    1  0.1258677E-009  0.9118800E+02  0.7561462E-02  0.1125453E+00
         25   -1    0    0    0    0  0.00000000000E+00  0.00000000000E+00  0.99999998245E-14  0.12509000000E+03  0.12509000000E+03 0.  0.
        -13    1    3    3    0    0  0.38008725292E+02 -0.36023002371E+02  0.39049683276E+01  0.52512663614E+02  0.10566000000E+00 0. -1.
         23    2    1    0    0    0  0.71075528540E+01 -0.11709050101E+02  0.24590581843E+02  0.96941893897E+02  0.92765375627E+02 0.  0.
         13    1    3    3    0    0 -0.30901172438E+02  0.24313952270E+02  0.20685613515E+02  0.44429230283E+02  0.10566000000E+00 0.  1.
         22    1    1    0    0    0 -0.71075528540E+01  0.11709050101E+02 -0.24590581843E+02  0.28148106103E+02  0.00000000000E+00 0. -1.
</event>
<event>
 5    1  0.1258677E-009  0.9118800E+02  0.7561462E-02  0.1125453E+00
         25   -1    0    0    0    0  0.00000000000E+00  0.00000000000E+00  0.99999998245E-14  0.12509000000E+03  0.12509000000E+03 0.  0.
        -13    1    3    3    0    0  0.16543759122E+02  0.34302381393E+02 -0.11399030323E+02  0.39752967077E+02  0.10566000000E+00 0.  1.
         23    2    1    0    0    0 -0.49600324446E+00 -0.17244416782E+02 -0.24044816505E+02  0.95496603268E+02  0.90795551134E+02 0.  0.
         13    1    3    3    0    0 -0.17039762366E+02 -0.51546798175E+02 -0.12645786181E+02  0.55743636191E+02  0.10566000000E+00 0. -1.
         22    1    1    0    0    0  0.49600324446E+00  0.17244416782E+02  0.24044816505E+02  0.29593396732E+02  0.00000000000E+00 0. -1.
</event>
<event>
 5    1  0.1258677E-009  0.9118800E+02  0.7561462E-02  0.1125453E+00
         25   -1    0    0    0    0  0.00000000000E+00  0.00000000000E+00  0.99999998245E-14  0.12509000000E+03  0.12509000000E+03 0.  0.
        -13    1    3    3    0    0  0.55291962525E+02  0.11190416318E+02  0.24820941021E+01  0.56467676528E+02  0.10566000000E+00 0.  1.
         23    2    1    0    0    0  0.16027035596E+02  0.20081669662E+02 -0.82002422130E+01  0.98119955529E+02  0.94340565900E+02 0.  0.
         13    1    3    3    0    0 -0.39264926930E+02  0.88912533445E+01 -0.10682336315E+02  0.41652279001E+02  0.10566000000E+00 0. -1.
         22    1    1    0    0    0 -0.16027035596E+02 -0.20081669662E+02  0.82002422130E+01  0.26970044471E+02  0.00000000000E+00 0.  1.
</event>
<event>
 5    1  0.1258677E-009  0.9118800E+02  0.7561462E-02  0.1125453E+00
         25   -1    0    0    0    0  0.00000000000E+00  0.00000000000E+00  0.99999998245E-14  0.12509000000E+03  0.12509000000E+03 0.  0.
        -13    1    3    3    0    0 -0.81466715466E+01  0.25366607368E+02  0.36072011713E+02  0.44844556188E+02  0.10566000000E+00 0.  1.
         23    2    1    0    0    0  0.10389217354E+02 -0.18864266469E+02  0.20733458643E+02  0.95195641101E+02  0.90379961224E+02 0.  0.
         13    1    3    3    0    0  0.18535888900E+02 -0.44230873837E+02 -0.15338553069E+02  0.50351084914E+02  0.10566000000E+00 0. -1.
         22    1    1    0    0    0 -0.10389217354E+02  0.18864266469E+02 -0.20733458643E+02  0.29894358899E+02  0.00000000000E+00 0. -1.
</event>
<event>
 5    1  0.1258677E-009  0.9118800E+02  0.7561462E-02  0.1125453E+00
         25   -1    0    0    0    0  0.00000000000E+00  0.00000000000E+00  0.99999998245E-14  0.12509000000E+03  0.12509000000E+03 0.  0.
        -13    1    3    3    0    0 -0.37489361827E+02 -0.11641292374E+02  0.16801647818E+00  0.39255717188E+02  0.10566000000E+00 0.  1.
         23    2    1    0    0    0  0.29574210954E+01  0.21082213323E+02 -0.20779473716E+02  0.95341175048E+02  0.90581162906E+02 0.  0.
         13    1    3    3    0    0  0.40446782923E+02  0.32723505697E+02 -0.20947490194E+02  0.56085457860E+02  0.10566000000E+00 0. -1.
         22    1    1    0    0    0 -0.29574210954E+01 -0.21082213323E+02  0.20779473716E+02  0.29748824952E+02  0.00000000000E+00 0. -1.
</event>
<event>
 5    1  0.1258677E-009  0.9118800E+02  0.7561462E-02  0.1125453E+00
         25   -1    0    0    0    0  0.00000000000E+00  0.00000000000E+00  0.99999998245E-14  0.12509000000E+03  0.12509000000E+03 0.  0.
        -13    1    3    3    0    0 -0.30388209478E+02 -0.52846262043E+02  0.10247182613E+02  0.61815747207E+02  0.10566000000E+00 0. -1.
         23    2    1    0    0    0 -0.19783057495E+02 -0.21010139792E+02  0.38531357327E+01  0.95975708099E+02  0.91453236970E+02 0.  0.
         13    1    3    3    0    0  0.10605151984E+02  0.31836122251E+02 -0.63940468806E+01  0.34159960892E+02  0.10566000000E+00 0.  1.
         22    1    1    0    0    0  0.19783057495E+02  0.21010139792E+02 -0.38531357327E+01  0.29114291901E+02  0.00000000000E+00 0. -1.
</event>
<event>
 5    1  0.1258677E-009  0.9118800E+02  0.7561462E-02  0.1125453E+00
         25   -1    0    0    0    0  0.00000000000E+00  0.00000000000E+00  0.99999998245E-14  0.12509000000E+03  0.12509000000E+03 0.  0.
        -13    1    3    3    0    0 -0.15935031464E+02 -0.26010592013E+02  0.20931621300E+02  0.36994865304E+02  0.10566000000E+00 0.  1.
         23    2    1    0    0    0  0.14223134589E+02  0.23281584807E+02  0.22983579542E+01  0.97710953305E+02  0.93796685431E+02 0.  0.
         13    1    3    3    0    0  0.30158166052E+02  0.49292176819E+02 -0.18633263345E+02  0.60716088001E+02  0.10566000000E+00 0. -1.
         22    1    1    0    0    0 -0.14223134589E+02 -0.23281584807E+02 -0.22983579542E+01  0.27379046695E+02  0.00000000000E+00 0. -1.
</event>
<event>
 5    1  0.1258677E-009  0.9118800E+02  0.7561462E-02  0.1125453E+00
         25   -1    0    0    0    0  0.00000000000E+00  0.00000000000E+00  0.99999998245E-14  0.12509000000E+03  0.12509000000E+03 0.  0.
        -13    1    3    3    0    0 -0.54346164252E+02  0.15708369049E+01  0.34840497420E+01  0.54480481497E+02  0.10566000000E+00 0.  1.
         23    2    1    0    0    0 -0.18307926344E+02  0.36283067479E+01  0.22963653306E+02  0.95498208063E+02  0.90797762050E+02 0.  0.
         13    1    3    3    0    0  0.36038237908E+02  0.20574698430E+01  0.19479603564E+02  0.41017726567E+02  0.10566000000E+00 0. -1.
         22    1    1    0    0    0  0.18307926344E+02 -0.36283067479E+01 -0.22963653306E+02  0.29591791937E+02  0.00000000000E+00 0.  1.
</event>
<event>
 5    1  0.1258677E-009  0.9118800E+02  0.7561462E-02  0.1125453E+00
         25   -1    0    0    0    0  0.00000000000E+00  0.00000000000E+00  0.99999998245E-14  0.12509000000E+03  0.12509000000E+03 0.  0.
        -13    1    3    3    0    0  0.15999053278E+01 -0.14767430231E+02 -0.55635167768E+02  0.57584023386E+02  0.10566000000E+00 0. -1.
         23    2    1    0    0    0  0.16563024647E+02 -0.12107645465E+02 -0.19501228512E+02  0.96784050490E+02  0.92552286043E+02 0.  0.
         13    1    3    3    0    0  0.14963119319E+02  0.26597847663E+01  0.36133939256E+02  0.39200027104E+02  0.10566000000E+00 0.  1.
         22    1    1    0    0    0 -0.16563024647E+02  0.12107645465E+02  0.19501228512E+02  0.28305949510E+02  0.00000000000E+00 0. -1.
</event>
<event>
 5    1  0.1258677E-009  0.9118800E+02  0.7561462E-02  0.1125453E+00
         25   -1    0    0    0    0  0.00000000000E+00  0.00000000000E+00  0.99999998245E-14  0.12509000000E+03  0.12509000000E+03 0.  0.
        -13    1    3    3    0    0  0.25963595548E+02  0.43316873501E+02 -0.25280342390E+02  0.56476248982E+02  0.10566000000E+00 0. -1.
         23    2    1    0    0    0  0.17807801836E+02  0.45480274857E+01 -0.22280289502E+02  0.96207242851E+02  0.91769384418E+02 0.  0.
         13    1    3    3    0    0 -0.81557937123E+01 -0.38768846015E+02  0.30000528884E+01  0.39730993869E+02  0.10566000000E+00 0.  1.
         22    1    1    0    0    0 -0.17807801836E+02 -0.45480274857E+01  0.22280289502E+02  0.28882757149E+02  0.00000000000E+00 0.  1.
</event>
<event>
 5    1  0.1258677E-009  0.9118800E+02  0.7561462E-02  0.1125453E+00
         25   -1    0    0    0    0  0.00000000000E+00  0.00000000000E+00  0.99999998245E-14  0.12509000000E+03  0.12509000000E+03 0.  0.
        -13    1    3    3    0    0 -0.42324072747E+01 -0.40409479240E+02 -0.15749345936E+01  0.40661171488E+02  0.10566000000E+00 0.  1.
         23    2    1    0    0    0  0.15941175350E+02  0.64792430878E+01  0.22225561487E+02  0.96981687245E+02  0.92819019683E+02 0.  0.
         13    1    3    3    0    0  0.20173582625E+02  0.46888722327E+02  0.23800496080E+02  0.56320515757E+02  0.10566000000E+00 0. -1.
         22    1    1    0    0    0 -0.15941175350E+02 -0.64792430878E+01 -0.22225561487E+02  0.28108312755E+02  0.00000000000E+00 0. -1.
</event>
<event>
 5    1  0.1258677E-009  0.9118800E+02  0.7561462E-02  0.1125453E+00
         25   -1    0    0    0    0  0.00000000000E+00  0.00000000000E+00  0.99999998245E-14  0.12509000000E+03  0.12509000000E+03 0.  0.
        -13    1    3    3    0    0  0.22230141098E+02  0.31571764363E+02  0.17867471135E+02  0.42546599946E+02  0.10566000000E+00 0.  1.
         23    2    1    0    0    0 -0.25615805622E+02  0.93841379269E+01  0.10761943896E+02  0.95763374236E+02  0.91162343466E+02 0.  0.
         13    1    3    3    0    0 -0.47845946720E+02 -0.22187626436E+02 -0.71055272386E+01  0.53216774289E+02  0.10566000000E+00 0. -1.
         22    1    1    0    0    0  0.25615805622E+02 -0.93841379269E+01 -0.10761943896E+02  0.29326625764E+02  0.00000000000E+00 0. -1.
</event>
<event>
 5    1  0.1258677E-009  0.9118800E+02  0.7561462E-02  0.1125453E+00
         25   -1    0    0    0    0  0.00000000000E+00  0.00000000000E+00  0.99999998245E-14  0.12509000000E+03  0.12509000000E+03 0.  0.
        -13    1    3    3    0    0 -0.11579196031E+02 -0.60300815105E+01 -0.30696520480E+02  0.33357565819E+02  0.10566000000E+00 0. -1.
         23    2    1    0    0    0  0.10537106562E+02 -0.44990797889E+01  0.27319571447E+02  0.95465157086E+02  0.90752217052E+02 0.  0.
         13    1    3    3    0    0  0.22116302592E+02  0.15310017216E+01  0.58016091926E+02  0.62107591268E+02  0.10566000000E+00 0.  1.
         22    1    1    0    0    0 -0.10537106562E+02  0.44990797889E+01 -0.27319571447E+02  0.29624842914E+02  0.00000000000E+00 0.  1.
</event>
<event>
 5    1  0.1258677E-009  0.9118800E+02  0.7561462E-02  0.1125453E+00
         25   -1    0    0    0    0  0.00000000000E+00  0.00000000000E+00  0.99999998245E-14  0.12509000000E+03  0.12509000000E+03 0.  0.
        -13    1    3    3    0    0  0.25575193380E+02  0.54569258359E+02 -0.84517471015E+01  0.60855054576E+02  0.10566000000E+00 0.  1.
         23    2    1    0    0    0  0.18703104204E+02  0.30802570503E+02  0.44885843219E+01  0.88775376972E+02  0.81008121264E+02 0.  0.
         13    1    3    3    0    0 -0.68720891768E+01 -0.23766687856E+02  0.12940331423E+02  0.27920322396E+02  0.10566000000E+00 0. -1.
         22    1    1    0    0    0 -0.18703104204E+02 -0.30802570503E+02 -0.44885843219E+01  0.36314623028E+02  0.00000000000E+00 0.  1.
</event>
<event>
 5    1  0.1258677E-009  0.9118800E+02  0.7561462E-02  0.1125453E+00
         25   -1    0    0    0    0  0.00000000000E+00  0.00000000000E+00  0.99999998245E-14  0.12509000000E+03  0.12509000000E+03 0.  0.
        -13    1    3    3    0    0 -0.19452760884E+02 -0.38003850674E+02  0.19998490658E+02  0.47145024814E+02  0.10566000000E+00 0.  1.
         23    2    1    0    0    0 -0.28978369127E+02 -0.91159598140E+01 -0.13019919549E+02  0.92039055903E+02  0.85900075122E+02 0.  0.
         13    1    3    3    0    0 -0.95256082434E+01  0.28887890860E+02 -0.33018410208E+02  0.44894031089E+02  0.10566000000E+00 0. -1.
         22    1    1    0    0    0  0.28978369127E+02  0.91159598140E+01  0.13019919549E+02  0.33050944097E+02  0.00000000000E+00 0. -1.
</event>
<event>
 5    1  0.1258677E-009  0.9118800E+02  0.7561462E-02  0.1125453E+00
         25   -1    0    0    0    0  0.00000000000E+00  0.00000000000E+00  0.99999998245E-14  0.12509000000E+03  0.12509000000E+03 0.  0.
        -13    1    3    3    0    0  0.31093894706E+02  0.24162240327E+02 -0.63299679017E+01  0.39883878990E+02  0.10566000000E+00 0. -1.
         23    2    1    0    0    0  0.17269408883E+01 -0.10860143798E+02  0.26659600660E+02  0.96251495262E+02  0.91829684660E+02 0.  0.
         13    1    3    3    0    0 -0.29366953817E+02 -0.35022384125E+02  0.32989568562E+02  0.56367616273E+02  0.10566000000E+00 0.  1.
         22    1    1    0    0    0 -0.17269408883E+01  0.10860143798E+02 -0.26659600660E+02  0.28838504738E+02  0.00000000000E+00 0.  1.
</event>
<event>
 5    1  0.1258677E-009  0.9118800E+02  0.7561462E-02  0.1125453E+00
         25   -1    0    0    0    0  0.00000000000E+00  0.00000000000E+00  0.99999998245E-14  0.12509000000E+03  0.12509000000E+03 0.  0.
        -13    1    3    3    0    0 -0.32072383044E+02 -0.15997953312E+02  0.44632762432E+02  0.57242177724E+02  0.10566000000E+00 0. -1.
         23    2    1    0    0    0 -0.23904510039E+02 -0.17329028983E+02  0.84210470936E+01  0.94387640484E+02  0.89254645797E+02 0.  0.
         13    1    3    3    0    0  0.81678730052E+01 -0.13310756715E+01 -0.36211715338E+02  0.37145462760E+02  0.10566000000E+00 0.  1.
         22    1    1    0    0    0  0.23904510039E+02  0.17329028983E+02 -0.84210470936E+01  0.30702359516E+02  0.00000000000E+00 0.  1.
</event>
<event>
 5    1  0.1258677E-009  0.9118800E+02  0.7561462E-02  0.1125453E+00
         25   -1    0    0    0    0  0.00000000000E+00  0.00000000000E+00  0.99999998245E-14  0.12509000000E+03  0.12509000000E+03 0.  0.
        -13    1    3    3    0    0  0.27033517858E+02  0.41400872152E+02 -0.33185801185E+02  0.59549574869E+02  0.10566000000E+00 0.  1.
         23    2    1    0    0    0  0.20361436631E+02  0.71030095949E+01 -0.13320603158E+02  0.99742824310E+02  0.96468397342E+02 0.  0.
         13    1    3    3    0    0 -0.66720812268E+01 -0.34297862557E+02  0.19865198027E+02  0.40193249441E+02  0.10566000000E+00 0. -1.
         22    1    1    0    0    0 -0.20361436631E+02 -0.71030095949E+01  0.13320603158E+02  0.25347175690E+02  0.00000000000E+00 0.  1.
</event>
<event>
 5    1  0.1258677E-009  0.9118800E+02  0.7561462E-02  0.1125453E+00
         25   -1    0    0    0    0  0.00000000000E+00  0.00000000000E+00  0.99999998245E-14  0.12509000000E+03  0.12509000000E+03 0.  0.
        -13    1    3    3    0    0  0.43965059897E+02  0.37133319707E+02 -0.20870152904E+02  0.61215883319E+02  0.10566000000E+00 0. -1.
         23    2    1    0    0    0  0.25129470096E+02  0.16477544584E+02 -0.19386975452E+01  0.94977572482E+02  0.90077638643E+02 0.  0.
         13    1    3    3    0    0 -0.18835589801E+02 -0.20655775123E+02  0.18931455359E+02  0.33761689163E+02  0.10566000000E+00 0.  1.
         22    1    1    0    0    0 -0.25129470096E+02 -0.16477544584E+02  0.19386975452E+01  0.30112427518E+02  0.00000000000E+00 0. -1.
</event>
<event>
 5    1  0.1258677E-009  0.9118800E+02  0.7561462E-02  0.1125453E+00
         25   -1    0    0    0    0  0.00000000000E+00  0.00000000000E+00  0.99999998245E-14  0.12509000000E+03  0.12509000000E+03 0.  0.
        -13    1    3    3    0    0 -0.36987794830E+01 -0.42578327223E+02  0.43251490841E+02  0.60805407184E+02  0.10566000000E+00 0. -1.
         23    2    1    0    0    0 -0.10984117150E+02 -0.17626981595E+02  0.25110384609E+02  0.92503304480E+02  0.86573486788E+02 0.  0.
         13    1    3    3    0    0 -0.72853376672E+01  0.24951345628E+02 -0.18141106232E+02  0.31697897295E+02  0.10566000000E+00 0.  1.
         22    1    1    0    0    0  0.10984117150E+02  0.17626981595E+02 -0.25110384609E+02  0.32586695520E+02  0.00000000000E+00 0. -1.
</event>
<event>
 5    1  0.1258677E-009  0.9118800E+02  0.7561462E-02  0.1125453E+00
         25   -1    0    0    0    0  0.00000000000E+00  0.00000000000E+00  0.99999998245E-14  0.12509000000E+03  0.12509000000E+03 0.  0.
        -13    1    3    3    0    0  0.29301976252E+02  0.19550322890E+02 -0.12954456990E+02  0.37531987122E+02  0.10566000000E+00 0.  1.
         23    2    1    0    0    0 -0.14316106028E+02  0.12160692173E+02  0.23605090979E+02  0.94923236069E+02  0.90002150529E+02 0.  0.
         13    1    3    3    0    0 -0.43618082280E+02 -0.73896307164E+01  0.36559547969E+02  0.57391248947E+02  0.10566000000E+00 0. -1.
         22    1    1    0    0    0  0.14316106028E+02 -0.12160692173E+02 -0.23605090979E+02  0.30166763931E+02  0.00000000000E+00 0. -1.
</event>
<event>
 5    1  0.1258677E-009  0.9118800E+02  0.7561462E-02  0.1125453E+00
         25   -1    0    0    0    0  0.00000000000E+00  0.00000000000E+00  0.99999998245E-14  0.12509000000E+03  0.12509000000E+03 0.  0.
        -13    1    3    3    0    0  0.80425410258E+01 -0.41437073516E+02 -0.37405775165E+02  0.56399616199E+02  0.10566000000E+00 0. -1.
         23    2    1    0    0    0  0.20076461145E+02 -0.84472370799E+01 -0.19674498813E+02  0.95738577378E+02  0.91128311673E+02 0.  0.
         13    1    3    3    0    0  0.12033920119E+02  0.32989836436E+02  0.17731276352E+02  0.39338961178E+02  0.10566000000E+00 0.  1.
         22    1    1    0    0    0 -0.20076461145E+02  0.84472370799E+01  0.19674498813E+02  0.29351422622E+02  0.00000000000E+00 0. -1.
</event>
<event>
 5    1  0.1258677E-009  0.9118800E+02  0.7561462E-02  0.1125453E+00
         25   -1    0    0    0    0  0.00000000000E+00  0.00000000000E+00  0.99999998245E-14  0.12509000000E+03  0.12509000000E+03 0.  0.
        -13    1    3    3    0    0 -0.18819383870E+02  0.28675601923E+02 -0.86523354603E+01  0.35374191550E+02  0.10566000000E+00 0.  1.
         23    2    1    0    0    0  0.18051443559E+00 -0.28725281973E+02 -0.72907499919E+00  0.96354900205E+02  0.91970434560E+02 0.  0.
         13    1    3    3    0    0  0.18999898306E+02 -0.57400883896E+02  0.79232604611E+01  0.60980708655E+02  0.10566000000E+00 0. -1.
         22    1    1    0    0    0 -0.18051443559E+00  0.28725281973E+02  0.72907499919E+00  0.28735099795E+02  0.00000000000E+00 0. -1.
</event>
<event>
 5    1  0.1258677E-009  0.9118800E+02  0.7561462E-02  0.1125453E+00
         25   -1    0    0    0    0  0.00000000000E+00  0.00000000000E+00  0.99999998245E-14  0.12509000000E+03  0.12509000000E+03 0.  0.
        -13    1    3    3    0    0 -0.16497376779E+02  0.18371142630E+02 -0.51280922770E+02  0.56915784509E+02  0.10566000000E+00 0.  1.
         23    2    1    0    0    0 -0.57732241769E+01  0.24838490489E+02 -0.14533657397E+02  0.95738544764E+02  0.91128266905E+02 0.  0.
         13    1    3    3    0    0  0.10724152602E+02  0.64673478590E+01  0.36747265373E+02  0.38822760255E+02  0.10566000000E+00 0. -1.
         22    1    1    0    0    0  0.57732241769E+01 -0.24838490489E+02  0.14533657397E+02  0.29351455236E+02  0.00000000000E+00 0.  1.
</event>
<event>
 5    1  0.1258677E-009  0.9118800E+02  0.7561462E-02  0.1125453E+00
         25   -1    0    0    0    0  0.00000000000E+00  0.00000000000E+00  0.99999998245E-14  0.12509000000E+03  0.12509000000E+03 0.  0.
        -13    1    3    3    0    0 -0.34420164581E+02  0.72422346467E+01  0.41492008333E+02  0.54394812363E+02  0.10566000000E+00 0. -1.
         23    2    1    0    0    0 -0.27253257143E+02  0.82050359773E+01 -0.11751905562E+00  0.96628157982E+02  0.92341347532E+02 0.  0.
         13    1    3    3    0    0  0.71669074382E+01  0.96280133062E+00 -0.41609527389E+02  0.42233345619E+02  0.10566000000E+00 0.  1.
         22    1    1    0    0    0  0.27253257143E+02 -0.82050359773E+01  0.11751905562E+00  0.28461842018E+02  0.00000000000E+00 0. -1.
</event>
<event>
 5    1  0.1258677E-009  0.9118800E+02  0.7561462E-02  0.1125453E+00
         25   -1    0    0    0    0  0.00000000000E+00  0.00000000000E+00  0.99999998245E-14  0.12509000000E+03  0.12509000000E+03 0.  0.
        -13    1    3    3    0    0  0.14896864689E+02 -0.32718145951E+02  0.46854243197E+02  0.59056963363E+02  0.10566000000E+00 0. -1.
         23    2    1    0    0    0  0.69708769720E+01 -0.25957678619E+02  0.11603748961E+02  0.95814734075E+02  0.91232790546E+02 0.  0.
         13    1    3    3    0    0 -0.79259877166E+01  0.67604673320E+01 -0.35250494236E+02  0.36757770712E+02  0.10566000000E+00 0.  1.
         22    1    1    0    0    0 -0.69708769720E+01  0.25957678619E+02 -0.11603748961E+02  0.29275265925E+02  0.00000000000E+00 0. -1.
</event>
<event>
 5    1  0.1258677E-009  0.9118800E+02  0.7561462E-02  0.1125453E+00
         25   -1    0    0    0    0  0.00000000000E+00  0.00000000000E+00  0.99999998245E-14  0.12509000000E+03  0.12509000000E+03 0.  0.
        -13    1    3    3    0    0  0.50315228853E+01 -0.57096263092E+02 -0.10676884710E+02  0.58303572041E+02  0.10566000000E+00 0.  1.
         23    2    1    0    0    0  0.31280127549E+01 -0.27085455669E+02  0.11326767474E+02  0.95565399512E+02  0.90890283033E+02 0.  0.
         13    1    3    3    0    0 -0.19035101305E+01  0.30010807423E+02  0.22003652184E+02  0.37261827471E+02  0.10566000000E+00 0. -1.
         22    1    1    0    0    0 -0.31280127549E+01  0.27085455669E+02 -0.11326767474E+02  0.29524600488E+02  0.00000000000E+00 0.  1.
</event>
<event>
 5    1  0.1258677E-009  0.9118800E+02  0.7561462E-02  0.1125453E+00
         25   -1    0    0    0    0  0.00000000000E+00  0.00000000000E+00  0.99999998245E-14  0.12509000000E+03  0.12509000000E+03 0.  0.
        -13    1    3    3    0    0  0.33386541595E+02  0.13039183406E+02  0.10298514612E+02  0.37292787919E+02  0.10566000000E+00 0.  1.
         23    2    1    0    0    0 -0.16438022157E+02 -0.98332285206E+01 -0.17838509202E+02  0.98915329684E+02  0.95389355174E+02 0.  0.
         13    1    3    3    0    0 -0.49824563752E+02 -0.22872411927E+02 -0.28137023815E+02  0.61622541765E+02  0.10566000000E+00 0. -1.
         22    1    1    0    0    0  0.16438022157E+02  0.98332285206E+01  0.17838509202E+02  0.26174670316E+02  0.00000000000E+00 0. -1.
</event>
<event>
 5    1  0.1258677E-009  0.9118800E+02  0.7561462E-02  0.1125453E+00
         25   -1    0    0    0    0  0.00000000000E+00  0.00000000000E+00  0.99999998245E-14  0.12509000000E+03  0.12509000000E+03 0.  0.
        -13    1    3    3    0    0 -0.13563476808E+02  0.16044234328E+02  0.54055432771E+02  0.57994709538E+02  0.10566000000E+00 0. -1.
         23    2    1    0    0    0 -0.23999115825E+02  0.15062509139E+02  0.32437465587E+02  0.82019988209E+02  0.69801522549E+02 0.  0.
         13    1    3    3    0    0 -0.10435639017E+02 -0.98172518946E+00 -0.21617967184E+02  0.24025278671E+02  0.10566000000E+00 0.  1.
         22    1    1    0    0    0  0.23999115825E+02 -0.15062509139E+02 -0.32437465587E+02  0.43070011791E+02  0.00000000000E+00 0. -1.
</event>
<event>
 5    1  0.1258677E-009  0.9118800E+02  0.7561462E-02  0.1125453E+00
         25   -1    0    0    0    0  0.00000000000E+00  0.00000000000E+00  0.99999998245E-14  0.12509000000E+03  0.12509000000E+03 0.  0.
        -13    1    3    3    0    0 -0.90292508747E+01  0.37059657012E+02  0.34973202528E+02  0.51750184621E+02  0.10566000000E+00 0.  1.
         23    2    1    0    0    0 -0.26707260217E+02  0.11126346324E+02  0.39346386055E+01  0.95891460452E+02  0.91337930104E+02 0.  0.
         13    1    3    3    0    0 -0.17678009342E+02 -0.25933310688E+02 -0.31038563922E+02  0.44141275831E+02  0.10566000000E+00 0. -1.
         22    1    1    0    0    0  0.26707260217E+02 -0.11126346324E+02 -0.39346386055E+01  0.29198539548E+02  0.00000000000E+00 0.  1.
</event>
<event>
 5    1  0.1258677E-009  0.9118800E+02  0.7561462E-02  0.1125453E+00
         25   -1    0    0    0    0  0.00000000000E+00  0.00000000000E+00  0.99999998245E-14  0.12509000000E+03  0.12509000000E+03 0.  0.
        -13    1    3    3    0    0 -0.24612720583E+02 -0.66622928419E+01  0.26705740236E+02  0.36923974407E+02  0.10566000000E+00 0. -1.
         23    2    1    0    0    0  0.27287905057E+02 -0.10242687751E+02 -0.11190051639E+01  0.95921616649E+02  0.91379220577E+02 0.  0.
         13    1    3    3    0    0  0.51900625640E+02 -0.35803949088E+01 -0.27824745399E+02  0.58997642242E+02  0.10566000000E+00 0.  1.
         22    1    1    0    0    0 -0.27287905057E+02  0.10242687751E+02  0.11190051639E+01  0.29168383351E+02  0.00000000000E+00 0.  1.
</event>
<event>
 5    1  0.1258677E-009  0.9118800E+02  0.7561462E-02  0.1125453E+00
         25   -1    0    0    0    0  0.00000000000E+00  0.00000000000E+00  0.99999998245E-14  0.12509000000E+03  0.12509000000E+03 0.  0.
        -13    1    3    3    0    0  0.51525609445E+02  0.90931498661E+01  0.32171510596E+02  0.61421421844E+02  0.10566000000E+00 0.  1.
         23    2    1    0    0    0  0.22314387044E+02  0.12213684956E+02  0.17089668108E+02  0.94444238052E+02  0.89333931828E+02 0.  0.
         13    1    3    3    0    0 -0.29211222402E+02  0.31205350901E+01 -0.15081842488E+02  0.33022816208E+02  0.10566000000E+00 0. -1.
         22    1    1    0    0    0 -0.22314387044E+02 -0.12213684956E+02 -0.17089668108E+02  0.30645761948E+02  0.00000000000E+00 0.  1.
</event>
<event>
 5    1  0.1258677E-009  0.9118800E+02  0.7561462E-02  0.1125453E+00
         25   -1    0    0    0    0  0.00000000000E+00  0.00000000000E+00  0.99999998245E-14  0.12509000000E+03  0.12509000000E+03 0.  0.
        -13    1    3    3    0    0 -0.39350050370E+02 -0.12507947937E+02  0.11266393175E+01  0.41305637702E+02  0.10566000000E+00 0. -1.
         23    2    1    0    0    0 -0.45711136304E+01  0.10482169045E+02  0.30639926858E+02  0.92385626201E+02  0.86403286182E+02 0.  0.
         13    1    3    3    0    0  0.34778936740E+02  0.22990116983E+02  0.29513287540E+02  0.51079988500E+02  0.10566000000E+00 0.  1.
         22    1    1    0    0    0  0.45711136304E+01 -0.10482169045E+02 -0.30639926858E+02  0.32704373799E+02  0.00000000000E+00 0.  1.
</event>
<event>
 5    1  0.1258677E-009  0.9118800E+02  0.7561462E-02  0.1125453E+00
         25   -1    0    0    0    0  0.00000000000E+00  0.00000000000E+00  0.99999998245E-14  0.12509000000E+03  0.12509000000E+03 0.  0.
        -13    1    3    3    0    0 -0.13103961855E+01 -0.76445456403E+01  0.33520918779E+02  0.34406676330E+02  0.10566000000E+00 0. -1.
         23    2    1    0    0    0 -0.30318202157E+02 -0.64682347812E+01 -0.14768577770E+02  0.90751358027E+02  0.84003968068E+02 0.  0.
         13    1    3    3    0    0 -0.29007805972E+02  0.11763108591E+01 -0.48289496549E+02  0.56344681697E+02  0.10566000000E+00 0.  1.
         22    1    1    0    0    0  0.30318202157E+02  0.64682347812E+01  0.14768577770E+02  0.34338641973E+02  0.00000000000E+00 0.  1.
</event>
<event>
 5    1  0.1258677E-009  0.9118800E+02  0.7561462E-02  0.1125453E+00
         25   -1    0    0    0    0  0.00000000000E+00  0.00000000000E+00  0.99999998245E-14  0.12509000000E+03  0.12509000000E+03 0.  0.
        -13    1    3    3    0    0 -0.10919411866E+01  0.45769356211E+02 -0.18290116229E+02  0.49300768951E+02  0.10566000000E+00 0. -1.
         23    2    1    0    0    0 -0.15731568036E+02  0.18206314590E+02  0.16405425312E+02  0.95968013401E+02  0.91442711534E+02 0.  0.
         13    1    3    3    0    0 -0.14639626849E+02 -0.27563041621E+02  0.34695541541E+02  0.46667244450E+02  0.10566000000E+00 0.  1.
         22    1    1    0    0    0  0.15731568036E+02 -0.18206314590E+02 -0.16405425312E+02  0.29121986599E+02  0.00000000000E+00 0. -1.
</event>
<event>
 5    1  0.1258677E-009  0.9118800E+02  0.7561462E-02  0.1125453E+00
         25   -1    0    0    0    0  0.00000000000E+00  0.00000000000E+00  0.99999998245E-14  0.12509000000E+03  0.12509000000E+03 0.  0.
        -13    1    3    3    0    0  0.36999146548E+02  0.53162668635E+01  0.52506826061E+01  0.37746263001E+02  0.10566000000E+00 0. -1.
         23    2    1    0    0    0 -0.18159659766E+02 -0.11613094385E+02  0.18198556107E+02  0.96879635799E+02  0.92681385316E+02 0.  0.
         13    1    3    3    0    0 -0.55158806314E+02 -0.16929361248E+02  0.12947873500E+02  0.59133372798E+02  0.10566000000E+00 0.  1.
         22    1    1    0    0    0  0.18159659766E+02  0.11613094385E+02 -0.18198556107E+02  0.28210364201E+02  0.00000000000E+00 0.  1.
</event>
<event>
 5    1  0.1258677E-009  0.9118800E+02  0.7561462E-02  0.1125453E+00
         25   -1    0    0    0    0  0.00000000000E+00  0.00000000000E+00  0.99999998245E-14  0.12509000000E+03  0.12509000000E+03 0.  0.
        -13    1    3    3    0    0 -0.57912481502E+02  0.11440440964E+02  0.36898231451E+01  0.59146979315E+02  0.10566000000E+00 0.  1.
         23    2    1    0    0    0 -0.27693335963E+02 -0.68108929277E+01 -0.63966270526E+01  0.95862855821E+02  0.91298746811E+02 0.  0.
         13    1    3    3    0    0  0.30219145540E+02 -0.18251333892E+02 -0.10086450198E+02  0.36715876506E+02  0.10566000000E+00 0. -1.
         22    1    1    0    0    0  0.27693335963E+02  0.68108929277E+01  0.63966270526E+01  0.29227144179E+02  0.00000000000E+00 0.  1.
</event>
<event>
 5    1  0.1258677E-009  0.9118800E+02  0.7561462E-02  0.1125453E+00
         25   -1    0    0    0    0  0.00000000000E+00  0.00000000000E+00  0.99999998245E-14  0.12509000000E+03  0.12509000000E+03 0.  0.
        -13    1    3    3    0    0 -0.32534829401E+02  0.69768930781E+01  0.73461279844E+01  0.34075928771E+02  0.10566000000E+00 0. -1.
         23    2    1    0    0    0  0.15748280874E+02 -0.18080363455E+02 -0.18980410742E+02  0.94509550607E+02  0.89425339087E+02 0.  0.
         13    1    3    3    0    0  0.48283110276E+02 -0.25057256533E+02 -0.26326538726E+02  0.60433621836E+02  0.10566000000E+00 0.  1.
         22    1    1    0    0    0 -0.15748280874E+02  0.18080363455E+02  0.18980410742E+02  0.30580449393E+02  0.00000000000E+00 0.  1.
</event>
<event>
 5    1  0.1258677E-009  0.9118800E+02  0.7561462E-02  0.1125453E+00
         25   -1    0    0    0    0  0.00000000000E+00  0.00000000000E+00  0.99999998245E-14  0.12509000000E+03  0.12509000000E+03 0.  0.
        -13    1    3    3    0    0  0.30832300747E+02 -0.21358755138E+02 -0.13842907405E+00  0.37508099353E+02  0.10566000000E+00 0. -1.
         23    2    1    0    0    0 -0.17365522489E+02 -0.14532705185E+01  0.24372878578E+02  0.95128181352E+02  0.90286545568E+02 0.  0.
         13    1    3    3    0    0 -0.48197823237E+02  0.19905484620E+02  0.24511307652E+02  0.57620081999E+02  0.10566000000E+00 0.  1.
         22    1    1    0    0    0  0.17365522489E+02  0.14532705185E+01 -0.24372878578E+02  0.29961818648E+02  0.00000000000E+00 0.  1.
</event>
<event>
 5    1  0.1258677E-009  0.9118800E+02  0.7561462E-02  0.1125453E+00
         25   -1    0    0    0    0  0.00000000000E+00  0.00000000000E+00  0.99999998245E-14  0.12509000000E+03  0.12509000000E+03 0.  0.
        -13    1    3    3    0    0 -0.41308529635E+02  0.14952780005E+02 -0.32071416582E+02  0.54392712528E+02  0.10566000000E+00 0.  1.
         23    2    1    0    0    0 -0.21424019867E+02 -0.15602354332E+02 -0.12182175952E+02  0.95921052489E+02  0.91378448289E+02 0.  0.
         13    1    3    3    0    0  0.19884509768E+02 -0.30555134337E+02  0.19889240631E+02  0.41528339961E+02  0.10566000000E+00 0. -1.
         22    1    1    0    0    0  0.21424019867E+02  0.15602354332E+02  0.12182175952E+02  0.29168947511E+02  0.00000000000E+00 0.  1.
</event>
<event>
 5    1  0.1258677E-009  0.9118800E+02  0.7561462E-02  0.1125453E+00
         25   -1    0    0    0    0  0.00000000000E+00  0.00000000000E+00  0.99999998245E-14  0.12509000000E+03  0.12509000000E+03 0.  0.
        -13    1    3    3    0    0 -0.63231308361E+01 -0.83104063520E+01 -0.46289464331E+02  0.47452824040E+02  0.10566000000E+00 0.  1.
         23    2    1    0    0    0 -0.27412296341E+02  0.87204368096E+01 -0.64996356375E+01  0.95598895032E+02  0.90936370386E+02 0.  0.
         13    1    3    3    0    0 -0.21089165505E+02  0.17030843162E+02  0.39789828693E+02  0.48146070992E+02  0.10566000000E+00 0. -1.
         22    1    1    0    0    0  0.27412296341E+02 -0.87204368096E+01  0.64996356375E+01  0.29491104968E+02  0.00000000000E+00 0. -1.
</event>
<event>
 5    1  0.1258677E-009  0.9118800E+02  0.7561462E-02  0.1125453E+00
         25   -1    0    0    0    0  0.00000000000E+00  0.00000000000E+00  0.99999998245E-14  0.12509000000E+03  0.12509000000E+03 0.  0.
        -13    1    3    3    0    0  0.28327980904E+02  0.90701587274E+01 -0.49645492856E+02  0.57874246486E+02  0.10566000000E+00 0. -1.
         23    2    1    0    0    0  0.10373483924E+02 -0.12546187398E+02 -0.25031252726E+02  0.95230669801E+02  0.90428429549E+02 0.  0.
         13    1    3    3    0    0 -0.17954496980E+02 -0.21616346125E+02  0.24614240130E+02  0.37356423314E+02  0.10566000000E+00 0.  1.
         22    1    1    0    0    0 -0.10373483924E+02  0.12546187398E+02  0.25031252726E+02  0.29859330199E+02  0.00000000000E+00 0. -1.
</event>
<event>
 5    1  0.1258677E-009  0.9118800E+02  0.7561462E-02  0.1125453E+00
         25   -1    0    0    0    0  0.00000000000E+00  0.00000000000E+00  0.99999998245E-14  0.12509000000E+03  0.12509000000E+03 0.  0.
        -13    1    3    3    0    0 -0.10705695373E+02 -0.22387294595E+02 -0.25537614378E+02  0.35608759945E+02  0.10566000000E+00 0. -1.
         23    2    1    0    0    0  0.84874313859E+01  0.27865746963E+02  0.17112393577E+01  0.95910132189E+02  0.91363498024E+02 0.  0.
         13    1    3    3    0    0  0.19193126759E+02  0.50253041557E+02  0.27248853736E+02  0.60301372244E+02  0.10566000000E+00 0.  1.
         22    1    1    0    0    0 -0.84874313859E+01 -0.27865746963E+02 -0.17112393577E+01  0.29179867811E+02  0.00000000000E+00 0.  1.
</event>
<event>
 5    1  0.1258677E-009  0.9118800E+02  0.7561462E-02  0.1125453E+00
         25   -1    0    0    0    0  0.00000000000E+00  0.00000000000E+00  0.99999998245E-14  0.12509000000E+03  0.12509000000E+03 0.  0.
        -13    1    3    3    0    0 -0.23773137166E+02 -0.17146428204E+02 -0.31614906954E+02  0.43112359674E+02  0.10566000000E+00 0.  1.
         23    2    1    0    0    0 -0.21732144403E+02 -0.70486637350E+00  0.18903414202E+02  0.96278162060E+02  0.91866002875E+02 0.  0.
         13    1    3    3    0    0  0.20409927632E+01  0.16441561831E+02  0.50518321156E+02  0.53165802386E+02  0.10566000000E+00 0. -1.
         22    1    1    0    0    0  0.21732144403E+02  0.70486637350E+00 -0.18903414202E+02  0.28811837940E+02  0.00000000000E+00 0. -1.
</event>
<event>
 5    1  0.1258677E-009  0.9118800E+02  0.7561462E-02  0.1125453E+00
         25   -1    0    0    0    0  0.00000000000E+00  0.00000000000E+00  0.99999998245E-14  0.12509000000E+03  0.12509000000E+03 0.  0.
        -13    1    3    3    0    0  0.21610392667E+02  0.27562736812E+02 -0.11007496249E+02  0.36713616949E+02  0.10566000000E+00 0. -1.
         23    2    1    0    0    0  0.14290136834E+02 -0.26897968094E+02  0.56046681770E+01  0.94120321221E+02  0.88879209397E+02 0.  0.
         13    1    3    3    0    0 -0.73202558330E+01 -0.54460704906E+02  0.16612164426E+02  0.57406704271E+02  0.10566000000E+00 0.  1.
         22    1    1    0    0    0 -0.14290136834E+02  0.26897968094E+02 -0.56046681770E+01  0.30969678779E+02  0.00000000000E+00 0.  1.
</event>
<event>
 5    1  0.1258677E-009  0.9118800E+02  0.7561462E-02  0.1125453E+00
         25   -1    0    0    0    0  0.00000000000E+00  0.00000000000E+00  0.99999998245E-14  0.12509000000E+03  0.12509000000E+03 0.  0.
        -13    1    3    3    0    0 -0.18654910012E+02 -0.58916795771E+02  0.35726269169E+01  0.61902902344E+02  0.10566000000E+00 0.  1.
         23    2    1    0    0    0 -0.94764983381E+01 -0.29499151939E+02 -0.45548101386E+01  0.93773067179E+02  0.88389127425E+02 0.  0.
         13    1    3    3    0    0  0.91784116742E+01  0.29417643832E+02 -0.81274370555E+01  0.31870164835E+02  0.10566000000E+00 0. -1.
         22    1    1    0    0    0  0.94764983381E+01  0.29499151939E+02  0.45548101386E+01  0.31316932821E+02  0.00000000000E+00 0.  1.
</event>
<event>
 5    1  0.1258677E-009  0.9118800E+02  0.7561462E-02  0.1125453E+00
         25   -1    0    0    0    0  0.00000000000E+00  0.00000000000E+00  0.99999998245E-14  0.12509000000E+03  0.12509000000E+03 0.  0.
        -13    1    3    3    0    0 -0.43124857490E+02 -0.15510530589E+02  0.20118186211E+02  0.50050798926E+02  0.10566000000E+00 0.  1.
         23    2    1    0    0    0  0.63726543114E+00 -0.25492673118E+01  0.28511690086E+02  0.96457477536E+02  0.92109845456E+02 0.  0.
         13    1    3    3    0    0  0.43762122921E+02  0.12961263277E+02  0.83935038751E+01  0.46406678610E+02  0.10566000000E+00 0. -1.
         22    1    1    0    0    0 -0.63726543114E+00  0.25492673118E+01 -0.28511690086E+02  0.28632522464E+02  0.00000000000E+00 0.  1.
</event>
<event>
 5    1  0.1258677E-009  0.9118800E+02  0.7561462E-02  0.1125453E+00
         25   -1    0    0    0    0  0.00000000000E+00  0.00000000000E+00  0.99999998245E-14  0.12509000000E+03  0.12509000000E+03 0.  0.
        -13    1    3    3    0    0 -0.18156815852E+02 -0.10707199843E+01 -0.42182951688E+02  0.45937228697E+02  0.10566000000E+00 0.  1.
         23    2    1    0    0    0 -0.43617604910E+01  0.27900208392E+02 -0.28367897509E+01  0.96708774534E+02  0.92450490063E+02 0.  0.
         13    1    3    3    0    0  0.13795055361E+02  0.28970928376E+02  0.39346161938E+02  0.50771545837E+02  0.10566000000E+00 0. -1.
         22    1    1    0    0    0  0.43617604910E+01 -0.27900208392E+02  0.28367897509E+01  0.28381225466E+02  0.00000000000E+00 0.  1.
</event>
<event>
 5    1  0.1258677E-009  0.9118800E+02  0.7561462E-02  0.1125453E+00
         25   -1    0    0    0    0  0.00000000000E+00  0.00000000000E+00  0.99999998245E-14  0.12509000000E+03  0.12509000000E+03 0.  0.
        -13    1    3    3    0    0 -0.24456829234E+02  0.36813069224E+01  0.38431378905E+02  0.45701975508E+02  0.10566000000E+00 0.  1.
         23    2    1    0    0    0 -0.16368079192E+02 -0.25829228485E+02  0.40818005134E+00  0.94508474997E+02  0.89423834489E+02 0.  0.
         13    1    3    3    0    0  0.80887500422E+01 -0.29510535407E+02 -0.38023198853E+02  0.48806499489E+02  0.10566000000E+00 0. -1.
         22    1    1    0    0    0  0.16368079192E+02  0.25829228485E+02 -0.40818005134E+00  0.30581525003E+02  0.00000000000E+00 0. -1.
</event>
<event>
 5    1  0.1258677E-009  0.9118800E+02  0.7561462E-02  0.1125453E+00
         25   -1    0    0    0    0  0.00000000000E+00  0.00000000000E+00  0.99999998245E-14  0.12509000000E+03  0.12509000000E+03 0.  0.
        -13    1    3    3    0    0 -0.60865726310E+01  0.38800575719E+02 -0.14915823244E+02  0.42012188584E+02  0.10566000000E+00 0.  1.
         23    2    1    0    0    0 -0.23820662779E+02 -0.54358132478E+01  0.13172498166E+02  0.97332356930E+02  0.93290411922E+02 0.  0.
         13    1    3    3    0    0 -0.17734090148E+02 -0.44236388967E+02  0.28088321410E+02  0.55320168346E+02  0.10566000000E+00 0. -1.
         22    1    1    0    0    0  0.23820662779E+02  0.54358132478E+01 -0.13172498166E+02  0.27757643070E+02  0.00000000000E+00 0.  1.
</event>
<event>
 5    1  0.1258677E-009  0.9118800E+02  0.7561462E-02  0.1125453E+00
         25   -1    0    0    0    0  0.00000000000E+00  0.00000000000E+00  0.99999998245E-14  0.12509000000E+03  0.12509000000E+03 0.  0.
        -13    1    3    3    0    0 -0.89709288078E+01  0.27970417802E+02 -0.17184904657E+02  0.34031660962E+02  0.10566000000E+00 0.  1.
         23    2    1    0    0    0  0.13431232391E+02 -0.25544042678E+02  0.43301013656E+01  0.95907027264E+02  0.91359246828E+02 0.  0.
         13    1    3    3    0    0  0.22402161199E+02 -0.53514460480E+02  0.21515006023E+02  0.61875366302E+02  0.10566000000E+00 0. -1.
         22    1    1    0    0    0 -0.13431232391E+02  0.25544042678E+02 -0.43301013656E+01  0.29182972736E+02  0.00000000000E+00 0. -1.
</event>
<event>
 5    1  0.1258677E-009  0.9118800E+02  0.7561462E-02  0.1125453E+00
         25   -1    0    0    0    0  0.00000000000E+00  0.00000000000E+00  0.99999998245E-14  0.12509000000E+03  0.12509000000E+03 0.  0.
        -13    1    3    3    0    0  0.20319454218E+02  0.51314406362E+02 -0.17076487575E+02  0.57772537697E+02  0.10566000000E+00 0. -1.
         23    2    1    0    0    0  0.24396243580E+02  0.15713372943E+02 -0.10653511942E+02  0.94177476539E+02  0.88959614323E+02 0.  0.
         13    1    3    3    0    0  0.40767893622E+01 -0.35601033419E+02  0.64229756331E+01  0.36404938842E+02  0.10566000000E+00 0.  1.
         22    1    1    0    0    0 -0.24396243580E+02 -0.15713372943E+02  0.10653511942E+02  0.30912523461E+02  0.00000000000E+00 0. -1.
</event>
<event>
 5    1  0.1258677E-009  0.9118800E+02  0.7561462E-02  0.1125453E+00
         25   -1    0    0    0    0  0.00000000000E+00  0.00000000000E+00  0.99999998245E-14  0.12509000000E+03  0.12509000000E+03 0.  0.
        -13    1    3    3    0    0 -0.32126688530E+02 -0.23653918567E+02 -0.82338896691E+01  0.40736225679E+02  0.10566000000E+00 0.  1.
         23    2    1    0    0    0 -0.61888902796E+01  0.94045427722E+01  0.27168401162E+02  0.95681331051E+02  0.91049696882E+02 0.  0.
         13    1    3    3    0    0  0.25937798251E+02  0.33058461339E+02  0.35402290831E+02  0.54945105372E+02  0.10566000000E+00 0. -1.
         22    1    1    0    0    0  0.61888902796E+01 -0.94045427722E+01 -0.27168401162E+02  0.29408668949E+02  0.00000000000E+00 0. -1.
</event>
<event>
 5    1  0.1258677E-009  0.9118800E+02  0.7561462E-02  0.1125453E+00
         25   -1    0    0    0    0  0.00000000000E+00  0.00000000000E+00  0.99999998245E-14  0.12509000000E+03  0.12509000000E+03 0.  0.
        -13    1    3    3    0    0 -0.48094803683E+01 -0.50385483330E+02 -0.14868433918E+02  0.52753289215E+02  0.10566000000E+00 0. -1.
         23    2    1    0    0    0 -0.24406668388E+02 -0.11041202691E+02 -0.69422132865E+01  0.97417126207E+02  0.93404007057E+02 0.  0.
         13    1    3    3    0    0 -0.19597188020E+02  0.39344280639E+02  0.79262206311E+01  0.44663836991E+02  0.10566000000E+00 0.  1.
         22    1    1    0    0    0  0.24406668388E+02  0.11041202691E+02  0.69422132865E+01  0.27672873793E+02  0.00000000000E+00 0.  1.
</event>
<event>
 5    1  0.1258677E-009  0.9118800E+02  0.7561462E-02  0.1125453E+00
         25   -1    0    0    0    0  0.00000000000E+00  0.00000000000E+00  0.99999998245E-14  0.12509000000E+03  0.12509000000E+03 0.  0.
        -13    1    3    3    0    0 -0.25219227167E+02 -0.17800357644E+02 -0.19838720339E+02  0.36693979614E+02  0.10566000000E+00 0.  1.
         23    2    1    0    0    0  0.11650431853E+02  0.22170382257E+02  0.92832783362E+01  0.98379746005E+02  0.94684406085E+02 0.  0.
         13    1    3    3    0    0  0.36869659020E+02  0.39970739901E+02  0.29121998676E+02  0.61685766392E+02  0.10566000000E+00 0. -1.
         22    1    1    0    0    0 -0.11650431853E+02 -0.22170382257E+02 -0.92832783362E+01  0.26710253995E+02  0.00000000000E+00 0. -1.
</event>
<event>
 5    1  0.1258677E-009  0.9118800E+02  0.7561462E-02  0.1125453E+00
         25   -1    0    0    0    0  0.00000000000E+00  0.00000000000E+00  0.99999998245E-14  0.12509000000E+03  0.12509000000E+03 0.  0.
        -13    1    3    3    0    0  0.30149168074E+02  0.28374637983E+02  0.65837216417E+01  0.41921939016E+02  0.10566000000E+00 0. -1.
         23    2    1    0    0    0 -0.21911687265E+02  0.16335471541E+02  0.11194792338E+02  0.95555392422E+02  0.90876509485E+02 0.  0.
         13    1    3    3    0    0 -0.52060855339E+02 -0.12039166443E+02  0.46110706966E+01  0.53633453406E+02  0.10566000000E+00 0.  1.
         22    1    1    0    0    0  0.21911687265E+02 -0.16335471541E+02 -0.11194792338E+02  0.29534607578E+02  0.00000000000E+00 0.  1.
</event>
<event>
 5    1  0.1258677E-009  0.9118800E+02  0.7561462E-02  0.1125453E+00
         25   -1    0    0    0    0  0.00000000000E+00  0.00000000000E+00  0.99999998245E-14  0.12509000000E+03  0.12509000000E+03 0.  0.
        -13    1    3    3    0    0  0.66726951194E+01  0.38771598213E+02 -0.90919833884E+01  0.40378670286E+02  0.10566000000E+00 0.  1.
         23    2    1    0    0    0 -0.27850362628E+02 -0.24341913660E+01  0.65729361627E+01  0.96371165137E+02  0.91992554014E+02 0.  0.
         13    1    3    3    0    0 -0.34523057747E+02 -0.41205789579E+02  0.15664919551E+02  0.55992494851E+02  0.10566000000E+00 0. -1.
         22    1    1    0    0    0  0.27850362628E+02  0.24341913660E+01 -0.65729361627E+01  0.28718834863E+02  0.00000000000E+00 0. -1.
</event>
<event>
 5    1  0.1258677E-009  0.9118800E+02  0.7561462E-02  0.1125453E+00
         25   -1    0    0    0    0  0.00000000000E+00  0.00000000000E+00  0.99999998245E-14  0.12509000000E+03  0.12509000000E+03 0.  0.
        -13    1    3    3    0    0  0.17631538900E+02  0.63943396646E+00  0.14886777939E+02  0.23084786359E+02  0.10566000000E+00 0.  1.
         23    2    1    0    0    0 -0.31903054486E+02 -0.13827570730E+02 -0.19622605546E+02  0.85164403620E+02  0.75225809386E+02 0.  0.
         13    1    3    3    0    0 -0.49534593386E+02 -0.14467004697E+02 -0.34509383485E+02  0.62079617262E+02  0.10566000000E+00 0. -1.
         22    1    1    0    0    0  0.31903054486E+02  0.13827570730E+02  0.19622605546E+02  0.39925596380E+02  0.00000000000E+00 0. -1.
</event>
<event>
 5    1  0.1258677E-009  0.9118800E+02  0.7561462E-02  0.1125453E+00
         25   -1    0    0    0    0  0.00000000000E+00  0.00000000000E+00  0.99999998245E-14  0.12509000000E+03  0.12509000000E+03 0.  0.
        -13    1    3    3    0    0  0.14148386273E+02  0.36230855403E+02 -0.61175112596E+01  0.39373681888E+02  0.10566000000E+00 0.  1.
         23    2    1    0    0    0 -0.19601798365E+02  0.28934469385E+01  0.22762074951E+02  0.94911951846E+02  0.89986465720E+02 0.  0.
         13    1    3    3    0    0 -0.33750184637E+02 -0.33337408465E+02  0.28879586210E+02  0.55538269958E+02  0.10566000000E+00 0. -1.
         22    1    1    0    0    0  0.19601798365E+02 -0.28934469385E+01 -0.22762074951E+02  0.30178048154E+02  0.00000000000E+00 0. -1.
</event>
<event>
 5    1  0.1258677E-009  0.9118800E+02  0.7561462E-02  0.1125453E+00
         25   -1    0    0    0    0  0.00000000000E+00  0.00000000000E+00  0.99999998245E-14  0.12509000000E+03  0.12509000000E+03 0.  0.
        -13    1    3    3    0    0  0.63438264274E+00 -0.81175891534E+01  0.37080642376E+02  0.37964231825E+02  0.10566000000E+00 0. -1.
         23    2    1    0    0    0 -0.13365205403E+02  0.23535449573E+02 -0.98592326216E+01  0.96284608665E+02  0.91874780522E+02 0.  0.
         13    1    3    3    0    0 -0.13999588046E+02  0.31653038726E+02 -0.46939874997E+02  0.58320376841E+02  0.10566000000E+00 0.  1.
         22    1    1    0    0    0  0.13365205403E+02 -0.23535449573E+02  0.98592326216E+01  0.28805391335E+02  0.00000000000E+00 0.  1.
</event>
<event>
 5    1  0.1258677E-009  0.9118800E+02  0.7561462E-02  0.1125453E+00
         25   -1    0    0    0    0  0.00000000000E+00  0.00000000000E+00  0.99999998245E-14  0.12509000000E+03  0.12509000000E+03 0.  0.
        -13    1    3    3    0    0  0.12642413059E+02 -0.55855236534E+02  0.23702642125E+02  0.61979548756E+02  0.10566000000E+00 0. -1.
         23    2    1    0    0    0  0.12583439951E+02 -0.28745628526E+02  0.12513816841E+02  0.91307612099E+02  0.84828239962E+02 0.  0.
         13    1    3    3    0    0 -0.58973108475E-01  0.27109608008E+02 -0.11188825284E+02  0.29328063343E+02  0.10566000000E+00 0.  1.
         22    1    1    0    0    0 -0.12583439951E+02  0.28745628526E+02 -0.12513816841E+02  0.33782387901E+02  0.00000000000E+00 0. -1.
</event>
<event>
 5    1  0.1258677E-009  0.9118800E+02  0.7561462E-02  0.1125453E+00
         25   -1    0    0    0    0  0.00000000000E+00  0.00000000000E+00  0.99999998245E-14  0.12509000000E+03  0.12509000000E+03 0.  0.
        -13    1    3    3    0    0  0.47394690959E+01 -0.21055925499E+02  0.50390530965E+02  0.54818166157E+02  0.10566000000E+00 0.  1.
         23    2    1    0    0    0 -0.11063218033E+02 -0.24170666127E+02  0.13065368975E+02  0.95470415926E+02  0.90759465382E+02 0.  0.
         13    1    3    3    0    0 -0.15802687128E+02 -0.31147406282E+01 -0.37325161990E+02  0.40652249769E+02  0.10566000000E+00 0. -1.
         22    1    1    0    0    0  0.11063218033E+02  0.24170666127E+02 -0.13065368975E+02  0.29619584074E+02  0.00000000000E+00 0.  1.
</event>
<event>
 5    1  0.1258677E-009  0.9118800E+02  0.7561462E-02  0.1125453E+00
         25   -1    0    0    0    0  0.00000000000E+00  0.00000000000E+00  0.99999998245E-14  0.12509000000E+03  0.12509000000E+03 0.  0.
        -13    1    3    3    0    0 -0.19091811013E+02 -0.17665533862E+02 -0.24540873568E+02  0.35760788217E+02  0.10566000000E+00 0.  1.
         23    2    1    0    0    0 -0.12469649269E+01  0.21483025424E+02  0.18569069181E+02  0.96666670970E+02  0.92393504335E+02 0.  0.
         13    1    3    3    0    0  0.17844846086E+02  0.39148559286E+02  0.43109942749E+02  0.60905882753E+02  0.10566000000E+00 0. -1.
         22    1    1    0    0    0  0.12469649269E+01 -0.21483025424E+02 -0.18569069181E+02  0.28423329030E+02  0.00000000000E+00 0. -1.
</event>
<event>
 5    1  0.1258677E-009  0.9118800E+02  0.7561462E-02  0.1125453E+00
         25   -1    0    0    0    0  0.00000000000E+00  0.00000000000E+00  0.99999998245E-14  0.12509000000E+03  0.12509000000E+03 0.  0.
        -13    1    3    3    0    0  0.41233346794E+01 -0.40467844541E+02  0.15958360192E+02  0.43695866563E+02  0.10566000000E+00 0. -1.
         23    2    1    0    0    0 -0.11810345344E+02  0.93429830200E+01  0.24148666741E+02  0.96630665956E+02  0.92344744891E+02 0.  0.
         13    1    3    3    0    0 -0.15933680023E+02  0.49810827561E+02  0.81903065490E+01  0.52934799393E+02  0.10566000000E+00 0.  1.
         22    1    1    0    0    0  0.11810345344E+02 -0.93429830200E+01 -0.24148666741E+02  0.28459334044E+02  0.00000000000E+00 0.  1.
</event>
<event>
 5    1  0.1258677E-009  0.9118800E+02  0.7561462E-02  0.1125453E+00
         25   -1    0    0    0    0  0.00000000000E+00  0.00000000000E+00  0.99999998245E-14  0.12509000000E+03  0.12509000000E+03 0.  0.
        -13    1    3    3    0    0  0.56379494064E+01  0.43829968932E+01  0.38743157309E+02  0.39395945699E+02  0.10566000000E+00 0.  1.
         23    2    1    0    0    0 -0.30634061891E+01  0.26645624834E+02 -0.12166969702E+02  0.95638193061E+02  0.90990411802E+02 0.  0.
         13    1    3    3    0    0 -0.87013555955E+01  0.22262627940E+02 -0.50910127010E+02  0.56242247361E+02  0.10566000000E+00 0. -1.
         22    1    1    0    0    0  0.30634061891E+01 -0.26645624834E+02  0.12166969702E+02  0.29451806939E+02  0.00000000000E+00 0. -1.
</event>
<event>
 5    1  0.1258677E-009  0.9118800E+02  0.7561462E-02  0.1125453E+00
         25   -1    0    0    0    0  0.00000000000E+00  0.00000000000E+00  0.99999998245E-14  0.12509000000E+03  0.12509000000E+03 0.  0.
        -13    1    3    3    0    0 -0.85733925924E+01  0.24859921241E+02 -0.21966694388E+02  0.34264640244E+02  0.10566000000E+00 0. -1.
         23    2    1    0    0    0  0.21735603629E+02 -0.17593529431E+02  0.99404193305E+01  0.95412050620E+02  0.90678987225E+02 0.  0.
         13    1    3    3    0    0  0.30308996221E+02 -0.42453450672E+02  0.31907113718E+02  0.61147410376E+02  0.10566000000E+00 0.  1.
         22    1    1    0    0    0 -0.21735603629E+02  0.17593529431E+02 -0.99404193305E+01  0.29677949380E+02  0.00000000000E+00 0.  1.
</event>
<event>
 5    1  0.1258677E-009  0.9118800E+02  0.7561462E-02  0.1125453E+00
         25   -1    0    0    0    0  0.00000000000E+00  0.00000000000E+00  0.99999998245E-14  0.12509000000E+03  0.12509000000E+03 0.  0.
        -13    1    3    3    0    0 -0.90788621407E+01 -0.29890845848E+02 -0.15485443953E+02  0.34866868826E+02  0.10566000000E+00 0. -1.
         23    2    1    0    0    0  0.42792577566E+01  0.11648160838E+02  0.26754926430E+02  0.95597326569E+02  0.90934212819E+02 0.  0.
         13    1    3    3    0    0  0.13358119897E+02  0.41539006685E+02  0.42240370383E+02  0.60730457743E+02  0.10566000000E+00 0.  1.
         22    1    1    0    0    0 -0.42792577566E+01 -0.11648160838E+02 -0.26754926430E+02  0.29492673431E+02  0.00000000000E+00 0.  1.
</event>
<event>
 5    1  0.1258677E-009  0.9118800E+02  0.7561462E-02  0.1125453E+00
         25   -1    0    0    0    0  0.00000000000E+00  0.00000000000E+00  0.99999998245E-14  0.12509000000E+03  0.12509000000E+03 0.  0.
        -13    1    3    3    0    0  0.13478406951E+02  0.26537895861E+01 -0.38631848800E+02  0.41001718974E+02  0.10566000000E+00 0. -1.
         23    2    1    0    0    0  0.36174541600E+01  0.27278120629E+02  0.95170528825E+01  0.95973747920E+02  0.91450555792E+02 0.  0.
         13    1    3    3    0    0 -0.98609527909E+01  0.24624331042E+02  0.48148901682E+02  0.54972028946E+02  0.10566000000E+00 0.  1.
         22    1    1    0    0    0 -0.36174541600E+01 -0.27278120629E+02 -0.95170528825E+01  0.29116252080E+02  0.00000000000E+00 0.  1.
</event>
<event>
 5    1  0.1258677E-009  0.9118800E+02  0.7561462E-02  0.1125453E+00
         25   -1    0    0    0    0  0.00000000000E+00  0.00000000000E+00  0.99999998245E-14  0.12509000000E+03  0.12509000000E+03 0.  0.
        -13    1    3    3    0    0 -0.11315685362E+02 -0.34639408163E+02 -0.29857999951E+01  0.36563089294E+02  0.10566000000E+00 0. -1.
         23    2    1    0    0    0  0.14666616493E+02  0.14445180776E+02  0.19739018935E+02  0.96569800922E+02  0.92262260402E+02 0.  0.
         13    1    3    3    0    0  0.25982301854E+02  0.49084588938E+02  0.22724818930E+02  0.60006711627E+02  0.10566000000E+00 0.  1.
         22    1    1    0    0    0 -0.14666616493E+02 -0.14445180776E+02 -0.19739018935E+02  0.28520199078E+02  0.00000000000E+00 0.  1.
</event>
<event>
 5    1  0.1258677E-009  0.9118800E+02  0.7561462E-02  0.1125453E+00
         25   -1    0    0    0    0  0.00000000000E+00  0.00000000000E+00  0.99999998245E-14  0.12509000000E+03  0.12509000000E+03 0.  0.
        -13    1    3    3    0    0  0.42963607830E+02 -0.23687036986E+01 -0.93018691521E+01  0.44022929125E+02  0.10566000000E+00 0. -1.
         23    2    1    0    0    0  0.16963126607E+01 -0.30401448824E+02 -0.79758139672E+00  0.94630819063E+02  0.89594811308E+02 0.  0.
         13    1    3    3    0    0 -0.41267295169E+02 -0.28032745125E+02  0.85042877554E+01  0.50607889939E+02  0.10566000000E+00 0.  1.
         22    1    1    0    0    0 -0.16963126607E+01  0.30401448824E+02  0.79758139672E+00  0.30459180937E+02  0.00000000000E+00 0.  1.
</event>
<event>
 5    1  0.1258677E-009  0.9118800E+02  0.7561462E-02  0.1125453E+00
         25   -1    0    0    0    0  0.00000000000E+00  0.00000000000E+00  0.99999998245E-14  0.12509000000E+03  0.12509000000E+03 0.  0.
        -13    1    3    3    0    0 -0.31619468388E+02 -0.18725559549E+02 -0.47447226686E+01  0.37053487269E+02  0.10566000000E+00 0.  1.
         23    2    1    0    0    0  0.35494971207E+01  0.23284873739E+02  0.17045034733E+02  0.96015655916E+02  0.91507861395E+02 0.  0.
         13    1    3    3    0    0  0.35168965508E+02  0.42010433288E+02  0.21789757401E+02  0.58962168648E+02  0.10566000000E+00 0. -1.
         22    1    1    0    0    0 -0.35494971207E+01 -0.23284873739E+02 -0.17045034733E+02  0.29074344084E+02  0.00000000000E+00 0. -1.
</event>
<event>
 5    1  0.1258677E-009  0.9118800E+02  0.7561462E-02  0.1125453E+00
         25   -1    0    0    0    0  0.00000000000E+00  0.00000000000E+00  0.99999998245E-14  0.12509000000E+03  0.12509000000E+03 0.  0.
        -13    1    3    3    0    0  0.16976052920E+02 -0.97699890136E+01  0.32600069183E+02  0.38031759528E+02  0.10566000000E+00 0. -1.
         23    2    1    0    0    0 -0.20598873202E+02 -0.25693173744E+02 -0.27788101622E+01  0.92041935909E+02  0.85904268961E+02 0.  0.
         13    1    3    3    0    0 -0.37574926122E+02 -0.15923184731E+02 -0.35378879345E+02  0.54010176381E+02  0.10566000000E+00 0.  1.
         22    1    1    0    0    0  0.20598873202E+02  0.25693173744E+02  0.27788101622E+01  0.33048064091E+02  0.00000000000E+00 0.  1.
</event>
<event>
 5    1  0.1258677E-009  0.9118800E+02  0.7561462E-02  0.1125453E+00
         25   -1    0    0    0    0  0.00000000000E+00  0.00000000000E+00  0.99999998245E-14  0.12509000000E+03  0.12509000000E+03 0.  0.
        -13    1    3    3    0    0  0.18204086235E+02  0.14831631832E+02  0.31033224986E+02  0.38915784401E+02  0.10566000000E+00 0. -1.
         23    2    1    0    0    0 -0.28666142510E+02 -0.20907822789E+01  0.20331394210E+02  0.89883683984E+02  0.82701825609E+02 0.  0.
         13    1    3    3    0    0 -0.46870228745E+02 -0.16922414111E+02 -0.10701830776E+02  0.50967899583E+02  0.10566000000E+00 0.  1.
         22    1    1    0    0    0  0.28666142510E+02  0.20907822789E+01 -0.20331394210E+02  0.35206316016E+02  0.00000000000E+00 0.  1.
</event>
<event>
 5    1  0.1258677E-009  0.9118800E+02  0.7561462E-02  0.1125453E+00
         25   -1    0    0    0    0  0.00000000000E+00  0.00000000000E+00  0.99999998245E-14  0.12509000000E+03  0.12509000000E+03 0.  0.
        -13    1    3    3    0    0 -0.33773808804E+02 -0.22375210380E+02  0.91138046000E+01  0.41525808830E+02  0.10566000000E+00 0.  1.
         23    2    1    0    0    0  0.13608128452E+02  0.42430721584E+01 -0.17893064998E+02  0.10221323020E+03  0.99620268180E+02 0.  0.
         13    1    3    3    0    0  0.47381937256E+02  0.26618282538E+02 -0.27006869598E+02  0.60687421373E+02  0.10566000000E+00 0. -1.
         22    1    1    0    0    0 -0.13608128452E+02 -0.42430721584E+01  0.17893064998E+02  0.22876769797E+02  0.00000000000E+00 0. -1.
</event>
<event>
 5    1  0.1258677E-009  0.9118800E+02  0.7561462E-02  0.1125453E+00
         25   -1    0    0    0    0  0.00000000000E+00  0.00000000000E+00  0.99999998245E-14  0.12509000000E+03  0.12509000000E+03 0.  0.
        -13    1    3    3    0    0 -0.76341125016E+01  0.40318109984E+02 -0.22134327689E+02  0.46623698831E+02  0.10566000000E+00 0. -1.
         23    2    1    0    0    0  0.15974085000E+02 -0.34318430558E+01 -0.23632320323E+02  0.96359606647E+02  0.91976835621E+02 0.  0.
         13    1    3    3    0    0  0.23608197502E+02 -0.43749953040E+02 -0.14979926346E+01  0.49735907816E+02  0.10566000000E+00 0.  1.
         22    1    1    0    0    0 -0.15974085000E+02  0.34318430558E+01  0.23632320323E+02  0.28730393353E+02  0.00000000000E+00 0.  1.
</event>
<event>
 5    1  0.1258677E-009  0.9118800E+02  0.7561462E-02  0.1125453E+00
         25   -1    0    0    0    0  0.00000000000E+00  0.00000000000E+00  0.99999998245E-14  0.12509000000E+03  0.12509000000E+03 0.  0.
        -13    1    3    3    0    0 -0.27068661479E+02 -0.15632834827E+02  0.34877487696E+02  0.46835331439E+02  0.10566000000E+00 0. -1.
         23    2    1    0    0    0 -0.14963837499E+02  0.23503931466E+02  0.70821267942E+01  0.96340952242E+02  0.91951461826E+02 0.  0.
         13    1    3    3    0    0  0.12104823980E+02  0.39136766292E+02 -0.27795360902E+02  0.49505620803E+02  0.10566000000E+00 0.  1.
         22    1    1    0    0    0  0.14963837499E+02 -0.23503931466E+02 -0.70821267942E+01  0.28749047758E+02  0.00000000000E+00 0. -1.
</event>
<event>
 5    1  0.1258677E-009  0.9118800E+02  0.7561462E-02  0.1125453E+00
         25   -1    0    0    0    0  0.00000000000E+00  0.00000000000E+00  0.99999998245E-14  0.12509000000E+03  0.12509000000E+03 0.  0.
        -13    1    3    3    0    0 -0.14561646704E+02 -0.28903035023E+02  0.32961619512E+02  0.46194225973E+02  0.10566000000E+00 0.  1.
         23    2    1    0    0    0  0.34245462675E+01  0.15301124068E+02  0.26425092856E+02  0.94363180325E+02  0.89220358403E+02 0.  0.
         13    1    3    3    0    0  0.17986192972E+02  0.44204159092E+02 -0.65365266558E+01  0.48168954352E+02  0.10566000000E+00 0. -1.
         22    1    1    0    0    0 -0.34245462675E+01 -0.15301124068E+02 -0.26425092856E+02  0.30726819675E+02  0.00000000000E+00 0. -1.
</event>
<event>
 5    1  0.1258677E-009  0.9118800E+02  0.7561462E-02  0.1125453E+00
         25   -1    0    0    0    0  0.00000000000E+00  0.00000000000E+00  0.99999998245E-14  0.12509000000E+03  0.12509000000E+03 0.  0.
        -13    1    3    3    0    0  0.33393064144E+02  0.12634277996E+02  0.18318993234E+02  0.40128772602E+02  0.10566000000E+00 0.  1.
         23    2    1    0    0    0 -0.13216002867E+02  0.27808714273E+02 -0.40987017119E+01  0.94028984611E+02  0.88750567717E+02 0.  0.
         13    1    3    3    0    0 -0.46609067011E+02  0.15174436277E+02 -0.22417694945E+02  0.53900212009E+02  0.10566000000E+00 0. -1.
         22    1    1    0    0    0  0.13216002867E+02 -0.27808714273E+02  0.40987017119E+01  0.31061015389E+02  0.00000000000E+00 0. -1.
</event>
<event>
 5    1  0.1258677E-009  0.9118800E+02  0.7561462E-02  0.1125453E+00
         25   -1    0    0    0    0  0.00000000000E+00  0.00000000000E+00  0.99999998245E-14  0.12509000000E+03  0.12509000000E+03 0.  0.
        -13    1    3    3    0    0 -0.16958334229E+02  0.28527259751E+02 -0.46590418325E+02  0.57201992032E+02  0.10566000000E+00 0.  1.
         23    2    1    0    0    0 -0.12688063745E+02  0.25828124563E+02 -0.92781073920E+01  0.94854883714E+02  0.89907100429E+02 0.  0.
         13    1    3    3    0    0  0.42702704839E+01 -0.26991351872E+01  0.37312310933E+02  0.37652891681E+02  0.10566000000E+00 0. -1.
         22    1    1    0    0    0  0.12688063745E+02 -0.25828124563E+02  0.92781073920E+01  0.30235116286E+02  0.00000000000E+00 0.  1.
</event>
<event>
 5    1  0.1258677E-009  0.9118800E+02  0.7561462E-02  0.1125453E+00
         25   -1    0    0    0    0  0.00000000000E+00  0.00000000000E+00  0.99999998245E-14  0.12509000000E+03  0.12509000000E+03 0.  0.
        -13    1    3    3    0    0  0.31759412728E+02 -0.23633921334E+01 -0.26682620930E+02  0.41547795885E+02  0.10566000000E+00 0.  1.
         23    2    1    0    0    0 -0.12081863975E+02  0.24796525078E+02 -0.99516932612E+01  0.95766369737E+02  0.91166453703E+02 0.  0.
         13    1    3    3    0    0 -0.43841276703E+02  0.27159917211E+02  0.16730927669E+02  0.54218573852E+02  0.10566000000E+00 0. -1.
         22    1    1    0    0    0  0.12081863975E+02 -0.24796525078E+02  0.99516932612E+01  0.29323630263E+02  0.00000000000E+00 0.  1.
</event>
<event>
 5    1  0.1258677E-009  0.9118800E+02  0.7561462E-02  0.1125453E+00
         25   -1    0    0    0    0  0.00000000000E+00  0.00000000000E+00  0.99999998245E-14  0.12509000000E+03  0.12509000000E+03 0.  0.
        -13    1    3    3    0    0 -0.31777408101E+02  0.39678603486E+02  0.15648979198E+02  0.53189256003E+02  0.10566000000E+00 0. -1.
         23    2    1    0    0    0 -0.39856217461E+00  0.23610465461E+02 -0.12563498679E+02  0.98342020074E+02  0.94634552264E+02 0.  0.
         13    1    3    3    0    0  0.31378845926E+02 -0.16068138026E+02 -0.28212477876E+02  0.45152764071E+02  0.10566000000E+00 0.  1.
         22    1    1    0    0    0  0.39856217461E+00 -0.23610465461E+02  0.12563498679E+02  0.26747979926E+02  0.00000000000E+00 0. -1.
</event>
<event>
 5    1  0.1258677E-009  0.9118800E+02  0.7561462E-02  0.1125453E+00
         25   -1    0    0    0    0  0.00000000000E+00  0.00000000000E+00  0.99999998245E-14  0.12509000000E+03  0.12509000000E+03 0.  0.
        -13    1    3    3    0    0 -0.58612801364E+02  0.14265232456E+01 -0.10766270297E+02  0.59610562759E+02  0.10566000000E+00 0. -1.
         23    2    1    0    0    0 -0.26677818296E+02  0.12578856551E+02  0.14097257245E+01  0.95561692433E+02  0.90885180931E+02 0.  0.
         13    1    3    3    0    0  0.31934983067E+02  0.11152333305E+02  0.12175996022E+02  0.35951129674E+02  0.10566000000E+00 0.  1.
         22    1    1    0    0    0  0.26677818296E+02 -0.12578856551E+02 -0.14097257245E+01  0.29528307567E+02  0.00000000000E+00 0. -1.
</event>
<event>
 5    1  0.1258677E-009  0.9118800E+02  0.7561462E-02  0.1125453E+00
         25   -1    0    0    0    0  0.00000000000E+00  0.00000000000E+00  0.99999998245E-14  0.12509000000E+03  0.12509000000E+03 0.  0.
        -13    1    3    3    0    0 -0.25295138251E+02  0.33132601790E+02  0.31120130256E+02  0.52020063358E+02  0.10566000000E+00 0.  1.
         23    2    1    0    0    0 -0.17562344101E+02  0.23636200285E+02 -0.92640738254E+01  0.94220452577E+02  0.89020024297E+02 0.  0.
         13    1    3    3    0    0  0.77327941499E+01 -0.94964015050E+01 -0.40384204082E+02  0.42200389219E+02  0.10566000000E+00 0. -1.
         22    1    1    0    0    0  0.17562344101E+02 -0.23636200285E+02  0.92640738254E+01  0.30869547423E+02  0.00000000000E+00 0.  1.
</event>
<event>
 5    1  0.1258677E-009  0.9118800E+02  0.7561462E-02  0.1125453E+00
         25   -1    0    0    0    0  0.00000000000E+00  0.00000000000E+00  0.99999998245E-14  0.12509000000E+03  0.12509000000E+03 0.  0.
        -13    1    3    3    0    0  0.28988586091E+02  0.44233170613E+02 -0.90904934115E+01  0.53661529428E+02  0.10566000000E+00 0. -1.
         23    2    1    0    0    0 -0.97472434072E+01  0.22414036318E+02  0.46810827722E+01  0.10020405388E+03  0.97064628475E+02 0.  0.
         13    1    3    3    0    0 -0.38735829498E+02 -0.21819134294E+02  0.13771576184E+02  0.46542524457E+02  0.10566000000E+00 0.  1.
         22    1    1    0    0    0  0.97472434072E+01 -0.22414036318E+02 -0.46810827722E+01  0.24885946115E+02  0.00000000000E+00 0. -1.
</event>
<event>
 5    1  0.1258677E-009  0.9118800E+02  0.7561462E-02  0.1125453E+00
         25   -1    0    0    0    0  0.00000000000E+00  0.00000000000E+00  0.99999998245E-14  0.12509000000E+03  0.12509000000E+03 0.  0.
        -13    1    3    3    0    0 -0.23569418937E+02  0.75788324682E+01  0.51430657589E+01  0.25286725767E+02  0.10566000000E+00 0. -1.
         23    2    1    0    0    0  0.21127709615E+02 -0.29831139820E+02  0.17012855551E+02  0.84769852796E+02  0.74566840301E+02 0.  0.
         13    1    3    3    0    0  0.44697128552E+02 -0.37409972288E+02  0.11869789792E+02  0.59483127029E+02  0.10566000000E+00 0.  1.
         22    1    1    0    0    0 -0.21127709615E+02  0.29831139820E+02 -0.17012855551E+02  0.40320147204E+02  0.00000000000E+00 0.  1.
</event>
<event>
 5    1  0.1258677E-009  0.9118800E+02  0.7561462E-02  0.1125453E+00
         25   -1    0    0    0    0  0.00000000000E+00  0.00000000000E+00  0.99999998245E-14  0.12509000000E+03  0.12509000000E+03 0.  0.
        -13    1    3    3    0    0  0.20158222173E+02 -0.28810187429E+02 -0.21941082211E+02  0.41446387943E+02  0.10566000000E+00 0. -1.
         23    2    1    0    0    0  0.27885952638E+02  0.38163202271E+01  0.16506893134E+02  0.92460746629E+02  0.86511973112E+02 0.  0.
         13    1    3    3    0    0  0.77277304650E+01  0.32626507656E+02  0.38447975345E+02  0.51014358686E+02  0.10566000000E+00 0.  1.
         22    1    1    0    0    0 -0.27885952638E+02 -0.38163202271E+01 -0.16506893134E+02  0.32629253371E+02  0.00000000000E+00 0.  1.
</event>
<event>
 5    1  0.1258677E-009  0.9118800E+02  0.7561462E-02  0.1125453E+00
         25   -1    0    0    0    0  0.00000000000E+00  0.00000000000E+00  0.99999998245E-14  0.12509000000E+03  0.12509000000E+03 0.  0.
        -13    1    3    3    0    0  0.59025135998E+02  0.14206209224E+02 -0.11448983068E+02  0.61780850087E+02  0.10566000000E+00 0.  1.
         23    2    1    0    0    0  0.26382829672E+02  0.12974080960E+02 -0.28984301344E+01  0.95547126485E+02  0.90865130848E+02 0.  0.
         13    1    3    3    0    0 -0.32642306326E+02 -0.12321282643E+01  0.85505529337E+01  0.33766276399E+02  0.10566000000E+00 0. -1.
         22    1    1    0    0    0 -0.26382829672E+02 -0.12974080960E+02  0.28984301344E+01  0.29542873515E+02  0.00000000000E+00 0.  1.
</event>
<event>
 5    1  0.1258677E-009  0.9118800E+02  0.7561462E-02  0.1125453E+00
         25   -1    0    0    0    0  0.00000000000E+00  0.00000000000E+00  0.99999998245E-14  0.12509000000E+03  0.12509000000E+03 0.  0.
        -13    1    3    3    0    0  0.44045346692E+02 -0.32898738894E+02 -0.22727143076E+01  0.55022686052E+02  0.10566000000E+00 0. -1.
         23    2    1    0    0    0  0.11491096660E+02 -0.18177629609E+02 -0.20715630186E+02  0.95230179929E+02  0.90427751905E+02 0.  0.
         13    1    3    3    0    0 -0.32554250032E+02  0.14721109284E+02 -0.18442915879E+02  0.40207493877E+02  0.10566000000E+00 0.  1.
         22    1    1    0    0    0 -0.11491096660E+02  0.18177629609E+02  0.20715630186E+02  0.29859820071E+02  0.00000000000E+00 0.  1.
</event>
<event>
 5    1  0.1258677E-009  0.9118800E+02  0.7561462E-02  0.1125453E+00
         25   -1    0    0    0    0  0.00000000000E+00  0.00000000000E+00  0.99999998245E-14  0.12509000000E+03  0.12509000000E+03 0.  0.
        -13    1    3    3    0    0 -0.29731548514E+02  0.26093311885E+02 -0.37269868416E+01  0.39733203962E+02  0.10566000000E+00 0.  1.
         23    2    1    0    0    0  0.91700602574E+01 -0.84555695366E+01 -0.25941276522E+02  0.96305690230E+02  0.91903479160E+02 0.  0.
         13    1    3    3    0    0  0.38901608771E+02 -0.34548881422E+02 -0.22214289681E+02  0.56572486268E+02  0.10566000000E+00 0. -1.
         22    1    1    0    0    0 -0.91700602574E+01  0.84555695366E+01  0.25941276522E+02  0.28784309770E+02  0.00000000000E+00 0. -1.
</event>
<event>
 5    1  0.1258677E-009  0.9118800E+02  0.7561462E-02  0.1125453E+00
         25   -1    0    0    0    0  0.00000000000E+00  0.00000000000E+00  0.99999998245E-14  0.12509000000E+03  0.12509000000E+03 0.  0.
        -13    1    3    3    0    0 -0.51169502974E+02  0.22324808271E+01  0.23390409264E+02  0.56306521956E+02  0.10566000000E+00 0.  1.
         23    2    1    0    0    0 -0.25092250619E+02  0.15730161421E+02 -0.23860425278E+01  0.95378853634E+02  0.90633181022E+02 0.  0.
         13    1    3    3    0    0  0.26077252355E+02  0.13497680594E+02 -0.25776451791E+02  0.39072331678E+02  0.10566000000E+00 0. -1.
         22    1    1    0    0    0  0.25092250619E+02 -0.15730161421E+02  0.23860425278E+01  0.29711146366E+02  0.00000000000E+00 0.  1.
</event>
<event>
 5    1  0.1258677E-009  0.9118800E+02  0.7561462E-02  0.1125453E+00
         25   -1    0    0    0    0  0.00000000000E+00  0.00000000000E+00  0.99999998245E-14  0.12509000000E+03  0.12509000000E+03 0.  0.
        -13    1    3    3    0    0 -0.22325919798E+02  0.34285634064E+02  0.14530080419E+02  0.43417574771E+02  0.10566000000E+00 0.  1.
         23    2    1    0    0    0 -0.32326704724E+00  0.80774993855E+01 -0.26812642793E+02  0.97085209134E+02  0.92958428994E+02 0.  0.
         13    1    3    3    0    0  0.22002652751E+02 -0.26208134679E+02 -0.41342723212E+02  0.53667634362E+02  0.10566000000E+00 0. -1.
         22    1    1    0    0    0  0.32326704724E+00 -0.80774993855E+01  0.26812642793E+02  0.28004790866E+02  0.00000000000E+00 0. -1.
</event>
<event>
 5    1  0.1258677E-009  0.9118800E+02  0.7561462E-02  0.1125453E+00
         25   -1    0    0    0    0  0.00000000000E+00  0.00000000000E+00  0.99999998245E-14  0.12509000000E+03  0.12509000000E+03 0.  0.
        -13    1    3    3    0    0  0.50679195738E+02  0.25648669283E+02  0.77347682371E+01  0.57324278629E+02  0.10566000000E+00 0.  1.
         23    2    1    0    0    0  0.25063388846E+02 -0.26411938544E+01  0.14396961047E+02  0.96065495649E+02  0.91575966287E+02 0.  0.
         13    1    3    3    0    0 -0.25615806892E+02 -0.28289863138E+02  0.66621928100E+01  0.38741217019E+02  0.10566000000E+00 0. -1.
         22    1    1    0    0    0 -0.25063388846E+02  0.26411938544E+01 -0.14396961047E+02  0.29024504351E+02  0.00000000000E+00 0.  1.
</event>
<event>
 5    1  0.1258677E-009  0.9118800E+02  0.7561462E-02  0.1125453E+00
         25   -1    0    0    0    0  0.00000000000E+00  0.00000000000E+00  0.99999998245E-14  0.12509000000E+03  0.12509000000E+03 0.  0.
        -13    1    3    3    0    0  0.22911957136E+02  0.34235516401E+02 -0.18433748910E+02  0.45131392910E+02  0.10566000000E+00 0.  1.
         23    2    1    0    0    0 -0.53274299905E+01 -0.32186066263E+01 -0.30821125265E+02  0.93646674770E+02  0.88210073087E+02 0.  0.
         13    1    3    3    0    0 -0.28239387127E+02 -0.37454123027E+02 -0.12387376355E+02  0.48515281861E+02  0.10566000000E+00 0. -1.
         22    1    1    0    0    0  0.53274299905E+01  0.32186066263E+01  0.30821125265E+02  0.31443325230E+02  0.00000000000E+00 0. -1.
</event>
<event>
 5    1  0.1258677E-009  0.9118800E+02  0.7561462E-02  0.1125453E+00
         25   -1    0    0    0    0  0.00000000000E+00  0.00000000000E+00  0.99999998245E-14  0.12509000000E+03  0.12509000000E+03 0.  0.
        -13    1    3    3    0    0 -0.47431112218E+02 -0.36644018888E+02 -0.13613600628E+02  0.61464101821E+02  0.10566000000E+00 0. -1.
         23    2    1    0    0    0 -0.21516122964E+02 -0.22090094497E+02  0.23002903866E+00  0.94252219022E+02  0.89064650984E+02 0.  0.
         13    1    3    3    0    0  0.25914989254E+02  0.14553924391E+02  0.13843629667E+02  0.32788117201E+02  0.10566000000E+00 0.  1.
         22    1    1    0    0    0  0.21516122964E+02  0.22090094497E+02 -0.23002903866E+00  0.30837780978E+02  0.00000000000E+00 0. -1.
</event>
<event>
 5    1  0.1258677E-009  0.9118800E+02  0.7561462E-02  0.1125453E+00
         25   -1    0    0    0    0  0.00000000000E+00  0.00000000000E+00  0.99999998245E-14  0.12509000000E+03  0.12509000000E+03 0.  0.
        -13    1    3    3    0    0 -0.36403804067E+02 -0.25783960089E+02 -0.25254006820E+02  0.51262321182E+02  0.10566000000E+00 0.  1.
         23    2    1    0    0    0 -0.91927678044E+01 -0.24957231948E+02  0.10752594787E+02  0.96402220353E+02  0.92034772711E+02 0.  0.
         13    1    3    3    0    0  0.27211036263E+02  0.82672814150E+00  0.36006601607E+02  0.45139899172E+02  0.10566000000E+00 0. -1.
         22    1    1    0    0    0  0.91927678044E+01  0.24957231948E+02 -0.10752594787E+02  0.28687779647E+02  0.00000000000E+00 0.  1.
</event>
<event>
 5    1  0.1258677E-009  0.9118800E+02  0.7561462E-02  0.1125453E+00
         25   -1    0    0    0    0  0.00000000000E+00  0.00000000000E+00  0.99999998245E-14  0.12509000000E+03  0.12509000000E+03 0.  0.
        -13    1    3    3    0    0 -0.13104909945E+02 -0.34393931720E+02  0.29422534200E+01  0.36923559188E+02  0.10566000000E+00 0. -1.
         23    2    1    0    0    0  0.28589890593E+02  0.19682090990E+01  0.13768881149E+02  0.93296324854E+02  0.87711837582E+02 0.  0.
         13    1    3    3    0    0  0.41694800538E+02  0.36362140819E+02  0.10826627729E+02  0.56372765667E+02  0.10566000000E+00 0.  1.
         22    1    1    0    0    0 -0.28589890593E+02 -0.19682090990E+01 -0.13768881149E+02  0.31793675146E+02  0.00000000000E+00 0.  1.
</event>
<event>
 5    1  0.1258677E-009  0.9118800E+02  0.7561462E-02  0.1125453E+00
         25   -1    0    0    0    0  0.00000000000E+00  0.00000000000E+00  0.99999998245E-14  0.12509000000E+03  0.12509000000E+03 0.  0.
        -13    1    3    3    0    0 -0.20967048769E+02 -0.52781017514E+02  0.58203552765E+01  0.57090635339E+02  0.10566000000E+00 0. -1.
         23    2    1    0    0    0 -0.22564970177E+02 -0.10586399114E+02  0.65386143354E+01  0.99321740402E+02  0.95920826278E+02 0.  0.
         13    1    3    3    0    0 -0.15979214079E+01  0.42194618400E+02  0.71825905891E+00  0.42231105063E+02  0.10566000000E+00 0.  1.
         22    1    1    0    0    0  0.22564970177E+02  0.10586399114E+02 -0.65386143354E+01  0.25768259598E+02  0.00000000000E+00 0. -1.
</event>
<event>
 4    1  0.1258677E-009  0.9118800E+02  0.7561462E-02  0.1125453E+00
         25   -1    0    0    0    0  0.00000000000E+00  0.00000000000E+00  0.99999998245E-14  0.12509000000E+03  0.12509000000E+03 0.  0.
        -13    1    1    0    0    0 -0.32738126045E+02  0.16501962476E+02 -0.31397621395E+02  0.48269259946E+02  0.10566000000E+00 0.  1.
         13    1    1    0    0    0 -0.12744038972E+02 -0.33393430978E+01 -0.78366010346E+01  0.15329227686E+02  0.10566000000E+00 0. -1.
         22    1    1    0    0    0  0.45482165018E+02 -0.13162619378E+02  0.39234222429E+02  0.61491512367E+02  0.00000000000E+00 0.  1.
</event>
<event>
 5    1  0.1258677E-009  0.9118800E+02  0.7561462E-02  0.1125453E+00
         25   -1    0    0    0    0  0.00000000000E+00  0.00000000000E+00  0.99999998245E-14  0.12509000000E+03  0.12509000000E+03 0.  0.
        -13    1    3    3    0    0 -0.87536626678E+01 -0.50321394560E+01  0.33991239502E+02  0.35459336775E+02  0.10566000000E+00 0.  1.
         23    2    1    0    0    0  0.31095889549E+02  0.39146831999E+01 -0.66218249411E+01  0.93056772611E+02  0.87369532859E+02 0.  0.
         13    1    3    3    0    0  0.39849552216E+02  0.89468226559E+01 -0.40613064443E+02  0.57597435837E+02  0.10566000000E+00 0. -1.
         22    1    1    0    0    0 -0.31095889549E+02 -0.39146831999E+01  0.66218249411E+01  0.32033227389E+02  0.00000000000E+00 0. -1.
</event>
<event>
 5    1  0.1258677E-009  0.9118800E+02  0.7561462E-02  0.1125453E+00
         25   -1    0    0    0    0  0.00000000000E+00  0.00000000000E+00  0.99999998245E-14  0.12509000000E+03  0.12509000000E+03 0.  0.
        -13    1    3    3    0    0  0.26453172272E+02 -0.31294674451E+02  0.31106925363E+02  0.51446855510E+02  0.10566000000E+00 0. -1.
         23    2    1    0    0    0  0.30071956902E+02 -0.70514489074E+00  0.30494842589E+02  0.82255956929E+02  0.70223124429E+02 0.  0.
         13    1    3    3    0    0  0.36187846306E+01  0.30589529560E+02 -0.61208277395E+00  0.30809101420E+02  0.10566000000E+00 0.  1.
         22    1    1    0    0    0 -0.30071956902E+02  0.70514489074E+00 -0.30494842589E+02  0.42834043071E+02  0.00000000000E+00 0. -1.
</event>
<event>
 5    1  0.1258677E-009  0.9118800E+02  0.7561462E-02  0.1125453E+00
         25   -1    0    0    0    0  0.00000000000E+00  0.00000000000E+00  0.99999998245E-14  0.12509000000E+03  0.12509000000E+03 0.  0.
        -13    1    3    3    0    0 -0.26173374223E+02  0.29796404039E+02  0.36405650450E+02  0.53835432204E+02  0.10566000000E+00 0. -1.
         23    2    1    0    0    0  0.77328445572E+01  0.17447663931E+02  0.28522588830E+02  0.90771551096E+02  0.84034032113E+02 0.  0.
         13    1    3    3    0    0  0.33906218781E+02 -0.12348740108E+02 -0.78830616206E+01  0.36936118892E+02  0.10566000000E+00 0.  1.
         22    1    1    0    0    0 -0.77328445572E+01 -0.17447663931E+02 -0.28522588830E+02  0.34318448904E+02  0.00000000000E+00 0. -1.
</event>
<event>
 5    1  0.1258677E-009  0.9118800E+02  0.7561462E-02  0.1125453E+00
         25   -1    0    0    0    0  0.00000000000E+00  0.00000000000E+00  0.99999998245E-14  0.12509000000E+03  0.12509000000E+03 0.  0.
        -13    1    3    3    0    0 -0.32978471344E+02  0.37549911626E+02  0.30846946529E+02  0.58729215128E+02  0.10566000000E+00 0. -1.
         23    2    1    0    0    0 -0.25565067898E+02  0.59465291945E+01  0.12479418168E+02  0.96026796737E+02  0.91523089478E+02 0.  0.
         13    1    3    3    0    0  0.74134034460E+01 -0.31603382432E+02 -0.18367528360E+02  0.37297581609E+02  0.10566000000E+00 0.  1.
         22    1    1    0    0    0  0.25565067898E+02 -0.59465291945E+01 -0.12479418168E+02  0.29063203263E+02  0.00000000000E+00 0. -1.
</event>
<event>
 5    1  0.1258677E-009  0.9118800E+02  0.7561462E-02  0.1125453E+00
         25   -1    0    0    0    0  0.00000000000E+00  0.00000000000E+00  0.99999998245E-14  0.12509000000E+03  0.12509000000E+03 0.  0.
        -13    1    3    3    0    0  0.23260020730E+02  0.39288104389E+02 -0.10774951148E+01  0.45670076315E+02  0.10566000000E+00 0.  1.
         23    2    1    0    0    0  0.88546255076E+01 -0.12282791523E+01  0.26747247343E+02  0.96888434388E+02  0.92693259815E+02 0.  0.
         13    1    3    3    0    0 -0.14405395222E+02 -0.40516383542E+02  0.27824742458E+02  0.51218358073E+02  0.10566000000E+00 0. -1.
         22    1    1    0    0    0 -0.88546255076E+01  0.12282791523E+01 -0.26747247343E+02  0.28201565612E+02  0.00000000000E+00 0. -1.
</event>
<event>
 5    1  0.1258677E-009  0.9118800E+02  0.7561462E-02  0.1125453E+00
         25   -1    0    0    0    0  0.00000000000E+00  0.00000000000E+00  0.99999998245E-14  0.12509000000E+03  0.12509000000E+03 0.  0.
        -13    1    3    3    0    0  0.20500777339E+02 -0.31671229398E+02 -0.19759653067E+02  0.42588774301E+02  0.10566000000E+00 0.  1.
         23    2    1    0    0    0 -0.26381586182E+02 -0.83951781963E+01 -0.51740012635E+01  0.96925529554E+02  0.92743306410E+02 0.  0.
         13    1    3    3    0    0 -0.46882363521E+02  0.23276051202E+02  0.14585651804E+02  0.54336755253E+02  0.10566000000E+00 0. -1.
         22    1    1    0    0    0  0.26381586182E+02  0.83951781963E+01  0.51740012635E+01  0.28164470446E+02  0.00000000000E+00 0. -1.
</event>
<event>
 5    1  0.1258677E-009  0.9118800E+02  0.7561462E-02  0.1125453E+00
         25   -1    0    0    0    0  0.00000000000E+00  0.00000000000E+00  0.99999998245E-14  0.12509000000E+03  0.12509000000E+03 0.  0.
        -13    1    3    3    0    0  0.16735299092E+02  0.22507319625E+02 -0.77361369386E+01  0.29094821724E+02  0.10566000000E+00 0. -1.
         23    2    1    0    0    0 -0.29407623901E+02 -0.13726073302E+02  0.11222899708E+02  0.90751000165E+02  0.84003435176E+02 0.  0.
         13    1    3    3    0    0 -0.46142922993E+02 -0.36233392927E+02  0.18959036647E+02  0.61656178441E+02  0.10566000000E+00 0.  1.
         22    1    1    0    0    0  0.29407623901E+02  0.13726073302E+02 -0.11222899708E+02  0.34338999835E+02  0.00000000000E+00 0.  1.
</event>
<event>
 5    1  0.1258677E-009  0.9118800E+02  0.7561462E-02  0.1125453E+00
         25   -1    0    0    0    0  0.00000000000E+00  0.00000000000E+00  0.99999998245E-14  0.12509000000E+03  0.12509000000E+03 0.  0.
        -13    1    3    3    0    0  0.41807785316E+02 -0.24654560091E+02  0.35131970905E+02  0.59916648688E+02  0.10566000000E+00 0. -1.
         23    2    1    0    0    0  0.13694318426E+02 -0.22936941154E+02  0.17825033382E+02  0.92975058902E+02  0.87252462063E+02 0.  0.
         13    1    3    3    0    0 -0.28113466890E+02  0.17176189363E+01 -0.17306937523E+02  0.33058410214E+02  0.10566000000E+00 0.  1.
         22    1    1    0    0    0 -0.13694318426E+02  0.22936941154E+02 -0.17825033382E+02  0.32114941098E+02  0.00000000000E+00 0. -1.
</event>
<event>
 5    1  0.1258677E-009  0.9118800E+02  0.7561462E-02  0.1125453E+00
         25   -1    0    0    0    0  0.00000000000E+00  0.00000000000E+00  0.99999998245E-14  0.12509000000E+03  0.12509000000E+03 0.  0.
        -13    1    3    3    0    0  0.23265826528E+02 -0.13676145101E+02  0.37315079252E+02  0.46051731047E+02  0.10566000000E+00 0.  1.
         23    2    1    0    0    0 -0.19929045627E+02  0.63555881422E+01  0.18212212282E+02  0.97354732984E+02  0.93320410404E+02 0.  0.
         13    1    3    3    0    0 -0.43194872155E+02  0.20031733244E+02 -0.19102866969E+02  0.51303001937E+02  0.10566000000E+00 0. -1.
         22    1    1    0    0    0  0.19929045627E+02 -0.63555881422E+01 -0.18212212282E+02  0.27735267016E+02  0.00000000000E+00 0. -1.
</event>
<event>
 5    1  0.1258677E-009  0.9118800E+02  0.7561462E-02  0.1125453E+00
         25   -1    0    0    0    0  0.00000000000E+00  0.00000000000E+00  0.99999998245E-14  0.12509000000E+03  0.12509000000E+03 0.  0.
        -13    1    3    3    0    0 -0.17046960835E+02 -0.39488005891E+02  0.97590785353E+01  0.44103880338E+02  0.10566000000E+00 0.  1.
         23    2    1    0    0    0 -0.19896219397E+02  0.95455499248E+01  0.21149834122E+02  0.94523800481E+02  0.89445269883E+02 0.  0.
         13    1    3    3    0    0 -0.28492585613E+01  0.49033555816E+02  0.11390755587E+02  0.50419920143E+02  0.10566000000E+00 0. -1.
         22    1    1    0    0    0  0.19896219397E+02 -0.95455499248E+01 -0.21149834122E+02  0.30566199519E+02  0.00000000000E+00 0. -1.
</event>
<event>
 5    1  0.1258677E-009  0.9118800E+02  0.7561462E-02  0.1125453E+00
         25   -1    0    0    0    0  0.00000000000E+00  0.00000000000E+00  0.99999998245E-14  0.12509000000E+03  0.12509000000E+03 0.  0.
        -13    1    3    3    0    0  0.51124939265E+02 -0.17181330711E+02 -0.15193378227E+02  0.56033984740E+02  0.10566000000E+00 0.  1.
         23    2    1    0    0    0  0.21770458959E+02 -0.16142410273E+02  0.11429049752E+02  0.95676508692E+02  0.91043071370E+02 0.  0.
         13    1    3    3    0    0 -0.29354480307E+02  0.10389204380E+01  0.26622427979E+02  0.39642523952E+02  0.10566000000E+00 0. -1.
         22    1    1    0    0    0 -0.21770458959E+02  0.16142410273E+02 -0.11429049752E+02  0.29413491308E+02  0.00000000000E+00 0.  1.
</event>
<event>
 5    1  0.1258677E-009  0.9118800E+02  0.7561462E-02  0.1125453E+00
         25   -1    0    0    0    0  0.00000000000E+00  0.00000000000E+00  0.99999998245E-14  0.12509000000E+03  0.12509000000E+03 0.  0.
        -13    1    3    3    0    0 -0.69637833345E+01  0.26356746291E+02 -0.29167418554E+02  0.39923950488E+02  0.10566000000E+00 0.  1.
         23    2    1    0    0    0  0.67872830850E+01 -0.24611182675E+02 -0.17918095729E+02  0.93899686137E+02  0.88568139744E+02 0.  0.
         13    1    3    3    0    0  0.13751066419E+02 -0.50967928966E+02  0.11249322826E+02  0.53975735649E+02  0.10566000000E+00 0. -1.
         22    1    1    0    0    0 -0.67872830850E+01  0.24611182675E+02  0.17918095729E+02  0.31190313863E+02  0.00000000000E+00 0.  1.
</event>
<event>
 5    1  0.1258677E-009  0.9118800E+02  0.7561462E-02  0.1125453E+00
         25   -1    0    0    0    0  0.00000000000E+00  0.00000000000E+00  0.99999998245E-14  0.12509000000E+03  0.12509000000E+03 0.  0.
        -13    1    3    3    0    0  0.45979338669E+02  0.23406067202E+02  0.21116736277E+02  0.55748285008E+02  0.10566000000E+00 0.  1.
         23    2    1    0    0    0  0.23708456699E+02  0.99705475348E+01 -0.11034578186E+02  0.97103134278E+02  0.92982546930E+02 0.  0.
         13    1    3    3    0    0 -0.22270881969E+02 -0.13435519667E+02 -0.32151314463E+02  0.41354849270E+02  0.10566000000E+00 0. -1.
         22    1    1    0    0    0 -0.23708456699E+02 -0.99705475348E+01  0.11034578186E+02  0.27986865722E+02  0.00000000000E+00 0.  1.
</event>
<event>
 5    1  0.1258677E-009  0.9118800E+02  0.7561462E-02  0.1125453E+00
         25   -1    0    0    0    0  0.00000000000E+00  0.00000000000E+00  0.99999998245E-14  0.12509000000E+03  0.12509000000E+03 0.  0.
        -13    1    3    3    0    0 -0.43231264236E+02  0.54329986842E+01 -0.89075975526E+01  0.44472644854E+02  0.10566000000E+00 0.  1.
         23    2    1    0    0    0  0.31127301183E+00 -0.13724871741E+02 -0.26542754456E+02  0.95207115111E+02  0.90395840383E+02 0.  0.
         13    1    3    3    0    0  0.43542537248E+02 -0.19157870425E+02 -0.17635156903E+02  0.50734470257E+02  0.10566000000E+00 0. -1.
         22    1    1    0    0    0 -0.31127301183E+00  0.13724871741E+02  0.26542754456E+02  0.29882884889E+02  0.00000000000E+00 0.  1.
</event>
<event>
 5    1  0.1258677E-009  0.9118800E+02  0.7561462E-02  0.1125453E+00
         25   -1    0    0    0    0  0.00000000000E+00  0.00000000000E+00  0.99999998245E-14  0.12509000000E+03  0.12509000000E+03 0.  0.
        -13    1    3    3    0    0  0.18628950468E+01 -0.28982989880E+02 -0.46771311591E+02  0.55054980087E+02  0.10566000000E+00 0. -1.
         23    2    1    0    0    0 -0.10478209685E+02 -0.25995510794E+02 -0.78671340958E+01  0.95978983897E+02  0.91457717506E+02 0.  0.
         13    1    3    3    0    0 -0.12341104731E+02  0.29874790855E+01  0.38904177496E+02  0.40924003811E+02  0.10566000000E+00 0.  1.
         22    1    1    0    0    0  0.10478209685E+02  0.25995510794E+02  0.78671340958E+01  0.29111016103E+02  0.00000000000E+00 0. -1.
</event>
<event>
 5    1  0.1258677E-009  0.9118800E+02  0.7561462E-02  0.1125453E+00
         25   -1    0    0    0    0  0.00000000000E+00  0.00000000000E+00  0.99999998245E-14  0.12509000000E+03  0.12509000000E+03 0.  0.
        -13    1    3    3    0    0  0.51112148546E+02  0.31680421737E+02 -0.45069227210E+01  0.60302772464E+02  0.10566000000E+00 0.  1.
         23    2    1    0    0    0  0.21892352100E+02  0.16090613146E+02  0.95634954454E+01  0.96286469712E+02  0.91877314353E+02 0.  0.
         13    1    3    3    0    0 -0.29219796446E+02 -0.15589808591E+02  0.14070418166E+02  0.35983697248E+02  0.10566000000E+00 0. -1.
         22    1    1    0    0    0 -0.21892352100E+02 -0.16090613146E+02 -0.95634954454E+01  0.28803530288E+02  0.00000000000E+00 0.  1.
</event>
<event>
 5    1  0.1258677E-009  0.9118800E+02  0.7561462E-02  0.1125453E+00
         25   -1    0    0    0    0  0.00000000000E+00  0.00000000000E+00  0.99999998245E-14  0.12509000000E+03  0.12509000000E+03 0.  0.
        -13    1    3    3    0    0  0.52827015531E+02  0.24454888970E+02 -0.19177360829E+00  0.58213255411E+02  0.10566000000E+00 0.  1.
         23    2    1    0    0    0  0.25058296706E+02  0.47069299863E+01 -0.15155782504E+02  0.95429063282E+02  0.90702452844E+02 0.  0.
         13    1    3    3    0    0 -0.27768718825E+02 -0.19747958984E+02 -0.14964008895E+02  0.37215807870E+02  0.10566000000E+00 0. -1.
         22    1    1    0    0    0 -0.25058296706E+02 -0.47069299863E+01  0.15155782504E+02  0.29660936718E+02  0.00000000000E+00 0.  1.
</event>
<event>
 5    1  0.1258677E-009  0.9118800E+02  0.7561462E-02  0.1125453E+00
         25   -1    0    0    0    0  0.00000000000E+00  0.00000000000E+00  0.99999998245E-14  0.12509000000E+03  0.12509000000E+03 0.  0.
        -13    1    3    3    0    0  0.77423787118E+00 -0.35001468960E+02 -0.32300316868E+02  0.47634272404E+02  0.10566000000E+00 0.  1.
         23    2    1    0    0    0  0.80284181248E+01 -0.23925284260E+02  0.14303139034E+02  0.96082164667E+02  0.91598732832E+02 0.  0.
         13    1    3    3    0    0  0.72541802537E+01  0.11076184700E+02  0.46603455902E+02  0.48447892263E+02  0.10566000000E+00 0. -1.
         22    1    1    0    0    0 -0.80284181248E+01  0.23925284260E+02 -0.14303139034E+02  0.29007835333E+02  0.00000000000E+00 0. -1.
</event>
<event>
 5    1  0.1258677E-009  0.9118800E+02  0.7561462E-02  0.1125453E+00
         25   -1    0    0    0    0  0.00000000000E+00  0.00000000000E+00  0.99999998245E-14  0.12509000000E+03  0.12509000000E+03 0.  0.
        -13    1    3    3    0    0  0.15462050145E+02  0.88878252246E+01  0.52380036490E+02  0.55333062617E+02  0.10566000000E+00 0.  1.
         23    2    1    0    0    0 -0.49382636872E+01  0.21310328028E+02  0.21026594044E+02  0.94748045778E+02  0.89758331049E+02 0.  0.
         13    1    3    3    0    0 -0.20400313832E+02  0.12422502804E+02 -0.31353442446E+02  0.39414983161E+02  0.10566000000E+00 0. -1.
         22    1    1    0    0    0  0.49382636872E+01 -0.21310328028E+02 -0.21026594044E+02  0.30341954222E+02  0.00000000000E+00 0.  1.
</event>
<event>
 5    1  0.1258677E-009  0.9118800E+02  0.7561462E-02  0.1125453E+00
         25   -1    0    0    0    0  0.00000000000E+00  0.00000000000E+00  0.99999998245E-14  0.12509000000E+03  0.12509000000E+03 0.  0.
        -13    1    3    3    0    0  0.47191519649E+01  0.44711243695E+01 -0.40298821337E+02  0.40819940146E+02  0.10566000000E+00 0.  1.
         23    2    1    0    0    0 -0.27414040566E+01  0.28071251811E+02  0.85805356736E+01  0.95608886268E+02  0.90950113065E+02 0.  0.
         13    1    3    3    0    0 -0.74605560216E+01  0.23600127441E+02  0.48879357010E+02  0.54788946122E+02  0.10566000000E+00 0. -1.
         22    1    1    0    0    0  0.27414040566E+01 -0.28071251811E+02 -0.85805356736E+01  0.29481113732E+02  0.00000000000E+00 0. -1.
</event>
<event>
 5    1  0.1258677E-009  0.9118800E+02  0.7561462E-02  0.1125453E+00
         25   -1    0    0    0    0  0.00000000000E+00  0.00000000000E+00  0.99999998245E-14  0.12509000000E+03  0.12509000000E+03 0.  0.
        -13    1    3    3    0    0 -0.39881129075E+02  0.25766998925E+02  0.16791265065E+02  0.50362688931E+02  0.10566000000E+00 0.  1.
         23    2    1    0    0    0 -0.19164807432E+02 -0.13854232536E+02  0.18438178468E+02  0.95103402523E+02  0.90252208522E+02 0.  0.
         13    1    3    3    0    0  0.20716321643E+02 -0.39621231461E+02  0.16469134033E+01  0.44740713592E+02  0.10566000000E+00 0. -1.
         22    1    1    0    0    0  0.19164807432E+02  0.13854232536E+02 -0.18438178468E+02  0.29986597477E+02  0.00000000000E+00 0. -1.
</event>
<event>
 5    1  0.1258677E-009  0.9118800E+02  0.7561462E-02  0.1125453E+00
         25   -1    0    0    0    0  0.00000000000E+00  0.00000000000E+00  0.99999998245E-14  0.12509000000E+03  0.12509000000E+03 0.  0.
        -13    1    3    3    0    0  0.24923827524E+02 -0.90116333347E+01 -0.15964634224E+02  0.30940061793E+02  0.10566000000E+00 0.  1.
         23    2    1    0    0    0 -0.22401849555E+02 -0.22588131752E+02  0.15837711698E+02  0.89552700280E+02  0.82199674307E+02 0.  0.
         13    1    3    3    0    0 -0.47325677078E+02 -0.13576498418E+02  0.31802345923E+02  0.58612638487E+02  0.10566000000E+00 0. -1.
         22    1    1    0    0    0  0.22401849555E+02  0.22588131752E+02 -0.15837711698E+02  0.35537299720E+02  0.00000000000E+00 0. -1.
</event>
<event>
 5    1  0.1258677E-009  0.9118800E+02  0.7561462E-02  0.1125453E+00
         25   -1    0    0    0    0  0.00000000000E+00  0.00000000000E+00  0.99999998245E-14  0.12509000000E+03  0.12509000000E+03 0.  0.
        -13    1    3    3    0    0 -0.33592008236E+02  0.14082144589E+01 -0.42808532634E+02  0.54433332762E+02  0.10566000000E+00 0. -1.
         23    2    1    0    0    0  0.27352198663E+01 -0.17824868159E+01 -0.32633665936E+02  0.92293432506E+02  0.86269709889E+02 0.  0.
         13    1    3    3    0    0  0.36327228103E+02 -0.31907012748E+01  0.10174866698E+02  0.37860099744E+02  0.10566000000E+00 0.  1.
         22    1    1    0    0    0 -0.27352198663E+01  0.17824868159E+01  0.32633665936E+02  0.32796567494E+02  0.00000000000E+00 0. -1.
</event>
<event>
 5    1  0.1258677E-009  0.9118800E+02  0.7561462E-02  0.1125453E+00
         25   -1    0    0    0    0  0.00000000000E+00  0.00000000000E+00  0.99999998245E-14  0.12509000000E+03  0.12509000000E+03 0.  0.
        -13    1    3    3    0    0  0.61145294295E+02 -0.64658494477E+01 -0.10210844156E+02  0.62328378175E+02  0.10566000000E+00 0. -1.
         23    2    1    0    0    0  0.28024973877E+02 -0.42214637084E+01 -0.82035432946E+01  0.95585457312E+02  0.90917883886E+02 0.  0.
         13    1    3    3    0    0 -0.33120320418E+02  0.22443857393E+01  0.20073008610E+01  0.33257079137E+02  0.10566000000E+00 0.  1.
         22    1    1    0    0    0 -0.28024973877E+02  0.42214637084E+01  0.82035432946E+01  0.29504542688E+02  0.00000000000E+00 0. -1.
</event>
<event>
 5    1  0.1258677E-009  0.9118800E+02  0.7561462E-02  0.1125453E+00
         25   -1    0    0    0    0  0.00000000000E+00  0.00000000000E+00  0.99999998245E-14  0.12509000000E+03  0.12509000000E+03 0.  0.
        -13    1    3    3    0    0  0.14558150518E+02 -0.21337432614E+02 -0.26426417176E+02  0.36953923552E+02  0.10566000000E+00 0. -1.
         23    2    1    0    0    0  0.30198812234E+02 -0.85969532381E+01  0.20198291416E+02  0.87755741718E+02  0.79418029206E+02 0.  0.
         13    1    3    3    0    0  0.15640661717E+02  0.12740479376E+02  0.46624708592E+02  0.50801818166E+02  0.10566000000E+00 0.  1.
         22    1    1    0    0    0 -0.30198812234E+02  0.85969532381E+01 -0.20198291416E+02  0.37334258282E+02  0.00000000000E+00 0. -1.
</event>
<event>
 5    1  0.1258677E-009  0.9118800E+02  0.7561462E-02  0.1125453E+00
         25   -1    0    0    0    0  0.00000000000E+00  0.00000000000E+00  0.99999998245E-14  0.12509000000E+03  0.12509000000E+03 0.  0.
        -13    1    3    3    0    0 -0.25824295251E+02  0.46229457566E+02  0.27102290038E+02  0.59486151846E+02  0.10566000000E+00 0.  1.
         23    2    1    0    0    0 -0.12675868386E+02  0.15383150601E+02  0.25044995468E+02  0.93081083121E+02  0.87404332131E+02 0.  0.
         13    1    3    3    0    0  0.13148426865E+02 -0.30846306966E+02 -0.20572945693E+01  0.33594931276E+02  0.10566000000E+00 0. -1.
         22    1    1    0    0    0  0.12675868386E+02 -0.15383150601E+02 -0.25044995468E+02  0.32008916879E+02  0.00000000000E+00 0.  1.
</event>
<event>
 5    1  0.1258677E-009  0.9118800E+02  0.7561462E-02  0.1125453E+00
         25   -1    0    0    0    0  0.00000000000E+00  0.00000000000E+00  0.99999998245E-14  0.12509000000E+03  0.12509000000E+03 0.  0.
        -13    1    3    3    0    0  0.30068371602E+02  0.30000697550E+02  0.29426128849E-01  0.42475414703E+02  0.10566000000E+00 0.  1.
         23    2    1    0    0    0 -0.60880514837E+01 -0.12166860180E+01 -0.27016722534E+02  0.97369105494E+02  0.93339673840E+02 0.  0.
         13    1    3    3    0    0 -0.36156423085E+02 -0.31217383568E+02 -0.27046148662E+02  0.54893690791E+02  0.10566000000E+00 0. -1.
         22    1    1    0    0    0  0.60880514837E+01  0.12166860180E+01  0.27016722534E+02  0.27720894506E+02  0.00000000000E+00 0. -1.
</event>
<event>
 5    1  0.1258677E-009  0.9118800E+02  0.7561462E-02  0.1125453E+00
         25   -1    0    0    0    0  0.00000000000E+00  0.00000000000E+00  0.99999998245E-14  0.12509000000E+03  0.12509000000E+03 0.  0.
        -13    1    3    3    0    0 -0.13793988833E+02  0.40041437118E+02  0.11853886958E+02  0.43978592683E+02  0.10566000000E+00 0.  1.
         23    2    1    0    0    0 -0.99570823425E+01  0.20565703695E-01 -0.24788841010E+02  0.98376135616E+02  0.94679636186E+02 0.  0.
         13    1    3    3    0    0  0.38369064902E+01 -0.40020871414E+02 -0.36642727968E+02  0.54397542933E+02  0.10566000000E+00 0. -1.
         22    1    1    0    0    0  0.99570823425E+01 -0.20565703695E-01  0.24788841010E+02  0.26713864384E+02  0.00000000000E+00 0. -1.
</event>
<event>
 5    1  0.1258677E-009  0.9118800E+02  0.7561462E-02  0.1125453E+00
         25   -1    0    0    0    0  0.00000000000E+00  0.00000000000E+00  0.99999998245E-14  0.12509000000E+03  0.12509000000E+03 0.  0.
        -13    1    3    3    0    0  0.31480959641E+02 -0.67908464609E+01 -0.90516589322E+01  0.33453103130E+02  0.10566000000E+00 0.  1.
         23    2    1    0    0    0 -0.28169261522E+02 -0.23509132458E+00  0.79406699192E+01  0.95821983302E+02  0.91242729478E+02 0.  0.
         13    1    3    3    0    0 -0.59650221163E+02  0.65557551363E+01  0.16992328851E+02  0.62368880173E+02  0.10566000000E+00 0. -1.
         22    1    1    0    0    0  0.28169261522E+02  0.23509132458E+00 -0.79406699192E+01  0.29268016698E+02  0.00000000000E+00 0. -1.
</event>
<event>
 5    1  0.1258677E-009  0.9118800E+02  0.7561462E-02  0.1125453E+00
         25   -1    0    0    0    0  0.00000000000E+00  0.00000000000E+00  0.99999998245E-14  0.12509000000E+03  0.12509000000E+03 0.  0.
        -13    1    3    3    0    0 -0.16767525354E+00 -0.48613440045E+02  0.60195314062E+01  0.48985105801E+02  0.10566000000E+00 0. -1.
         23    2    1    0    0    0  0.23405138808E+02 -0.91234269992E+01  0.14982138147E+02  0.95841035808E+02  0.91268845936E+02 0.  0.
         13    1    3    3    0    0  0.23572814062E+02  0.39490013046E+02  0.89626067413E+01  0.46855930006E+02  0.10566000000E+00 0.  1.
         22    1    1    0    0    0 -0.23405138808E+02  0.91234269992E+01 -0.14982138147E+02  0.29248964192E+02  0.00000000000E+00 0.  1.
</event>
<event>
 5    1  0.1258677E-009  0.9118800E+02  0.7561462E-02  0.1125453E+00
         25   -1    0    0    0    0  0.00000000000E+00  0.00000000000E+00  0.99999998245E-14  0.12509000000E+03  0.12509000000E+03 0.  0.
        -13    1    3    3    0    0 -0.79186398685E+01 -0.23809236502E+02  0.23600519876E+02  0.34446774924E+02  0.10566000000E+00 0.  1.
         23    2    1    0    0    0  0.13029665993E+02  0.10204327213E+01 -0.27295473263E+02  0.94826881530E+02  0.89868131845E+02 0.  0.
         13    1    3    3    0    0  0.20948305862E+02  0.24829669224E+02 -0.50895993139E+02  0.60380106607E+02  0.10566000000E+00 0. -1.
         22    1    1    0    0    0 -0.13029665993E+02 -0.10204327213E+01  0.27295473263E+02  0.30263118470E+02  0.00000000000E+00 0. -1.
</event>
<event>
 5    1  0.1258677E-009  0.9118800E+02  0.7561462E-02  0.1125453E+00
         25   -1    0    0    0    0  0.00000000000E+00  0.00000000000E+00  0.99999998245E-14  0.12509000000E+03  0.12509000000E+03 0.  0.
        -13    1    3    3    0    0  0.31099501577E+02  0.33273566189E+02 -0.40487398648E+01  0.45724311519E+02  0.10566000000E+00 0.  1.
         23    2    1    0    0    0  0.23067449582E+02 -0.10377322763E+02  0.16763149437E+02  0.94745326053E+02  0.89754540675E+02 0.  0.
         13    1    3    3    0    0 -0.80320519956E+01 -0.43650888953E+02  0.20811889302E+02  0.49021014534E+02  0.10566000000E+00 0. -1.
         22    1    1    0    0    0 -0.23067449582E+02  0.10377322763E+02 -0.16763149437E+02  0.30344673947E+02  0.00000000000E+00 0.  1.
</event>
<event>
 5    1  0.1258677E-009  0.9118800E+02  0.7561462E-02  0.1125453E+00
         25   -1    0    0    0    0  0.00000000000E+00  0.00000000000E+00  0.99999998245E-14  0.12509000000E+03  0.12509000000E+03 0.  0.
        -13    1    3    3    0    0 -0.27648241404E+02  0.15040797137E+02  0.43353770467E+02  0.53574354023E+02  0.10566000000E+00 0.  1.
         23    2    1    0    0    0 -0.80566437411E+01  0.30519689107E+02  0.20283435462E+02  0.87569623060E+02  0.79124333786E+02 0.  0.
         13    1    3    3    0    0  0.19591597663E+02  0.15478891971E+02 -0.23070335005E+02  0.33995269037E+02  0.10566000000E+00 0. -1.
         22    1    1    0    0    0  0.80566437411E+01 -0.30519689107E+02 -0.20283435462E+02  0.37520376940E+02  0.00000000000E+00 0.  1.
</event>
<event>
 5    1  0.1258677E-009  0.9118800E+02  0.7561462E-02  0.1125453E+00
         25   -1    0    0    0    0  0.00000000000E+00  0.00000000000E+00  0.99999998245E-14  0.12509000000E+03  0.12509000000E+03 0.  0.
        -13    1    3    3    0    0 -0.33261534115E+02  0.14360227780E+02  0.15131570543E+02  0.39262213192E+02  0.10566000000E+00 0. -1.
         23    2    1    0    0    0  0.10720612094E+02 -0.17776838946E+02  0.22781246560E+02  0.94269021407E+02  0.89088246563E+02 0.  0.
         13    1    3    3    0    0  0.43982146209E+02 -0.32137066726E+02  0.76496760164E+01  0.55006808216E+02  0.10566000000E+00 0.  1.
         22    1    1    0    0    0 -0.10720612094E+02  0.17776838946E+02 -0.22781246560E+02  0.30820978593E+02  0.00000000000E+00 0.  1.
</event>
<event>
 5    1  0.1258677E-009  0.9118800E+02  0.7561462E-02  0.1125453E+00
         25   -1    0    0    0    0  0.00000000000E+00  0.00000000000E+00  0.99999998245E-14  0.12509000000E+03  0.12509000000E+03 0.  0.
        -13    1    3    3    0    0  0.42589496612E+01 -0.11888413654E+02  0.47203379688E+02  0.48863516548E+02  0.10566000000E+00 0.  1.
         23    2    1    0    0    0  0.19538397676E+02 -0.22958315441E+02  0.57630052716E+01  0.94397240896E+02  0.89268099719E+02 0.  0.
         13    1    3    3    0    0  0.15279448014E+02 -0.11069901787E+02 -0.41440374417E+02  0.45533724348E+02  0.10566000000E+00 0. -1.
         22    1    1    0    0    0 -0.19538397676E+02  0.22958315441E+02 -0.57630052716E+01  0.30692759104E+02  0.00000000000E+00 0.  1.
</event>
<event>
 5    1  0.1258677E-009  0.9118800E+02  0.7561462E-02  0.1125453E+00
         25   -1    0    0    0    0  0.00000000000E+00  0.00000000000E+00  0.99999998245E-14  0.12509000000E+03  0.12509000000E+03 0.  0.
        -13    1    3    3    0    0  0.32570326367E+02  0.40127293475E+02  0.36543600534E+01  0.51811112252E+02  0.10566000000E+00 0. -1.
         23    2    1    0    0    0 -0.67638893042E+01  0.29025022747E+02 -0.78504601021E+01  0.94270657570E+02  0.89090543891E+02 0.  0.
         13    1    3    3    0    0 -0.39334215672E+02 -0.11102270728E+02 -0.11504820156E+02  0.42459545319E+02  0.10566000000E+00 0.  1.
         22    1    1    0    0    0  0.67638893042E+01 -0.29025022747E+02  0.78504601021E+01  0.30819342430E+02  0.00000000000E+00 0. -1.
</event>
<event>
 5    1  0.1258677E-009  0.9118800E+02  0.7561462E-02  0.1125453E+00
         25   -1    0    0    0    0  0.00000000000E+00  0.00000000000E+00  0.99999998245E-14  0.12509000000E+03  0.12509000000E+03 0.  0.
        -13    1    3    3    0    0  0.32728819725E+02  0.42986650972E+02  0.14468020950E+02  0.55931767330E+02  0.10566000000E+00 0.  1.
         23    2    1    0    0    0  0.19691632607E+02  0.47464488903E+01  0.19897191642E+02  0.96696560493E+02  0.92433962396E+02 0.  0.
         13    1    3    3    0    0 -0.13037187118E+02 -0.38240202082E+02  0.54291706921E+01  0.40764793163E+02  0.10566000000E+00 0. -1.
         22    1    1    0    0    0 -0.19691632607E+02 -0.47464488903E+01 -0.19897191642E+02  0.28393439507E+02  0.00000000000E+00 0.  1.
</event>
<event>
 5    1  0.1258677E-009  0.9118800E+02  0.7561462E-02  0.1125453E+00
         25   -1    0    0    0    0  0.00000000000E+00  0.00000000000E+00  0.99999998245E-14  0.12509000000E+03  0.12509000000E+03 0.  0.
        -13    1    3    3    0    0 -0.32815059770E+02 -0.25309662762E+02 -0.27806536976E+02  0.49906130280E+02  0.10566000000E+00 0.  1.
         23    2    1    0    0    0  0.85439026620E+01 -0.24855252783E+02 -0.20153631856E+02  0.91969753313E+02  0.85799095473E+02 0.  0.
         13    1    3    3    0    0  0.41358962432E+02  0.45440997964E+00  0.76529051196E+01  0.42063623034E+02  0.10566000000E+00 0. -1.
         22    1    1    0    0    0 -0.85439026620E+01  0.24855252783E+02  0.20153631856E+02  0.33120246687E+02  0.00000000000E+00 0.  1.
</event>
<event>
 5    1  0.1258677E-009  0.9118800E+02  0.7561462E-02  0.1125453E+00
         25   -1    0    0    0    0  0.00000000000E+00  0.00000000000E+00  0.99999998245E-14  0.12509000000E+03  0.12509000000E+03 0.  0.
        -13    1    3    3    0    0  0.21336938689E+02  0.25838440651E+02  0.36728678806E+02  0.49718175537E+02  0.10566000000E+00 0. -1.
         23    2    1    0    0    0  0.27985196038E+02 -0.26196371804E+01 -0.41364730953E+00  0.96979418357E+02  0.92815961906E+02 0.  0.
         13    1    3    3    0    0  0.66482573493E+01 -0.28458077831E+02 -0.37142326115E+02  0.47261242820E+02  0.10566000000E+00 0.  1.
         22    1    1    0    0    0 -0.27985196038E+02  0.26196371804E+01  0.41364730953E+00  0.28110581643E+02  0.00000000000E+00 0.  1.
</event>
<event>
 5    1  0.1258677E-009  0.9118800E+02  0.7561462E-02  0.1125453E+00
         25   -1    0    0    0    0  0.00000000000E+00  0.00000000000E+00  0.99999998245E-14  0.12509000000E+03  0.12509000000E+03 0.  0.
        -13    1    3    3    0    0  0.27158595691E+02 -0.23796775880E+02 -0.12944667498E+02  0.38359502641E+02  0.10566000000E+00 0. -1.
         23    2    1    0    0    0  0.17129799550E+02  0.18228085213E+02  0.20300693535E+02  0.92874921525E+02  0.87108781229E+02 0.  0.
         13    1    3    3    0    0 -0.10028796142E+02  0.42024861092E+02  0.33245361033E+02  0.54515418884E+02  0.10566000000E+00 0.  1.
         22    1    1    0    0    0 -0.17129799550E+02 -0.18228085213E+02 -0.20300693535E+02  0.32215078475E+02  0.00000000000E+00 0.  1.
</event>
<event>
 5    1  0.1258677E-009  0.9118800E+02  0.7561462E-02  0.1125453E+00
         25   -1    0    0    0    0  0.00000000000E+00  0.00000000000E+00  0.99999998245E-14  0.12509000000E+03  0.12509000000E+03 0.  0.
        -13    1    3    3    0    0 -0.33334605094E+02  0.74723525861E-02 -0.41428103597E+02  0.53174193782E+02  0.10566000000E+00 0.  1.
         23    2    1    0    0    0 -0.70310306468E+01  0.22873892081E+02 -0.16685549699E+02  0.95917103338E+02  0.91373042048E+02 0.  0.
         13    1    3    3    0    0  0.26303574447E+02  0.22866419729E+02  0.24742553898E+02  0.42742909556E+02  0.10566000000E+00 0. -1.
         22    1    1    0    0    0  0.70310306468E+01 -0.22873892081E+02  0.16685549699E+02  0.29172896662E+02  0.00000000000E+00 0. -1.
</event>
<event>
 5    1  0.1258677E-009  0.9118800E+02  0.7561462E-02  0.1125453E+00
         25   -1    0    0    0    0  0.00000000000E+00  0.00000000000E+00  0.99999998245E-14  0.12509000000E+03  0.12509000000E+03 0.  0.
        -13    1    3    3    0    0  0.16569979942E+02 -0.32058930262E+02  0.92387493488E+01  0.37251911339E+02  0.10566000000E+00 0.  1.
         23    2    1    0    0    0  0.18115364202E+02  0.21755298341E+02 -0.10931305340E+02  0.94742794815E+02  0.89751012846E+02 0.  0.
         13    1    3    3    0    0  0.15453842604E+01  0.53814228604E+02 -0.20170054689E+02  0.57490883476E+02  0.10566000000E+00 0. -1.
         22    1    1    0    0    0 -0.18115364202E+02 -0.21755298341E+02  0.10931305340E+02  0.30347205185E+02  0.00000000000E+00 0. -1.
</event>
<event>
 5    1  0.1258677E-009  0.9118800E+02  0.7561462E-02  0.1125453E+00
         25   -1    0    0    0    0  0.00000000000E+00  0.00000000000E+00  0.99999998245E-14  0.12509000000E+03  0.12509000000E+03 0.  0.
        -13    1    3    3    0    0  0.18575731585E+02  0.39219340085E+02  0.97965960923E+01  0.44488188316E+02  0.10566000000E+00 0. -1.
         23    2    1    0    0    0 -0.10965675252E+02  0.15356253670E+02 -0.23470817239E+02  0.94974558407E+02  0.90073452927E+02 0.  0.
         13    1    3    3    0    0 -0.29541406837E+02 -0.23863086415E+02 -0.33267413331E+02  0.50486370091E+02  0.10566000000E+00 0.  1.
         22    1    1    0    0    0  0.10965675252E+02 -0.15356253670E+02  0.23470817239E+02  0.30115441593E+02  0.00000000000E+00 0.  1.
</event>
<event>
 5    1  0.1258677E-009  0.9118800E+02  0.7561462E-02  0.1125453E+00
         25   -1    0    0    0    0  0.00000000000E+00  0.00000000000E+00  0.99999998245E-14  0.12509000000E+03  0.12509000000E+03 0.  0.
        -13    1    3    3    0    0  0.28965998524E+02 -0.29711739662E+02 -0.41789514023E+01  0.41704811989E+02  0.10566000000E+00 0.  1.
         23    2    1    0    0    0 -0.56612804684E+01  0.14312821183E+02 -0.19948949063E+02  0.99893422544E+02  0.96663479929E+02 0.  0.
         13    1    3    3    0    0 -0.34627278992E+02  0.44024560845E+02 -0.15769997661E+02  0.58188610555E+02  0.10566000000E+00 0. -1.
         22    1    1    0    0    0  0.56612804684E+01 -0.14312821183E+02  0.19948949063E+02  0.25196577456E+02  0.00000000000E+00 0. -1.
</event>
<event>
 5    1  0.1258677E-009  0.9118800E+02  0.7561462E-02  0.1125453E+00
         25   -1    0    0    0    0  0.00000000000E+00  0.00000000000E+00  0.99999998245E-14  0.12509000000E+03  0.12509000000E+03 0.  0.
        -13    1    3    3    0    0 -0.20135125957E+01  0.37299747225E+02  0.42886846081E+02  0.56873703122E+02  0.10566000000E+00 0. -1.
         23    2    1    0    0    0  0.11311820862E+02  0.46718666389E+01  0.26824412429E+02  0.95605551027E+02  0.90945525761E+02 0.  0.
         13    1    3    3    0    0  0.13325333457E+02 -0.32627880586E+02 -0.16062433652E+02  0.38731847905E+02  0.10566000000E+00 0.  1.
         22    1    1    0    0    0 -0.11311820862E+02 -0.46718666389E+01 -0.26824412429E+02  0.29484448973E+02  0.00000000000E+00 0. -1.
</event>
<event>
 5    1  0.1258677E-009  0.9118800E+02  0.7561462E-02  0.1125453E+00
         25   -1    0    0    0    0  0.00000000000E+00  0.00000000000E+00  0.99999998245E-14  0.12509000000E+03  0.12509000000E+03 0.  0.
        -13    1    3    3    0    0 -0.17088363694E+02 -0.20655182839E+02 -0.27277914277E+02  0.38245843214E+02  0.10566000000E+00 0.  1.
         23    2    1    0    0    0  0.25372825123E+02 -0.10096577990E+02  0.10282195868E+02  0.95910474752E+02  0.91363967040E+02 0.  0.
         13    1    3    3    0    0  0.42461188818E+02  0.10558604849E+02  0.37560110145E+02  0.57664631537E+02  0.10566000000E+00 0. -1.
         22    1    1    0    0    0 -0.25372825123E+02  0.10096577990E+02 -0.10282195868E+02  0.29179525248E+02  0.00000000000E+00 0. -1.
</event>
<event>
 5    1  0.1258677E-009  0.9118800E+02  0.7561462E-02  0.1125453E+00
         25   -1    0    0    0    0  0.00000000000E+00  0.00000000000E+00  0.99999998245E-14  0.12509000000E+03  0.12509000000E+03 0.  0.
        -13    1    3    3    0    0 -0.12165359206E+02 -0.11696649724E+02  0.34376672002E+02  0.38295878647E+02  0.10566000000E+00 0.  1.
         23    2    1    0    0    0  0.11714578260E+02  0.27778986277E+02  0.15819364865E+01  0.94900499417E+02  0.89970544314E+02 0.  0.
         13    1    3    3    0    0  0.23879937466E+02  0.39475636001E+02 -0.32794735515E+02  0.56604620771E+02  0.10566000000E+00 0. -1.
         22    1    1    0    0    0 -0.11714578260E+02 -0.27778986277E+02 -0.15819364865E+01  0.30189500583E+02  0.00000000000E+00 0. -1.
</event>
<event>
 5    1  0.1258677E-009  0.9118800E+02  0.7561462E-02  0.1125453E+00
         25   -1    0    0    0    0  0.00000000000E+00  0.00000000000E+00  0.99999998245E-14  0.12509000000E+03  0.12509000000E+03 0.  0.
        -13    1    3    3    0    0 -0.21500968754E+02 -0.45753596726E+02  0.28578717554E+02  0.58072691791E+02  0.10566000000E+00 0.  1.
         23    2    1    0    0    0 -0.71100963974E+01 -0.32934325101E+02  0.14302149606E+01  0.91366584463E+02  0.84915157664E+02 0.  0.
         13    1    3    3    0    0  0.14390872357E+02  0.12819271625E+02 -0.27148502594E+02  0.33293892673E+02  0.10566000000E+00 0. -1.
         22    1    1    0    0    0  0.71100963974E+01  0.32934325101E+02 -0.14302149606E+01  0.33723415537E+02  0.00000000000E+00 0.  1.
</event>
<event>
 5    1  0.1258677E-009  0.9118800E+02  0.7561462E-02  0.1125453E+00
         25   -1    0    0    0    0  0.00000000000E+00  0.00000000000E+00  0.99999998245E-14  0.12509000000E+03  0.12509000000E+03 0.  0.
        -13    1    3    3    0    0 -0.13765022844E-02  0.30970163317E+02  0.15838806508E+02  0.34785485097E+02  0.10566000000E+00 0.  1.
         23    2    1    0    0    0  0.14497446809E+02 -0.15572108554E+02 -0.20466739955E+02  0.95567907032E+02  0.90893734005E+02 0.  0.
         13    1    3    3    0    0  0.14498823312E+02 -0.46542271871E+02 -0.36305546463E+02  0.60782421935E+02  0.10566000000E+00 0. -1.
         22    1    1    0    0    0 -0.14497446809E+02  0.15572108554E+02  0.20466739955E+02  0.29522092968E+02  0.00000000000E+00 0. -1.
</event>
<event>
 5    1  0.1258677E-009  0.9118800E+02  0.7561462E-02  0.1125453E+00
         25   -1    0    0    0    0  0.00000000000E+00  0.00000000000E+00  0.99999998245E-14  0.12509000000E+03  0.12509000000E+03 0.  0.
        -13    1    3    3    0    0 -0.14859937225E+02  0.55152554656E+02  0.17398237070E+02  0.59710399736E+02  0.10566000000E+00 0.  1.
         23    2    1    0    0    0  0.36485060271E+01  0.22220283393E+02  0.15913417380E+02  0.97516653395E+02  0.93537202472E+02 0.  0.
         13    1    3    3    0    0  0.18508443252E+02 -0.32932271263E+02 -0.14848196901E+01  0.37806253659E+02  0.10566000000E+00 0. -1.
         22    1    1    0    0    0 -0.36485060271E+01 -0.22220283393E+02 -0.15913417380E+02  0.27573346605E+02  0.00000000000E+00 0.  1.
</event>
<event>
 5    1  0.1258677E-009  0.9118800E+02  0.7561462E-02  0.1125453E+00
         25   -1    0    0    0    0  0.00000000000E+00  0.00000000000E+00  0.99999998245E-14  0.12509000000E+03  0.12509000000E+03 0.  0.
        -13    1    3    3    0    0  0.19200404115E+02 -0.35467450218E+02 -0.22741611972E+02  0.46301054225E+02  0.10566000000E+00 0.  1.
         23    2    1    0    0    0  0.26161803302E+02  0.11047486170E+02 -0.81833416941E+01  0.95535745078E+02  0.90849461218E+02 0.  0.
         13    1    3    3    0    0  0.69613991874E+01  0.46514936389E+02  0.14558270278E+02  0.49234690853E+02  0.10566000000E+00 0. -1.
         22    1    1    0    0    0 -0.26161803302E+02 -0.11047486170E+02  0.81833416941E+01  0.29554254922E+02  0.00000000000E+00 0.  1.
</event>
<event>
 5    1  0.1258677E-009  0.9118800E+02  0.7561462E-02  0.1125453E+00
         25   -1    0    0    0    0  0.00000000000E+00  0.00000000000E+00  0.99999998245E-14  0.12509000000E+03  0.12509000000E+03 0.  0.
        -13    1    3    3    0    0 -0.22992302274E+02  0.30110303024E+02  0.23895676177E+02  0.44791637791E+02  0.10566000000E+00 0. -1.
         23    2    1    0    0    0  0.22795650663E+02  0.62196638393E+01  0.58712462152E+00  0.10145378578E+03  0.98662049573E+02 0.  0.
         13    1    3    3    0    0  0.45787952937E+02 -0.23890639185E+02 -0.23308551556E+02  0.56662147987E+02  0.10566000000E+00 0.  1.
         22    1    1    0    0    0 -0.22795650663E+02 -0.62196638393E+01 -0.58712462152E+00  0.23636214222E+02  0.00000000000E+00 0.  1.
</event>
<event>
 5    1  0.1258677E-009  0.9118800E+02  0.7561462E-02  0.1125453E+00
         25   -1    0    0    0    0  0.00000000000E+00  0.00000000000E+00  0.99999998245E-14  0.12509000000E+03  0.12509000000E+03 0.  0.
        -13    1    3    3    0    0  0.50349738599E+02  0.11262087373E+02 -0.44691297097E+01  0.51787209554E+02  0.10566000000E+00 0.  1.
         23    2    1    0    0    0  0.15027464134E+02  0.15867485360E+02  0.20370672099E+02  0.95214156050E+02  0.90405583128E+02 0.  0.
         13    1    3    3    0    0 -0.35322274466E+02  0.46053979870E+01  0.24839801808E+02  0.43426946496E+02  0.10566000000E+00 0. -1.
         22    1    1    0    0    0 -0.15027464134E+02 -0.15867485360E+02 -0.20370672099E+02  0.29875843950E+02  0.00000000000E+00 0.  1.
</event>
<event>
 5    1  0.1258677E-009  0.9118800E+02  0.7561462E-02  0.1125453E+00
         25   -1    0    0    0    0  0.00000000000E+00  0.00000000000E+00  0.99999998245E-14  0.12509000000E+03  0.12509000000E+03 0.  0.
        -13    1    3    3    0    0 -0.18224619726E+02 -0.30126889882E+02 -0.42802551266E+02  0.55424144712E+02  0.10566000000E+00 0. -1.
         23    2    1    0    0    0 -0.21887229528E+02 -0.21129619355E+02 -0.52435371963E+01  0.94219199673E+02  0.89018263711E+02 0.  0.
         13    1    3    3    0    0 -0.36626098018E+01  0.89972705272E+01  0.37559014070E+02  0.38795054961E+02  0.10566000000E+00 0.  1.
         22    1    1    0    0    0  0.21887229528E+02  0.21129619355E+02  0.52435371963E+01  0.30870800327E+02  0.00000000000E+00 0. -1.
</event>
<event>
 5    1  0.1258677E-009  0.9118800E+02  0.7561462E-02  0.1125453E+00
         25   -1    0    0    0    0  0.00000000000E+00  0.00000000000E+00  0.99999998245E-14  0.12509000000E+03  0.12509000000E+03 0.  0.
        -13    1    3    3    0    0 -0.88737459150E+01 -0.80512757809E+01 -0.31642755246E+02  0.33835506969E+02  0.10566000000E+00 0.  1.
         23    2    1    0    0    0  0.99518000548E+01 -0.73922128678E+01  0.26973409169E+02  0.95404179520E+02  0.90668128536E+02 0.  0.
         13    1    3    3    0    0  0.18825545970E+02  0.65906291309E+00  0.58616164414E+02  0.61568672551E+02  0.10566000000E+00 0. -1.
         22    1    1    0    0    0 -0.99518000548E+01  0.73922128678E+01 -0.26973409169E+02  0.29685820480E+02  0.00000000000E+00 0. -1.
</event>
<event>
 5    1  0.1258677E-009  0.9118800E+02  0.7561462E-02  0.1125453E+00
         25   -1    0    0    0    0  0.00000000000E+00  0.00000000000E+00  0.99999998245E-14  0.12509000000E+03  0.12509000000E+03 0.  0.
        -13    1    3    3    0    0 -0.46548782659E+02  0.32741512102E+02 -0.69302237556E+01  0.57330924875E+02  0.10566000000E+00 0.  1.
         23    2    1    0    0    0 -0.12932055934E+02  0.23136952433E+02  0.10723461734E+02  0.96497181494E+02  0.92163749740E+02 0.  0.
         13    1    3    3    0    0  0.33616726725E+02 -0.96045596687E+01  0.17653685490E+02  0.39166256619E+02  0.10566000000E+00 0. -1.
         22    1    1    0    0    0  0.12932055934E+02 -0.23136952433E+02 -0.10723461734E+02  0.28592818506E+02  0.00000000000E+00 0.  1.
</event>
<event>
 5    1  0.1258677E-009  0.9118800E+02  0.7561462E-02  0.1125453E+00
         25   -1    0    0    0    0  0.00000000000E+00  0.00000000000E+00  0.99999998245E-14  0.12509000000E+03  0.12509000000E+03 0.  0.
        -13    1    3    3    0    0 -0.21729313447E+02 -0.24596179115E+02 -0.20468891552E+02  0.38679733393E+02  0.10566000000E+00 0. -1.
         23    2    1    0    0    0  0.23494226520E+02 -0.86314800280E+01  0.12730866165E+02  0.97008759277E+02  0.92855496853E+02 0.  0.
         13    1    3    3    0    0  0.45223539967E+02  0.15964699087E+02  0.33199757716E+02  0.58329025884E+02  0.10566000000E+00 0.  1.
         22    1    1    0    0    0 -0.23494226520E+02  0.86314800280E+01 -0.12730866165E+02  0.28081240723E+02  0.00000000000E+00 0.  1.
</event>
<event>
 5    1  0.1258677E-009  0.9118800E+02  0.7561462E-02  0.1125453E+00
         25   -1    0    0    0    0  0.00000000000E+00  0.00000000000E+00  0.99999998245E-14  0.12509000000E+03  0.12509000000E+03 0.  0.
        -13    1    3    3    0    0  0.44709130456E+02  0.28759740440E+02 -0.78664853759E+01  0.53739387534E+02  0.10566000000E+00 0. -1.
         23    2    1    0    0    0  0.97002059920E+01  0.25741818622E+02 -0.20179675306E+02  0.90973222343E+02  0.84333698281E+02 0.  0.
         13    1    3    3    0    0 -0.35008924464E+02 -0.30179218186E+01 -0.12313189930E+02  0.37233834809E+02  0.10566000000E+00 0.  1.
         22    1    1    0    0    0 -0.97002059920E+01 -0.25741818622E+02  0.20179675306E+02  0.34116777657E+02  0.00000000000E+00 0. -1.
</event>
<event>
 5    1  0.1258677E-009  0.9118800E+02  0.7561462E-02  0.1125453E+00
         25   -1    0    0    0    0  0.00000000000E+00  0.00000000000E+00  0.99999998245E-14  0.12509000000E+03  0.12509000000E+03 0.  0.
        -13    1    3    3    0    0  0.40054508967E+02  0.35974979779E+02  0.24793228979E+02  0.59272913088E+02  0.10566000000E+00 0.  1.
         23    2    1    0    0    0  0.10251256934E+02  0.23935936587E+02  0.20998337748E+02  0.91639327104E+02  0.85315993547E+02 0.  0.
         13    1    3    3    0    0 -0.29803252033E+02 -0.12039043192E+02 -0.37948912309E+01  0.32366414016E+02  0.10566000000E+00 0. -1.
         22    1    1    0    0    0 -0.10251256934E+02 -0.23935936587E+02 -0.20998337748E+02  0.33450672896E+02  0.00000000000E+00 0.  1.
</event>
<event>
 5    1  0.1258677E-009  0.9118800E+02  0.7561462E-02  0.1125453E+00
         25   -1    0    0    0    0  0.00000000000E+00  0.00000000000E+00  0.99999998245E-14  0.12509000000E+03  0.12509000000E+03 0.  0.
        -13    1    3    3    0    0  0.20141960107E+02  0.83519461748E+01 -0.27557332094E+02  0.35140735308E+02  0.10566000000E+00 0. -1.
         23    2    1    0    0    0 -0.79874147181E+01 -0.20080908266E+02  0.18855554415E+02  0.96409456021E+02  0.92044606617E+02 0.  0.
         13    1    3    3    0    0 -0.28129374825E+02 -0.28432854441E+02  0.46412886508E+02  0.61268720713E+02  0.10566000000E+00 0.  1.
         22    1    1    0    0    0  0.79874147181E+01  0.20080908266E+02 -0.18855554415E+02  0.28680543979E+02  0.00000000000E+00 0.  1.
</event>
<event>
 5    1  0.1258677E-009  0.9118800E+02  0.7561462E-02  0.1125453E+00
         25   -1    0    0    0    0  0.00000000000E+00  0.00000000000E+00  0.99999998245E-14  0.12509000000E+03  0.12509000000E+03 0.  0.
        -13    1    3    3    0    0 -0.30373711239E+02  0.15786935530E+02 -0.14492699901E+02  0.37173097562E+02  0.10566000000E+00 0. -1.
         23    2    1    0    0    0  0.29417767630E+00 -0.18659337363E+02  0.22185161551E+02  0.96099677401E+02  0.91622645630E+02 0.  0.
         13    1    3    3    0    0  0.30667888916E+02 -0.34446272893E+02  0.36677861452E+02  0.58926579839E+02  0.10566000000E+00 0.  1.
         22    1    1    0    0    0 -0.29417767630E+00  0.18659337363E+02 -0.22185161551E+02  0.28990322599E+02  0.00000000000E+00 0.  1.
</event>
<event>
 5    1  0.1258677E-009  0.9118800E+02  0.7561462E-02  0.1125453E+00
         25   -1    0    0    0    0  0.00000000000E+00  0.00000000000E+00  0.99999998245E-14  0.12509000000E+03  0.12509000000E+03 0.  0.
        -13    1    3    3    0    0  0.64844883717E+01  0.36952933746E+00  0.43769714896E+02  0.44249115782E+02  0.10566000000E+00 0. -1.
         23    2    1    0    0    0  0.15515753028E+02  0.24644918741E+02 -0.97673763654E+00  0.95951286436E+02  0.91419826845E+02 0.  0.
         13    1    3    3    0    0  0.90312646568E+01  0.24275389403E+02 -0.44746452533E+02  0.51702170653E+02  0.10566000000E+00 0.  1.
         22    1    1    0    0    0 -0.15515753028E+02 -0.24644918741E+02  0.97673763654E+00  0.29138713564E+02  0.00000000000E+00 0.  1.
</event>
<event>
 5    1  0.1258677E-009  0.9118800E+02  0.7561462E-02  0.1125453E+00
         25   -1    0    0    0    0  0.00000000000E+00  0.00000000000E+00  0.99999998245E-14  0.12509000000E+03  0.12509000000E+03 0.  0.
        -13    1    3    3    0    0  0.72213897753E+00  0.28819023151E+02 -0.77245789897E+01  0.29845231859E+02  0.10566000000E+00 0. -1.
         23    2    1    0    0    0 -0.19841246553E+01 -0.31275135057E+02  0.93682251703E+01  0.92381675887E+02  0.86397566941E+02 0.  0.
         13    1    3    3    0    0 -0.27062636328E+01 -0.60094158208E+02  0.17092804160E+02  0.62536444028E+02  0.10566000000E+00 0.  1.
         22    1    1    0    0    0  0.19841246553E+01  0.31275135057E+02 -0.93682251703E+01  0.32708324113E+02  0.00000000000E+00 0.  1.
</event>
<event>
 5    1  0.1258677E-009  0.9118800E+02  0.7561462E-02  0.1125453E+00
         25   -1    0    0    0    0  0.00000000000E+00  0.00000000000E+00  0.99999998245E-14  0.12509000000E+03  0.12509000000E+03 0.  0.
        -13    1    3    3    0    0 -0.29593625170E+02 -0.42362104369E+02 -0.46859402745E+01  0.51887375512E+02  0.10566000000E+00 0.  1.
         23    2    1    0    0    0 -0.14342372530E+02 -0.54865010311E+01 -0.24294017023E+02  0.96349704134E+02  0.91963367056E+02 0.  0.
         13    1    3    3    0    0  0.15251252640E+02  0.36875603338E+02 -0.19608076749E+02  0.44462328622E+02  0.10566000000E+00 0. -1.
         22    1    1    0    0    0  0.14342372530E+02  0.54865010311E+01  0.24294017023E+02  0.28740295866E+02  0.00000000000E+00 0. -1.
</event>
<event>
 5    1  0.1258677E-009  0.9118800E+02  0.7561462E-02  0.1125453E+00
         25   -1    0    0    0    0  0.00000000000E+00  0.00000000000E+00  0.99999998245E-14  0.12509000000E+03  0.12509000000E+03 0.  0.
        -13    1    3    3    0    0 -0.48365559993E+02 -0.74061957588E+01  0.84599316240E+01  0.49655420008E+02  0.10566000000E+00 0.  1.
         23    2    1    0    0    0 -0.84657650466E+01 -0.25999898232E+02 -0.79180898883E+01  0.96623176620E+02  0.92334599294E+02 0.  0.
         13    1    3    3    0    0  0.39899794947E+02 -0.18593702473E+02 -0.16378021512E+02  0.46967756612E+02  0.10566000000E+00 0. -1.
         22    1    1    0    0    0  0.84657650466E+01  0.25999898232E+02  0.79180898883E+01  0.28466823380E+02  0.00000000000E+00 0. -1.
</event>
<event>
 5    1  0.1258677E-009  0.9118800E+02  0.7561462E-02  0.1125453E+00
         25   -1    0    0    0    0  0.00000000000E+00  0.00000000000E+00  0.99999998245E-14  0.12509000000E+03  0.12509000000E+03 0.  0.
        -13    1    3    3    0    0 -0.20571195554E+02 -0.35638028663E+02 -0.79062063937E+01  0.41901819019E+02  0.10566000000E+00 0.  1.
         23    2    1    0    0    0 -0.16111440712E+02  0.11583376737E+02  0.19985685688E+02  0.96926534821E+02  0.92744662281E+02 0.  0.
         13    1    3    3    0    0  0.44597548413E+01  0.47221405400E+02  0.27891892082E+02  0.55024715802E+02  0.10566000000E+00 0. -1.
         22    1    1    0    0    0  0.16111440712E+02 -0.11583376737E+02 -0.19985685688E+02  0.28163465179E+02  0.00000000000E+00 0. -1.
</event>
<event>
 5    1  0.1258677E-009  0.9118800E+02  0.7561462E-02  0.1125453E+00
         25   -1    0    0    0    0  0.00000000000E+00  0.00000000000E+00  0.99999998245E-14  0.12509000000E+03  0.12509000000E+03 0.  0.
        -13    1    3    3    0    0  0.72896450530E+01  0.29724589904E+02  0.30541604871E+02  0.43237610504E+02  0.10566000000E+00 0. -1.
         23    2    1    0    0    0 -0.29212485597E+02  0.10110354714E+01  0.84717894334E+01  0.94657078292E+02  0.89631466278E+02 0.  0.
         13    1    3    3    0    0 -0.36502130650E+02 -0.28713554432E+02 -0.22069815438E+02  0.51419467788E+02  0.10566000000E+00 0.  1.
         22    1    1    0    0    0  0.29212485597E+02 -0.10110354714E+01 -0.84717894334E+01  0.30432921708E+02  0.00000000000E+00 0.  1.
</event>
<event>
 5    1  0.1258677E-009  0.9118800E+02  0.7561462E-02  0.1125453E+00
         25   -1    0    0    0    0  0.00000000000E+00  0.00000000000E+00  0.99999998245E-14  0.12509000000E+03  0.12509000000E+03 0.  0.
        -13    1    3    3    0    0 -0.36502376002E+02  0.35374276675E+02  0.20778422723E+02  0.54913722501E+02  0.10566000000E+00 0. -1.
         23    2    1    0    0    0 -0.27578809251E+02  0.82359123386E+01 -0.77453884655E+01  0.95283758804E+02  0.90501837979E+02 0.  0.
         13    1    3    3    0    0  0.89235667509E+01 -0.27138364336E+02 -0.28523811188E+02  0.40370036303E+02  0.10566000000E+00 0.  1.
         22    1    1    0    0    0  0.27578809251E+02 -0.82359123386E+01  0.77453884655E+01  0.29806241196E+02  0.00000000000E+00 0. -1.
</event>
<event>
 5    1  0.1258677E-009  0.9118800E+02  0.7561462E-02  0.1125453E+00
         25   -1    0    0    0    0  0.00000000000E+00  0.00000000000E+00  0.99999998245E-14  0.12509000000E+03  0.12509000000E+03 0.  0.
        -13    1    3    3    0    0 -0.40679840487E+01  0.10101540477E+02  0.31480544032E+02  0.33311040674E+02  0.10566000000E+00 0. -1.
         23    2    1    0    0    0 -0.19470585194E+02  0.26602480533E+01 -0.25552797287E+02  0.92854521770E+02  0.87079481834E+02 0.  0.
         13    1    3    3    0    0 -0.15402601145E+02 -0.74412924242E+01 -0.57033341319E+02  0.59543481096E+02  0.10566000000E+00 0.  1.
         22    1    1    0    0    0  0.19470585194E+02 -0.26602480533E+01  0.25552797287E+02  0.32235478230E+02  0.00000000000E+00 0.  1.
</event>
<event>
 5    1  0.1258677E-009  0.9118800E+02  0.7561462E-02  0.1125453E+00
         25   -1    0    0    0    0  0.00000000000E+00  0.00000000000E+00  0.99999998245E-14  0.12509000000E+03  0.12509000000E+03 0.  0.
        -13    1    3    3    0    0 -0.16340276194E+02 -0.35046645368E+02 -0.12554818681E+02  0.40655954224E+02  0.10566000000E+00 0. -1.
         23    2    1    0    0    0  0.22380340091E+02  0.76718288657E+01 -0.12543917264E+02  0.98311530270E+02  0.94594241596E+02 0.  0.
         13    1    3    3    0    0  0.38720616285E+02  0.42718474234E+02  0.10901417527E-01  0.57655576047E+02  0.10566000000E+00 0.  1.
         22    1    1    0    0    0 -0.22380340091E+02 -0.76718288657E+01  0.12543917264E+02  0.26778469730E+02  0.00000000000E+00 0.  1.
</event>
<event>
 5    1  0.1258677E-009  0.9118800E+02  0.7561462E-02  0.1125453E+00
         25   -1    0    0    0    0  0.00000000000E+00  0.00000000000E+00  0.99999998245E-14  0.12509000000E+03  0.12509000000E+03 0.  0.
        -13    1    3    3    0    0  0.17175513162E+01  0.25795621422E+02 -0.53912003036E+02  0.59790294384E+02  0.10566000000E+00 0. -1.
         23    2    1    0    0    0 -0.60834592954E+01  0.21718562319E+02 -0.19613849411E+02  0.95200076699E+02  0.90386100085E+02 0.  0.
         13    1    3    3    0    0 -0.78010106116E+01 -0.40770591025E+01  0.34298153625E+02  0.35409782315E+02  0.10566000000E+00 0.  1.
         22    1    1    0    0    0  0.60834592954E+01 -0.21718562319E+02  0.19613849411E+02  0.29889923301E+02  0.00000000000E+00 0. -1.
</event>
<event>
 5    1  0.1258677E-009  0.9118800E+02  0.7561462E-02  0.1125453E+00
         25   -1    0    0    0    0  0.00000000000E+00  0.00000000000E+00  0.99999998245E-14  0.12509000000E+03  0.12509000000E+03 0.  0.
        -13    1    3    3    0    0  0.35391618834E+02 -0.25408526338E+02 -0.10531658309E+02  0.44822838879E+02  0.10566000000E+00 0. -1.
         23    2    1    0    0    0  0.15196886740E+02  0.15033582868E+02  0.17023445673E+02  0.97763242362E+02  0.93866393741E+02 0.  0.
         13    1    3    3    0    0 -0.20194732094E+02  0.40442109207E+02  0.27555103982E+02  0.52940403483E+02  0.10566000000E+00 0.  1.
         22    1    1    0    0    0 -0.15196886740E+02 -0.15033582868E+02 -0.17023445673E+02  0.27326757638E+02  0.00000000000E+00 0.  1.
</event>
<event>
 5    1  0.1258677E-009  0.9118800E+02  0.7561462E-02  0.1125453E+00
         25   -1    0    0    0    0  0.00000000000E+00  0.00000000000E+00  0.99999998245E-14  0.12509000000E+03  0.12509000000E+03 0.  0.
        -13    1    3    3    0    0 -0.29984223286E+02 -0.16141531502E+02 -0.45220768091E+02  0.56608583413E+02  0.10566000000E+00 0.  1.
         23    2    1    0    0    0 -0.24257713496E+02  0.81063573911E+01 -0.16393355065E+02  0.94710865969E+02  0.89706501148E+02 0.  0.
         13    1    3    3    0    0  0.57265097906E+01  0.24247888893E+02  0.28827413026E+02  0.38102282556E+02  0.10566000000E+00 0. -1.
         22    1    1    0    0    0  0.24257713496E+02 -0.81063573911E+01  0.16393355065E+02  0.30379134031E+02  0.00000000000E+00 0.  1.
</event>
<event>
 5    1  0.1258677E-009  0.9118800E+02  0.7561462E-02  0.1125453E+00
         25   -1    0    0    0    0  0.00000000000E+00  0.00000000000E+00  0.99999998245E-14  0.12509000000E+03  0.12509000000E+03 0.  0.
        -13    1    3    3    0    0 -0.35096179229E+02  0.11551693225E+01 -0.11492069377E+02  0.36948004482E+02  0.10566000000E+00 0.  1.
         23    2    1    0    0    0  0.21489447706E+02  0.17912677311E+02 -0.76450130150E+01  0.96088162211E+02  0.91606922893E+02 0.  0.
         13    1    3    3    0    0  0.56585626934E+02  0.16757507988E+02  0.38470563618E+01  0.59140157729E+02  0.10566000000E+00 0. -1.
         22    1    1    0    0    0 -0.21489447706E+02 -0.17912677311E+02  0.76450130150E+01  0.29001837789E+02  0.00000000000E+00 0. -1.
</event>
<event>
 5    1  0.1258677E-009  0.9118800E+02  0.7561462E-02  0.1125453E+00
         25   -1    0    0    0    0  0.00000000000E+00  0.00000000000E+00  0.99999998245E-14  0.12509000000E+03  0.12509000000E+03 0.  0.
        -13    1    3    3    0    0  0.92765330374E+01  0.50751911657E+02  0.32952919634E+02  0.61218597489E+02  0.10566000000E+00 0.  1.
         23    2    1    0    0    0  0.98974301447E+01  0.17942283032E+02  0.19872885825E+02  0.96545013840E+02  0.92228647733E+02 0.  0.
         13    1    3    3    0    0  0.62089710737E+00 -0.32809628625E+02 -0.13080033810E+02  0.35326416352E+02  0.10566000000E+00 0. -1.
         22    1    1    0    0    0 -0.98974301447E+01 -0.17942283032E+02 -0.19872885825E+02  0.28544986160E+02  0.00000000000E+00 0.  1.
</event>
<event>
 5    1  0.1258677E-009  0.9118800E+02  0.7561462E-02  0.1125453E+00
         25   -1    0    0    0    0  0.00000000000E+00  0.00000000000E+00  0.99999998245E-14  0.12509000000E+03  0.12509000000E+03 0.  0.
        -13    1    3    3    0    0 -0.36766198846E+02 -0.17099530171E+02 -0.37177374223E+02  0.55011958953E+02  0.10566000000E+00 0. -1.
         23    2    1    0    0    0 -0.16437500034E+02  0.13788377095E+02 -0.19901589499E+02  0.95825960381E+02  0.91248181725E+02 0.  0.
         13    1    3    3    0    0  0.20328698813E+02  0.30887907266E+02  0.17275784724E+02  0.40814001428E+02  0.10566000000E+00 0.  1.
         22    1    1    0    0    0  0.16437500034E+02 -0.13788377095E+02  0.19901589499E+02  0.29264039619E+02  0.00000000000E+00 0.  1.
</event>
<event>
 5    1  0.1258677E-009  0.9118800E+02  0.7561462E-02  0.1125453E+00
         25   -1    0    0    0    0  0.00000000000E+00  0.00000000000E+00  0.99999998245E-14  0.12509000000E+03  0.12509000000E+03 0.  0.
        -13    1    3    3    0    0  0.34335904213E+02  0.25772798253E+02  0.42607700451E+02  0.60486517090E+02  0.10566000000E+00 0. -1.
         23    2    1    0    0    0  0.62085465913E+01  0.17922273553E+02  0.20851157318E+02  0.96902685450E+02  0.92712489697E+02 0.  0.
         13    1    3    3    0    0 -0.28127357622E+02 -0.78505247003E+01 -0.21756543133E+02  0.36416168360E+02  0.10566000000E+00 0.  1.
         22    1    1    0    0    0 -0.62085465913E+01 -0.17922273553E+02 -0.20851157318E+02  0.28187314550E+02  0.00000000000E+00 0. -1.
</event>
<event>
 5    1  0.1258677E-009  0.9118800E+02  0.7561462E-02  0.1125453E+00
         25   -1    0    0    0    0  0.00000000000E+00  0.00000000000E+00  0.99999998245E-14  0.12509000000E+03  0.12509000000E+03 0.  0.
        -13    1    3    3    0    0 -0.36648163733E+02 -0.29195256674E+02 -0.15808457439E+02  0.49450676516E+02  0.10566000000E+00 0. -1.
         23    2    1    0    0    0  0.75563513131E+01 -0.27936947788E+02 -0.84282893216E+00  0.96136902455E+02  0.91673453933E+02 0.  0.
         13    1    3    3    0    0  0.44204515046E+02  0.12583088866E+01  0.14965628507E+02  0.46686225938E+02  0.10566000000E+00 0.  1.
         22    1    1    0    0    0 -0.75563513131E+01  0.27936947788E+02  0.84282893216E+00  0.28953097545E+02  0.00000000000E+00 0.  1.
</event>
<event>
 5    1  0.1258677E-009  0.9118800E+02  0.7561462E-02  0.1125453E+00
         25   -1    0    0    0    0  0.00000000000E+00  0.00000000000E+00  0.99999998245E-14  0.12509000000E+03  0.12509000000E+03 0.  0.
        -13    1    3    3    0    0 -0.32910831722E+02 -0.20605065046E+01 -0.44020116126E+02  0.55001366524E+02  0.10566000000E+00 0.  1.
         23    2    1    0    0    0 -0.22928616409E+02 -0.16121392624E+02 -0.64667073390E+01  0.96324759616E+02  0.91929430873E+02 0.  0.
         13    1    3    3    0    0  0.99822153130E+01 -0.14060886120E+02  0.37553408787E+02  0.41323393092E+02  0.10566000000E+00 0. -1.
         22    1    1    0    0    0  0.22928616409E+02  0.16121392624E+02  0.64667073390E+01  0.28765240384E+02  0.00000000000E+00 0.  1.
</event>
<event>
 5    1  0.1258677E-009  0.9118800E+02  0.7561462E-02  0.1125453E+00
         25   -1    0    0    0    0  0.00000000000E+00  0.00000000000E+00  0.99999998245E-14  0.12509000000E+03  0.12509000000E+03 0.  0.
        -13    1    3    3    0    0  0.39816396118E+01  0.39954428538E+02 -0.28129683708E+02  0.49025504417E+02  0.10566000000E+00 0.  1.
         23    2    1    0    0    0 -0.25828404785E+02  0.14808974335E+02 -0.35933492102E+01  0.95101262562E+02  0.90249242477E+02 0.  0.
         13    1    3    3    0    0 -0.29810044397E+02 -0.25145454203E+02  0.24536334497E+02  0.46075758145E+02  0.10566000000E+00 0. -1.
         22    1    1    0    0    0  0.25828404785E+02 -0.14808974335E+02  0.35933492102E+01  0.29988737438E+02  0.00000000000E+00 0.  1.
</event>
<event>
 5    1  0.1258677E-009  0.9118800E+02  0.7561462E-02  0.1125453E+00
         25   -1    0    0    0    0  0.00000000000E+00  0.00000000000E+00  0.99999998245E-14  0.12509000000E+03  0.12509000000E+03 0.  0.
        -13    1    3    3    0    0  0.22407706050E+02  0.41435025448E+02  0.23681816896E+02  0.52723867839E+02  0.10566000000E+00 0.  1.
         23    2    1    0    0    0  0.25415387307E+02 -0.45220783800E+00  0.14893516476E+02  0.95628784192E+02  0.90977475944E+02 0.  0.
         13    1    3    3    0    0  0.30076812572E+01 -0.41887233286E+02 -0.87883004207E+01  0.42904916353E+02  0.10566000000E+00 0. -1.
         22    1    1    0    0    0 -0.25415387307E+02  0.45220783800E+00 -0.14893516476E+02  0.29461215808E+02  0.00000000000E+00 0.  1.
</event>
<event>
 5    1  0.1258677E-009  0.9118800E+02  0.7561462E-02  0.1125453E+00
         25   -1    0    0    0    0  0.00000000000E+00  0.00000000000E+00  0.99999998245E-14  0.12509000000E+03  0.12509000000E+03 0.  0.
        -13    1    3    3    0    0  0.22508629538E+02 -0.33751371791E+02  0.20286443207E+02  0.45357958987E+02  0.10566000000E+00 0.  1.
         23    2    1    0    0    0 -0.18390499825E+02 -0.34467124166E+01  0.21898594374E+02  0.96286549758E+02  0.91877423334E+02 0.  0.
         13    1    3    3    0    0 -0.40899129363E+02  0.30304659374E+02  0.16121511665E+01  0.50928590771E+02  0.10566000000E+00 0. -1.
         22    1    1    0    0    0  0.18390499825E+02  0.34467124166E+01 -0.21898594374E+02  0.28803450242E+02  0.00000000000E+00 0. -1.
</event>
<event>
 5    1  0.1258677E-009  0.9118800E+02  0.7561462E-02  0.1125453E+00
         25   -1    0    0    0    0  0.00000000000E+00  0.00000000000E+00  0.99999998245E-14  0.12509000000E+03  0.12509000000E+03 0.  0.
        -13    1    3    3    0    0 -0.47201396042E+02 -0.24869315397E+02  0.26926640434E+02  0.59762109784E+02  0.10566000000E+00 0.  1.
         23    2    1    0    0    0 -0.29440937158E+02 -0.72408494452E+01  0.26023544872E+01  0.94660229539E+02  0.89635864061E+02 0.  0.
         13    1    3    3    0    0  0.17760458884E+02  0.17628465952E+02 -0.24324285947E+02  0.34898119755E+02  0.10566000000E+00 0. -1.
         22    1    1    0    0    0  0.29440937158E+02  0.72408494452E+01 -0.26023544872E+01  0.30429770461E+02  0.00000000000E+00 0.  1.
</event>
<event>
 5    1  0.1258677E-009  0.9118800E+02  0.7561462E-02  0.1125453E+00
         25   -1    0    0    0    0  0.00000000000E+00  0.00000000000E+00  0.99999998245E-14  0.12509000000E+03  0.12509000000E+03 0.  0.
        -13    1    3    3    0    0  0.52882211685E+01  0.49971323424E+02  0.58433033235E+01  0.50589068045E+02  0.10566000000E+00 0.  1.
         23    2    1    0    0    0 -0.11578346590E+02  0.11235141813E+02 -0.19441437328E+02  0.99826270927E+02  0.96576541460E+02 0.  0.
         13    1    3    3    0    0 -0.16866567758E+02 -0.38736181611E+02 -0.25284740652E+02  0.49237202882E+02  0.10566000000E+00 0. -1.
         22    1    1    0    0    0  0.11578346590E+02 -0.11235141813E+02  0.19441437328E+02  0.25263729073E+02  0.00000000000E+00 0.  1.
</event>
<event>
 5    1  0.1258677E-009  0.9118800E+02  0.7561462E-02  0.1125453E+00
         25   -1    0    0    0    0  0.00000000000E+00  0.00000000000E+00  0.99999998245E-14  0.12509000000E+03  0.12509000000E+03 0.  0.
        -13    1    3    3    0    0 -0.36747786802E+02  0.14819575311E+02  0.42701968486E+02  0.58253660176E+02  0.10566000000E+00 0. -1.
         23    2    1    0    0    0 -0.17908858051E+02 -0.97861148117E+01  0.16081605178E+02  0.99107058194E+02  0.95640450224E+02 0.  0.
         13    1    3    3    0    0  0.18838928752E+02 -0.24605690123E+02 -0.26620363308E+02  0.40853398018E+02  0.10566000000E+00 0.  1.
         22    1    1    0    0    0  0.17908858051E+02  0.97861148117E+01 -0.16081605178E+02  0.25982941806E+02  0.00000000000E+00 0. -1.
</event>
<event>
 5    1  0.1258677E-009  0.9118800E+02  0.7561462E-02  0.1125453E+00
         25   -1    0    0    0    0  0.00000000000E+00  0.00000000000E+00  0.99999998245E-14  0.12509000000E+03  0.12509000000E+03 0.  0.
        -13    1    3    3    0    0  0.88734111428E+01 -0.22991136174E+02  0.26047474742E+02  0.35858219035E+02  0.10566000000E+00 0. -1.
         23    2    1    0    0    0  0.80893776906E+01  0.25608307545E+02 -0.10064186214E+02  0.96410542354E+02  0.92046082948E+02 0.  0.
         13    1    3    3    0    0 -0.78403345212E+00  0.48599443719E+02 -0.36111660957E+02  0.60552323319E+02  0.10566000000E+00 0.  1.
         22    1    1    0    0    0 -0.80893776906E+01 -0.25608307545E+02  0.10064186214E+02  0.28679457646E+02  0.00000000000E+00 0.  1.
</event>
<event>
 5    1  0.1258677E-009  0.9118800E+02  0.7561462E-02  0.1125453E+00
         25   -1    0    0    0    0  0.00000000000E+00  0.00000000000E+00  0.99999998245E-14  0.12509000000E+03  0.12509000000E+03 0.  0.
        -13    1    3    3    0    0  0.12908966730E+02  0.17258111156E+02 -0.55651471065E+02  0.59678984731E+02  0.10566000000E+00 0.  1.
         23    2    1    0    0    0  0.25381803193E+01 -0.43880011084E+01 -0.29427154611E+02  0.95229418265E+02  0.90426698278E+02 0.  0.
         13    1    3    3    0    0 -0.10370786411E+02 -0.21646112265E+02  0.26224316454E+02  0.35550433534E+02  0.10566000000E+00 0. -1.
         22    1    1    0    0    0 -0.25381803193E+01  0.43880011084E+01  0.29427154611E+02  0.29860581735E+02  0.00000000000E+00 0.  1.
</event>
<event>
 5    1  0.1258677E-009  0.9118800E+02  0.7561462E-02  0.1125453E+00
         25   -1    0    0    0    0  0.00000000000E+00  0.00000000000E+00  0.99999998245E-14  0.12509000000E+03  0.12509000000E+03 0.  0.
        -13    1    3    3    0    0 -0.50050671896E+02  0.16422437630E+02 -0.10093104545E+02  0.53634393241E+02  0.10566000000E+00 0.  1.
         23    2    1    0    0    0 -0.20325123383E+02  0.12455216257E+02  0.18381222413E+02  0.94988299219E+02  0.90092533534E+02 0.  0.
         13    1    3    3    0    0  0.29725548513E+02 -0.39672213736E+01  0.28474326958E+02  0.41353905978E+02  0.10566000000E+00 0. -1.
         22    1    1    0    0    0  0.20325123383E+02 -0.12455216257E+02 -0.18381222413E+02  0.30101700781E+02  0.00000000000E+00 0.  1.
</event>
<event>
 5    1  0.1258677E-009  0.9118800E+02  0.7561462E-02  0.1125453E+00
         25   -1    0    0    0    0  0.00000000000E+00  0.00000000000E+00  0.99999998245E-14  0.12509000000E+03  0.12509000000E+03 0.  0.
        -13    1    3    3    0    0 -0.12216445446E+02  0.13076461007E+02 -0.40047184356E+02  0.43863692397E+02  0.10566000000E+00 0. -1.
         23    2    1    0    0    0  0.17097636021E+02 -0.19817269919E+02 -0.10639642972E+02  0.96836586983E+02  0.92623265065E+02 0.  0.
         13    1    3    3    0    0  0.29314081467E+02 -0.32893730926E+02  0.29407541384E+02  0.52972894586E+02  0.10566000000E+00 0.  1.
         22    1    1    0    0    0 -0.17097636021E+02  0.19817269919E+02  0.10639642972E+02  0.28253413017E+02  0.00000000000E+00 0.  1.
</event>
<event>
 5    1  0.1258677E-009  0.9118800E+02  0.7561462E-02  0.1125453E+00
         25   -1    0    0    0    0  0.00000000000E+00  0.00000000000E+00  0.99999998245E-14  0.12509000000E+03  0.12509000000E+03 0.  0.
        -13    1    3    3    0    0  0.38908885309E+02  0.21884646709E+02  0.35848494109E+01  0.44785058076E+02  0.10566000000E+00 0.  1.
         23    2    1    0    0    0  0.10374177277E+02  0.28039448926E+02  0.28962230609E+02  0.83464946821E+02  0.72344677038E+02 0.  0.
         13    1    3    3    0    0 -0.28534708032E+02  0.61548022170E+01  0.25377381199E+02  0.38679888745E+02  0.10566000000E+00 0. -1.
         22    1    1    0    0    0 -0.10374177277E+02 -0.28039448926E+02 -0.28962230609E+02  0.41625053179E+02  0.00000000000E+00 0.  1.
</event>
<event>
 5    1  0.1258677E-009  0.9118800E+02  0.7561462E-02  0.1125453E+00
         25   -1    0    0    0    0  0.00000000000E+00  0.00000000000E+00  0.99999998245E-14  0.12509000000E+03  0.12509000000E+03 0.  0.
        -13    1    3    3    0    0 -0.31530939450E+02  0.17382480023E+02  0.96574501921E+01  0.37277718044E+02  0.10566000000E+00 0.  1.
         23    2    1    0    0    0  0.20510052725E+02 -0.79265799848E+01  0.19163935194E+02  0.95922392193E+02  0.91380282222E+02 0.  0.
         13    1    3    3    0    0  0.52040992174E+02 -0.25309060008E+02  0.95064850022E+01  0.58644674149E+02  0.10566000000E+00 0. -1.
         22    1    1    0    0    0 -0.20510052725E+02  0.79265799848E+01 -0.19163935194E+02  0.29167607807E+02  0.00000000000E+00 0. -1.
</event>
<event>
 5    1  0.1258677E-009  0.9118800E+02  0.7561462E-02  0.1125453E+00
         25   -1    0    0    0    0  0.00000000000E+00  0.00000000000E+00  0.99999998245E-14  0.12509000000E+03  0.12509000000E+03 0.  0.
        -13    1    3    3    0    0 -0.21947920213E+02  0.89288910537E+01  0.29679106137E+02  0.37977582891E+02  0.10566000000E+00 0.  1.
         23    2    1    0    0    0  0.27885177241E+02  0.69120434503E+01 -0.65766989551E+00  0.96353403401E+02  0.91968398718E+02 0.  0.
         13    1    3    3    0    0  0.49833097453E+02 -0.20168476035E+01 -0.30336776033E+02  0.58375820510E+02  0.10566000000E+00 0. -1.
         22    1    1    0    0    0 -0.27885177241E+02 -0.69120434503E+01  0.65766989551E+00  0.28736596599E+02  0.00000000000E+00 0. -1.
</event>
<event>
 5    1  0.1258677E-009  0.9118800E+02  0.7561462E-02  0.1125453E+00
         25   -1    0    0    0    0  0.00000000000E+00  0.00000000000E+00  0.99999998245E-14  0.12509000000E+03  0.12509000000E+03 0.  0.
        -13    1    3    3    0    0 -0.17412328310E+02  0.15101823207E+02 -0.22168850201E+02  0.31980045726E+02  0.10566000000E+00 0.  1.
         23    2    1    0    0    0  0.20124037853E+01 -0.81212429963E+01  0.30899673204E+02  0.93077593641E+02  0.87399337967E+02 0.  0.
         13    1    3    3    0    0  0.19424732095E+02 -0.23223066203E+02  0.53068523405E+02  0.61097547915E+02  0.10566000000E+00 0. -1.
         22    1    1    0    0    0 -0.20124037853E+01  0.81212429963E+01 -0.30899673204E+02  0.32012406359E+02  0.00000000000E+00 0. -1.
</event>
<event>
 5    1  0.1258677E-009  0.9118800E+02  0.7561462E-02  0.1125453E+00
         25   -1    0    0    0    0  0.00000000000E+00  0.00000000000E+00  0.99999998245E-14  0.12509000000E+03  0.12509000000E+03 0.  0.
        -13    1    3    3    0    0 -0.46971095546E+01 -0.34070013199E+02 -0.39715593022E+01  0.34620991968E+02  0.10566000000E+00 0. -1.
         23    2    1    0    0    0  0.56116889046E+01  0.22752441236E+02  0.17083736846E+02  0.96089677602E+02  0.91608992149E+02 0.  0.
         13    1    3    3    0    0  0.10308798459E+02  0.56822454435E+02  0.21055296148E+02  0.61468685634E+02  0.10566000000E+00 0.  1.
         22    1    1    0    0    0 -0.56116889046E+01 -0.22752441236E+02 -0.17083736846E+02  0.29000322398E+02  0.00000000000E+00 0.  1.
</event>
<event>
 5    1  0.1258677E-009  0.9118800E+02  0.7561462E-02  0.1125453E+00
         25   -1    0    0    0    0  0.00000000000E+00  0.00000000000E+00  0.99999998245E-14  0.12509000000E+03  0.12509000000E+03 0.  0.
        -13    1    3    3    0    0 -0.13212142754E+02 -0.94837580877E+01  0.29217322453E+02  0.33438981428E+02  0.10566000000E+00 0.  1.
         23    2    1    0    0    0  0.66428970273E+01  0.82754740602E+01 -0.27234877401E+02  0.95860732153E+02  0.91295837090E+02 0.  0.
         13    1    3    3    0    0  0.19855039781E+02  0.17759232148E+02 -0.56452199854E+02  0.62421750725E+02  0.10566000000E+00 0. -1.
         22    1    1    0    0    0 -0.66428970273E+01 -0.82754740602E+01  0.27234877401E+02  0.29229267847E+02  0.00000000000E+00 0. -1.
</event>
<event>
 5    1  0.1258677E-009  0.9118800E+02  0.7561462E-02  0.1125453E+00
         25   -1    0    0    0    0  0.00000000000E+00  0.00000000000E+00  0.99999998245E-14  0.12509000000E+03  0.12509000000E+03 0.  0.
        -13    1    3    3    0    0  0.44661713557E+02  0.37579821234E+01 -0.16855322383E+02  0.47884278675E+02  0.10566000000E+00 0.  1.
         23    2    1    0    0    0  0.48862756982E+01 -0.23607184296E+02 -0.15970575916E+02  0.96172286818E+02  0.91721723796E+02 0.  0.
         13    1    3    3    0    0 -0.39775437859E+02 -0.27365166420E+02  0.88474646691E+00  0.48288008143E+02  0.10566000000E+00 0. -1.
         22    1    1    0    0    0 -0.48862756982E+01  0.23607184296E+02  0.15970575916E+02  0.28917713182E+02  0.00000000000E+00 0. -1.
</event>
<event>
 5    1  0.1258677E-009  0.9118800E+02  0.7561462E-02  0.1125453E+00
         25   -1    0    0    0    0  0.00000000000E+00  0.00000000000E+00  0.99999998245E-14  0.12509000000E+03  0.12509000000E+03 0.  0.
        -13    1    3    3    0    0 -0.12842857312E+01 -0.39460421771E+02  0.11080403901E+02  0.41006838342E+02  0.10566000000E+00 0.  1.
         23    2    1    0    0    0 -0.97801101593E+01  0.30045499392E+01  0.33704397288E+02  0.89866935516E+02  0.82676488964E+02 0.  0.
         13    1    3    3    0    0 -0.84958244280E+01  0.42464971710E+02  0.22623993387E+02  0.48860097174E+02  0.10566000000E+00 0. -1.
         22    1    1    0    0    0  0.97801101593E+01 -0.30045499392E+01 -0.33704397288E+02  0.35223064484E+02  0.00000000000E+00 0. -1.
</event>
<event>
 5    1  0.1258677E-009  0.9118800E+02  0.7561462E-02  0.1125453E+00
         25   -1    0    0    0    0  0.00000000000E+00  0.00000000000E+00  0.99999998245E-14  0.12509000000E+03  0.12509000000E+03 0.  0.
        -13    1    3    3    0    0  0.27048510641E+02  0.95673827925E+01 -0.37897057785E+02  0.47532671860E+02  0.10566000000E+00 0. -1.
         23    2    1    0    0    0  0.53811451579E+01  0.31267845678E+02 -0.42145993694E+01  0.93083785847E+02  0.87408200091E+02 0.  0.
         13    1    3    3    0    0 -0.21667365483E+02  0.21700462886E+02  0.33682458416E+02  0.45551113986E+02  0.10566000000E+00 0.  1.
         22    1    1    0    0    0 -0.53811451579E+01 -0.31267845678E+02  0.42145993694E+01  0.32006214153E+02  0.00000000000E+00 0.  1.
</event>
<event>
 5    1  0.1258677E-009  0.9118800E+02  0.7561462E-02  0.1125453E+00
         25   -1    0    0    0    0  0.00000000000E+00  0.00000000000E+00  0.99999998245E-14  0.12509000000E+03  0.12509000000E+03 0.  0.
        -13    1    3    3    0    0  0.46724934127E+00  0.33712983804E+02  0.63880042404E+01  0.34316196775E+02  0.10566000000E+00 0. -1.
         23    2    1    0    0    0  0.28605563877E+02 -0.10791213219E+02  0.19817794725E+02  0.88655489502E+02  0.80822783073E+02 0.  0.
         13    1    3    3    0    0  0.28138314536E+02 -0.44504197023E+02  0.13429790485E+02  0.54339292727E+02  0.10566000000E+00 0.  1.
         22    1    1    0    0    0 -0.28605563877E+02  0.10791213219E+02 -0.19817794725E+02  0.36434510498E+02  0.00000000000E+00 0.  1.
</event>
<event>
 5    1  0.1258677E-009  0.9118800E+02  0.7561462E-02  0.1125453E+00
         25   -1    0    0    0    0  0.00000000000E+00  0.00000000000E+00  0.99999998245E-14  0.12509000000E+03  0.12509000000E+03 0.  0.
        -13    1    3    3    0    0 -0.20216149943E+02 -0.14750052624E+00 -0.35161224755E+02  0.40559060211E+02  0.10566000000E+00 0.  1.
         23    2    1    0    0    0 -0.19178047204E+02 -0.10612560582E+02  0.19214036173E+02  0.95942047710E+02  0.91407184597E+02 0.  0.
         13    1    3    3    0    0  0.10381027391E+01 -0.10465060056E+02  0.54375260928E+02  0.55382987498E+02  0.10566000000E+00 0. -1.
         22    1    1    0    0    0  0.19178047204E+02  0.10612560582E+02 -0.19214036173E+02  0.29147952290E+02  0.00000000000E+00 0. -1.
</event>
<event>
 5    1  0.1258677E-009  0.9118800E+02  0.7561462E-02  0.1125453E+00
         25   -1    0    0    0    0  0.00000000000E+00  0.00000000000E+00  0.99999998245E-14  0.12509000000E+03  0.12509000000E+03 0.  0.
        -13    1    3    3    0    0  0.49736804040E+02  0.30785527863E+02 -0.15887761603E+02  0.60612956822E+02  0.10566000000E+00 0.  1.
         23    2    1    0    0    0  0.26076139922E+02  0.44012983837E+01 -0.11237787158E+02  0.96356320095E+02  0.91972365748E+02 0.  0.
         13    1    3    3    0    0 -0.23660664118E+02 -0.26384229479E+02  0.46499744451E+01  0.35743363273E+02  0.10566000000E+00 0. -1.
         22    1    1    0    0    0 -0.26076139922E+02 -0.44012983837E+01  0.11237787158E+02  0.28733679905E+02  0.00000000000E+00 0.  1.
</event>
<event>
 5    1  0.1258677E-009  0.9118800E+02  0.7561462E-02  0.1125453E+00
         25   -1    0    0    0    0  0.00000000000E+00  0.00000000000E+00  0.99999998245E-14  0.12509000000E+03  0.12509000000E+03 0.  0.
        -13    1    3    3    0    0  0.16826529760E+02 -0.12448820676E+02 -0.47905697122E+02  0.52278793222E+02  0.10566000000E+00 0. -1.
         23    2    1    0    0    0  0.25103562563E+02 -0.17911687432E+02 -0.82344484688E+01  0.93170984639E+02  0.87532901455E+02 0.  0.
         13    1    3    3    0    0  0.82770328026E+01 -0.54628667555E+01  0.39671248653E+02  0.40892191417E+02  0.10566000000E+00 0.  1.
         22    1    1    0    0    0 -0.25103562563E+02  0.17911687432E+02  0.82344484688E+01  0.31919015361E+02  0.00000000000E+00 0. -1.
</event>
<event>
 5    1  0.1258677E-009  0.9118800E+02  0.7561462E-02  0.1125453E+00
         25   -1    0    0    0    0  0.00000000000E+00  0.00000000000E+00  0.99999998245E-14  0.12509000000E+03  0.12509000000E+03 0.  0.
        -13    1    3    3    0    0  0.13359297293E+02  0.43045507584E+02 -0.95008978819E+01  0.46061532453E+02  0.10566000000E+00 0. -1.
         23    2    1    0    0    0 -0.15627782423E+02  0.18625698110E+02  0.19610620349E+02  0.93853472600E+02  0.88502845576E+02 0.  0.
         13    1    3    3    0    0 -0.28987079717E+02 -0.24419809474E+02  0.29111518231E+02  0.47791940147E+02  0.10566000000E+00 0.  1.
         22    1    1    0    0    0  0.15627782423E+02 -0.18625698110E+02 -0.19610620349E+02  0.31236527400E+02  0.00000000000E+00 0.  1.
</event>
<event>
 5    1  0.1258677E-009  0.9118800E+02  0.7561462E-02  0.1125453E+00
         25   -1    0    0    0    0  0.00000000000E+00  0.00000000000E+00  0.99999998245E-14  0.12509000000E+03  0.12509000000E+03 0.  0.
        -13    1    3    3    0    0 -0.78811976413E+00  0.46336297873E+02  0.24279625812E+02  0.52318113756E+02  0.10566000000E+00 0. -1.
         23    2    1    0    0    0  0.40511889466E+01  0.30612854811E+02 -0.11848064671E+02  0.92015301996E+02  0.85865477076E+02 0.  0.
         13    1    3    3    0    0  0.48393087108E+01 -0.15723443062E+02 -0.36127690483E+02  0.39697188240E+02  0.10566000000E+00 0.  1.
         22    1    1    0    0    0 -0.40511889466E+01 -0.30612854811E+02  0.11848064671E+02  0.33074698004E+02  0.00000000000E+00 0. -1.
</event>
<event>
 5    1  0.1258677E-009  0.9118800E+02  0.7561462E-02  0.1125453E+00
         25   -1    0    0    0    0  0.00000000000E+00  0.00000000000E+00  0.99999998245E-14  0.12509000000E+03  0.12509000000E+03 0.  0.
        -13    1    3    3    0    0  0.19442436247E+02  0.26346622185E+02 -0.32107899746E+02  0.45859363470E+02  0.10566000000E+00 0. -1.
         23    2    1    0    0    0  0.22860624507E+02 -0.33840822453E+01  0.11913676640E+02  0.99090079682E+02  0.95618241119E+02 0.  0.
         13    1    3    3    0    0  0.34181882596E+01 -0.29730704430E+02  0.44021576385E+02  0.53230716211E+02  0.10566000000E+00 0.  1.
         22    1    1    0    0    0 -0.22860624507E+02  0.33840822453E+01 -0.11913676640E+02  0.25999920318E+02  0.00000000000E+00 0.  1.
</event>
<event>
 5    1  0.1258677E-009  0.9118800E+02  0.7561462E-02  0.1125453E+00
         25   -1    0    0    0    0  0.00000000000E+00  0.00000000000E+00  0.99999998245E-14  0.12509000000E+03  0.12509000000E+03 0.  0.
        -13    1    3    3    0    0  0.34307316090E+02  0.17221164855E+02 -0.31434850546E+02  0.49615737918E+02  0.10566000000E+00 0.  1.
         23    2    1    0    0    0 -0.71713502647E+01  0.22242349069E+02 -0.23119121406E+02  0.92216847865E+02  0.86158591555E+02 0.  0.
         13    1    3    3    0    0 -0.41478666355E+02  0.50211842141E+01  0.83157291406E+01  0.42601109946E+02  0.10566000000E+00 0. -1.
         22    1    1    0    0    0  0.71713502647E+01 -0.22242349069E+02  0.23119121406E+02  0.32873152135E+02  0.00000000000E+00 0. -1.
</event>
<event>
 5    1  0.1258677E-009  0.9118800E+02  0.7561462E-02  0.1125453E+00
         25   -1    0    0    0    0  0.00000000000E+00  0.00000000000E+00  0.99999998245E-14  0.12509000000E+03  0.12509000000E+03 0.  0.
        -13    1    3    3    0    0 -0.51401222166E+02  0.28759851245E+02 -0.98080863396E+01  0.59711174879E+02  0.10566000000E+00 0.  1.
         23    2    1    0    0    0 -0.26438080285E+02  0.65872259096E+00 -0.84613773545E+01  0.97323096836E+02  0.93277994545E+02 0.  0.
         13    1    3    3    0    0  0.24963141881E+02 -0.28101128654E+02  0.13467089851E+01  0.37611921957E+02  0.10566000000E+00 0. -1.
         22    1    1    0    0    0  0.26438080285E+02 -0.65872259096E+00  0.84613773545E+01  0.27766903164E+02  0.00000000000E+00 0.  1.
</event>
<event>
 5    1  0.1258677E-009  0.9118800E+02  0.7561462E-02  0.1125453E+00
         25   -1    0    0    0    0  0.00000000000E+00  0.00000000000E+00  0.99999998245E-14  0.12509000000E+03  0.12509000000E+03 0.  0.
        -13    1    3    3    0    0 -0.17487448531E+02  0.16944995994E+02  0.34488994091E+02  0.42219019681E+02  0.10566000000E+00 0. -1.
         23    2    1    0    0    0  0.27537471498E+02  0.22948556334E+01  0.87870623058E+01  0.96093600864E+02  0.91614349117E+02 0.  0.
         13    1    3    3    0    0  0.45024920029E+02 -0.14650140360E+02 -0.25701931785E+02  0.53874581183E+02  0.10566000000E+00 0.  1.
         22    1    1    0    0    0 -0.27537471498E+02 -0.22948556334E+01 -0.87870623058E+01  0.28996399136E+02  0.00000000000E+00 0.  1.
</event>
<event>
 5    1  0.1258677E-009  0.9118800E+02  0.7561462E-02  0.1125453E+00
         25   -1    0    0    0    0  0.00000000000E+00  0.00000000000E+00  0.99999998245E-14  0.12509000000E+03  0.12509000000E+03 0.  0.
        -13    1    3    3    0    0  0.17070405302E+01  0.37898280706E+02  0.32771100629E+02  0.50131326217E+02  0.10566000000E+00 0. -1.
         23    2    1    0    0    0  0.24770599462E+02  0.21710246932E+02  0.16543713550E+01  0.92110394725E+02  0.86003897890E+02 0.  0.
         13    1    3    3    0    0  0.23063558931E+02 -0.16188033774E+02 -0.31116729274E+02  0.41979068508E+02  0.10566000000E+00 0.  1.
         22    1    1    0    0    0 -0.24770599462E+02 -0.21710246932E+02 -0.16543713550E+01  0.32979605275E+02  0.00000000000E+00 0. -1.
</event>
<event>
 5    1  0.1258677E-009  0.9118800E+02  0.7561462E-02  0.1125453E+00
         25   -1    0    0    0    0  0.00000000000E+00  0.00000000000E+00  0.99999998245E-14  0.12509000000E+03  0.12509000000E+03 0.  0.
        -13    1    3    3    0    0  0.35112870090E+02 -0.15198612296E+02  0.24323554326E+02  0.45338261113E+02  0.10566000000E+00 0.  1.
         23    2    1    0    0    0  0.13692289767E+02  0.25817171003E+02  0.51960875503E+01  0.95408280989E+02  0.90673786938E+02 0.  0.
         13    1    3    3    0    0 -0.21420580324E+02  0.41015783299E+02 -0.19127466775E+02  0.50070019875E+02  0.10566000000E+00 0. -1.
         22    1    1    0    0    0 -0.13692289767E+02 -0.25817171003E+02 -0.51960875503E+01  0.29681719011E+02  0.00000000000E+00 0. -1.
</event>
<event>
 5    1  0.1258677E-009  0.9118800E+02  0.7561462E-02  0.1125453E+00
         25   -1    0    0    0    0  0.00000000000E+00  0.00000000000E+00  0.99999998245E-14  0.12509000000E+03  0.12509000000E+03 0.  0.
        -13    1    3    3    0    0  0.13798634459E+02 -0.70570529256E+01  0.46140345673E+02  0.48673883878E+02  0.10566000000E+00 0. -1.
         23    2    1    0    0    0  0.58097755639E+01  0.25266042440E+02  0.11477794816E+02  0.96737466312E+02  0.92489303284E+02 0.  0.
         13    1    3    3    0    0 -0.79888588951E+01  0.32323095366E+02 -0.34662550857E+02  0.48063582434E+02  0.10566000000E+00 0.  1.
         22    1    1    0    0    0 -0.58097755639E+01 -0.25266042440E+02 -0.11477794816E+02  0.28352533688E+02  0.00000000000E+00 0.  1.
</event>
<event>
 5    1  0.1258677E-009  0.9118800E+02  0.7561462E-02  0.1125453E+00
         25   -1    0    0    0    0  0.00000000000E+00  0.00000000000E+00  0.99999998245E-14  0.12509000000E+03  0.12509000000E+03 0.  0.
        -13    1    3    3    0    0 -0.40347087048E+02 -0.21318981359E+01  0.33958610347E+01  0.40545967236E+02  0.10566000000E+00 0. -1.
         23    2    1    0    0    0  0.79399401117E+01 -0.26603467350E+02 -0.86626124015E+01  0.96006878132E+02  0.91495861496E+02 0.  0.
         13    1    3    3    0    0  0.48287027160E+02 -0.24471569214E+02 -0.12058473436E+02  0.55460910895E+02  0.10566000000E+00 0.  1.
         22    1    1    0    0    0 -0.79399401117E+01  0.26603467350E+02  0.86626124015E+01  0.29083121868E+02  0.00000000000E+00 0.  1.
</event>
<event>
 5    1  0.1258677E-009  0.9118800E+02  0.7561462E-02  0.1125453E+00
         25   -1    0    0    0    0  0.00000000000E+00  0.00000000000E+00  0.99999998245E-14  0.12509000000E+03  0.12509000000E+03 0.  0.
        -13    1    3    3    0    0 -0.81114745905E+01  0.37846484986E+02  0.33608828870E+02  0.51261262058E+02  0.10566000000E+00 0. -1.
         23    2    1    0    0    0 -0.26694376410E+02  0.11631376547E+02  0.27010969835E+01  0.95846631911E+02  0.91276515443E+02 0.  0.
         13    1    3    3    0    0 -0.18582901820E+02 -0.26215108439E+02 -0.30907731886E+02  0.44585369852E+02  0.10566000000E+00 0.  1.
         22    1    1    0    0    0  0.26694376410E+02 -0.11631376547E+02 -0.27010969835E+01  0.29243368089E+02  0.00000000000E+00 0. -1.
</event>
<event>
 5    1  0.1258677E-009  0.9118800E+02  0.7561462E-02  0.1125453E+00
         25   -1    0    0    0    0  0.00000000000E+00  0.00000000000E+00  0.99999998245E-14  0.12509000000E+03  0.12509000000E+03 0.  0.
        -13    1    3    3    0    0  0.31825791259E+02 -0.22562527556E+02 -0.29119537211E+02  0.48681693175E+02  0.10566000000E+00 0.  1.
         23    2    1    0    0    0  0.21342553797E+02 -0.11277344861E+02  0.15847612976E+02  0.96213886225E+02  0.91778439493E+02 0.  0.
         13    1    3    3    0    0 -0.10483237462E+02  0.11285182694E+02  0.44967150187E+02  0.47532193050E+02  0.10566000000E+00 0. -1.
         22    1    1    0    0    0 -0.21342553797E+02  0.11277344861E+02 -0.15847612976E+02  0.28876113775E+02  0.00000000000E+00 0. -1.
</event>
<event>
 5    1  0.1258677E-009  0.9118800E+02  0.7561462E-02  0.1125453E+00
         25   -1    0    0    0    0  0.00000000000E+00  0.00000000000E+00  0.99999998245E-14  0.12509000000E+03  0.12509000000E+03 0.  0.
        -13    1    3    3    0    0  0.35959868068E+02 -0.30149250986E+01 -0.12368276264E+02  0.38146917393E+02  0.10566000000E+00 0.  1.
         23    2    1    0    0    0 -0.14777027689E+02 -0.25730111466E+02  0.12915496040E+01  0.95390382431E+02  0.90649091427E+02 0.  0.
         13    1    3    3    0    0 -0.50736895757E+02 -0.22715186367E+02  0.13659825868E+02  0.57243465038E+02  0.10566000000E+00 0. -1.
         22    1    1    0    0    0  0.14777027689E+02  0.25730111466E+02 -0.12915496040E+01  0.29699617569E+02  0.00000000000E+00 0. -1.
</event>
<event>
 5    1  0.1258677E-009  0.9118800E+02  0.7561462E-02  0.1125453E+00
         25   -1    0    0    0    0  0.00000000000E+00  0.00000000000E+00  0.99999998245E-14  0.12509000000E+03  0.12509000000E+03 0.  0.
        -13    1    3    3    0    0  0.55012118281E+02 -0.39314897212E+01  0.28152049006E+02  0.61922038052E+02  0.10566000000E+00 0.  1.
         23    2    1    0    0    0  0.28661963709E+02  0.17371320274E+01  0.89598764022E+01  0.95010020338E+02  0.90122687422E+02 0.  0.
         13    1    3    3    0    0 -0.26350154572E+02  0.56686217486E+01 -0.19192172603E+02  0.33087982286E+02  0.10566000000E+00 0. -1.
         22    1    1    0    0    0 -0.28661963709E+02 -0.17371320274E+01 -0.89598764022E+01  0.30079979662E+02  0.00000000000E+00 0.  1.
</event>
<event>
 5    1  0.1258677E-009  0.9118800E+02  0.7561462E-02  0.1125453E+00
         25   -1    0    0    0    0  0.00000000000E+00  0.00000000000E+00  0.99999998245E-14  0.12509000000E+03  0.12509000000E+03 0.  0.
        -13    1    3    3    0    0  0.24324465175E+02 -0.12030759949E+02 -0.37640998373E+02  0.46403391186E+02  0.10566000000E+00 0. -1.
         23    2    1    0    0    0 -0.36881867550E+01  0.23246925538E+02 -0.17560938540E+02  0.95723201895E+02  0.91107203613E+02 0.  0.
         13    1    3    3    0    0 -0.28012651930E+02  0.35277685487E+02  0.20080059833E+02  0.49319810709E+02  0.10566000000E+00 0.  1.
         22    1    1    0    0    0  0.36881867550E+01 -0.23246925538E+02  0.17560938540E+02  0.29366798105E+02  0.00000000000E+00 0. -1.
</event>
<event>
 5    1  0.1258677E-009  0.9118800E+02  0.7561462E-02  0.1125453E+00
         25   -1    0    0    0    0  0.00000000000E+00  0.00000000000E+00  0.99999998245E-14  0.12509000000E+03  0.12509000000E+03 0.  0.
        -13    1    3    3    0    0  0.43209593602E+02  0.12274184172E+02 -0.26008786834E+02  0.51905613694E+02  0.10566000000E+00 0. -1.
         23    2    1    0    0    0  0.22385518762E+02 -0.19929492683E+02 -0.96019745947E+01  0.93617884645E+02  0.88169236587E+02 0.  0.
         13    1    3    3    0    0 -0.20824074841E+02 -0.32203676855E+02  0.16406812239E+02  0.41712270950E+02  0.10566000000E+00 0.  1.
         22    1    1    0    0    0 -0.22385518762E+02  0.19929492683E+02  0.96019745947E+01  0.31472115355E+02  0.00000000000E+00 0. -1.
</event>
<event>
 5    1  0.1258677E-009  0.9118800E+02  0.7561462E-02  0.1125453E+00
         25   -1    0    0    0    0  0.00000000000E+00  0.00000000000E+00  0.99999998245E-14  0.12509000000E+03  0.12509000000E+03 0.  0.
        -13    1    3    3    0    0 -0.29392605125E+01 -0.51144072491E+02 -0.35368425635E+02  0.62251844144E+02  0.10566000000E+00 0.  1.
         23    2    1    0    0    0 -0.39820594705E+01 -0.18636793582E+02 -0.16686506973E+02  0.99759654807E+02  0.96490218881E+02 0.  0.
         13    1    3    3    0    0 -0.10427989581E+01  0.32507278910E+02  0.18681918662E+02  0.37507810663E+02  0.10566000000E+00 0. -1.
         22    1    1    0    0    0  0.39820594705E+01  0.18636793582E+02  0.16686506973E+02  0.25330345193E+02  0.00000000000E+00 0.  1.
</event>
<event>
 5    1  0.1258677E-009  0.9118800E+02  0.7561462E-02  0.1125453E+00
         25   -1    0    0    0    0  0.00000000000E+00  0.00000000000E+00  0.99999998245E-14  0.12509000000E+03  0.12509000000E+03 0.  0.
        -13    1    3    3    0    0 -0.38099708144E+02 -0.23975960922E+02 -0.56710745950E+01  0.45371871395E+02  0.10566000000E+00 0. -1.
         23    2    1    0    0    0 -0.35579194461E+02 -0.12451326274E+01 -0.29833366136E+02  0.78641542880E+02  0.63458908735E+02 0.  0.
         13    1    3    3    0    0  0.25205136827E+01  0.22730828294E+02 -0.24162291541E+02  0.33269671485E+02  0.10566000000E+00 0.  1.
         22    1    1    0    0    0  0.35579194461E+02  0.12451326274E+01  0.29833366136E+02  0.46448457120E+02  0.00000000000E+00 0. -1.
</event>
<event>
 5    1  0.1258677E-009  0.9118800E+02  0.7561462E-02  0.1125453E+00
         25   -1    0    0    0    0  0.00000000000E+00  0.00000000000E+00  0.99999998245E-14  0.12509000000E+03  0.12509000000E+03 0.  0.
        -13    1    3    3    0    0 -0.20411165621E+02  0.57263289702E+02 -0.97378765340E+01  0.61567340635E+02  0.10566000000E+00 0. -1.
         23    2    1    0    0    0 -0.12418989955E+02  0.24402199266E+02 -0.11408333765E+02  0.95427755988E+02  0.90700649905E+02 0.  0.
         13    1    3    3    0    0  0.79921756664E+01 -0.32861090436E+02 -0.16704572308E+01  0.33860415353E+02  0.10566000000E+00 0.  1.
         22    1    1    0    0    0  0.12418989955E+02 -0.24402199266E+02  0.11408333765E+02  0.29662244012E+02  0.00000000000E+00 0. -1.
</event>
<event>
 5    1  0.1258677E-009  0.9118800E+02  0.7561462E-02  0.1125453E+00
         25   -1    0    0    0    0  0.00000000000E+00  0.00000000000E+00  0.99999998245E-14  0.12509000000E+03  0.12509000000E+03 0.  0.
        -13    1    3    3    0    0 -0.20179163166E+02  0.82476207425E+01  0.29277781293E+02  0.36502349451E+02  0.10566000000E+00 0.  1.
         23    2    1    0    0    0  0.11286725622E+02 -0.33322413132E+01 -0.23372249471E+02  0.98922156131E+02  0.95398306697E+02 0.  0.
         13    1    3    3    0    0  0.31465888788E+02 -0.11579862056E+02 -0.52650030764E+02  0.62419806680E+02  0.10566000000E+00 0. -1.
         22    1    1    0    0    0 -0.11286725622E+02  0.33322413132E+01  0.23372249471E+02  0.26167843869E+02  0.00000000000E+00 0. -1.
</event>
<event>
 5    1  0.1258677E-009  0.9118800E+02  0.7561462E-02  0.1125453E+00
         25   -1    0    0    0    0  0.00000000000E+00  0.00000000000E+00  0.99999998245E-14  0.12509000000E+03  0.12509000000E+03 0.  0.
        -13    1    3    3    0    0 -0.13727367939E+02  0.33197394932E+02  0.14446632132E+02  0.38719814111E+02  0.10566000000E+00 0.  1.
         23    2    1    0    0    0  0.14026661223E+01  0.30974663947E+01 -0.30227091323E+02  0.94672261422E+02  0.89652653405E+02 0.  0.
         13    1    3    3    0    0  0.15130034061E+02 -0.30099928538E+02 -0.44673723455E+02  0.55952447311E+02  0.10566000000E+00 0. -1.
         22    1    1    0    0    0 -0.14026661223E+01 -0.30974663947E+01  0.30227091323E+02  0.30417738578E+02  0.00000000000E+00 0. -1.
</event>
<event>
 5    1  0.1258677E-009  0.9118800E+02  0.7561462E-02  0.1125453E+00
         25   -1    0    0    0    0  0.00000000000E+00  0.00000000000E+00  0.99999998245E-14  0.12509000000E+03  0.12509000000E+03 0.  0.
        -13    1    3    3    0    0  0.35307268179E+02 -0.33166449059E+02 -0.38268007337E+02  0.61733848730E+02  0.10566000000E+00 0. -1.
         23    2    1    0    0    0  0.21913019062E+02 -0.11206967155E+02 -0.16208395709E+02  0.95619869212E+02  0.90965217416E+02 0.  0.
         13    1    3    3    0    0 -0.13394249117E+02  0.21959481904E+02  0.22059611628E+02  0.33886020482E+02  0.10566000000E+00 0.  1.
         22    1    1    0    0    0 -0.21913019062E+02  0.11206967155E+02  0.16208395709E+02  0.29470130788E+02  0.00000000000E+00 0. -1.
</event>
<event>
 5    1  0.1258677E-009  0.9118800E+02  0.7561462E-02  0.1125453E+00
         25   -1    0    0    0    0  0.00000000000E+00  0.00000000000E+00  0.99999998245E-14  0.12509000000E+03  0.12509000000E+03 0.  0.
        -13    1    3    3    0    0  0.30265926512E+01  0.67516926080E+01 -0.37907448695E+02  0.38622939385E+02  0.10566000000E+00 0.  1.
         23    2    1    0    0    0  0.17809301272E+02 -0.14374376273E+02  0.15170256738E+02  0.97632203392E+02  0.93691603384E+02 0.  0.
         13    1    3    3    0    0  0.14782708621E+02 -0.21126068881E+02  0.53077705433E+02  0.59009264007E+02  0.10566000000E+00 0. -1.
         22    1    1    0    0    0 -0.17809301272E+02  0.14374376273E+02 -0.15170256738E+02  0.27457796608E+02  0.00000000000E+00 0. -1.
</event>
<event>
 5    1  0.1258677E-009  0.9118800E+02  0.7561462E-02  0.1125453E+00
         25   -1    0    0    0    0  0.00000000000E+00  0.00000000000E+00  0.99999998245E-14  0.12509000000E+03  0.12509000000E+03 0.  0.
        -13    1    3    3    0    0  0.28841165380E+02 -0.30961344772E+02 -0.29083262771E+02  0.51344571554E+02  0.10566000000E+00 0. -1.
         23    2    1    0    0    0 -0.43976924893E+01  0.80395088492E+00 -0.27374217475E+02  0.97353132501E+02  0.93318265035E+02 0.  0.
         13    1    3    3    0    0 -0.33238857869E+02  0.31765295657E+02  0.17090452963E+01  0.46008560948E+02  0.10566000000E+00 0.  1.
         22    1    1    0    0    0  0.43976924893E+01 -0.80395088492E+00  0.27374217475E+02  0.27736867499E+02  0.00000000000E+00 0. -1.
</event>
<event>
 5    1  0.1258677E-009  0.9118800E+02  0.7561462E-02  0.1125453E+00
         25   -1    0    0    0    0  0.00000000000E+00  0.00000000000E+00  0.99999998245E-14  0.12509000000E+03  0.12509000000E+03 0.  0.
        -13    1    3    3    0    0  0.32265478373E+02 -0.45114763080E+02  0.21074953553E+02  0.59334372616E+02  0.10566000000E+00 0.  1.
         23    2    1    0    0    0  0.12874713371E+02 -0.25032982587E+02 -0.37498464364E+01  0.96691587898E+02  0.92427232786E+02 0.  0.
         13    1    3    3    0    0 -0.19390765002E+02  0.20081780492E+02 -0.24824799990E+02  0.37357215283E+02  0.10566000000E+00 0. -1.
         22    1    1    0    0    0 -0.12874713371E+02  0.25032982587E+02  0.37498464364E+01  0.28398412102E+02  0.00000000000E+00 0.  1.
</event>
<event>
 5    1  0.1258677E-009  0.9118800E+02  0.7561462E-02  0.1125453E+00
         25   -1    0    0    0    0  0.00000000000E+00  0.00000000000E+00  0.99999998245E-14  0.12509000000E+03  0.12509000000E+03 0.  0.
        -13    1    3    3    0    0 -0.57332248579E+02 -0.21526681084E+01  0.15248255582E+02  0.59364477337E+02  0.10566000000E+00 0.  1.
         23    2    1    0    0    0 -0.26263216140E+02  0.12871383805E+02  0.45874805189E+01  0.95484696073E+02  0.90779144982E+02 0.  0.
         13    1    3    3    0    0  0.31069032439E+02  0.15024051914E+02 -0.10660775063E+02  0.36120218737E+02  0.10566000000E+00 0. -1.
         22    1    1    0    0    0  0.26263216140E+02 -0.12871383805E+02 -0.45874805189E+01  0.29605303927E+02  0.00000000000E+00 0.  1.
</event>
<event>
 5    1  0.1258677E-009  0.9118800E+02  0.7561462E-02  0.1125453E+00
         25   -1    0    0    0    0  0.00000000000E+00  0.00000000000E+00  0.99999998245E-14  0.12509000000E+03  0.12509000000E+03 0.  0.
        -13    1    3    3    0    0 -0.97734734836E+01  0.28266088236E+02  0.54742366055E+02  0.62379726943E+02  0.10566000000E+00 0.  1.
         23    2    1    0    0    0 -0.18278694138E+01  0.14872095197E+02  0.25368540968E+02  0.95626748431E+02  0.90974676820E+02 0.  0.
         13    1    3    3    0    0  0.79456040698E+01 -0.13393993039E+02 -0.29373825087E+02  0.33247021488E+02  0.10566000000E+00 0. -1.
         22    1    1    0    0    0  0.18278694138E+01 -0.14872095197E+02 -0.25368540968E+02  0.29463251569E+02  0.00000000000E+00 0.  1.
</event>
<event>
 5    1  0.1258677E-009  0.9118800E+02  0.7561462E-02  0.1125453E+00
         25   -1    0    0    0    0  0.00000000000E+00  0.00000000000E+00  0.99999998245E-14  0.12509000000E+03  0.12509000000E+03 0.  0.
        -13    1    3    3    0    0 -0.16004891078E+02  0.17610440233E+02 -0.45004557622E+02  0.50908796042E+02  0.10566000000E+00 0. -1.
         23    2    1    0    0    0  0.11706346607E+02 -0.11172713037E+02 -0.24260252475E+02  0.95927902722E+02  0.91387825244E+02 0.  0.
         13    1    3    3    0    0  0.27711237685E+02 -0.28783153270E+02  0.20744305147E+02  0.45019106680E+02  0.10566000000E+00 0.  1.
         22    1    1    0    0    0 -0.11706346607E+02  0.11172713037E+02  0.24260252475E+02  0.29162097278E+02  0.00000000000E+00 0. -1.
</event>
<event>
 5    1  0.1258677E-009  0.9118800E+02  0.7561462E-02  0.1125453E+00
         25   -1    0    0    0    0  0.00000000000E+00  0.00000000000E+00  0.99999998245E-14  0.12509000000E+03  0.12509000000E+03 0.  0.
        -13    1    3    3    0    0 -0.30693162547E+02  0.21659279048E+02  0.71462481288E-01  0.37566086660E+02  0.10566000000E+00 0.  1.
         23    2    1    0    0    0  0.21680119835E+02  0.30128620561E+01 -0.18759544301E+02  0.96262488206E+02  0.91844657980E+02 0.  0.
         13    1    3    3    0    0  0.52373282382E+02 -0.18646416992E+02 -0.18831006782E+02  0.58696401547E+02  0.10566000000E+00 0. -1.
         22    1    1    0    0    0 -0.21680119835E+02 -0.30128620561E+01  0.18759544301E+02  0.28827511794E+02  0.00000000000E+00 0. -1.
</event>
<event>
 5    1  0.1258677E-009  0.9118800E+02  0.7561462E-02  0.1125453E+00
         25   -1    0    0    0    0  0.00000000000E+00  0.00000000000E+00  0.99999998245E-14  0.12509000000E+03  0.12509000000E+03 0.  0.
        -13    1    3    3    0    0 -0.20145392110E+02  0.46129131275E+02 -0.10912836001E+02  0.51505676669E+02  0.10566000000E+00 0.  1.
         23    2    1    0    0    0  0.13839501375E+01  0.22803421373E+02  0.19191297139E+02  0.95253491656E+02  0.90459993602E+02 0.  0.
         13    1    3    3    0    0  0.21529342248E+02 -0.23325709902E+02  0.30104133139E+02  0.43747814987E+02  0.10566000000E+00 0. -1.
         22    1    1    0    0    0 -0.13839501375E+01 -0.22803421373E+02 -0.19191297139E+02  0.29836508344E+02  0.00000000000E+00 0.  1.
</event>
<event>
 5    1  0.1258677E-009  0.9118800E+02  0.7561462E-02  0.1125453E+00
         25   -1    0    0    0    0  0.00000000000E+00  0.00000000000E+00  0.99999998245E-14  0.12509000000E+03  0.12509000000E+03 0.  0.
        -13    1    3    3    0    0  0.45805246323E+02 -0.32843383332E+02 -0.87076435743E+01  0.57031944032E+02  0.10566000000E+00 0.  1.
         23    2    1    0    0    0  0.10821591537E+02 -0.20436047758E+02 -0.18562714700E+02  0.95436783169E+02  0.90713098907E+02 0.  0.
         13    1    3    3    0    0 -0.34983654786E+02  0.12407335574E+02 -0.98550711262E+01  0.38404839137E+02  0.10566000000E+00 0. -1.
         22    1    1    0    0    0 -0.10821591537E+02  0.20436047758E+02  0.18562714700E+02  0.29653216831E+02  0.00000000000E+00 0.  1.
</event>
<event>
 5    1  0.1258677E-009  0.9118800E+02  0.7561462E-02  0.1125453E+00
         25   -1    0    0    0    0  0.00000000000E+00  0.00000000000E+00  0.99999998245E-14  0.12509000000E+03  0.12509000000E+03 0.  0.
        -13    1    3    3    0    0  0.13543892513E+02 -0.34147144700E+02  0.21345215327E+02  0.42486396611E+02  0.10566000000E+00 0.  1.
         23    2    1    0    0    0  0.31866336979E+02  0.37638276700E+01 -0.56571050927E+01  0.92507294937E+02  0.86579252407E+02 0.  0.
         13    1    3    3    0    0  0.18322444466E+02  0.37910972370E+02 -0.27002320420E+02  0.50020898326E+02  0.10566000000E+00 0. -1.
         22    1    1    0    0    0 -0.31866336979E+02 -0.37638276700E+01  0.56571050927E+01  0.32582705063E+02  0.00000000000E+00 0. -1.
</event>
<event>
 5    1  0.1258677E-009  0.9118800E+02  0.7561462E-02  0.1125453E+00
         25   -1    0    0    0    0  0.00000000000E+00  0.00000000000E+00  0.99999998245E-14  0.12509000000E+03  0.12509000000E+03 0.  0.
        -13    1    3    3    0    0 -0.27343258326E+02  0.11873982927E+00  0.51058044868E+02  0.57918934596E+02  0.10566000000E+00 0. -1.
         23    2    1    0    0    0 -0.14868281754E+02  0.16392534479E+02  0.19278761637E+02  0.95739503596E+02  0.91129583065E+02 0.  0.
         13    1    3    3    0    0  0.12474976572E+02  0.16273794649E+02 -0.31779283231E+02  0.37820569000E+02  0.10566000000E+00 0.  1.
         22    1    1    0    0    0  0.14868281754E+02 -0.16392534479E+02 -0.19278761637E+02  0.29350496404E+02  0.00000000000E+00 0. -1.
</event>
<event>
 5    1  0.1258677E-009  0.9118800E+02  0.7561462E-02  0.1125453E+00
         25   -1    0    0    0    0  0.00000000000E+00  0.00000000000E+00  0.99999998245E-14  0.12509000000E+03  0.12509000000E+03 0.  0.
        -13    1    3    3    0    0 -0.21389979924E+02 -0.16418980347E+02 -0.38408435845E+02  0.46929023694E+02  0.10566000000E+00 0.  1.
         23    2    1    0    0    0 -0.14986315498E+02 -0.19818098464E+02  0.11747517324E+02  0.97606353185E+02  0.93657083768E+02 0.  0.
         13    1    3    3    0    0  0.64036644261E+01 -0.33991181172E+01  0.50155953169E+02  0.50677329491E+02  0.10566000000E+00 0. -1.
         22    1    1    0    0    0  0.14986315498E+02  0.19818098464E+02 -0.11747517324E+02  0.27483646815E+02  0.00000000000E+00 0. -1.
</event>
<event>
 5    1  0.1258677E-009  0.9118800E+02  0.7561462E-02  0.1125453E+00
         25   -1    0    0    0    0  0.00000000000E+00  0.00000000000E+00  0.99999998245E-14  0.12509000000E+03  0.12509000000E+03 0.  0.
        -13    1    3    3    0    0 -0.18462756686E+02  0.24202190780E+01 -0.42587131060E+02  0.46480165025E+02  0.10566000000E+00 0.  1.
         23    2    1    0    0    0  0.27526643912E+01 -0.27684815668E+02 -0.10413831101E+02  0.95383535081E+02  0.90639642025E+02 0.  0.
         13    1    3    3    0    0  0.21215421078E+02 -0.30105034746E+02  0.32173299958E+02  0.48903370055E+02  0.10566000000E+00 0. -1.
         22    1    1    0    0    0 -0.27526643912E+01  0.27684815668E+02  0.10413831101E+02  0.29706464919E+02  0.00000000000E+00 0. -1.
</event>
<event>
 5    1  0.1258677E-009  0.9118800E+02  0.7561462E-02  0.1125453E+00
         25   -1    0    0    0    0  0.00000000000E+00  0.00000000000E+00  0.99999998245E-14  0.12509000000E+03  0.12509000000E+03 0.  0.
        -13    1    3    3    0    0  0.47600667429E+02 -0.21053513243E+02  0.10427184323E+01  0.52059316028E+02  0.10566000000E+00 0. -1.
         23    2    1    0    0    0  0.22665384311E+02 -0.25800726017E+01 -0.24031022161E+02  0.91955932234E+02  0.85778942791E+02 0.  0.
         13    1    3    3    0    0 -0.24935283118E+02  0.18473440642E+02 -0.25073740594E+02  0.39896616206E+02  0.10566000000E+00 0.  1.
         22    1    1    0    0    0 -0.22665384311E+02  0.25800726017E+01  0.24031022161E+02  0.33134067766E+02  0.00000000000E+00 0. -1.
</event>
<event>
 5    1  0.1258677E-009  0.9118800E+02  0.7561462E-02  0.1125453E+00
         25   -1    0    0    0    0  0.00000000000E+00  0.00000000000E+00  0.99999998245E-14  0.12509000000E+03  0.12509000000E+03 0.  0.
        -13    1    3    3    0    0  0.55413408300E+01  0.53055864888E+02  0.85539164084E+01  0.54026029903E+02  0.10566000000E+00 0. -1.
         23    2    1    0    0    0 -0.13751120579E+02  0.18440160422E+02 -0.12510148778E+02  0.98905335481E+02  0.95376248251E+02 0.  0.
         13    1    3    3    0    0 -0.19292461409E+02 -0.34615704466E+02 -0.21064065186E+02  0.44879305577E+02  0.10566000000E+00 0.  1.
         22    1    1    0    0    0  0.13751120579E+02 -0.18440160422E+02  0.12510148778E+02  0.26184664519E+02  0.00000000000E+00 0. -1.
</event>
<event>
 5    1  0.1258677E-009  0.9118800E+02  0.7561462E-02  0.1125453E+00
         25   -1    0    0    0    0  0.00000000000E+00  0.00000000000E+00  0.99999998245E-14  0.12509000000E+03  0.12509000000E+03 0.  0.
        -13    1    3    3    0    0 -0.51155440669E+02  0.15443907791E+02  0.13628661630E+02  0.55146577226E+02  0.10566000000E+00 0.  1.
         23    2    1    0    0    0 -0.11891126538E+02  0.24254494304E+02  0.12298796551E+02  0.95409370275E+02  0.90675289662E+02 0.  0.
         13    1    3    3    0    0  0.39264314131E+02  0.88105865128E+01 -0.13298650784E+01  0.40262793048E+02  0.10566000000E+00 0. -1.
         22    1    1    0    0    0  0.11891126538E+02 -0.24254494304E+02 -0.12298796551E+02  0.29680629725E+02  0.00000000000E+00 0.  1.
</event>
<event>
 5    1  0.1258677E-009  0.9118800E+02  0.7561462E-02  0.1125453E+00
         25   -1    0    0    0    0  0.00000000000E+00  0.00000000000E+00  0.99999998245E-14  0.12509000000E+03  0.12509000000E+03 0.  0.
        -13    1    3    3    0    0  0.89161911917E+00 -0.29653421568E+02 -0.19608052160E+02  0.35561317029E+02  0.10566000000E+00 0. -1.
         23    2    1    0    0    0 -0.13896931151E+02  0.10719361758E+02  0.23043516889E+02  0.96123932222E+02  0.91655754120E+02 0.  0.
         13    1    3    3    0    0 -0.14788550270E+02  0.40372783325E+02  0.42651569049E+02  0.60562615192E+02  0.10566000000E+00 0.  1.
         22    1    1    0    0    0  0.13896931151E+02 -0.10719361758E+02 -0.23043516889E+02  0.28966067778E+02  0.00000000000E+00 0.  1.
</event>
<event>
 5    1  0.1258677E-009  0.9118800E+02  0.7561462E-02  0.1125453E+00
         25   -1    0    0    0    0  0.00000000000E+00  0.00000000000E+00  0.99999998245E-14  0.12509000000E+03  0.12509000000E+03 0.  0.
        -13    1    3    3    0    0 -0.18749043498E+02 -0.44429826943E+02  0.15453940994E+02  0.50639624905E+02  0.10566000000E+00 0.  1.
         23    2    1    0    0    0  0.18332988896E+02 -0.22662038927E+02  0.11255965277E+02  0.93843188250E+02  0.88488308473E+02 0.  0.
         13    1    3    3    0    0  0.37082032394E+02  0.21767788016E+02 -0.41979757170E+01  0.43203563345E+02  0.10566000000E+00 0. -1.
         22    1    1    0    0    0 -0.18332988896E+02  0.22662038927E+02 -0.11255965277E+02  0.31246811750E+02  0.00000000000E+00 0.  1.
</event>
<event>
 5    1  0.1258677E-009  0.9118800E+02  0.7561462E-02  0.1125453E+00
         25   -1    0    0    0    0  0.00000000000E+00  0.00000000000E+00  0.99999998245E-14  0.12509000000E+03  0.12509000000E+03 0.  0.
        -13    1    3    3    0    0  0.20471731650E+02  0.10204376782E+02  0.52815876029E+02  0.57556485534E+02  0.10566000000E+00 0.  1.
         23    2    1    0    0    0 -0.77743476124E+01  0.10123027607E+02  0.23996293145E+02  0.97910260240E+02  0.94062111431E+02 0.  0.
         13    1    3    3    0    0 -0.28246079263E+02 -0.81349175208E-01 -0.28819582884E+02  0.40353774706E+02  0.10566000000E+00 0. -1.
         22    1    1    0    0    0  0.77743476124E+01 -0.10123027607E+02 -0.23996293145E+02  0.27179739760E+02  0.00000000000E+00 0.  1.
</event>
<event>
 5    1  0.1258677E-009  0.9118800E+02  0.7561462E-02  0.1125453E+00
         25   -1    0    0    0    0  0.00000000000E+00  0.00000000000E+00  0.99999998245E-14  0.12509000000E+03  0.12509000000E+03 0.  0.
        -13    1    3    3    0    0  0.24018912745E+02 -0.26509292750E+02 -0.29485919082E+02  0.46358185466E+02  0.10566000000E+00 0.  1.
         23    2    1    0    0    0 -0.15194609862E+02 -0.25266359114E+02  0.28030979881E+00  0.95605365946E+02  0.90945271192E+02 0.  0.
         13    1    3    3    0    0 -0.39213522607E+02  0.12429336362E+01  0.29766228881E+02  0.49247180479E+02  0.10566000000E+00 0. -1.
         22    1    1    0    0    0  0.15194609862E+02  0.25266359114E+02 -0.28030979881E+00  0.29484634054E+02  0.00000000000E+00 0. -1.
</event>
<event>
 5    1  0.1258677E-009  0.9118800E+02  0.7561462E-02  0.1125453E+00
         25   -1    0    0    0    0  0.00000000000E+00  0.00000000000E+00  0.99999998245E-14  0.12509000000E+03  0.12509000000E+03 0.  0.
        -13    1    3    3    0    0 -0.59443052607E+01 -0.24345100292E+02  0.11877849548E+02  0.27732889269E+02  0.10566000000E+00 0. -1.
         23    2    1    0    0    0 -0.19500454482E+02  0.32657639833E+02  0.48355640574E+01  0.86747180017E+02  0.77813246923E+02 0.  0.
         13    1    3    3    0    0 -0.13556149222E+02  0.57002740125E+02 -0.70422854907E+01  0.59014290748E+02  0.10566000000E+00 0.  1.
         22    1    1    0    0    0  0.19500454482E+02 -0.32657639833E+02 -0.48355640574E+01  0.38342819983E+02  0.00000000000E+00 0.  1.
</event>
<event>
 5    1  0.1258677E-009  0.9118800E+02  0.7561462E-02  0.1125453E+00
         25   -1    0    0    0    0  0.00000000000E+00  0.00000000000E+00  0.99999998245E-14  0.12509000000E+03  0.12509000000E+03 0.  0.
        -13    1    3    3    0    0  0.36556188964E+02 -0.19497428357E+02  0.13500987354E+02  0.43575136117E+02  0.10566000000E+00 0. -1.
         23    2    1    0    0    0 -0.16260205292E+02 -0.14081558744E+02  0.18250622418E+02  0.96880608098E+02  0.92682697598E+02 0.  0.
         13    1    3    3    0    0 -0.52816394256E+02  0.54158696124E+01  0.47496350644E+01  0.53305471981E+02  0.10566000000E+00 0.  1.
         22    1    1    0    0    0  0.16260205292E+02  0.14081558744E+02 -0.18250622418E+02  0.28209391902E+02  0.00000000000E+00 0.  1.
</event>
<event>
 5    1  0.1258677E-009  0.9118800E+02  0.7561462E-02  0.1125453E+00
         25   -1    0    0    0    0  0.00000000000E+00  0.00000000000E+00  0.99999998245E-14  0.12509000000E+03  0.12509000000E+03 0.  0.
        -13    1    3    3    0    0 -0.31521535622E+02 -0.12992170158E+02  0.24089133627E+02  0.41745673025E+02  0.10566000000E+00 0.  1.
         23    2    1    0    0    0  0.23332135456E+02 -0.78788135659E+01  0.90518935644E+01  0.98852602544E+02  0.95307061672E+02 0.  0.
         13    1    3    3    0    0  0.54853671078E+02  0.51133565920E+01 -0.15037240063E+02  0.57106929519E+02  0.10566000000E+00 0. -1.
         22    1    1    0    0    0 -0.23332135456E+02  0.78788135659E+01 -0.90518935644E+01  0.26237397456E+02  0.00000000000E+00 0. -1.
</event>
<event>
 5    1  0.1258677E-009  0.9118800E+02  0.7561462E-02  0.1125453E+00
         25   -1    0    0    0    0  0.00000000000E+00  0.00000000000E+00  0.99999998245E-14  0.12509000000E+03  0.12509000000E+03 0.  0.
        -13    1    3    3    0    0 -0.10058697584E+02 -0.10491289114E+02  0.32598093688E+02  0.35691615549E+02  0.10566000000E+00 0. -1.
         23    2    1    0    0    0 -0.16202787754E+02 -0.37233636078E+00 -0.25440677217E+02  0.94925500624E+02  0.90005297877E+02 0.  0.
         13    1    3    3    0    0 -0.61440901706E+01  0.10118952753E+02 -0.58038770905E+02  0.59233885075E+02  0.10566000000E+00 0.  1.
         22    1    1    0    0    0  0.16202787754E+02  0.37233636078E+00  0.25440677217E+02  0.30164499376E+02  0.00000000000E+00 0. -1.
</event>
<event>
 5    1  0.1258677E-009  0.9118800E+02  0.7561462E-02  0.1125453E+00
         25   -1    0    0    0    0  0.00000000000E+00  0.00000000000E+00  0.99999998245E-14  0.12509000000E+03  0.12509000000E+03 0.  0.
        -13    1    3    3    0    0 -0.45231455952E+02  0.17020069052E+02  0.16741957560E+02  0.51145592822E+02  0.10566000000E+00 0.  1.
         23    2    1    0    0    0 -0.33583265824E+01  0.18831459480E+02  0.24743244228E+02  0.93814924324E+02  0.88448344628E+02 0.  0.
         13    1    3    3    0    0  0.41873129370E+02  0.18113904279E+01  0.80012866681E+01  0.42669331503E+02  0.10566000000E+00 0. -1.
         22    1    1    0    0    0  0.33583265824E+01 -0.18831459480E+02 -0.24743244228E+02  0.31275075676E+02  0.00000000000E+00 0.  1.
</event>
<event>
 5    1  0.1258677E-009  0.9118800E+02  0.7561462E-02  0.1125453E+00
         25   -1    0    0    0    0  0.00000000000E+00  0.00000000000E+00  0.99999998245E-14  0.12509000000E+03  0.12509000000E+03 0.  0.
        -13    1    3    3    0    0 -0.48313127350E+02 -0.19985201906E+02  0.33529280831E+02  0.62111113391E+02  0.10566000000E+00 0. -1.
         23    2    1    0    0    0 -0.20089292796E+02 -0.13900628710E+02  0.15960977410E+02  0.95908499637E+02  0.91361262793E+02 0.  0.
         13    1    3    3    0    0  0.28223834554E+02  0.60845731960E+01 -0.17568303421E+02  0.33797386246E+02  0.10566000000E+00 0.  1.
         22    1    1    0    0    0  0.20089292796E+02  0.13900628710E+02 -0.15960977410E+02  0.29181500363E+02  0.00000000000E+00 0. -1.
</event>
<event>
 5    1  0.1258677E-009  0.9118800E+02  0.7561462E-02  0.1125453E+00
         25   -1    0    0    0    0  0.00000000000E+00  0.00000000000E+00  0.99999998245E-14  0.12509000000E+03  0.12509000000E+03 0.  0.
        -13    1    3    3    0    0 -0.21052847296E+02  0.12646788116E+02  0.28621480015E+02  0.37714240165E+02  0.10566000000E+00 0.  1.
         23    2    1    0    0    0 -0.64532207786E+01 -0.13669247293E+02 -0.23058681616E+02  0.97518362801E+02  0.93539488483E+02 0.  0.
         13    1    3    3    0    0  0.14599626518E+02 -0.26316035408E+02 -0.51680161631E+02  0.59804122636E+02  0.10566000000E+00 0. -1.
         22    1    1    0    0    0  0.64532207786E+01  0.13669247293E+02  0.23058681616E+02  0.27571637199E+02  0.00000000000E+00 0. -1.
</event>
<event>
 5    1  0.1258677E-009  0.9118800E+02  0.7561462E-02  0.1125453E+00
         25   -1    0    0    0    0  0.00000000000E+00  0.00000000000E+00  0.99999998245E-14  0.12509000000E+03  0.12509000000E+03 0.  0.
        -13    1    3    3    0    0  0.53000823756E+02  0.29560915630E+02 -0.95604093704E+01  0.61435719602E+02  0.10566000000E+00 0. -1.
         23    2    1    0    0    0  0.22710938606E+02  0.14961985763E+02 -0.12440018821E+02  0.95183448568E+02  0.90363084623E+02 0.  0.
         13    1    3    3    0    0 -0.30289885151E+02 -0.14598929867E+02 -0.28796094502E+01  0.33747728965E+02  0.10566000000E+00 0.  1.
         22    1    1    0    0    0 -0.22710938606E+02 -0.14961985763E+02  0.12440018821E+02  0.29906551432E+02  0.00000000000E+00 0. -1.
</event>
<event>
 5    1  0.1258677E-009  0.9118800E+02  0.7561462E-02  0.1125453E+00
         25   -1    0    0    0    0  0.00000000000E+00  0.00000000000E+00  0.99999998245E-14  0.12509000000E+03  0.12509000000E+03 0.  0.
        -13    1    3    3    0    0  0.22432793253E+02  0.28241242090E+02 -0.38673175819E+02  0.52881222185E+02  0.10566000000E+00 0.  1.
         23    2    1    0    0    0 -0.11874766557E+02  0.23115437728E+02 -0.13028852956E+02  0.96019661999E+02  0.91513337492E+02 0.  0.
         13    1    3    3    0    0 -0.34307559809E+02 -0.51258043613E+01  0.25644322863E+02  0.43138439814E+02  0.10566000000E+00 0. -1.
         22    1    1    0    0    0  0.11874766557E+02 -0.23115437728E+02  0.13028852956E+02  0.29070338001E+02  0.00000000000E+00 0.  1.
</event>
<event>
 5    1  0.1258677E-009  0.9118800E+02  0.7561462E-02  0.1125453E+00
         25   -1    0    0    0    0  0.00000000000E+00  0.00000000000E+00  0.99999998245E-14  0.12509000000E+03  0.12509000000E+03 0.  0.
        -13    1    3    3    0    0  0.39691391302E+02  0.20090434107E+02  0.74047962467E+01  0.45098495070E+02  0.10566000000E+00 0. -1.
         23    2    1    0    0    0  0.17239296696E+02 -0.24356955294E+02  0.34237519907E+01  0.95053743584E+02  0.90183354728E+02 0.  0.
         13    1    3    3    0    0 -0.22452094606E+02 -0.44447389400E+02 -0.39810442561E+01  0.49955248514E+02  0.10566000000E+00 0.  1.
         22    1    1    0    0    0 -0.17239296696E+02  0.24356955294E+02 -0.34237519907E+01  0.30036256416E+02  0.00000000000E+00 0.  1.
</event>
<event>
 5    1  0.1258677E-009  0.9118800E+02  0.7561462E-02  0.1125453E+00
         25   -1    0    0    0    0  0.00000000000E+00  0.00000000000E+00  0.99999998245E-14  0.12509000000E+03  0.12509000000E+03 0.  0.
        -13    1    3    3    0    0 -0.80519147280E+01  0.20801282450E+02 -0.25676734970E+02  0.34012241400E+02  0.10566000000E+00 0.  1.
         23    2    1    0    0    0 -0.36987658156E+01 -0.16523222918E+01  0.30320335135E+02  0.94500234388E+02  0.89412306419E+02 0.  0.
         13    1    3    3    0    0  0.43531489124E+01 -0.22453604742E+02  0.55997070104E+02  0.60487992988E+02  0.10566000000E+00 0. -1.
         22    1    1    0    0    0  0.36987658156E+01  0.16523222918E+01 -0.30320335135E+02  0.30589765612E+02  0.00000000000E+00 0. -1.
</event>
<event>
 5    1  0.1258677E-009  0.9118800E+02  0.7561462E-02  0.1125453E+00
         25   -1    0    0    0    0  0.00000000000E+00  0.00000000000E+00  0.99999998245E-14  0.12509000000E+03  0.12509000000E+03 0.  0.
        -13    1    3    3    0    0 -0.32001971945E+02  0.34418792718E+02  0.39785439534E+01  0.47165871947E+02  0.10566000000E+00 0.  1.
         23    2    1    0    0    0 -0.15876757330E+02 -0.70995063040E+00 -0.24993502023E+02  0.95471583490E+02  0.90761074572E+02 0.  0.
         13    1    3    3    0    0  0.16125214615E+02 -0.35128743348E+02 -0.28972045976E+02  0.48305711543E+02  0.10566000000E+00 0. -1.
         22    1    1    0    0    0  0.15876757330E+02  0.70995063040E+00  0.24993502023E+02  0.29618416510E+02  0.00000000000E+00 0.  1.
</event>
<event>
 5    1  0.1258677E-009  0.9118800E+02  0.7561462E-02  0.1125453E+00
         25   -1    0    0    0    0  0.00000000000E+00  0.00000000000E+00  0.99999998245E-14  0.12509000000E+03  0.12509000000E+03 0.  0.
        -13    1    3    3    0    0 -0.25959464715E+02  0.28688499572E+02  0.76890210066E+01  0.39446875973E+02  0.10566000000E+00 0.  1.
         23    2    1    0    0    0  0.23258811576E+02  0.82397139449E+01 -0.13689260245E+02  0.96871902121E+02  0.92670946756E+02 0.  0.
         13    1    3    3    0    0  0.49218276292E+02 -0.20448785627E+02 -0.21378281252E+02  0.57425026148E+02  0.10566000000E+00 0. -1.
         22    1    1    0    0    0 -0.23258811576E+02 -0.82397139449E+01  0.13689260245E+02  0.28218097879E+02  0.00000000000E+00 0. -1.
</event>
<event>
 5    1  0.1258677E-009  0.9118800E+02  0.7561462E-02  0.1125453E+00
         25   -1    0    0    0    0  0.00000000000E+00  0.00000000000E+00  0.99999998245E-14  0.12509000000E+03  0.12509000000E+03 0.  0.
        -13    1    3    3    0    0 -0.60950305052E+02 -0.10610859455E+02  0.51055402233E+01  0.62077433334E+02  0.10566000000E+00 0.  1.
         23    2    1    0    0    0 -0.29166290735E+02 -0.27917276518E+01 -0.25085762606E+01  0.95683211441E+02  0.91052280247E+02 0.  0.
         13    1    3    3    0    0  0.31784014317E+02  0.78191318033E+01 -0.76141164839E+01  0.33605778107E+02  0.10566000000E+00 0. -1.
         22    1    1    0    0    0  0.29166290735E+02  0.27917276518E+01  0.25085762606E+01  0.29406788559E+02  0.00000000000E+00 0.  1.
</event>
<event>
 5    1  0.1258677E-009  0.9118800E+02  0.7561462E-02  0.1125453E+00
         25   -1    0    0    0    0  0.00000000000E+00  0.00000000000E+00  0.99999998245E-14  0.12509000000E+03  0.12509000000E+03 0.  0.
        -13    1    3    3    0    0 -0.36426901541E+02  0.21617213832E+02  0.84738962371E+01  0.43197698680E+02  0.10566000000E+00 0. -1.
         23    2    1    0    0    0  0.14208313809E+02  0.13027431773E+02  0.21531392830E+02  0.96190328080E+02  0.91746325152E+02 0.  0.
         13    1    3    3    0    0  0.50635215350E+02 -0.85897820591E+01  0.13057496593E+02  0.52992629400E+02  0.10566000000E+00 0.  1.
         22    1    1    0    0    0 -0.14208313809E+02 -0.13027431773E+02 -0.21531392830E+02  0.28899671920E+02  0.00000000000E+00 0.  1.
</event>
<event>
 5    1  0.1258677E-009  0.9118800E+02  0.7561462E-02  0.1125453E+00
         25   -1    0    0    0    0  0.00000000000E+00  0.00000000000E+00  0.99999998245E-14  0.12509000000E+03  0.12509000000E+03 0.  0.
        -13    1    3    3    0    0  0.14502208215E+02 -0.16144595463E+02  0.33963423926E+02  0.40304929408E+02  0.10566000000E+00 0.  1.
         23    2    1    0    0    0  0.15451227869E+02 -0.14585414832E+02 -0.20951191574E+02  0.95249973243E+02  0.90455128135E+02 0.  0.
         13    1    3    3    0    0  0.94901965414E+00  0.15591806309E+01 -0.54914615500E+02  0.54945043835E+02  0.10566000000E+00 0. -1.
         22    1    1    0    0    0 -0.15451227869E+02  0.14585414832E+02  0.20951191574E+02  0.29840026757E+02  0.00000000000E+00 0. -1.
</event>
<event>
 5    1  0.1258677E-009  0.9118800E+02  0.7561462E-02  0.1125453E+00
         25   -1    0    0    0    0  0.00000000000E+00  0.00000000000E+00  0.99999998245E-14  0.12509000000E+03  0.12509000000E+03 0.  0.
        -13    1    3    3    0    0 -0.10123692154E+02 -0.24164249032E+02  0.18220740574E+02  0.31912483846E+02  0.10566000000E+00 0.  1.
         23    2    1    0    0    0 -0.13589921070E+02  0.31463207480E+02 -0.81094568130E+00  0.90807686594E+02  0.84087804895E+02 0.  0.
         13    1    3    3    0    0 -0.34662289156E+01  0.55627456512E+02 -0.19031686256E+02  0.58895202747E+02  0.10566000000E+00 0. -1.
         22    1    1    0    0    0  0.13589921070E+02 -0.31463207480E+02  0.81094568130E+00  0.34282313406E+02  0.00000000000E+00 0. -1.
</event>
<event>
 5    1  0.1258677E-009  0.9118800E+02  0.7561462E-02  0.1125453E+00
         25   -1    0    0    0    0  0.00000000000E+00  0.00000000000E+00  0.99999998245E-14  0.12509000000E+03  0.12509000000E+03 0.  0.
        -13    1    3    3    0    0  0.31802972325E+02  0.78808879294E+01  0.60127885789E+01  0.33312193470E+02  0.10566000000E+00 0.  1.
         23    2    1    0    0    0 -0.24897410281E+02 -0.13273797759E+02 -0.86453886475E+01  0.95580383084E+02  0.90910902206E+02 0.  0.
         13    1    3    3    0    0 -0.56700382606E+02 -0.21154685689E+02 -0.14658177226E+02  0.62268189614E+02  0.10566000000E+00 0. -1.
         22    1    1    0    0    0  0.24897410281E+02  0.13273797759E+02  0.86453886475E+01  0.29509616916E+02  0.00000000000E+00 0. -1.
</event>
<event>
 5    1  0.1258677E-009  0.9118800E+02  0.7561462E-02  0.1125453E+00
         25   -1    0    0    0    0  0.00000000000E+00  0.00000000000E+00  0.99999998245E-14  0.12509000000E+03  0.12509000000E+03 0.  0.
        -13    1    3    3    0    0  0.35373791607E+02  0.28823548188E+02  0.84856633494E+01  0.46412495186E+02  0.10566000000E+00 0.  1.
         23    2    1    0    0    0  0.26956823230E+02 -0.28920197219E+01 -0.21209583204E+02  0.90667906566E+02  0.83879608753E+02 0.  0.
         13    1    3    3    0    0 -0.84169683773E+01 -0.31715567910E+02 -0.29695246553E+02  0.44255411380E+02  0.10566000000E+00 0. -1.
         22    1    1    0    0    0 -0.26956823230E+02  0.28920197219E+01  0.21209583204E+02  0.34422093434E+02  0.00000000000E+00 0. -1.
</event>
<event>
 5    1  0.1258677E-009  0.9118800E+02  0.7561462E-02  0.1125453E+00
         25   -1    0    0    0    0  0.00000000000E+00  0.00000000000E+00  0.99999998245E-14  0.12509000000E+03  0.12509000000E+03 0.  0.
        -13    1    3    3    0    0 -0.47843276403E+01 -0.49267055506E+01  0.27915657063E+02  0.28748170234E+02  0.10566000000E+00 0. -1.
         23    2    1    0    0    0  0.10144505678E+02 -0.21119343469E+01 -0.32465368627E+02  0.91011100044E+02  0.84389862597E+02 0.  0.
         13    1    3    3    0    0  0.14928833318E+02  0.28147712037E+01 -0.60381025689E+02  0.62262929810E+02  0.10566000000E+00 0.  1.
         22    1    1    0    0    0 -0.10144505678E+02  0.21119343469E+01  0.32465368627E+02  0.34078899956E+02  0.00000000000E+00 0.  1.
</event>
<event>
 5    1  0.1258677E-009  0.9118800E+02  0.7561462E-02  0.1125453E+00
         25   -1    0    0    0    0  0.00000000000E+00  0.00000000000E+00  0.99999998245E-14  0.12509000000E+03  0.12509000000E+03 0.  0.
        -13    1    3    3    0    0 -0.40631997163E+02  0.17393070918E+02 -0.40529416015E+02  0.59967681595E+02  0.10566000000E+00 0.  1.
         23    2    1    0    0    0 -0.10197601194E+02  0.63918217717E+01 -0.27896850089E+02  0.94707756821E+02  0.89702165534E+02 0.  0.
         13    1    3    3    0    0  0.30434395969E+02 -0.11001249146E+02  0.12632565925E+02  0.34740075226E+02  0.10566000000E+00 0. -1.
         22    1    1    0    0    0  0.10197601194E+02 -0.63918217717E+01  0.27896850089E+02  0.30382243179E+02  0.00000000000E+00 0.  1.
</event>
<event>
 5    1  0.1258677E-009  0.9118800E+02  0.7561462E-02  0.1125453E+00
         25   -1    0    0    0    0  0.00000000000E+00  0.00000000000E+00  0.99999998245E-14  0.12509000000E+03  0.12509000000E+03 0.  0.
        -13    1    3    3    0    0  0.22671665810E+02 -0.16540080938E+02 -0.31264886612E+02  0.42012890961E+02  0.10566000000E+00 0. -1.
         23    2    1    0    0    0 -0.49355769778E+01  0.25581959846E+02 -0.15445712989E+02  0.94801938995E+02  0.89833406914E+02 0.  0.
         13    1    3    3    0    0 -0.27607242788E+02  0.42122040784E+02  0.15819173623E+02  0.52789048034E+02  0.10566000000E+00 0.  1.
         22    1    1    0    0    0  0.49355769778E+01 -0.25581959846E+02  0.15445712989E+02  0.30288061005E+02  0.00000000000E+00 0.  1.
</event>
<event>
 5    1  0.1258677E-009  0.9118800E+02  0.7561462E-02  0.1125453E+00
         25   -1    0    0    0    0  0.00000000000E+00  0.00000000000E+00  0.99999998245E-14  0.12509000000E+03  0.12509000000E+03 0.  0.
        -13    1    3    3    0    0  0.33279384916E+02  0.29684518500E+02  0.91336088390E+01  0.45520567587E+02  0.10566000000E+00 0.  1.
         23    2    1    0    0    0 -0.92990370814E+01  0.13982175393E+01  0.24458329741E+02  0.98886240792E+02  0.95351201467E+02 0.  0.
         13    1    3    3    0    0 -0.42578421997E+02 -0.28286300961E+02  0.15324720902E+02  0.53365673205E+02  0.10566000000E+00 0. -1.
         22    1    1    0    0    0  0.92990370814E+01 -0.13982175393E+01 -0.24458329741E+02  0.26203759208E+02  0.00000000000E+00 0. -1.
</event>
<event>
 5    1  0.1258677E-009  0.9118800E+02  0.7561462E-02  0.1125453E+00
         25   -1    0    0    0    0  0.00000000000E+00  0.00000000000E+00  0.99999998245E-14  0.12509000000E+03  0.12509000000E+03 0.  0.
        -13    1    3    3    0    0  0.14257607915E+02 -0.17879427287E+02  0.32675348285E+02  0.39882864155E+02  0.10566000000E+00 0. -1.
         23    2    1    0    0    0 -0.23070201703E+01 -0.28523124272E+02 -0.15939681318E+02  0.92333864684E+02  0.86328316135E+02 0.  0.
         13    1    3    3    0    0 -0.16564628086E+02 -0.10643696985E+02 -0.48615029603E+02  0.52451000529E+02  0.10566000000E+00 0.  1.
         22    1    1    0    0    0  0.23070201703E+01  0.28523124272E+02  0.15939681318E+02  0.32756135316E+02  0.00000000000E+00 0.  1.
</event>
<event>
 5    1  0.1258677E-009  0.9118800E+02  0.7561462E-02  0.1125453E+00
         25   -1    0    0    0    0  0.00000000000E+00  0.00000000000E+00  0.99999998245E-14  0.12509000000E+03  0.12509000000E+03 0.  0.
        -13    1    3    3    0    0 -0.14554801908E+02 -0.36800761396E+02 -0.33655883338E+02  0.51950629882E+02  0.10566000000E+00 0.  1.
         23    2    1    0    0    0  0.17275925242E+02 -0.24190062451E+02 -0.93873007701E+01  0.93917285487E+02  0.88592992855E+02 0.  0.
         13    1    3    3    0    0  0.31830727150E+02  0.12610698944E+02  0.24268582567E+02  0.41966655605E+02  0.10566000000E+00 0. -1.
         22    1    1    0    0    0 -0.17275925242E+02  0.24190062451E+02  0.93873007701E+01  0.31172714513E+02  0.00000000000E+00 0.  1.
</event>
<event>
 5    1  0.1258677E-009  0.9118800E+02  0.7561462E-02  0.1125453E+00
         25   -1    0    0    0    0  0.00000000000E+00  0.00000000000E+00  0.99999998245E-14  0.12509000000E+03  0.12509000000E+03 0.  0.
        -13    1    3    3    0    0  0.43567156068E+02 -0.34502352862E+02 -0.24040965202E+02  0.60551536833E+02  0.10566000000E+00 0.  1.
         23    2    1    0    0    0  0.22388325886E+02 -0.20144630115E+02 -0.10434825807E+01  0.94954769549E+02  0.90045966849E+02 0.  0.
         13    1    3    3    0    0 -0.21178830182E+02  0.14357722747E+02  0.22997482622E+02  0.34403232717E+02  0.10566000000E+00 0. -1.
         22    1    1    0    0    0 -0.22388325886E+02  0.20144630115E+02  0.10434825807E+01  0.30135230451E+02  0.00000000000E+00 0.  1.
</event>
<event>
 5    1  0.1258677E-009  0.9118800E+02  0.7561462E-02  0.1125453E+00
         25   -1    0    0    0    0  0.00000000000E+00  0.00000000000E+00  0.99999998245E-14  0.12509000000E+03  0.12509000000E+03 0.  0.
        -13    1    3    3    0    0  0.15547489263E+02  0.14289433176E+02  0.49180870980E+02  0.53522720010E+02  0.10566000000E+00 0. -1.
         23    2    1    0    0    0  0.64579543255E+01  0.26806989013E+02  0.98113864146E+01  0.95822558408E+02  0.91243517920E+02 0.  0.
         13    1    3    3    0    0 -0.90895349372E+01  0.12517555837E+02 -0.39369484565E+02  0.42299838398E+02  0.10566000000E+00 0.  1.
         22    1    1    0    0    0 -0.64579543255E+01 -0.26806989013E+02 -0.98113864146E+01  0.29267441592E+02  0.00000000000E+00 0. -1.
</event>
<event>
 5    1  0.1258677E-009  0.9118800E+02  0.7561462E-02  0.1125453E+00
         25   -1    0    0    0    0  0.00000000000E+00  0.00000000000E+00  0.99999998245E-14  0.12509000000E+03  0.12509000000E+03 0.  0.
        -13    1    3    3    0    0 -0.15506925828E+02 -0.69138366160E+01 -0.30030133319E+02  0.34497622477E+02  0.10566000000E+00 0. -1.
         23    2    1    0    0    0  0.18639826733E+02  0.20195497832E+02  0.12040612567E+02  0.95085373285E+02  0.90227216451E+02 0.  0.
         13    1    3    3    0    0  0.34146752561E+02  0.27109334448E+02  0.42070745885E+02  0.60587750808E+02  0.10566000000E+00 0.  1.
         22    1    1    0    0    0 -0.18639826733E+02 -0.20195497832E+02 -0.12040612567E+02  0.30004626715E+02  0.00000000000E+00 0.  1.
</event>
<event>
 4    1  0.1258677E-009  0.9118800E+02  0.7561462E-02  0.1125453E+00
         25   -1    0    0    0    0  0.00000000000E+00  0.00000000000E+00  0.99999998245E-14  0.12509000000E+03  0.12509000000E+03 0.  0.
        -13    1    1    0    0    0  0.30127649152E+01  0.30022621758E+02 -0.25596478006E+02  0.39567984786E+02  0.10566000000E+00 0.  1.
         13    1    1    0    0    0  0.29419359773E+01  0.24722722826E+02  0.16077198891E+02  0.29637062935E+02  0.10566000000E+00 0. -1.
         22    1    1    0    0    0 -0.59547008925E+01 -0.54745344584E+02  0.95192791155E+01  0.55884952279E+02  0.00000000000E+00 0.  1.
</event>
<event>
 5    1  0.1258677E-009  0.9118800E+02  0.7561462E-02  0.1125453E+00
         25   -1    0    0    0    0  0.00000000000E+00  0.00000000000E+00  0.99999998245E-14  0.12509000000E+03  0.12509000000E+03 0.  0.
        -13    1    3    3    0    0  0.24616251979E+02  0.25602305821E+02 -0.21177314084E+02  0.41351272299E+02  0.10566000000E+00 0.  1.
         23    2    1    0    0    0  0.12674631524E+02 -0.25532512791E+02 -0.73121716819E+01  0.95661725358E+02  0.91022757319E+02 0.  0.
         13    1    3    3    0    0 -0.11941620455E+02 -0.51134818613E+02  0.13865142402E+02  0.54310453059E+02  0.10566000000E+00 0. -1.
         22    1    1    0    0    0 -0.12674631524E+02  0.25532512791E+02  0.73121716819E+01  0.29428274642E+02  0.00000000000E+00 0. -1.
</event>
<event>
 5    1  0.1258677E-009  0.9118800E+02  0.7561462E-02  0.1125453E+00
         25   -1    0    0    0    0  0.00000000000E+00  0.00000000000E+00  0.99999998245E-14  0.12509000000E+03  0.12509000000E+03 0.  0.
        -13    1    3    3    0    0 -0.28988084099E+02  0.20553842188E+02 -0.17366623575E+02  0.39552246799E+02  0.10566000000E+00 0. -1.
         23    2    1    0    0    0  0.22251108291E+02 -0.31399148127E+01 -0.18449650294E+02  0.96014916489E+02  0.91506850602E+02 0.  0.
         13    1    3    3    0    0  0.51239192390E+02 -0.23693757001E+02 -0.10830267190E+01  0.56462669690E+02  0.10566000000E+00 0.  1.
         22    1    1    0    0    0 -0.22251108291E+02  0.31399148127E+01  0.18449650294E+02  0.29075083511E+02  0.00000000000E+00 0.  1.
</event>
<event>
 5    1  0.1258677E-009  0.9118800E+02  0.7561462E-02  0.1125453E+00
         25   -1    0    0    0    0  0.00000000000E+00  0.00000000000E+00  0.99999998245E-14  0.12509000000E+03  0.12509000000E+03 0.  0.
        -13    1    3    3    0    0 -0.18073442280E+02  0.99215905857E+01 -0.35978478215E+02  0.41467449093E+02  0.10566000000E+00 0.  1.
         23    2    1    0    0    0  0.21315417633E+02  0.24327580486E+02 -0.83688129844E+01  0.91680192579E+02  0.85375889333E+02 0.  0.
         13    1    3    3    0    0  0.39388859912E+02  0.14405989900E+02  0.27609665231E+02  0.50212743486E+02  0.10566000000E+00 0. -1.
         22    1    1    0    0    0 -0.21315417633E+02 -0.24327580486E+02  0.83688129844E+01  0.33409807421E+02  0.00000000000E+00 0.  1.
</event>
<event>
 5    1  0.1258677E-009  0.9118800E+02  0.7561462E-02  0.1125453E+00
         25   -1    0    0    0    0  0.00000000000E+00  0.00000000000E+00  0.99999998245E-14  0.12509000000E+03  0.12509000000E+03 0.  0.
        -13    1    3    3    0    0  0.63876117395E+01  0.16324986055E+02 -0.46704552184E+02  0.49886201621E+02  0.10566000000E+00 0.  1.
         23    2    1    0    0    0 -0.11558961137E+02 -0.11804958415E+02  0.14864852946E+01  0.10850156233E+03  0.10722598922E+03 0.  0.
         13    1    3    3    0    0 -0.17946572877E+02 -0.28129944470E+02  0.48191037478E+02  0.58615360710E+02  0.10566000000E+00 0. -1.
         22    1    1    0    0    0  0.11558961137E+02  0.11804958415E+02 -0.14864852946E+01  0.16588437669E+02  0.00000000000E+00 0. -1.
</event>
<event>
 5    1  0.1258677E-009  0.9118800E+02  0.7561462E-02  0.1125453E+00
         25   -1    0    0    0    0  0.00000000000E+00  0.00000000000E+00  0.99999998245E-14  0.12509000000E+03  0.12509000000E+03 0.  0.
        -13    1    3    3    0    0  0.16796267208E+02 -0.27403640415E+02 -0.74296585837E+01  0.32989166264E+02  0.10566000000E+00 0.  1.
         23    2    1    0    0    0 -0.23030382618E+02  0.16607374139E+02  0.10218798137E+02  0.94913399219E+02  0.89988477688E+02 0.  0.
         13    1    3    3    0    0 -0.39826649826E+02  0.44011014554E+02  0.17648456721E+02  0.61924232955E+02  0.10566000000E+00 0. -1.
         22    1    1    0    0    0  0.23030382618E+02 -0.16607374139E+02 -0.10218798137E+02  0.30176600781E+02  0.00000000000E+00 0. -1.
</event>
<event>
 5    1  0.1258677E-009  0.9118800E+02  0.7561462E-02  0.1125453E+00
         25   -1    0    0    0    0  0.00000000000E+00  0.00000000000E+00  0.99999998245E-14  0.12509000000E+03  0.12509000000E+03 0.  0.
        -13    1    3    3    0    0  0.27229117636E+01 -0.42915352984E+02  0.10101146890E+02  0.44172232259E+02  0.10566000000E+00 0.  1.
         23    2    1    0    0    0  0.25101715404E+02 -0.68588849675E+00 -0.12500139077E+02  0.97039687414E+02  0.92897152256E+02 0.  0.
         13    1    3    3    0    0  0.22378803640E+02  0.42229464487E+02 -0.22601285967E+02  0.52867455155E+02  0.10566000000E+00 0. -1.
         22    1    1    0    0    0 -0.25101715404E+02  0.68588849675E+00  0.12500139077E+02  0.28050312586E+02  0.00000000000E+00 0. -1.
</event>
<event>
 5    1  0.1258677E-009  0.9118800E+02  0.7561462E-02  0.1125453E+00
         25   -1    0    0    0    0  0.00000000000E+00  0.00000000000E+00  0.99999998245E-14  0.12509000000E+03  0.12509000000E+03 0.  0.
        -13    1    3    3    0    0  0.31823806193E+02 -0.44844046953E+02  0.22747964908E+01  0.55035707053E+02  0.10566000000E+00 0.  1.
         23    2    1    0    0    0  0.35773040129E+01 -0.19957493544E+02  0.19968439610E+02  0.96632360727E+02  0.92347040595E+02 0.  0.
         13    1    3    3    0    0 -0.28246502180E+02  0.24886553409E+02  0.17693643119E+02  0.41596653674E+02  0.10566000000E+00 0. -1.
         22    1    1    0    0    0 -0.35773040129E+01  0.19957493544E+02 -0.19968439610E+02  0.28457639273E+02  0.00000000000E+00 0.  1.
</event>
<event>
 5    1  0.1258677E-009  0.9118800E+02  0.7561462E-02  0.1125453E+00
         25   -1    0    0    0    0  0.00000000000E+00  0.00000000000E+00  0.99999998245E-14  0.12509000000E+03  0.12509000000E+03 0.  0.
        -13    1    3    3    0    0 -0.15297402614E+02 -0.27928745614E+02 -0.10885247258E+02  0.33653010715E+02  0.10566000000E+00 0.  1.
         23    2    1    0    0    0  0.29684332799E+01  0.26057499109E+02  0.13441072602E+02  0.95620230937E+02  0.90965714837E+02 0.  0.
         13    1    3    3    0    0  0.18265835894E+02  0.53986244722E+02  0.24326319859E+02  0.61967220222E+02  0.10566000000E+00 0. -1.
         22    1    1    0    0    0 -0.29684332799E+01 -0.26057499109E+02 -0.13441072602E+02  0.29469769063E+02  0.00000000000E+00 0. -1.
</event>
<event>
 5    1  0.1258677E-009  0.9118800E+02  0.7561462E-02  0.1125453E+00
         25   -1    0    0    0    0  0.00000000000E+00  0.00000000000E+00  0.99999998245E-14  0.12509000000E+03  0.12509000000E+03 0.  0.
        -13    1    3    3    0    0  0.23274268783E+02  0.47735991833E+02 -0.10142518208E+02  0.54067535021E+02  0.10566000000E+00 0.  1.
         23    2    1    0    0    0  0.61255323161E+01  0.18269224504E+02  0.18336475741E+02  0.98490882482E+02  0.94831117674E+02 0.  0.
         13    1    3    3    0    0 -0.17148736467E+02 -0.29466767328E+02  0.28478993949E+02  0.44423347460E+02  0.10566000000E+00 0. -1.
         22    1    1    0    0    0 -0.61255323161E+01 -0.18269224504E+02 -0.18336475741E+02  0.26599117518E+02  0.00000000000E+00 0.  1.
</event>
<event>
 5    1  0.1258677E-009  0.9118800E+02  0.7561462E-02  0.1125453E+00
         25   -1    0    0    0    0  0.00000000000E+00  0.00000000000E+00  0.99999998245E-14  0.12509000000E+03  0.12509000000E+03 0.  0.
        -13    1    3    3    0    0 -0.70929502600E+01 -0.42113290231E+02 -0.64493190105E+01  0.43190786486E+02  0.10566000000E+00 0.  1.
         23    2    1    0    0    0  0.25857519790E+02 -0.33649030680E+01 -0.15355610090E+02  0.94828991035E+02  0.89871068076E+02 0.  0.
         13    1    3    3    0    0  0.32950470050E+02  0.38748387163E+02 -0.89062910794E+01  0.51638204550E+02  0.10566000000E+00 0. -1.
         22    1    1    0    0    0 -0.25857519790E+02  0.33649030680E+01  0.15355610090E+02  0.30261008965E+02  0.00000000000E+00 0. -1.
</event>
<event>
 5    1  0.1258677E-009  0.9118800E+02  0.7561462E-02  0.1125453E+00
         25   -1    0    0    0    0  0.00000000000E+00  0.00000000000E+00  0.99999998245E-14  0.12509000000E+03  0.12509000000E+03 0.  0.
        -13    1    3    3    0    0  0.16514585284E+02  0.17873485348E+02  0.49461864710E+02  0.55124225438E+02  0.10566000000E+00 0.  1.
         23    2    1    0    0    0 -0.55592075592E+01 -0.92203135020E+01  0.25252410963E+02  0.97638165285E+02  0.93699562918E+02 0.  0.
         13    1    3    3    0    0 -0.22073792843E+02 -0.27093798850E+02 -0.24209453747E+02  0.42513939847E+02  0.10566000000E+00 0. -1.
         22    1    1    0    0    0  0.55592075592E+01  0.92203135020E+01 -0.25252410963E+02  0.27451834715E+02  0.00000000000E+00 0.  1.
</event>
<event>
 5    1  0.1258677E-009  0.9118800E+02  0.7561462E-02  0.1125453E+00
         25   -1    0    0    0    0  0.00000000000E+00  0.00000000000E+00  0.99999998245E-14  0.12509000000E+03  0.12509000000E+03 0.  0.
        -13    1    3    3    0    0 -0.89492031737E+01 -0.18040057968E+02 -0.27935423888E+02  0.34437348922E+02  0.10566000000E+00 0. -1.
         23    2    1    0    0    0  0.92633900682E+01  0.28227402813E+02  0.61888614639E+01  0.94743687682E+02  0.89752257265E+02 0.  0.
         13    1    3    3    0    0  0.18212593242E+02  0.46267460781E+02  0.34124285352E+02  0.60306338759E+02  0.10566000000E+00 0.  1.
         22    1    1    0    0    0 -0.92633900682E+01 -0.28227402813E+02 -0.61888614639E+01  0.30346312318E+02  0.00000000000E+00 0.  1.
</event>
<event>
 5    1  0.1258677E-009  0.9118800E+02  0.7561462E-02  0.1125453E+00
         25   -1    0    0    0    0  0.00000000000E+00  0.00000000000E+00  0.99999998245E-14  0.12509000000E+03  0.12509000000E+03 0.  0.
        -13    1    3    3    0    0  0.16945482731E+02  0.35471858480E+02 -0.24433381994E+02  0.46286104272E+02  0.10566000000E+00 0.  1.
         23    2    1    0    0    0  0.63097236150E+01  0.34758777945E+02  0.14686145794E+02  0.86832084026E+02  0.77949616303E+02 0.  0.
         13    1    3    3    0    0 -0.10635759116E+02 -0.71308053517E+00  0.39119527788E+02  0.40545979754E+02  0.10566000000E+00 0. -1.
         22    1    1    0    0    0 -0.63097236150E+01 -0.34758777945E+02 -0.14686145794E+02  0.38257915974E+02  0.00000000000E+00 0. -1.
</event>
<event>
 5    1  0.1258677E-009  0.9118800E+02  0.7561462E-02  0.1125453E+00
         25   -1    0    0    0    0  0.00000000000E+00  0.00000000000E+00  0.99999998245E-14  0.12509000000E+03  0.12509000000E+03 0.  0.
        -13    1    3    3    0    0  0.28374160924E+02 -0.35144721729E+02 -0.11596975499E+02  0.46634166427E+02  0.10566000000E+00 0.  1.
         23    2    1    0    0    0  0.57731479904E+01  0.41795463221E+01 -0.29009170663E+02  0.95218109740E+02  0.90411053498E+02 0.  0.
         13    1    3    3    0    0 -0.22601012933E+02  0.39324268051E+02 -0.17412195164E+02  0.48583943313E+02  0.10566000000E+00 0. -1.
         22    1    1    0    0    0 -0.57731479904E+01 -0.41795463221E+01  0.29009170663E+02  0.29871890260E+02  0.00000000000E+00 0. -1.
</event>
<event>
 5    1  0.1258677E-009  0.9118800E+02  0.7561462E-02  0.1125453E+00
         25   -1    0    0    0    0  0.00000000000E+00  0.00000000000E+00  0.99999998245E-14  0.12509000000E+03  0.12509000000E+03 0.  0.
        -13    1    3    3    0    0  0.35825389954E+02 -0.42543039441E+02 -0.12877078572E+02  0.57089395573E+02  0.10566000000E+00 0.  1.
         23    2    1    0    0    0  0.24509346719E+02 -0.72328894578E+01 -0.17000680530E+02  0.94397233670E+02  0.89268089593E+02 0.  0.
         13    1    3    3    0    0 -0.11316043235E+02  0.35310149984E+02 -0.41236019573E+01  0.37307838097E+02  0.10566000000E+00 0. -1.
         22    1    1    0    0    0 -0.24509346719E+02  0.72328894578E+01  0.17000680530E+02  0.30692766330E+02  0.00000000000E+00 0.  1.
</event>
<event>
 5    1  0.1258677E-009  0.9118800E+02  0.7561462E-02  0.1125453E+00
         25   -1    0    0    0    0  0.00000000000E+00  0.00000000000E+00  0.99999998245E-14  0.12509000000E+03  0.12509000000E+03 0.  0.
        -13    1    3    3    0    0  0.27774597534E+02  0.15707565216E+02  0.36258504333E+02  0.48299546310E+02  0.10566000000E+00 0.  1.
         23    2    1    0    0    0  0.21539310101E+02  0.15934693261E+02 -0.11115598871E+02  0.96082882473E+02  0.91599713084E+02 0.  0.
         13    1    3    3    0    0 -0.62352874329E+01  0.22712804458E+00 -0.47374103204E+02  0.47783336163E+02  0.10566000000E+00 0. -1.
         22    1    1    0    0    0 -0.21539310101E+02 -0.15934693261E+02  0.11115598871E+02  0.29007117527E+02  0.00000000000E+00 0. -1.
</event>
<event>
 5    1  0.1258677E-009  0.9118800E+02  0.7561462E-02  0.1125453E+00
         25   -1    0    0    0    0  0.00000000000E+00  0.00000000000E+00  0.99999998245E-14  0.12509000000E+03  0.12509000000E+03 0.  0.
        -13    1    3    3    0    0 -0.41479971007E+02 -0.39189375051E+02  0.12509971724E+02  0.58420079324E+02  0.10566000000E+00 0.  1.
         23    2    1    0    0    0 -0.67222899836E+01 -0.28160846934E+02  0.70478668362E+01  0.95292434502E+02  0.90513828578E+02 0.  0.
         13    1    3    3    0    0  0.34757681023E+02  0.11028528117E+02 -0.54621048879E+01  0.36872355178E+02  0.10566000000E+00 0. -1.
         22    1    1    0    0    0  0.67222899836E+01  0.28160846934E+02 -0.70478668362E+01  0.29797565498E+02  0.00000000000E+00 0.  1.
</event>
<event>
 5    1  0.1258677E-009  0.9118800E+02  0.7561462E-02  0.1125453E+00
         25   -1    0    0    0    0  0.00000000000E+00  0.00000000000E+00  0.99999998245E-14  0.12509000000E+03  0.12509000000E+03 0.  0.
        -13    1    3    3    0    0 -0.46279497719E+02 -0.20061372287E+02 -0.35140363656E+02  0.61474440941E+02  0.10566000000E+00 0.  1.
         23    2    1    0    0    0 -0.21253839645E+02 -0.16111738169E+02 -0.11788026261E+02  0.95930586946E+02  0.91391499288E+02 0.  0.
         13    1    3    3    0    0  0.25025658073E+02  0.39496341179E+01  0.23352337395E+02  0.34456146005E+02  0.10566000000E+00 0. -1.
         22    1    1    0    0    0  0.21253839645E+02  0.16111738169E+02  0.11788026261E+02  0.29159413054E+02  0.00000000000E+00 0.  1.
</event>
<event>
 5    1  0.1258677E-009  0.9118800E+02  0.7561462E-02  0.1125453E+00
         25   -1    0    0    0    0  0.00000000000E+00  0.00000000000E+00  0.99999998245E-14  0.12509000000E+03  0.12509000000E+03 0.  0.
        -13    1    3    3    0    0  0.15215928984E+02  0.25719349750E+02  0.22200946991E+02  0.37227713571E+02  0.10566000000E+00 0.  1.
         23    2    1    0    0    0  0.77814295427E+01 -0.27022631125E+02 -0.41697885761E+01  0.96661838339E+02  0.92386961286E+02 0.  0.
         13    1    3    3    0    0 -0.74344994412E+01 -0.52741980875E+02 -0.26370735567E+02  0.59434124768E+02  0.10566000000E+00 0. -1.
         22    1    1    0    0    0 -0.77814295427E+01  0.27022631125E+02  0.41697885761E+01  0.28428161661E+02  0.00000000000E+00 0. -1.
</event>
<event>
 5    1  0.1258677E-009  0.9118800E+02  0.7561462E-02  0.1125453E+00
         25   -1    0    0    0    0  0.00000000000E+00  0.00000000000E+00  0.99999998245E-14  0.12509000000E+03  0.12509000000E+03 0.  0.
        -13    1    3    3    0    0 -0.92772119290E+01  0.29269693159E+02  0.11085106014E+02  0.32644637204E+02  0.10566000000E+00 0.  1.
         23    2    1    0    0    0  0.13633847206E+02 -0.19073697684E+02 -0.19786725127E+02  0.94410980716E+02  0.89287351039E+02 0.  0.
         13    1    3    3    0    0  0.22911059135E+02 -0.48343390843E+02 -0.30871831141E+02  0.61766343512E+02  0.10566000000E+00 0. -1.
         22    1    1    0    0    0 -0.13633847206E+02  0.19073697684E+02  0.19786725127E+02  0.30679019284E+02  0.00000000000E+00 0. -1.
</event>
<event>
 5    1  0.1258677E-009  0.9118800E+02  0.7561462E-02  0.1125453E+00
         25   -1    0    0    0    0  0.00000000000E+00  0.00000000000E+00  0.99999998245E-14  0.12509000000E+03  0.12509000000E+03 0.  0.
        -13    1    3    3    0    0 -0.15178359456E+02 -0.25765536003E+02 -0.17900740968E+02  0.34852448014E+02  0.10566000000E+00 0.  1.
         23    2    1    0    0    0  0.21812461285E+02  0.20001472636E+02 -0.63251881006E+01  0.94826980001E+02  0.89868268909E+02 0.  0.
         13    1    3    3    0    0  0.36990820741E+02  0.45767008639E+02  0.11575552868E+02  0.59974531988E+02  0.10566000000E+00 0. -1.
         22    1    1    0    0    0 -0.21812461285E+02 -0.20001472636E+02  0.63251881006E+01  0.30263019999E+02  0.00000000000E+00 0. -1.
</event>
<event>
 5    1  0.1258677E-009  0.9118800E+02  0.7561462E-02  0.1125453E+00
         25   -1    0    0    0    0  0.00000000000E+00  0.00000000000E+00  0.99999998245E-14  0.12509000000E+03  0.12509000000E+03 0.  0.
        -13    1    3    3    0    0 -0.27848087006E+02 -0.68344205045E+01  0.46310334934E+02  0.54469106283E+02  0.10566000000E+00 0.  1.
         23    2    1    0    0    0 -0.15192413214E+01 -0.19030050601E+02  0.34222944622E+02  0.85902491037E+02  0.76443293413E+02 0.  0.
         13    1    3    3    0    0  0.26328845685E+02 -0.12195630097E+02 -0.12087390312E+02  0.31433384755E+02  0.10566000000E+00 0. -1.
         22    1    1    0    0    0  0.15192413214E+01  0.19030050601E+02 -0.34222944622E+02  0.39187508963E+02  0.00000000000E+00 0.  1.
</event>
<event>
 5    1  0.1258677E-009  0.9118800E+02  0.7561462E-02  0.1125453E+00
         25   -1    0    0    0    0  0.00000000000E+00  0.00000000000E+00  0.99999998245E-14  0.12509000000E+03  0.12509000000E+03 0.  0.
        -13    1    3    3    0    0  0.10419910065E+02  0.27457634838E+02 -0.23229272927E+02  0.37444712863E+02  0.10566000000E+00 0.  1.
         23    2    1    0    0    0  0.17722045421E+02 -0.13010469830E+02  0.18739812990E+02  0.96201874239E+02  0.91762066220E+02 0.  0.
         13    1    3    3    0    0  0.73021353560E+01 -0.40468104668E+02  0.41969085917E+02  0.58757161375E+02  0.10566000000E+00 0. -1.
         22    1    1    0    0    0 -0.17722045421E+02  0.13010469830E+02 -0.18739812990E+02  0.28888125761E+02  0.00000000000E+00 0. -1.
</event>
<event>
 5    1  0.1258677E-009  0.9118800E+02  0.7561462E-02  0.1125453E+00
         25   -1    0    0    0    0  0.00000000000E+00  0.00000000000E+00  0.99999998245E-14  0.12509000000E+03  0.12509000000E+03 0.  0.
        -13    1    3    3    0    0 -0.34189959270E+02  0.36691803644E+02 -0.65035478440E+01  0.50572216365E+02  0.10566000000E+00 0.  1.
         23    2    1    0    0    0 -0.25213403997E+02 -0.65921138834E+01 -0.14152606113E+02  0.95434174833E+02  0.90709502036E+02 0.  0.
         13    1    3    3    0    0  0.89765552727E+01 -0.43283917527E+02 -0.76490582690E+01  0.44861958467E+02  0.10566000000E+00 0. -1.
         22    1    1    0    0    0  0.25213403997E+02  0.65921138834E+01  0.14152606113E+02  0.29655825167E+02  0.00000000000E+00 0. -1.
</event>
<event>
 5    1  0.1258677E-009  0.9118800E+02  0.7561462E-02  0.1125453E+00
         25   -1    0    0    0    0  0.00000000000E+00  0.00000000000E+00  0.99999998245E-14  0.12509000000E+03  0.12509000000E+03 0.  0.
        -13    1    3    3    0    0 -0.77931943113E+01  0.77197827447E+01 -0.35429888574E+02  0.37089312364E+02  0.10566000000E+00 0. -1.
         23    2    1    0    0    0  0.20416261058E+02 -0.10237601550E+02  0.15120212412E+02  0.97699252941E+02  0.93781080185E+02 0.  0.
         13    1    3    3    0    0  0.28209455369E+02 -0.17957384294E+02  0.50550100987E+02  0.60609940577E+02  0.10566000000E+00 0.  1.
         22    1    1    0    0    0 -0.20416261058E+02  0.10237601550E+02 -0.15120212412E+02  0.27390747059E+02  0.00000000000E+00 0.  1.
</event>
<event>
 5    1  0.1258677E-009  0.9118800E+02  0.7561462E-02  0.1125453E+00
         25   -1    0    0    0    0  0.00000000000E+00  0.00000000000E+00  0.99999998245E-14  0.12509000000E+03  0.12509000000E+03 0.  0.
        -13    1    3    3    0    0  0.18572192573E+02 -0.38441723049E+02 -0.44863947602E+02  0.61931230946E+02  0.10566000000E+00 0.  1.
         23    2    1    0    0    0  0.45479981795E+01 -0.14687130506E+02 -0.24284146324E+02  0.96347768830E+02  0.91960734588E+02 0.  0.
         13    1    3    3    0    0 -0.14024194394E+02  0.23754592543E+02  0.20579801279E+02  0.34416537885E+02  0.10566000000E+00 0. -1.
         22    1    1    0    0    0 -0.45479981795E+01  0.14687130506E+02  0.24284146324E+02  0.28742231170E+02  0.00000000000E+00 0.  1.
</event>
<event>
 5    1  0.1258677E-009  0.9118800E+02  0.7561462E-02  0.1125453E+00
         25   -1    0    0    0    0  0.00000000000E+00  0.00000000000E+00  0.99999998245E-14  0.12509000000E+03  0.12509000000E+03 0.  0.
        -13    1    3    3    0    0  0.31201275013E+02 -0.55883591170E+01 -0.15231884573E+02  0.35167752156E+02  0.10566000000E+00 0. -1.
         23    2    1    0    0    0 -0.27508573863E+02 -0.92811562930E+01  0.47318084814E+00  0.96054067120E+02  0.91560353931E+02 0.  0.
         13    1    3    3    0    0 -0.58709848876E+02 -0.36927971760E+01  0.15705065421E+02  0.60886314964E+02  0.10566000000E+00 0.  1.
         22    1    1    0    0    0  0.27508573863E+02  0.92811562930E+01 -0.47318084814E+00  0.29035932880E+02  0.00000000000E+00 0.  1.
</event>
<event>
 5    1  0.1258677E-009  0.9118800E+02  0.7561462E-02  0.1125453E+00
         25   -1    0    0    0    0  0.00000000000E+00  0.00000000000E+00  0.99999998245E-14  0.12509000000E+03  0.12509000000E+03 0.  0.
        -13    1    3    3    0    0 -0.79792493842E+01  0.24037488222E+02  0.25604516180E+02  0.36014881280E+02  0.10566000000E+00 0.  1.
         23    2    1    0    0    0 -0.10162601447E+02 -0.19887580359E+02 -0.16827249342E+02  0.97126619640E+02  0.93014136569E+02 0.  0.
         13    1    3    3    0    0 -0.21833520630E+01 -0.43925068581E+02 -0.42431765522E+02  0.61111738361E+02  0.10566000000E+00 0. -1.
         22    1    1    0    0    0  0.10162601447E+02  0.19887580359E+02  0.16827249342E+02  0.27963380360E+02  0.00000000000E+00 0. -1.
</event>
<event>
 5    1  0.1258677E-009  0.9118800E+02  0.7561462E-02  0.1125453E+00
         25   -1    0    0    0    0  0.00000000000E+00  0.00000000000E+00  0.99999998245E-14  0.12509000000E+03  0.12509000000E+03 0.  0.
        -13    1    3    3    0    0  0.30198733287E+02  0.50307546662E+02  0.37868551306E+01  0.58797654537E+02  0.10566000000E+00 0.  1.
         23    2    1    0    0    0  0.21540795108E+02  0.15637467793E+02  0.12655007404E+02  0.95616529467E+02  0.90960624679E+02 0.  0.
         13    1    3    3    0    0 -0.86579381790E+01 -0.34670078869E+02  0.88681522732E+01  0.36818874930E+02  0.10566000000E+00 0. -1.
         22    1    1    0    0    0 -0.21540795108E+02 -0.15637467793E+02 -0.12655007404E+02  0.29473470533E+02  0.00000000000E+00 0.  1.
</event>
<event>
 5    1  0.1258677E-009  0.9118800E+02  0.7561462E-02  0.1125453E+00
         25   -1    0    0    0    0  0.00000000000E+00  0.00000000000E+00  0.99999998245E-14  0.12509000000E+03  0.12509000000E+03 0.  0.
        -13    1    3    3    0    0  0.12216006168E+02 -0.14262547863E+02  0.36582884386E+02  0.41121401633E+02  0.10566000000E+00 0.  1.
         23    2    1    0    0    0  0.13418378383E+01 -0.22875101627E+02 -0.17055756187E+02  0.96524818006E+02  0.92201251992E+02 0.  0.
         13    1    3    3    0    0 -0.10874168330E+02 -0.86125537643E+01 -0.53638640573E+02  0.55403416373E+02  0.10566000000E+00 0. -1.
         22    1    1    0    0    0 -0.13418378383E+01  0.22875101627E+02  0.17055756187E+02  0.28565181994E+02  0.00000000000E+00 0. -1.
</event>
<event>
 5    1  0.1258677E-009  0.9118800E+02  0.7561462E-02  0.1125453E+00
         25   -1    0    0    0    0  0.00000000000E+00  0.00000000000E+00  0.99999998245E-14  0.12509000000E+03  0.12509000000E+03 0.  0.
        -13    1    3    3    0    0 -0.14100705732E+02 -0.15939243992E+02 -0.35738117534E+02  0.41594634391E+02  0.10566000000E+00 0.  1.
         23    2    1    0    0    0  0.50898609225E+01  0.27154223385E+02 -0.79605720732E+01  0.96338839335E+02  0.91948587400E+02 0.  0.
         13    1    3    3    0    0  0.19190566655E+02  0.43093467377E+02  0.27777545461E+02  0.54744204944E+02  0.10566000000E+00 0. -1.
         22    1    1    0    0    0 -0.50898609225E+01 -0.27154223385E+02  0.79605720732E+01  0.28751160665E+02  0.00000000000E+00 0. -1.
</event>
<event>
 5    1  0.1258677E-009  0.9118800E+02  0.7561462E-02  0.1125453E+00
         25   -1    0    0    0    0  0.00000000000E+00  0.00000000000E+00  0.99999998245E-14  0.12509000000E+03  0.12509000000E+03 0.  0.
        -13    1    3    3    0    0 -0.32004132829E+02  0.26109470056E+02 -0.45498660995E+01  0.41553355946E+02  0.10566000000E+00 0.  1.
         23    2    1    0    0    0  0.18767111424E+02  0.13078610528E+02 -0.18359274921E+02  0.95758830569E+02  0.91156108581E+02 0.  0.
         13    1    3    3    0    0  0.50771244254E+02 -0.13030859528E+02 -0.13809408822E+02  0.54205474623E+02  0.10566000000E+00 0. -1.
         22    1    1    0    0    0 -0.18767111424E+02 -0.13078610528E+02  0.18359274921E+02  0.29331169431E+02  0.00000000000E+00 0. -1.
</event>
<event>
 5    1  0.1258677E-009  0.9118800E+02  0.7561462E-02  0.1125453E+00
         25   -1    0    0    0    0  0.00000000000E+00  0.00000000000E+00  0.99999998245E-14  0.12509000000E+03  0.12509000000E+03 0.  0.
        -13    1    3    3    0    0  0.16484991211E+02 -0.23236885604E+02  0.15427673088E+02  0.32399568650E+02  0.10566000000E+00 0.  1.
         23    2    1    0    0    0 -0.11138505592E+02  0.24370823399E+02 -0.14046604524E+02  0.94835902118E+02  0.89880686980E+02 0.  0.
         13    1    3    3    0    0 -0.27623496802E+02  0.47607709003E+02 -0.29474277612E+02  0.62436333468E+02  0.10566000000E+00 0. -1.
         22    1    1    0    0    0  0.11138505592E+02 -0.24370823399E+02  0.14046604524E+02  0.30254097882E+02  0.00000000000E+00 0. -1.
</event>
<event>
 5    1  0.1258677E-009  0.9118800E+02  0.7561462E-02  0.1125453E+00
         25   -1    0    0    0    0  0.00000000000E+00  0.00000000000E+00  0.99999998245E-14  0.12509000000E+03  0.12509000000E+03 0.  0.
        -13    1    3    3    0    0 -0.34900370120E+02  0.48277772187E+02 -0.11150703921E+02  0.60606340294E+02  0.10566000000E+00 0. -1.
         23    2    1    0    0    0 -0.24948025570E+02  0.19947448272E+02  0.13195089819E+01  0.93120549327E+02  0.87460796535E+02 0.  0.
         13    1    3    3    0    0  0.99523445506E+01 -0.28330323915E+02  0.12470212903E+02  0.32514209033E+02  0.10566000000E+00 0.  1.
         22    1    1    0    0    0  0.24948025570E+02 -0.19947448272E+02 -0.13195089819E+01  0.31969450673E+02  0.00000000000E+00 0. -1.
</event>
<event>
 5    1  0.1258677E-009  0.9118800E+02  0.7561462E-02  0.1125453E+00
         25   -1    0    0    0    0  0.00000000000E+00  0.00000000000E+00  0.99999998245E-14  0.12509000000E+03  0.12509000000E+03 0.  0.
        -13    1    3    3    0    0 -0.17523727499E+02 -0.19261645058E+02 -0.47070612662E+02  0.53793547348E+02  0.10566000000E+00 0. -1.
         23    2    1    0    0    0  0.15579404671E+02 -0.83934782296E+01 -0.22674054247E+02  0.96327505972E+02  0.91933167813E+02 0.  0.
         13    1    3    3    0    0  0.33103132170E+02  0.10868166829E+02  0.24396558415E+02  0.42533958624E+02  0.10566000000E+00 0.  1.
         22    1    1    0    0    0 -0.15579404671E+02  0.83934782296E+01  0.22674054247E+02  0.28762494028E+02  0.00000000000E+00 0. -1.
</event>
<event>
 5    1  0.1258677E-009  0.9118800E+02  0.7561462E-02  0.1125453E+00
         25   -1    0    0    0    0  0.00000000000E+00  0.00000000000E+00  0.99999998245E-14  0.12509000000E+03  0.12509000000E+03 0.  0.
        -13    1    3    3    0    0 -0.25101847143E+02 -0.39711943130E+02 -0.24923527524E+02  0.53182088577E+02  0.10566000000E+00 0.  1.
         23    2    1    0    0    0 -0.22247227110E+02 -0.16069280145E+02  0.10364620424E+02  0.95754249882E+02  0.91149822465E+02 0.  0.
         13    1    3    3    0    0  0.28546200333E+01  0.23642662985E+02  0.35288147948E+02  0.42572161305E+02  0.10566000000E+00 0. -1.
         22    1    1    0    0    0  0.22247227110E+02  0.16069280145E+02 -0.10364620424E+02  0.29335750118E+02  0.00000000000E+00 0.  1.
</event>
<event>
 5    1  0.1258677E-009  0.9118800E+02  0.7561462E-02  0.1125453E+00
         25   -1    0    0    0    0  0.00000000000E+00  0.00000000000E+00  0.99999998245E-14  0.12509000000E+03  0.12509000000E+03 0.  0.
        -13    1    3    3    0    0  0.41842494221E+02  0.42210926610E+02 -0.15731372239E+02  0.61482061485E+02  0.10566000000E+00 0.  1.
         23    2    1    0    0    0  0.14225827597E+02  0.25918175824E+02 -0.73180063397E+01  0.94632172999E+02  0.89596701618E+02 0.  0.
         13    1    3    3    0    0 -0.27616666623E+02 -0.16292750786E+02  0.84133658994E+01  0.33150111514E+02  0.10566000000E+00 0. -1.
         22    1    1    0    0    0 -0.14225827597E+02 -0.25918175824E+02  0.73180063397E+01  0.30457827001E+02  0.00000000000E+00 0.  1.
</event>
<event>
 5    1  0.1258677E-009  0.9118800E+02  0.7561462E-02  0.1125453E+00
         25   -1    0    0    0    0  0.00000000000E+00  0.00000000000E+00  0.99999998245E-14  0.12509000000E+03  0.12509000000E+03 0.  0.
        -13    1    3    3    0    0  0.19728291312E+02 -0.19766737149E+02 -0.20458139777E+02  0.34619012446E+02  0.10566000000E+00 0.  1.
         23    2    1    0    0    0  0.66693335624E-01  0.24564991349E+02  0.16418390451E+02  0.95543311641E+02  0.90859878969E+02 0.  0.
         13    1    3    3    0    0 -0.19661597976E+02  0.44331728498E+02  0.36876530228E+02  0.60924299194E+02  0.10566000000E+00 0. -1.
         22    1    1    0    0    0 -0.66693335624E-01 -0.24564991349E+02 -0.16418390451E+02  0.29546688359E+02  0.00000000000E+00 0. -1.
</event>
<event>
 5    1  0.1258677E-009  0.9118800E+02  0.7561462E-02  0.1125453E+00
         25   -1    0    0    0    0  0.00000000000E+00  0.00000000000E+00  0.99999998245E-14  0.12509000000E+03  0.12509000000E+03 0.  0.
        -13    1    3    3    0    0  0.19554963232E+01 -0.59384710674E+02  0.35341071500E+01  0.59522003537E+02  0.10566000000E+00 0. -1.
         23    2    1    0    0    0 -0.80454891607E+01 -0.28943266943E+02 -0.86911834035E+01  0.93817339957E+02  0.88451760924E+02 0.  0.
         13    1    3    3    0    0 -0.10000985484E+02  0.30441443730E+02 -0.12225290553E+02  0.34295336421E+02  0.10566000000E+00 0.  1.
         22    1    1    0    0    0  0.80454891607E+01  0.28943266943E+02  0.86911834035E+01  0.31272660043E+02  0.00000000000E+00 0. -1.
</event>
<event>
 5    1  0.1258677E-009  0.9118800E+02  0.7561462E-02  0.1125453E+00
         25   -1    0    0    0    0  0.00000000000E+00  0.00000000000E+00  0.99999998245E-14  0.12509000000E+03  0.12509000000E+03 0.  0.
        -13    1    3    3    0    0 -0.48142548365E+02  0.34393966000E+02  0.15707099832E+02  0.61215798692E+02  0.10566000000E+00 0.  1.
         23    2    1    0    0    0 -0.16473074651E+02  0.20853304308E+02  0.12236962022E+02  0.95833108016E+02  0.91257979725E+02 0.  0.
         13    1    3    3    0    0  0.31669473714E+02 -0.13540661692E+02 -0.34701378094E+01  0.34617309325E+02  0.10566000000E+00 0. -1.
         22    1    1    0    0    0  0.16473074651E+02 -0.20853304308E+02 -0.12236962022E+02  0.29256891984E+02  0.00000000000E+00 0.  1.
</event>
<event>
 5    1  0.1258677E-009  0.9118800E+02  0.7561462E-02  0.1125453E+00
         25   -1    0    0    0    0  0.00000000000E+00  0.00000000000E+00  0.99999998245E-14  0.12509000000E+03  0.12509000000E+03 0.  0.
        -13    1    3    3    0    0  0.22838761333E+02  0.14782620224E+02 -0.27321704083E+02  0.38556731681E+02  0.10566000000E+00 0.  1.
         23    2    1    0    0    0 -0.28183309970E+02  0.93727280574E+01 -0.33113047074E+01  0.95205024996E+02  0.90392948030E+02 0.  0.
         13    1    3    3    0    0 -0.51022071303E+02 -0.54098921664E+01  0.24010399376E+02  0.56648293315E+02  0.10566000000E+00 0. -1.
         22    1    1    0    0    0  0.28183309970E+02 -0.93727280574E+01  0.33113047074E+01  0.29884975004E+02  0.00000000000E+00 0. -1.
</event>
<event>
 5    1  0.1258677E-009  0.9118800E+02  0.7561462E-02  0.1125453E+00
         25   -1    0    0    0    0  0.00000000000E+00  0.00000000000E+00  0.99999998245E-14  0.12509000000E+03  0.12509000000E+03 0.  0.
        -13    1    3    3    0    0  0.21185256535E+02  0.72195900446E+01 -0.57100744038E+02  0.61330609883E+02  0.10566000000E+00 0. -1.
         23    2    1    0    0    0  0.14517736220E+02  0.88038499884E+01 -0.20957468161E+02  0.98118016178E+02  0.94337994400E+02 0.  0.
         13    1    3    3    0    0 -0.66675203148E+01  0.15842599438E+01  0.36143275878E+02  0.36787406295E+02  0.10566000000E+00 0.  1.
         22    1    1    0    0    0 -0.14517736220E+02 -0.88038499884E+01  0.20957468161E+02  0.26971983822E+02  0.00000000000E+00 0. -1.
</event>
<event>
 5    1  0.1258677E-009  0.9118800E+02  0.7561462E-02  0.1125453E+00
         25   -1    0    0    0    0  0.00000000000E+00  0.00000000000E+00  0.99999998245E-14  0.12509000000E+03  0.12509000000E+03 0.  0.
        -13    1    3    3    0    0  0.43673548032E+02 -0.42469248787E+02  0.90674713769E+01  0.61589334234E+02  0.10566000000E+00 0. -1.
         23    2    1    0    0    0  0.18784658836E+02 -0.21002679965E+02  0.11738058531E+02  0.94565288841E+02  0.89503272913E+02 0.  0.
         13    1    3    3    0    0 -0.24888889196E+02  0.21466568822E+02  0.26705871539E+01  0.32975954606E+02  0.10566000000E+00 0.  1.
         22    1    1    0    0    0 -0.18784658836E+02  0.21002679965E+02 -0.11738058531E+02  0.30524711159E+02  0.00000000000E+00 0. -1.
</event>
<event>
 5    1  0.1258677E-009  0.9118800E+02  0.7561462E-02  0.1125453E+00
         25   -1    0    0    0    0  0.00000000000E+00  0.00000000000E+00  0.99999998245E-14  0.12509000000E+03  0.12509000000E+03 0.  0.
        -13    1    3    3    0    0 -0.52091486008E+01 -0.11068271198E+02 -0.29169930500E+02  0.31631279865E+02  0.10566000000E+00 0.  1.
         23    2    1    0    0    0 -0.48865662357E+01  0.30443018760E+02  0.13739201865E+02  0.91334680587E+02  0.84868146493E+02 0.  0.
         13    1    3    3    0    0  0.32258236515E+00  0.41511289958E+02  0.42909132365E+02  0.59703400722E+02  0.10566000000E+00 0. -1.
         22    1    1    0    0    0  0.48865662357E+01 -0.30443018760E+02 -0.13739201865E+02  0.33755319413E+02  0.00000000000E+00 0. -1.
</event>
<event>
 5    1  0.1258677E-009  0.9118800E+02  0.7561462E-02  0.1125453E+00
         25   -1    0    0    0    0  0.00000000000E+00  0.00000000000E+00  0.99999998245E-14  0.12509000000E+03  0.12509000000E+03 0.  0.
        -13    1    3    3    0    0 -0.47807826789E+01 -0.28614657426E+02 -0.16332053540E+02  0.33292666453E+02  0.10566000000E+00 0.  1.
         23    2    1    0    0    0 -0.10095306699E+02  0.26779686359E+02  0.98899625154E+01  0.94810003676E+02  0.89844636009E+02 0.  0.
         13    1    3    3    0    0 -0.53145240206E+01  0.55394343785E+02  0.26222016056E+02  0.61517337223E+02  0.10566000000E+00 0. -1.
         22    1    1    0    0    0  0.10095306699E+02 -0.26779686359E+02 -0.98899625154E+01  0.30279996324E+02  0.00000000000E+00 0. -1.
</event>
<event>
 5    1  0.1258677E-009  0.9118800E+02  0.7561462E-02  0.1125453E+00
         25   -1    0    0    0    0  0.00000000000E+00  0.00000000000E+00  0.99999998245E-14  0.12509000000E+03  0.12509000000E+03 0.  0.
        -13    1    3    3    0    0 -0.52359988237E+01  0.37866569896E+02  0.48884222619E+02  0.62056193764E+02  0.10566000000E+00 0. -1.
         23    2    1    0    0    0 -0.50635128750E+01  0.22019703777E+02  0.20417858693E+02  0.94636831517E+02  0.89603205349E+02 0.  0.
         13    1    3    3    0    0  0.17248594864E+00 -0.15846866119E+02 -0.28466363926E+02  0.32580637753E+02  0.10566000000E+00 0.  1.
         22    1    1    0    0    0  0.50635128750E+01 -0.22019703777E+02 -0.20417858693E+02  0.30453168483E+02  0.00000000000E+00 0. -1.
</event>
<event>
 5    1  0.1258677E-009  0.9118800E+02  0.7561462E-02  0.1125453E+00
         25   -1    0    0    0    0  0.00000000000E+00  0.00000000000E+00  0.99999998245E-14  0.12509000000E+03  0.12509000000E+03 0.  0.
        -13    1    3    3    0    0  0.49103053857E+02 -0.23035512127E+02 -0.14631743848E+02  0.56176897468E+02  0.10566000000E+00 0. -1.
         23    2    1    0    0    0  0.26442976340E+02  0.91453268171E+01 -0.64274222758E+01  0.96381468909E+02  0.92006563851E+02 0.  0.
         13    1    3    3    0    0 -0.22660077518E+02  0.32180838944E+02  0.82043215723E+01  0.40204571441E+02  0.10566000000E+00 0.  1.
         22    1    1    0    0    0 -0.26442976340E+02 -0.91453268171E+01  0.64274222758E+01  0.28708531091E+02  0.00000000000E+00 0. -1.
</event>
<event>
 5    1  0.1258677E-009  0.9118800E+02  0.7561462E-02  0.1125453E+00
         25   -1    0    0    0    0  0.00000000000E+00  0.00000000000E+00  0.99999998245E-14  0.12509000000E+03  0.12509000000E+03 0.  0.
        -13    1    3    3    0    0  0.26256805461E+02 -0.23081435943E+02 -0.23640954383E+02  0.42202824626E+02  0.10566000000E+00 0.  1.
         23    2    1    0    0    0  0.15178772087E+02  0.24723052675E+02 -0.14930708785E+01  0.96040839663E+02  0.91542280761E+02 0.  0.
         13    1    3    3    0    0 -0.11078033374E+02  0.47804488618E+02  0.22147883505E+02  0.53838015038E+02  0.10566000000E+00 0. -1.
         22    1    1    0    0    0 -0.15178772087E+02 -0.24723052675E+02  0.14930708785E+01  0.29049160337E+02  0.00000000000E+00 0.  1.
</event>
<event>
 5    1  0.1258677E-009  0.9118800E+02  0.7561462E-02  0.1125453E+00
         25   -1    0    0    0    0  0.00000000000E+00  0.00000000000E+00  0.99999998245E-14  0.12509000000E+03  0.12509000000E+03 0.  0.
        -13    1    3    3    0    0  0.15073904630E+02 -0.26214930288E+02  0.39171449223E+02  0.49485945167E+02  0.10566000000E+00 0.  1.
         23    2    1    0    0    0 -0.25267247267E+01 -0.31154583937E+02 -0.12069257768E+01  0.93809828837E+02  0.88441137931E+02 0.  0.
         13    1    3    3    0    0 -0.17600629357E+02 -0.49396536491E+01 -0.40378375000E+02  0.44323883670E+02  0.10566000000E+00 0. -1.
         22    1    1    0    0    0  0.25267247267E+01  0.31154583937E+02  0.12069257768E+01  0.31280171163E+02  0.00000000000E+00 0. -1.
</event>
<event>
 5    1  0.1258677E-009  0.9118800E+02  0.7561462E-02  0.1125453E+00
         25   -1    0    0    0    0  0.00000000000E+00  0.00000000000E+00  0.99999998245E-14  0.12509000000E+03  0.12509000000E+03 0.  0.
        -13    1    3    3    0    0  0.24525745331E+02 -0.46160388959E+01  0.21619975274E+02  0.33019002014E+02  0.10566000000E+00 0.  1.
         23    2    1    0    0    0 -0.27554342389E+02 -0.12731189697E+02 -0.82929696677E+01  0.93624172162E+02  0.88178156544E+02 0.  0.
         13    1    3    3    0    0 -0.52080087721E+02 -0.81151508014E+01 -0.29912944942E+02  0.60605170148E+02  0.10566000000E+00 0. -1.
         22    1    1    0    0    0  0.27554342389E+02  0.12731189697E+02  0.82929696677E+01  0.31465827838E+02  0.00000000000E+00 0. -1.
</event>
<event>
 5    1  0.1258677E-009  0.9118800E+02  0.7561462E-02  0.1125453E+00
         25   -1    0    0    0    0  0.00000000000E+00  0.00000000000E+00  0.99999998245E-14  0.12509000000E+03  0.12509000000E+03 0.  0.
        -13    1    3    3    0    0 -0.20062337004E+00  0.15009365484E+02 -0.30428566535E+02  0.33929782307E+02  0.10566000000E+00 0.  1.
         23    2    1    0    0    0  0.17862042770E+02 -0.12840927494E+02  0.20696322821E+02  0.94886030573E+02  0.89950425395E+02 0.  0.
         13    1    3    3    0    0  0.18062666140E+02 -0.27850292978E+02  0.51124889356E+02  0.60956248267E+02  0.10566000000E+00 0. -1.
         22    1    1    0    0    0 -0.17862042770E+02  0.12840927494E+02 -0.20696322821E+02  0.30203969427E+02  0.00000000000E+00 0. -1.
</event>
<event>
 5    1  0.1258677E-009  0.9118800E+02  0.7561462E-02  0.1125453E+00
         25   -1    0    0    0    0  0.00000000000E+00  0.00000000000E+00  0.99999998245E-14  0.12509000000E+03  0.12509000000E+03 0.  0.
        -13    1    3    3    0    0 -0.35860044164E+02  0.10556806784E+02  0.34682499653E+02  0.50992900321E+02  0.10566000000E+00 0.  1.
         23    2    1    0    0    0 -0.11654116399E+01 -0.15912560647E+02  0.24579544600E+02  0.95786044919E+02  0.91193446134E+02 0.  0.
         13    1    3    3    0    0  0.34694632524E+02 -0.26469367431E+02 -0.10102955053E+02  0.44793144598E+02  0.10566000000E+00 0. -1.
         22    1    1    0    0    0  0.11654116399E+01  0.15912560647E+02 -0.24579544600E+02  0.29303955081E+02  0.00000000000E+00 0.  1.
</event>
<event>
 5    1  0.1258677E-009  0.9118800E+02  0.7561462E-02  0.1125453E+00
         25   -1    0    0    0    0  0.00000000000E+00  0.00000000000E+00  0.99999998245E-14  0.12509000000E+03  0.12509000000E+03 0.  0.
        -13    1    3    3    0    0 -0.42841744395E+02  0.35376792945E+02  0.27990033056E+02  0.62212423650E+02  0.10566000000E+00 0.  1.
         23    2    1    0    0    0 -0.16485008736E+02  0.17237835631E+02  0.15942613936E+02  0.96400883084E+02  0.92032955131E+02 0.  0.
         13    1    3    3    0    0  0.26356735659E+02 -0.18138957314E+02 -0.12047419119E+02  0.34188459435E+02  0.10566000000E+00 0. -1.
         22    1    1    0    0    0  0.16485008736E+02 -0.17237835631E+02 -0.15942613936E+02  0.28689116916E+02  0.00000000000E+00 0.  1.
</event>
<event>
 5    1  0.1258677E-009  0.9118800E+02  0.7561462E-02  0.1125453E+00
         25   -1    0    0    0    0  0.00000000000E+00  0.00000000000E+00  0.99999998245E-14  0.12509000000E+03  0.12509000000E+03 0.  0.
        -13    1    3    3    0    0 -0.32152188100E+02  0.71031130458E+01 -0.66461676519E+01  0.33591667465E+02  0.10566000000E+00 0.  1.
         23    2    1    0    0    0  0.25213670510E+02 -0.12905189861E+02  0.71146647117E+01  0.95885692785E+02  0.91330030773E+02 0.  0.
         13    1    3    3    0    0  0.57365858610E+02 -0.20008302907E+02  0.13760832364E+02  0.62294025321E+02  0.10566000000E+00 0. -1.
         22    1    1    0    0    0 -0.25213670510E+02  0.12905189861E+02 -0.71146647117E+01  0.29204307215E+02  0.00000000000E+00 0. -1.
</event>
<event>
 5    1  0.1258677E-009  0.9118800E+02  0.7561462E-02  0.1125453E+00
         25   -1    0    0    0    0  0.00000000000E+00  0.00000000000E+00  0.99999998245E-14  0.12509000000E+03  0.12509000000E+03 0.  0.
        -13    1    3    3    0    0 -0.24884705227E+02 -0.26729846578E+02  0.63903244067E+01  0.37075337657E+02  0.10566000000E+00 0.  1.
         23    2    1    0    0    0  0.26479044810E+02  0.23730565873E+01  0.11061007563E+02  0.96295606449E+02  0.91889753082E+02 0.  0.
         13    1    3    3    0    0  0.51363750038E+02  0.29102903166E+02  0.46706831564E+01  0.59220268792E+02  0.10566000000E+00 0. -1.
         22    1    1    0    0    0 -0.26479044810E+02 -0.23730565873E+01 -0.11061007563E+02  0.28794393551E+02  0.00000000000E+00 0. -1.
</event>
<event>
 5    1  0.1258677E-009  0.9118800E+02  0.7561462E-02  0.1125453E+00
         25   -1    0    0    0    0  0.00000000000E+00  0.00000000000E+00  0.99999998245E-14  0.12509000000E+03  0.12509000000E+03 0.  0.
        -13    1    3    3    0    0 -0.22900456422E+02 -0.17063285867E+02  0.17234411077E+02  0.33355999733E+02  0.10566000000E+00 0. -1.
         23    2    1    0    0    0  0.27577310894E+02  0.10094193437E+02 -0.58444542450E+01  0.95147413894E+02  0.90313187896E+02 0.  0.
         13    1    3    3    0    0  0.50477767317E+02  0.27157479304E+02 -0.23078865322E+02  0.61791414161E+02  0.10566000000E+00 0.  1.
         22    1    1    0    0    0 -0.27577310894E+02 -0.10094193437E+02  0.58444542450E+01  0.29942586106E+02  0.00000000000E+00 0.  1.
</event>
<event>
 5    1  0.1258677E-009  0.9118800E+02  0.7561462E-02  0.1125453E+00
         25   -1    0    0    0    0  0.00000000000E+00  0.00000000000E+00  0.99999998245E-14  0.12509000000E+03  0.12509000000E+03 0.  0.
        -13    1    3    3    0    0  0.11361894605E+02 -0.15963586998E+02 -0.54422913588E+02  0.57842834010E+02  0.10566000000E+00 0. -1.
         23    2    1    0    0    0  0.16831849164E+02 -0.15673340953E+02 -0.15029371805E+02  0.97615524941E+02  0.93669332921E+02 0.  0.
         13    1    3    3    0    0  0.54699545588E+01  0.29024604467E+00  0.39393541783E+02  0.39772690931E+02  0.10566000000E+00 0.  1.
         22    1    1    0    0    0 -0.16831849164E+02  0.15673340953E+02  0.15029371805E+02  0.27474475059E+02  0.00000000000E+00 0. -1.
</event>
<event>
 5    1  0.1258677E-009  0.9118800E+02  0.7561462E-02  0.1125453E+00
         25   -1    0    0    0    0  0.00000000000E+00  0.00000000000E+00  0.99999998245E-14  0.12509000000E+03  0.12509000000E+03 0.  0.
        -13    1    3    3    0    0  0.23808395166E+02  0.43409253238E+02 -0.22867497228E+02  0.54535644679E+02  0.10566000000E+00 0.  1.
         23    2    1    0    0    0 -0.59471317069E+01  0.28560997270E+02  0.16784455954E+01  0.95868156796E+02  0.91306009480E+02 0.  0.
         13    1    3    3    0    0 -0.29755526873E+02 -0.14848255967E+02  0.24545942824E+02  0.41332512117E+02  0.10566000000E+00 0. -1.
         22    1    1    0    0    0  0.59471317069E+01 -0.28560997270E+02 -0.16784455954E+01  0.29221843204E+02  0.00000000000E+00 0.  1.
</event>
<event>
 5    1  0.1258677E-009  0.9118800E+02  0.7561462E-02  0.1125453E+00
         25   -1    0    0    0    0  0.00000000000E+00  0.00000000000E+00  0.99999998245E-14  0.12509000000E+03  0.12509000000E+03 0.  0.
        -13    1    3    3    0    0 -0.37695048929E+02 -0.69532284067E+01  0.95843886963E+01  0.39511210685E+02  0.10566000000E+00 0. -1.
         23    2    1    0    0    0  0.45794732587E+01  0.28366724790E+02 -0.35346202017E+01  0.96139418130E+02  0.91676886552E+02 0.  0.
         13    1    3    3    0    0  0.42274522188E+02  0.35319953196E+02 -0.13119008898E+02  0.56628207446E+02  0.10566000000E+00 0.  1.
         22    1    1    0    0    0 -0.45794732587E+01 -0.28366724790E+02  0.35346202017E+01  0.28950581870E+02  0.00000000000E+00 0.  1.
</event>
<event>
 5    1  0.1258677E-009  0.9118800E+02  0.7561462E-02  0.1125453E+00
         25   -1    0    0    0    0  0.00000000000E+00  0.00000000000E+00  0.99999998245E-14  0.12509000000E+03  0.12509000000E+03 0.  0.
        -13    1    3    3    0    0  0.29884225256E+02 -0.11898314215E+02 -0.25681767487E+02  0.41160674747E+02  0.10566000000E+00 0. -1.
         23    2    1    0    0    0  0.13915413196E+02 -0.71014422457E+01  0.25607986869E+02  0.95092696824E+02  0.90237369151E+02 0.  0.
         13    1    3    3    0    0 -0.15968812060E+02  0.47968719697E+01  0.51289754356E+02  0.53932022076E+02  0.10566000000E+00 0.  1.
         22    1    1    0    0    0 -0.13915413196E+02  0.71014422457E+01 -0.25607986869E+02  0.29997303176E+02  0.00000000000E+00 0.  1.
</event>
<event>
 5    1  0.1258677E-009  0.9118800E+02  0.7561462E-02  0.1125453E+00
         25   -1    0    0    0    0  0.00000000000E+00  0.00000000000E+00  0.99999998245E-14  0.12509000000E+03  0.12509000000E+03 0.  0.
        -13    1    3    3    0    0  0.30163213864E+02  0.13927713164E+02  0.77289082035E+00  0.33232652450E+02  0.10566000000E+00 0.  1.
         23    2    1    0    0    0  0.33308081370E+02 -0.20723487592E+02  0.27563774395E+02  0.77145731506E+02  0.60438489460E+02 0.  0.
         13    1    3    3    0    0  0.31448675057E+01 -0.34651200756E+02  0.26790883575E+02  0.43913079056E+02  0.10566000000E+00 0. -1.
         22    1    1    0    0    0 -0.33308081370E+02  0.20723487592E+02 -0.27563774395E+02  0.47944268494E+02  0.00000000000E+00 0.  1.
</event>
<event>
 5    1  0.1258677E-009  0.9118800E+02  0.7561462E-02  0.1125453E+00
         25   -1    0    0    0    0  0.00000000000E+00  0.00000000000E+00  0.99999998245E-14  0.12509000000E+03  0.12509000000E+03 0.  0.
        -13    1    3    3    0    0 -0.52600097582E+02 -0.30147044492E+02  0.16432650464E+01  0.60649204787E+02  0.10566000000E+00 0.  1.
         23    2    1    0    0    0 -0.19757665221E+02 -0.22544187824E+02  0.56097177242E+01  0.94592874355E+02  0.89541818198E+02 0.  0.
         13    1    3    3    0    0  0.32842432361E+02  0.76028566674E+01  0.39664526778E+01  0.33943669569E+02  0.10566000000E+00 0. -1.
         22    1    1    0    0    0  0.19757665221E+02  0.22544187824E+02 -0.56097177242E+01  0.30497125645E+02  0.00000000000E+00 0.  1.
</event>
<event>
 5    1  0.1258677E-009  0.9118800E+02  0.7561462E-02  0.1125453E+00
         25   -1    0    0    0    0  0.00000000000E+00  0.00000000000E+00  0.99999998245E-14  0.12509000000E+03  0.12509000000E+03 0.  0.
        -13    1    3    3    0    0  0.47026039577E+02  0.31017164392E+02 -0.10269483672E+02  0.57262433970E+02  0.10566000000E+00 0. -1.
         23    2    1    0    0    0  0.28294946237E+02  0.36950550249E+00  0.51097616580E+01  0.96334997286E+02  0.91943360397E+02 0.  0.
         13    1    3    3    0    0 -0.18731093340E+02 -0.30647658889E+02  0.15379245330E+02  0.39072563316E+02  0.10566000000E+00 0.  1.
         22    1    1    0    0    0 -0.28294946237E+02 -0.36950550249E+00 -0.51097616580E+01  0.28755002714E+02  0.00000000000E+00 0. -1.
</event>
<event>
 5    1  0.1258677E-009  0.9118800E+02  0.7561462E-02  0.1125453E+00
         25   -1    0    0    0    0  0.00000000000E+00  0.00000000000E+00  0.99999998245E-14  0.12509000000E+03  0.12509000000E+03 0.  0.
        -13    1    3    3    0    0 -0.10335602370E+02 -0.20349514705E+02  0.36732692226E+02  0.43246147427E+02  0.10566000000E+00 0. -1.
         23    2    1    0    0    0 -0.43103070976E+01 -0.19543456191E+02 -0.17914244315E+02  0.98230261049E+02  0.94486711283E+02 0.  0.
         13    1    3    3    0    0  0.60252952726E+01  0.80605851378E+00 -0.54646936541E+02  0.54984113622E+02  0.10566000000E+00 0.  1.
         22    1    1    0    0    0  0.43103070976E+01  0.19543456191E+02  0.17914244315E+02  0.26859738951E+02  0.00000000000E+00 0.  1.
</event>
<event>
 5    1  0.1258677E-009  0.9118800E+02  0.7561462E-02  0.1125453E+00
         25   -1    0    0    0    0  0.00000000000E+00  0.00000000000E+00  0.99999998245E-14  0.12509000000E+03  0.12509000000E+03 0.  0.
        -13    1    3    3    0    0  0.49523617903E+02 -0.18647931049E+02  0.48921752793E+01  0.53143942323E+02  0.10566000000E+00 0.  1.
         23    2    1    0    0    0  0.11916636038E+02 -0.11343686165E+02  0.24029478779E+02  0.95967821498E+02  0.91442449018E+02 0.  0.
         13    1    3    3    0    0 -0.37606981865E+02  0.73042448837E+01  0.19137303500E+02  0.42823879175E+02  0.10566000000E+00 0. -1.
         22    1    1    0    0    0 -0.11916636038E+02  0.11343686165E+02 -0.24029478779E+02  0.29122178502E+02  0.00000000000E+00 0.  1.
</event>
<event>
 5    1  0.1258677E-009  0.9118800E+02  0.7561462E-02  0.1125453E+00
         25   -1    0    0    0    0  0.00000000000E+00  0.00000000000E+00  0.99999998245E-14  0.12509000000E+03  0.12509000000E+03 0.  0.
        -13    1    3    3    0    0 -0.42495247971E+02  0.60124703591E+01  0.91836106416E-01  0.42918708017E+02  0.10566000000E+00 0. -1.
         23    2    1    0    0    0  0.49890434822E+01  0.21663147851E+02 -0.18406888821E+02  0.96228328432E+02  0.91798121479E+02 0.  0.
         13    1    3    3    0    0  0.47484291453E+02  0.15650677491E+02 -0.18498724927E+02  0.53309620415E+02  0.10566000000E+00 0.  1.
         22    1    1    0    0    0 -0.49890434822E+01 -0.21663147851E+02  0.18406888821E+02  0.28861671568E+02  0.00000000000E+00 0.  1.
</event>
<event>
 5    1  0.1258677E-009  0.9118800E+02  0.7561462E-02  0.1125453E+00
         25   -1    0    0    0    0  0.00000000000E+00  0.00000000000E+00  0.99999998245E-14  0.12509000000E+03  0.12509000000E+03 0.  0.
        -13    1    3    3    0    0  0.16637910296E+02  0.18423182722E+02  0.23232911190E+02  0.34000191867E+02  0.10566000000E+00 0.  1.
         23    2    1    0    0    0  0.15077559060E+01 -0.20141479207E+02 -0.21923707451E+02  0.95280581003E+02  0.90497445574E+02 0.  0.
         13    1    3    3    0    0 -0.15130154390E+02 -0.38564661929E+02 -0.45156618641E+02  0.61280389136E+02  0.10566000000E+00 0. -1.
         22    1    1    0    0    0 -0.15077559060E+01  0.20141479207E+02  0.21923707451E+02  0.29809418997E+02  0.00000000000E+00 0. -1.
</event>
<event>
 5    1  0.1258677E-009  0.9118800E+02  0.7561462E-02  0.1125453E+00
         25   -1    0    0    0    0  0.00000000000E+00  0.00000000000E+00  0.99999998245E-14  0.12509000000E+03  0.12509000000E+03 0.  0.
        -13    1    3    3    0    0 -0.14666075625E+01 -0.32768417789E+02  0.36039930443E+02  0.48732000703E+02  0.10566000000E+00 0.  1.
         23    2    1    0    0    0  0.26215385639E+02 -0.26480967801E+01  0.12552809266E+02  0.95903840930E+02  0.91354883963E+02 0.  0.
         13    1    3    3    0    0  0.27681993201E+02  0.30120321009E+02 -0.23487121176E+02  0.47171840228E+02  0.10566000000E+00 0. -1.
         22    1    1    0    0    0 -0.26215385639E+02  0.26480967801E+01 -0.12552809266E+02  0.29186159070E+02  0.00000000000E+00 0.  1.
</event>
<event>
 5    1  0.1258677E-009  0.9118800E+02  0.7561462E-02  0.1125453E+00
         25   -1    0    0    0    0  0.00000000000E+00  0.00000000000E+00  0.99999998245E-14  0.12509000000E+03  0.12509000000E+03 0.  0.
        -13    1    3    3    0    0  0.26406095633E+02 -0.20915752587E+02  0.84033302196E+01  0.34718550023E+02  0.10566000000E+00 0.  1.
         23    2    1    0    0    0 -0.14865189947E+02  0.19909013631E+02  0.19104096604E+02  0.93748187625E+02  0.88353910384E+02 0.  0.
         13    1    3    3    0    0 -0.41271285580E+02  0.40824766218E+02  0.10700766384E+02  0.59029637602E+02  0.10566000000E+00 0. -1.
         22    1    1    0    0    0  0.14865189947E+02 -0.19909013631E+02 -0.19104096604E+02  0.31341812375E+02  0.00000000000E+00 0.  1.
</event>
<event>
 5    1  0.1258677E-009  0.9118800E+02  0.7561462E-02  0.1125453E+00
         25   -1    0    0    0    0  0.00000000000E+00  0.00000000000E+00  0.99999998245E-14  0.12509000000E+03  0.12509000000E+03 0.  0.
        -13    1    3    3    0    0  0.36698184022E+01 -0.50018183366E+02 -0.17700912248E+02  0.53184769369E+02  0.10566000000E+00 0.  1.
         23    2    1    0    0    0  0.17838325045E+02 -0.75481212832E+01 -0.18976001876E+02  0.97974162884E+02  0.94147055027E+02 0.  0.
         13    1    3    3    0    0  0.14168506643E+02  0.42470062083E+02 -0.12750896274E+01  0.44789393515E+02  0.10566000000E+00 0. -1.
         22    1    1    0    0    0 -0.17838325045E+02  0.75481212832E+01  0.18976001876E+02  0.27115837116E+02  0.00000000000E+00 0. -1.
</event>
<event>
 5    1  0.1258677E-009  0.9118800E+02  0.7561462E-02  0.1125453E+00
         25   -1    0    0    0    0  0.00000000000E+00  0.00000000000E+00  0.99999998245E-14  0.12509000000E+03  0.12509000000E+03 0.  0.
        -13    1    3    3    0    0  0.20756825699E+00 -0.30881967898E+02 -0.46183214944E+02  0.55557533535E+02  0.10566000000E+00 0. -1.
         23    2    1    0    0    0  0.19363288064E+02 -0.21164201547E+02 -0.17164224969E+02  0.91661404897E+02  0.85348357788E+02 0.  0.
         13    1    3    3    0    0  0.19155719807E+02  0.97177663513E+01  0.29018989975E+02  0.36103871362E+02  0.10566000000E+00 0.  1.
         22    1    1    0    0    0 -0.19363288064E+02  0.21164201547E+02  0.17164224969E+02  0.33428595103E+02  0.00000000000E+00 0. -1.
</event>
<event>
 5    1  0.1258677E-009  0.9118800E+02  0.7561462E-02  0.1125453E+00
         25   -1    0    0    0    0  0.00000000000E+00  0.00000000000E+00  0.99999998245E-14  0.12509000000E+03  0.12509000000E+03 0.  0.
        -13    1    3    3    0    0 -0.78663219066E+01  0.54046047001E+02  0.19906697281E+02  0.58130387729E+02  0.10566000000E+00 0. -1.
         23    2    1    0    0    0 -0.19930572168E+02  0.32535513468E+02  0.18100847438E+02  0.82859347370E+02  0.71289854995E+02 0.  0.
         13    1    3    3    0    0 -0.12064250261E+02 -0.21510533534E+02 -0.18058498435E+01  0.24728959642E+02  0.10566000000E+00 0.  1.
         22    1    1    0    0    0  0.19930572168E+02 -0.32535513468E+02 -0.18100847438E+02  0.42230652630E+02  0.00000000000E+00 0. -1.
</event>
<event>
 5    1  0.1258677E-009  0.9118800E+02  0.7561462E-02  0.1125453E+00
         25   -1    0    0    0    0  0.00000000000E+00  0.00000000000E+00  0.99999998245E-14  0.12509000000E+03  0.12509000000E+03 0.  0.
        -13    1    3    3    0    0 -0.88120358425E+01 -0.52893466533E+02 -0.11363404053E+02  0.54813400672E+02  0.10566000000E+00 0.  1.
         23    2    1    0    0    0 -0.23607571877E+02 -0.13592976780E+02 -0.64697305742E+01  0.97091002136E+02  0.92966224051E+02 0.  0.
         13    1    3    3    0    0 -0.14795536035E+02  0.39300489753E+02  0.48936734783E+01  0.42277601464E+02  0.10566000000E+00 0. -1.
         22    1    1    0    0    0  0.23607571877E+02  0.13592976780E+02  0.64697305742E+01  0.27998997864E+02  0.00000000000E+00 0.  1.
</event>
<event>
 5    1  0.1258677E-009  0.9118800E+02  0.7561462E-02  0.1125453E+00
         25   -1    0    0    0    0  0.00000000000E+00  0.00000000000E+00  0.99999998245E-14  0.12509000000E+03  0.12509000000E+03 0.  0.
        -13    1    3    3    0    0 -0.21887716809E+02  0.27425254634E+02  0.60502316613E+00  0.35094072946E+02  0.10566000000E+00 0.  1.
         23    2    1    0    0    0 -0.63865662982E+01 -0.29871215605E+02 -0.17126395691E+01  0.94495705024E+02  0.89405969504E+02 0.  0.
         13    1    3    3    0    0  0.15501150510E+02 -0.57296470239E+02 -0.23176627352E+01  0.59401632078E+02  0.10566000000E+00 0. -1.
         22    1    1    0    0    0  0.63865662982E+01  0.29871215605E+02  0.17126395691E+01  0.30594294976E+02  0.00000000000E+00 0. -1.
</event>
<event>
 5    1  0.1258677E-009  0.9118800E+02  0.7561462E-02  0.1125453E+00
         25   -1    0    0    0    0  0.00000000000E+00  0.00000000000E+00  0.99999998245E-14  0.12509000000E+03  0.12509000000E+03 0.  0.
        -13    1    3    3    0    0 -0.41643596371E+02 -0.27568333058E+02 -0.33476157510E+02  0.60123758964E+02  0.10566000000E+00 0. -1.
         23    2    1    0    0    0 -0.26505344959E+02 -0.39115134341E+01 -0.10873356194E+02  0.96175243842E+02  0.91725756495E+02 0.  0.
         13    1    3    3    0    0  0.15138251412E+02  0.23656819624E+02  0.22602801317E+02  0.36051484878E+02  0.10566000000E+00 0.  1.
         22    1    1    0    0    0  0.26505344959E+02  0.39115134341E+01  0.10873356194E+02  0.28914756158E+02  0.00000000000E+00 0. -1.
</event>
<event>
 5    1  0.1258677E-009  0.9118800E+02  0.7561462E-02  0.1125453E+00
         25   -1    0    0    0    0  0.00000000000E+00  0.00000000000E+00  0.99999998245E-14  0.12509000000E+03  0.12509000000E+03 0.  0.
        -13    1    3    3    0    0 -0.78485524838E+00 -0.31918128388E+02  0.19884717470E+02  0.37613775009E+02  0.10566000000E+00 0.  1.
         23    2    1    0    0    0  0.22019579860E+02 -0.12093533610E+02 -0.23636548865E+02  0.90596494892E+02  0.83773044543E+02 0.  0.
         13    1    3    3    0    0  0.22804435109E+02  0.19824594778E+02 -0.43521266335E+02  0.52982719883E+02  0.10566000000E+00 0. -1.
         22    1    1    0    0    0 -0.22019579860E+02  0.12093533610E+02  0.23636548865E+02  0.34493505108E+02  0.00000000000E+00 0.  1.
</event>
<event>
 5    1  0.1258677E-009  0.9118800E+02  0.7561462E-02  0.1125453E+00
         25   -1    0    0    0    0  0.00000000000E+00  0.00000000000E+00  0.99999998245E-14  0.12509000000E+03  0.12509000000E+03 0.  0.
        -13    1    3    3    0    0 -0.22342252625E+02  0.42641882921E+02 -0.37935326438E+02  0.61291162393E+02  0.10566000000E+00 0.  1.
         23    2    1    0    0    0 -0.80499051559E+01  0.24954347274E+02 -0.10704750490E+02  0.96768416288E+02  0.92531153062E+02 0.  0.
         13    1    3    3    0    0  0.14292347469E+02 -0.17687535648E+02  0.27230575948E+02  0.35477253896E+02  0.10566000000E+00 0. -1.
         22    1    1    0    0    0  0.80499051559E+01 -0.24954347274E+02  0.10704750490E+02  0.28321583712E+02  0.00000000000E+00 0.  1.
</event>
<event>
 5    1  0.1258677E-009  0.9118800E+02  0.7561462E-02  0.1125453E+00
         25   -1    0    0    0    0  0.00000000000E+00  0.00000000000E+00  0.99999998245E-14  0.12509000000E+03  0.12509000000E+03 0.  0.
        -13    1    3    3    0    0 -0.66503875403E+01 -0.89617717701E+01 -0.51212252777E+02  0.52414187071E+02  0.10566000000E+00 0.  1.
         23    2    1    0    0    0  0.18189393967E+02 -0.16090682802E+02 -0.16335137973E+02  0.95822255664E+02  0.91243102873E+02 0.  0.
         13    1    3    3    0    0  0.24839781508E+02 -0.71289110323E+01  0.34877114805E+02  0.43408068593E+02  0.10566000000E+00 0. -1.
         22    1    1    0    0    0 -0.18189393967E+02  0.16090682802E+02  0.16335137973E+02  0.29267744336E+02  0.00000000000E+00 0.  1.
</event>
<event>
 5    1  0.1258677E-009  0.9118800E+02  0.7561462E-02  0.1125453E+00
         25   -1    0    0    0    0  0.00000000000E+00  0.00000000000E+00  0.99999998245E-14  0.12509000000E+03  0.12509000000E+03 0.  0.
        -13    1    3    3    0    0  0.31113840670E+02  0.23858564780E+02  0.45376890203E+02  0.59969788420E+02  0.10566000000E+00 0.  1.
         23    2    1    0    0    0  0.89619881888E+01  0.21116947110E+01  0.28150952975E+02  0.95471548990E+02  0.90761027023E+02 0.  0.
         13    1    3    3    0    0 -0.22151852482E+02 -0.21746870069E+02 -0.17225937228E+02  0.35501760570E+02  0.10566000000E+00 0. -1.
         22    1    1    0    0    0 -0.89619881888E+01 -0.21116947110E+01 -0.28150952975E+02  0.29618451010E+02  0.00000000000E+00 0.  1.
</event>
<event>
 5    1  0.1258677E-009  0.9118800E+02  0.7561462E-02  0.1125453E+00
         25   -1    0    0    0    0  0.00000000000E+00  0.00000000000E+00  0.99999998245E-14  0.12509000000E+03  0.12509000000E+03 0.  0.
        -13    1    3    3    0    0  0.39294100980E+01  0.12123295079E+02 -0.50494536090E+02  0.52078055707E+02  0.10566000000E+00 0. -1.
         23    2    1    0    0    0  0.14796076331E+02 -0.16401809083E+02 -0.18776652940E+02  0.96098520017E+02  0.91621065469E+02 0.  0.
         13    1    3    3    0    0  0.10866666233E+02 -0.28525104162E+02  0.31717883150E+02  0.44020464309E+02  0.10566000000E+00 0.  1.
         22    1    1    0    0    0 -0.14796076331E+02  0.16401809083E+02  0.18776652940E+02  0.28991479983E+02  0.00000000000E+00 0. -1.
</event>
<event>
 5    1  0.1258677E-009  0.9118800E+02  0.7561462E-02  0.1125453E+00
         25   -1    0    0    0    0  0.00000000000E+00  0.00000000000E+00  0.99999998245E-14  0.12509000000E+03  0.12509000000E+03 0.  0.
        -13    1    3    3    0    0 -0.27322834121E+02 -0.44150528788E+02 -0.32616956275E+02  0.61316257692E+02  0.10566000000E+00 0. -1.
         23    2    1    0    0    0 -0.11039481967E+02 -0.17765670019E+02 -0.23491068449E+02  0.93636550425E+02  0.88195714665E+02 0.  0.
         13    1    3    3    0    0  0.16283352155E+02  0.26384858769E+02  0.91258878258E+01  0.32320292732E+02  0.10566000000E+00 0.  1.
         22    1    1    0    0    0  0.11039481967E+02  0.17765670019E+02  0.23491068449E+02  0.31453449575E+02  0.00000000000E+00 0. -1.
</event>
<event>
 5    1  0.1258677E-009  0.9118800E+02  0.7561462E-02  0.1125453E+00
         25   -1    0    0    0    0  0.00000000000E+00  0.00000000000E+00  0.99999998245E-14  0.12509000000E+03  0.12509000000E+03 0.  0.
        -13    1    3    3    0    0 -0.33678223642E+02  0.21028437278E+02 -0.30120836663E+02  0.49836672114E+02  0.10566000000E+00 0. -1.
         23    2    1    0    0    0  0.11291317818E+02  0.11498463841E+02 -0.23957877801E+02  0.96216336611E+02  0.91781779201E+02 0.  0.
         13    1    3    3    0    0  0.44969541461E+02 -0.95299734368E+01  0.61629588617E+01  0.46379664497E+02  0.10566000000E+00 0.  1.
         22    1    1    0    0    0 -0.11291317818E+02 -0.11498463841E+02  0.23957877801E+02  0.28873663389E+02  0.00000000000E+00 0. -1.
</event>
<event>
 5    1  0.1258677E-009  0.9118800E+02  0.7561462E-02  0.1125453E+00
         25   -1    0    0    0    0  0.00000000000E+00  0.00000000000E+00  0.99999998245E-14  0.12509000000E+03  0.12509000000E+03 0.  0.
        -13    1    3    3    0    0 -0.17878426848E+02 -0.55315640936E+02 -0.20416299323E+02  0.61614078917E+02  0.10566000000E+00 0.  1.
         23    2    1    0    0    0 -0.68764412506E+01 -0.27093547043E+02 -0.19957294718E+01  0.97066283763E+02  0.92932958480E+02 0.  0.
         13    1    3    3    0    0  0.11001985598E+02  0.28222093893E+02  0.18420569851E+02  0.35452204846E+02  0.10566000000E+00 0. -1.
         22    1    1    0    0    0  0.68764412506E+01  0.27093547043E+02  0.19957294718E+01  0.28023716237E+02  0.00000000000E+00 0.  1.
</event>
<event>
 5    1  0.1258677E-009  0.9118800E+02  0.7561462E-02  0.1125453E+00
         25   -1    0    0    0    0  0.00000000000E+00  0.00000000000E+00  0.99999998245E-14  0.12509000000E+03  0.12509000000E+03 0.  0.
        -13    1    3    3    0    0 -0.61233255271E+02  0.35134976322E+01 -0.48915791128E+01  0.61528813794E+02  0.10566000000E+00 0.  1.
         23    2    1    0    0    0 -0.26477663057E+02  0.18705002125E+01 -0.10057572008E+02  0.96704789649E+02  0.92445098163E+02 0.  0.
         13    1    3    3    0    0  0.34755592214E+02 -0.16429974197E+01 -0.51659928957E+01  0.35175975854E+02  0.10566000000E+00 0. -1.
         22    1    1    0    0    0  0.26477663057E+02 -0.18705002125E+01  0.10057572008E+02  0.28385210351E+02  0.00000000000E+00 0.  1.
</event>
<event>
 5    1  0.1258677E-009  0.9118800E+02  0.7561462E-02  0.1125453E+00
         25   -1    0    0    0    0  0.00000000000E+00  0.00000000000E+00  0.99999998245E-14  0.12509000000E+03  0.12509000000E+03 0.  0.
        -13    1    3    3    0    0 -0.17138364506E+02  0.52978004356E+02  0.15160665612E+02  0.57708313346E+02  0.10566000000E+00 0.  1.
         23    2    1    0    0    0  0.40741629736E+01  0.22943342606E+02  0.19461946138E+02  0.94729447941E+02  0.89732408782E+02 0.  0.
         13    1    3    3    0    0  0.21212527480E+02 -0.30034661749E+02  0.43012805261E+01  0.37021134595E+02  0.10566000000E+00 0. -1.
         22    1    1    0    0    0 -0.40741629736E+01 -0.22943342606E+02 -0.19461946138E+02  0.30360552059E+02  0.00000000000E+00 0.  1.
</event>
<event>
 5    1  0.1258677E-009  0.9118800E+02  0.7561462E-02  0.1125453E+00
         25   -1    0    0    0    0  0.00000000000E+00  0.00000000000E+00  0.99999998245E-14  0.12509000000E+03  0.12509000000E+03 0.  0.
        -13    1    3    3    0    0 -0.48100203571E+02 -0.24217011756E+02 -0.37411570493E+01  0.53982410673E+02  0.10566000000E+00 0. -1.
         23    2    1    0    0    0 -0.26911333804E+02  0.10886440682E+02 -0.73510614698E+01  0.95143838601E+02  0.90308235733E+02 0.  0.
         13    1    3    3    0    0  0.21188869768E+02  0.35103452438E+02 -0.36099044205E+01  0.41161427928E+02  0.10566000000E+00 0.  1.
         22    1    1    0    0    0  0.26911333804E+02 -0.10886440682E+02  0.73510614698E+01  0.29946161399E+02  0.00000000000E+00 0.  1.
</event>
<event>
 5    1  0.1258677E-009  0.9118800E+02  0.7561462E-02  0.1125453E+00
         25   -1    0    0    0    0  0.00000000000E+00  0.00000000000E+00  0.99999998245E-14  0.12509000000E+03  0.12509000000E+03 0.  0.
        -13    1    3    3    0    0 -0.12616651610E+02  0.24723280938E+02 -0.28283123267E+02  0.39627853133E+02  0.10566000000E+00 0. -1.
         23    2    1    0    0    0  0.30000976254E+02  0.30771633400E+01 -0.47548051687E+00  0.94927878189E+02  0.90008602174E+02 0.  0.
         13    1    3    3    0    0  0.42617627864E+02 -0.21646117598E+02  0.27807642750E+02  0.55300025056E+02  0.10566000000E+00 0.  1.
         22    1    1    0    0    0 -0.30000976254E+02 -0.30771633400E+01  0.47548051687E+00  0.30162121811E+02  0.00000000000E+00 0.  1.
</event>
<event>
 5    1  0.1258677E-009  0.9118800E+02  0.7561462E-02  0.1125453E+00
         25   -1    0    0    0    0  0.00000000000E+00  0.00000000000E+00  0.99999998245E-14  0.12509000000E+03  0.12509000000E+03 0.  0.
        -13    1    3    3    0    0  0.78179576401E+01  0.22291635559E+02  0.24640457198E+02  0.34135037315E+02  0.10566000000E+00 0. -1.
         23    2    1    0    0    0  0.17639457383E+01 -0.11856190035E+02 -0.26545680421E+02  0.95963484662E+02  0.91436516189E+02 0.  0.
         13    1    3    3    0    0 -0.60540119018E+01 -0.34147825595E+02 -0.51186137619E+02  0.61828447347E+02  0.10566000000E+00 0.  1.
         22    1    1    0    0    0 -0.17639457383E+01  0.11856190035E+02  0.26545680421E+02  0.29126515338E+02  0.00000000000E+00 0.  1.
</event>
<event>
 5    1  0.1258677E-009  0.9118800E+02  0.7561462E-02  0.1125453E+00
         25   -1    0    0    0    0  0.00000000000E+00  0.00000000000E+00  0.99999998245E-14  0.12509000000E+03  0.12509000000E+03 0.  0.
        -13    1    3    3    0    0  0.20756081629E+01  0.55795899618E+02 -0.27159130007E+01  0.55900607429E+02  0.10566000000E+00 0. -1.
         23    2    1    0    0    0  0.67687386833E+01  0.17518886148E+02 -0.19551665636E+02  0.97979212029E+02  0.94153763416E+02 0.  0.
         13    1    3    3    0    0  0.46931305204E+01 -0.38277013470E+02 -0.16835752636E+02  0.42078604600E+02  0.10566000000E+00 0.  1.
         22    1    1    0    0    0 -0.67687386833E+01 -0.17518886148E+02  0.19551665636E+02  0.27110787971E+02  0.00000000000E+00 0. -1.
</event>
<event>
 5    1  0.1258677E-009  0.9118800E+02  0.7561462E-02  0.1125453E+00
         25   -1    0    0    0    0  0.00000000000E+00  0.00000000000E+00  0.99999998245E-14  0.12509000000E+03  0.12509000000E+03 0.  0.
        -13    1    3    3    0    0  0.54869790427E+01 -0.11842201126E+02  0.55094267142E+02  0.56619202595E+02  0.10566000000E+00 0.  1.
         23    2    1    0    0    0  0.32742849724E+00 -0.23435150295E+02  0.18874851895E+02  0.94997251491E+02  0.90104962560E+02 0.  0.
         13    1    3    3    0    0 -0.51595505455E+01 -0.11592949169E+02 -0.36219415246E+02  0.38378048896E+02  0.10566000000E+00 0. -1.
         22    1    1    0    0    0 -0.32742849724E+00  0.23435150295E+02 -0.18874851895E+02  0.30092748509E+02  0.00000000000E+00 0. -1.
</event>
<event>
 5    1  0.1258677E-009  0.9118800E+02  0.7561462E-02  0.1125453E+00
         25   -1    0    0    0    0  0.00000000000E+00  0.00000000000E+00  0.99999998245E-14  0.12509000000E+03  0.12509000000E+03 0.  0.
        -13    1    3    3    0    0  0.15572735929E+02 -0.33088846270E+02 -0.29341414225E+02  0.46886155788E+02  0.10566000000E+00 0. -1.
         23    2    1    0    0    0  0.14547250223E+02  0.15797517978E+02 -0.17969744044E+02  0.97088289976E+02  0.92962574653E+02 0.  0.
         13    1    3    3    0    0 -0.10254857064E+01  0.48886364248E+02  0.11371670181E+02  0.50202134188E+02  0.10566000000E+00 0.  1.
         22    1    1    0    0    0 -0.14547250223E+02 -0.15797517978E+02  0.17969744044E+02  0.28001710024E+02  0.00000000000E+00 0.  1.
</event>
<event>
 5    1  0.1258677E-009  0.9118800E+02  0.7561462E-02  0.1125453E+00
         25   -1    0    0    0    0  0.00000000000E+00  0.00000000000E+00  0.99999998245E-14  0.12509000000E+03  0.12509000000E+03 0.  0.
        -13    1    3    3    0    0 -0.49621399738E+02 -0.78906054384E+01  0.25571767701E+02  0.56377933924E+02  0.10566000000E+00 0. -1.
         23    2    1    0    0    0 -0.29155393793E+02 -0.11484519491E+01 -0.66717136688E+01  0.95158951031E+02  0.90329166214E+02 0.  0.
         13    1    3    3    0    0  0.20466005944E+02  0.67421534893E+01 -0.32243481370E+02  0.38781017107E+02  0.10566000000E+00 0.  1.
         22    1    1    0    0    0  0.29155393793E+02  0.11484519491E+01  0.66717136688E+01  0.29931048969E+02  0.00000000000E+00 0. -1.
</event>
<event>
 5    1  0.1258677E-009  0.9118800E+02  0.7561462E-02  0.1125453E+00
         25   -1    0    0    0    0  0.00000000000E+00  0.00000000000E+00  0.99999998245E-14  0.12509000000E+03  0.12509000000E+03 0.  0.
        -13    1    3    3    0    0 -0.30635375901E+01 -0.45159555900E+02  0.52850821593E+01  0.45570977706E+02  0.10566000000E+00 0. -1.
         23    2    1    0    0    0  0.15733347080E+02 -0.31203444268E+01  0.24775141486E+02  0.95575894976E+02  0.90904726528E+02 0.  0.
         13    1    3    3    0    0  0.18796884670E+02  0.42039211473E+02  0.19490059327E+02  0.50004917270E+02  0.10566000000E+00 0.  1.
         22    1    1    0    0    0 -0.15733347080E+02  0.31203444268E+01 -0.24775141486E+02  0.29514105024E+02  0.00000000000E+00 0.  1.
</event>
<event>
 5    1  0.1258677E-009  0.9118800E+02  0.7561462E-02  0.1125453E+00
         25   -1    0    0    0    0  0.00000000000E+00  0.00000000000E+00  0.99999998245E-14  0.12509000000E+03  0.12509000000E+03 0.  0.
        -13    1    3    3    0    0  0.16384912439E+02 -0.17519084292E+01  0.29967880523E+02  0.34199701254E+02  0.10566000000E+00 0.  1.
         23    2    1    0    0    0 -0.17408848151E+02  0.12591975295E+02 -0.19684700342E+02  0.95950451903E+02  0.91418684945E+02 0.  0.
         13    1    3    3    0    0 -0.33793760590E+02  0.14343883724E+02 -0.49652580865E+02  0.61750750649E+02  0.10566000000E+00 0. -1.
         22    1    1    0    0    0  0.17408848151E+02 -0.12591975295E+02  0.19684700342E+02  0.29139548097E+02  0.00000000000E+00 0. -1.
</event>
<event>
 5    1  0.1258677E-009  0.9118800E+02  0.7561462E-02  0.1125453E+00
         25   -1    0    0    0    0  0.00000000000E+00  0.00000000000E+00  0.99999998245E-14  0.12509000000E+03  0.12509000000E+03 0.  0.
        -13    1    3    3    0    0 -0.42365678542E+02  0.41698576965E+02  0.18620096610E+02  0.62292384775E+02  0.10566000000E+00 0. -1.
         23    2    1    0    0    0 -0.16042325215E+02  0.18757173575E+02  0.11182016534E+02  0.97993408839E+02  0.94172623003E+02 0.  0.
         13    1    3    3    0    0  0.26323353327E+02 -0.22941403390E+02 -0.74380800763E+01  0.35701024063E+02  0.10566000000E+00 0.  1.
         22    1    1    0    0    0  0.16042325215E+02 -0.18757173575E+02 -0.11182016534E+02  0.27096591161E+02  0.00000000000E+00 0. -1.
</event>
<event>
 5    1  0.1258677E-009  0.9118800E+02  0.7561462E-02  0.1125453E+00
         25   -1    0    0    0    0  0.00000000000E+00  0.00000000000E+00  0.99999998245E-14  0.12509000000E+03  0.12509000000E+03 0.  0.
        -13    1    3    3    0    0  0.41522067191E+02  0.16494017570E+02 -0.38099226658E+02  0.58717092191E+02  0.10566000000E+00 0. -1.
         23    2    1    0    0    0  0.21499589796E+02 -0.75305591444E+01 -0.19494719424E+02  0.95106908634E+02  0.90257067879E+02 0.  0.
         13    1    3    3    0    0 -0.20022477395E+02 -0.24024576715E+02  0.18604507234E+02  0.36389816443E+02  0.10566000000E+00 0.  1.
         22    1    1    0    0    0 -0.21499589796E+02  0.75305591444E+01  0.19494719424E+02  0.29983091366E+02  0.00000000000E+00 0. -1.
</event>
<event>
 5    1  0.1258677E-009  0.9118800E+02  0.7561462E-02  0.1125453E+00
         25   -1    0    0    0    0  0.00000000000E+00  0.00000000000E+00  0.99999998245E-14  0.12509000000E+03  0.12509000000E+03 0.  0.
        -13    1    3    3    0    0  0.24661661552E+02  0.96948847414E+01  0.32250385890E+02  0.41740710281E+02  0.10566000000E+00 0.  1.
         23    2    1    0    0    0 -0.24467108448E+02 -0.55497270143E+01  0.14237384627E+02  0.96243128648E+02  0.91818286987E+02 0.  0.
         13    1    3    3    0    0 -0.49128770000E+02 -0.15244611756E+02 -0.18013001264E+02  0.54502418367E+02  0.10566000000E+00 0. -1.
         22    1    1    0    0    0  0.24467108448E+02  0.55497270143E+01 -0.14237384627E+02  0.28846871352E+02  0.00000000000E+00 0. -1.
</event>
<event>
 5    1  0.1258677E-009  0.9118800E+02  0.7561462E-02  0.1125453E+00
         25   -1    0    0    0    0  0.00000000000E+00  0.00000000000E+00  0.99999998245E-14  0.12509000000E+03  0.12509000000E+03 0.  0.
        -13    1    3    3    0    0  0.33436620355E+02 -0.22582581617E+01 -0.44184126973E+02  0.55455888335E+02  0.10566000000E+00 0.  1.
         23    2    1    0    0    0  0.15882443737E+02  0.19603236152E+02 -0.15976429401E+02  0.95227227472E+02  0.90423667637E+02 0.  0.
         13    1    3    3    0    0 -0.17554176618E+02  0.21861494314E+02  0.28207697572E+02  0.39771339136E+02  0.10566000000E+00 0. -1.
         22    1    1    0    0    0 -0.15882443737E+02 -0.19603236152E+02  0.15976429401E+02  0.29862772528E+02  0.00000000000E+00 0.  1.
</event>
<event>
 5    1  0.1258677E-009  0.9118800E+02  0.7561462E-02  0.1125453E+00
         25   -1    0    0    0    0  0.00000000000E+00  0.00000000000E+00  0.99999998245E-14  0.12509000000E+03  0.12509000000E+03 0.  0.
        -13    1    3    3    0    0 -0.35496145172E+02  0.20930551400E+02 -0.66682650765E+01  0.41743756745E+02  0.10566000000E+00 0. -1.
         23    2    1    0    0    0  0.52752242573E+01 -0.92386343708E+01 -0.26755947154E+02  0.96296579500E+02  0.91891077691E+02 0.  0.
         13    1    3    3    0    0  0.40771369430E+02 -0.30169185771E+02 -0.20087682077E+02  0.54552822755E+02  0.10566000000E+00 0.  1.
         22    1    1    0    0    0 -0.52752242573E+01  0.92386343708E+01  0.26755947154E+02  0.28793420500E+02  0.00000000000E+00 0.  1.
</event>
<event>
 5    1  0.1258677E-009  0.9118800E+02  0.7561462E-02  0.1125453E+00
         25   -1    0    0    0    0  0.00000000000E+00  0.00000000000E+00  0.99999998245E-14  0.12509000000E+03  0.12509000000E+03 0.  0.
        -13    1    3    3    0    0  0.44916551890E+02 -0.13129629180E+02 -0.74099239251E+01  0.47379340780E+02  0.10566000000E+00 0. -1.
         23    2    1    0    0    0 -0.10698874851E+01 -0.23819671555E+02 -0.17318344377E+02  0.95620584258E+02  0.90966200699E+02 0.  0.
         13    1    3    3    0    0 -0.45986439375E+02 -0.10690042375E+02 -0.99084204519E+01  0.48241243478E+02  0.10566000000E+00 0.  1.
         22    1    1    0    0    0  0.10698874851E+01  0.23819671555E+02  0.17318344377E+02  0.29469415742E+02  0.00000000000E+00 0. -1.
</event>
<event>
 5    1  0.1258677E-009  0.9118800E+02  0.7561462E-02  0.1125453E+00
         25   -1    0    0    0    0  0.00000000000E+00  0.00000000000E+00  0.99999998245E-14  0.12509000000E+03  0.12509000000E+03 0.  0.
        -13    1    3    3    0    0 -0.34809783376E+02 -0.39492630791E+02  0.26148038238E+02  0.58780268570E+02  0.10566000000E+00 0.  1.
         23    2    1    0    0    0 -0.18044820472E+02 -0.68998851708E+01  0.22225993131E+02  0.95641422243E+02  0.90994851045E+02 0.  0.
         13    1    3    3    0    0  0.16764962904E+02  0.32592745620E+02 -0.39220451070E+01  0.36861153673E+02  0.10566000000E+00 0. -1.
         22    1    1    0    0    0  0.18044820472E+02  0.68998851708E+01 -0.22225993131E+02  0.29448577757E+02  0.00000000000E+00 0.  1.
</event>
<event>
 5    1  0.1258677E-009  0.9118800E+02  0.7561462E-02  0.1125453E+00
         25   -1    0    0    0    0  0.00000000000E+00  0.00000000000E+00  0.99999998245E-14  0.12509000000E+03  0.12509000000E+03 0.  0.
        -13    1    3    3    0    0  0.41375356237E+02 -0.17845344320E+02  0.12685436813E+02  0.46811407678E+02  0.10566000000E+00 0.  1.
         23    2    1    0    0    0  0.74128444965E-01 -0.28461380885E+02 -0.97598925152E+01  0.95001610232E+02  0.90111013466E+02 0.  0.
         13    1    3    3    0    0 -0.41301227792E+02 -0.10616036565E+02 -0.22445329329E+02  0.48190202554E+02  0.10566000000E+00 0. -1.
         22    1    1    0    0    0 -0.74128444965E-01  0.28461380885E+02  0.97598925152E+01  0.30088389768E+02  0.00000000000E+00 0.  1.
</event>
<event>
 5    1  0.1258677E-009  0.9118800E+02  0.7561462E-02  0.1125453E+00
         25   -1    0    0    0    0  0.00000000000E+00  0.00000000000E+00  0.99999998245E-14  0.12509000000E+03  0.12509000000E+03 0.  0.
        -13    1    3    3    0    0  0.14312568089E+02  0.20811922940E+02 -0.33673573113E+02  0.42094018958E+02  0.10566000000E+00 0. -1.
         23    2    1    0    0    0 -0.23107357987E+02  0.17612470979E+02  0.45510005472E+01  0.95681485364E+02  0.91049908888E+02 0.  0.
         13    1    3    3    0    0 -0.37419926076E+02 -0.31994519615E+01  0.38224573660E+02  0.53587466407E+02  0.10566000000E+00 0.  1.
         22    1    1    0    0    0  0.23107357987E+02 -0.17612470979E+02 -0.45510005472E+01  0.29408514636E+02  0.00000000000E+00 0.  1.
</event>
<event>
 5    1  0.1258677E-009  0.9118800E+02  0.7561462E-02  0.1125453E+00
         25   -1    0    0    0    0  0.00000000000E+00  0.00000000000E+00  0.99999998245E-14  0.12509000000E+03  0.12509000000E+03 0.  0.
        -13    1    3    3    0    0  0.41778705829E+02  0.83201356072E+00  0.36151951005E+02  0.55255110468E+02  0.10566000000E+00 0. -1.
         23    2    1    0    0    0  0.64014412103E+01 -0.16697622160E+02  0.20906902478E+02  0.97578409595E+02  0.93619754393E+02 0.  0.
         13    1    3    3    0    0 -0.35377264619E+02 -0.17529635721E+02 -0.15245048526E+02  0.42323299127E+02  0.10566000000E+00 0.  1.
         22    1    1    0    0    0 -0.64014412103E+01  0.16697622160E+02 -0.20906902478E+02  0.27511590405E+02  0.00000000000E+00 0. -1.
</event>
<event>
 5    1  0.1258677E-009  0.9118800E+02  0.7561462E-02  0.1125453E+00
         25   -1    0    0    0    0  0.00000000000E+00  0.00000000000E+00  0.99999998245E-14  0.12509000000E+03  0.12509000000E+03 0.  0.
        -13    1    3    3    0    0 -0.59772945518E-01 -0.52278729980E+02 -0.40334596737E+01  0.52434236354E+02  0.10566000000E+00 0. -1.
         23    2    1    0    0    0  0.61081915656E+00 -0.15945997545E+02  0.22554302338E+02  0.97461310351E+02  0.93463161319E+02 0.  0.
         13    1    3    3    0    0  0.67059210208E+00  0.36332732434E+02  0.26587762012E+02  0.45027073997E+02  0.10566000000E+00 0.  1.
         22    1    1    0    0    0 -0.61081915656E+00  0.15945997545E+02 -0.22554302338E+02  0.27628689649E+02  0.00000000000E+00 0.  1.
</event>
<event>
 5    1  0.1258677E-009  0.9118800E+02  0.7561462E-02  0.1125453E+00
         25   -1    0    0    0    0  0.00000000000E+00  0.00000000000E+00  0.99999998245E-14  0.12509000000E+03  0.12509000000E+03 0.  0.
        -13    1    3    3    0    0  0.32930226282E+02  0.41040975548E+02  0.28227871455E+02  0.59712522706E+02  0.10566000000E+00 0.  1.
         23    2    1    0    0    0  0.18876180416E+02  0.21751871672E+02  0.51579478993E+00  0.96285136650E+02  0.91875499385E+02 0.  0.
         13    1    3    3    0    0 -0.14054045866E+02 -0.19289103876E+02 -0.27712076666E+02  0.36572613944E+02  0.10566000000E+00 0. -1.
         22    1    1    0    0    0 -0.18876180416E+02 -0.21751871672E+02 -0.51579478993E+00  0.28804863350E+02  0.00000000000E+00 0. -1.
</event>
<event>
 5    1  0.1258677E-009  0.9118800E+02  0.7561462E-02  0.1125453E+00
         25   -1    0    0    0    0  0.00000000000E+00  0.00000000000E+00  0.99999998245E-14  0.12509000000E+03  0.12509000000E+03 0.  0.
        -13    1    3    3    0    0 -0.48062182228E+02  0.12796352817E+02 -0.34685747566E+02  0.60636888559E+02  0.10566000000E+00 0.  1.
         23    2    1    0    0    0 -0.16495287275E+02  0.14260566553E+02 -0.20071209987E+02  0.95453675480E+02  0.90736389787E+02 0.  0.
         13    1    3    3    0    0  0.31566894952E+02  0.14642137361E+01  0.14614537579E+02  0.34816786921E+02  0.10566000000E+00 0. -1.
         22    1    1    0    0    0  0.16495287275E+02 -0.14260566553E+02  0.20071209987E+02  0.29636324520E+02  0.00000000000E+00 0.  1.
</event>
<event>
 5    1  0.1258677E-009  0.9118800E+02  0.7561462E-02  0.1125453E+00
         25   -1    0    0    0    0  0.00000000000E+00  0.00000000000E+00  0.99999998245E-14  0.12509000000E+03  0.12509000000E+03 0.  0.
        -13    1    3    3    0    0 -0.13356444646E+02 -0.77289879055E+01 -0.43622125638E+02  0.46271296468E+02  0.10566000000E+00 0.  1.
         23    2    1    0    0    0 -0.33980824281E+02  0.48338710492E+01 -0.71240808234E+01  0.90035538719E+02  0.82931194232E+02 0.  0.
         13    1    3    3    0    0 -0.20624379635E+02  0.12562858955E+02  0.36498044815E+02  0.43764242251E+02  0.10566000000E+00 0. -1.
         22    1    1    0    0    0  0.33980824281E+02 -0.48338710492E+01  0.71240808234E+01  0.35054461281E+02  0.00000000000E+00 0.  1.
</event>
<event>
 5    1  0.1258677E-009  0.9118800E+02  0.7561462E-02  0.1125453E+00
         25   -1    0    0    0    0  0.00000000000E+00  0.00000000000E+00  0.99999998245E-14  0.12509000000E+03  0.12509000000E+03 0.  0.
        -13    1    3    3    0    0 -0.34874581783E+02 -0.34365588485E+01 -0.25479053621E+02  0.43327124630E+02  0.10566000000E+00 0. -1.
         23    2    1    0    0    0  0.72805794672E+01 -0.27966725691E+02 -0.85889325915E+01  0.94941793647E+02  0.90027939188E+02 0.  0.
         13    1    3    3    0    0  0.42155161250E+02 -0.24530166843E+02  0.16890121029E+02  0.51614669017E+02  0.10566000000E+00 0.  1.
         22    1    1    0    0    0 -0.72805794672E+01  0.27966725691E+02  0.85889325915E+01  0.30148206353E+02  0.00000000000E+00 0.  1.
</event>
<event>
 5    1  0.1258677E-009  0.9118800E+02  0.7561462E-02  0.1125453E+00
         25   -1    0    0    0    0  0.00000000000E+00  0.00000000000E+00  0.99999998245E-14  0.12509000000E+03  0.12509000000E+03 0.  0.
        -13    1    3    3    0    0 -0.36727021119E+02  0.22287431041E+02  0.24963968295E+02  0.49687166751E+02  0.10566000000E+00 0.  1.
         23    2    1    0    0    0  0.23141818686E+01  0.30932196139E+02  0.85266945725E+01  0.92920748905E+02  0.87174565448E+02 0.  0.
         13    1    3    3    0    0  0.39041202988E+02  0.86447650985E+01 -0.16437273723E+02  0.43233582153E+02  0.10566000000E+00 0. -1.
         22    1    1    0    0    0 -0.23141818686E+01 -0.30932196139E+02 -0.85266945725E+01  0.32169251095E+02  0.00000000000E+00 0. -1.
</event>
<event>
 5    1  0.1258677E-009  0.9118800E+02  0.7561462E-02  0.1125453E+00
         25   -1    0    0    0    0  0.00000000000E+00  0.00000000000E+00  0.99999998245E-14  0.12509000000E+03  0.12509000000E+03 0.  0.
        -13    1    3    3    0    0 -0.22767642312E+02  0.48537449558E+01 -0.35257667768E+02  0.42249718070E+02  0.10566000000E+00 0. -1.
         23    2    1    0    0    0 -0.48754137320E+01  0.30294474970E+02  0.59059485011E+01  0.93842518494E+02  0.88487361679E+02 0.  0.
         13    1    3    3    0    0  0.17892228580E+02  0.25440730014E+02  0.41163616269E+02  0.51592800424E+02  0.10566000000E+00 0.  1.
         22    1    1    0    0    0  0.48754137320E+01 -0.30294474970E+02 -0.59059485011E+01  0.31247481506E+02  0.00000000000E+00 0.  1.
</event>
<event>
 5    1  0.1258677E-009  0.9118800E+02  0.7561462E-02  0.1125453E+00
         25   -1    0    0    0    0  0.00000000000E+00  0.00000000000E+00  0.99999998245E-14  0.12509000000E+03  0.12509000000E+03 0.  0.
        -13    1    3    3    0    0  0.10439815573E+02  0.23303689227E+02 -0.55128995180E+02  0.60755814161E+02  0.10566000000E+00 0. -1.
         23    2    1    0    0    0  0.42515692754E+00  0.20279965061E+01 -0.29420251873E+02  0.95596869469E+02  0.90933584026E+02 0.  0.
         13    1    3    3    0    0 -0.10014658645E+02 -0.21275692720E+02  0.25708743307E+02  0.34841055308E+02  0.10566000000E+00 0.  1.
         22    1    1    0    0    0 -0.42515692754E+00 -0.20279965061E+01  0.29420251873E+02  0.29493130531E+02  0.00000000000E+00 0. -1.
</event>
<event>
 5    1  0.1258677E-009  0.9118800E+02  0.7561462E-02  0.1125453E+00
         25   -1    0    0    0    0  0.00000000000E+00  0.00000000000E+00  0.99999998245E-14  0.12509000000E+03  0.12509000000E+03 0.  0.
        -13    1    3    3    0    0  0.25173054153E+02 -0.22372989613E+02 -0.32163402640E+02  0.46569614053E+02  0.10566000000E+00 0.  1.
         23    2    1    0    0    0 -0.17031404512E+02 -0.23665509626E+02 -0.99392468601E+01  0.94285556917E+02  0.89111461269E+02 0.  0.
         13    1    3    3    0    0 -0.42204458665E+02 -0.12925200126E+01  0.22224155780E+02  0.47715942864E+02  0.10566000000E+00 0. -1.
         22    1    1    0    0    0  0.17031404512E+02  0.23665509626E+02  0.99392468601E+01  0.30804443083E+02  0.00000000000E+00 0.  1.
</event>
<event>
 5    1  0.1258677E-009  0.9118800E+02  0.7561462E-02  0.1125453E+00
         25   -1    0    0    0    0  0.00000000000E+00  0.00000000000E+00  0.99999998245E-14  0.12509000000E+03  0.12509000000E+03 0.  0.
        -13    1    3    3    0    0  0.15685318532E+02 -0.24714325114E+01  0.37864795159E+02  0.41059603902E+02  0.10566000000E+00 0.  1.
         23    2    1    0    0    0 -0.97806839397E+01  0.26692379097E+02 -0.19493160724E+01  0.96595356409E+02  0.92296902258E+02 0.  0.
         13    1    3    3    0    0 -0.25466002472E+02  0.29163811609E+02 -0.39814111231E+02  0.55535752508E+02  0.10566000000E+00 0. -1.
         22    1    1    0    0    0  0.97806839397E+01 -0.26692379097E+02  0.19493160724E+01  0.28494643591E+02  0.00000000000E+00 0. -1.
</event>
<event>
 5    1  0.1258677E-009  0.9118800E+02  0.7561462E-02  0.1125453E+00
         25   -1    0    0    0    0  0.00000000000E+00  0.00000000000E+00  0.99999998245E-14  0.12509000000E+03  0.12509000000E+03 0.  0.
        -13    1    3    3    0    0  0.51460371017E+02  0.13895865235E+02  0.17123743442E+02  0.55986593122E+02  0.10566000000E+00 0.  1.
         23    2    1    0    0    0  0.23080368576E+02  0.16091176944E+02 -0.99263450580E+01  0.95254421989E+02  0.90461280077E+02 0.  0.
         13    1    3    3    0    0 -0.28380002441E+02  0.21953117092E+01 -0.27050088500E+02  0.39267828868E+02  0.10566000000E+00 0. -1.
         22    1    1    0    0    0 -0.23080368576E+02 -0.16091176944E+02  0.99263450580E+01  0.29835578011E+02  0.00000000000E+00 0.  1.
</event>
<event>
 5    1  0.1258677E-009  0.9118800E+02  0.7561462E-02  0.1125453E+00
         25   -1    0    0    0    0  0.00000000000E+00  0.00000000000E+00  0.99999998245E-14  0.12509000000E+03  0.12509000000E+03 0.  0.
        -13    1    3    3    0    0 -0.22793976545E+02 -0.30312857584E+02 -0.34997150418E+02  0.51606650763E+02  0.10566000000E+00 0. -1.
         23    2    1    0    0    0 -0.28802120416E+02 -0.58125338269E+01  0.11484860462E+01  0.95684784304E+02  0.91054441062E+02 0.  0.
         13    1    3    3    0    0 -0.60081438711E+01  0.24500323757E+02  0.36145636464E+02  0.44078133540E+02  0.10566000000E+00 0.  1.
         22    1    1    0    0    0  0.28802120416E+02  0.58125338269E+01 -0.11484860462E+01  0.29405215696E+02  0.00000000000E+00 0.  1.
</event>
<event>
 5    1  0.1258677E-009  0.9118800E+02  0.7561462E-02  0.1125453E+00
         25   -1    0    0    0    0  0.00000000000E+00  0.00000000000E+00  0.99999998245E-14  0.12509000000E+03  0.12509000000E+03 0.  0.
        -13    1    3    3    0    0  0.31697938957E+02  0.11103327255E+01 -0.17071636534E+02  0.36020051512E+02  0.10566000000E+00 0.  1.
         23    2    1    0    0    0  0.10291124076E+01  0.11033490815E+01  0.31548803229E+02  0.93505139121E+02  0.88009133648E+02 0.  0.
         13    1    3    3    0    0 -0.30668826550E+02 -0.69836440312E-02  0.48620439763E+02  0.57485087610E+02  0.10566000000E+00 0. -1.
         22    1    1    0    0    0 -0.10291124076E+01 -0.11033490815E+01 -0.31548803229E+02  0.31584860879E+02  0.00000000000E+00 0. -1.
</event>
<event>
 5    1  0.1258677E-009  0.9118800E+02  0.7561462E-02  0.1125453E+00
         25   -1    0    0    0    0  0.00000000000E+00  0.00000000000E+00  0.99999998245E-14  0.12509000000E+03  0.12509000000E+03 0.  0.
        -13    1    3    3    0    0  0.12314894577E+02 -0.29780488866E+01  0.32713350118E+02  0.35081331838E+02  0.10566000000E+00 0.  1.
         23    2    1    0    0    0  0.81316096395E+01  0.12621465252E+02 -0.25502485960E+02  0.95496060577E+02  0.90794803458E+02 0.  0.
         13    1    3    3    0    0 -0.41832849370E+01  0.15599514139E+02 -0.58215836078E+02  0.60414728738E+02  0.10566000000E+00 0. -1.
         22    1    1    0    0    0 -0.81316096395E+01 -0.12621465252E+02  0.25502485960E+02  0.29593939423E+02  0.00000000000E+00 0. -1.
</event>
<event>
 5    1  0.1258677E-009  0.9118800E+02  0.7561462E-02  0.1125453E+00
         25   -1    0    0    0    0  0.00000000000E+00  0.00000000000E+00  0.99999998245E-14  0.12509000000E+03  0.12509000000E+03 0.  0.
        -13    1    3    3    0    0 -0.13408723413E+02 -0.11352007519E+02  0.45224676143E+02  0.48517465253E+02  0.10566000000E+00 0.  1.
         23    2    1    0    0    0 -0.10354566161E+02  0.22054001704E+02  0.62562413177E+01  0.99935744158E+02  0.96718231856E+02 0.  0.
         13    1    3    3    0    0  0.30541572527E+01  0.33406009223E+02 -0.38968434825E+02  0.51418278905E+02  0.10566000000E+00 0. -1.
         22    1    1    0    0    0  0.10354566161E+02 -0.22054001704E+02 -0.62562413177E+01  0.25154255842E+02  0.00000000000E+00 0. -1.
</event>
<event>
 5    1  0.1258677E-009  0.9118800E+02  0.7561462E-02  0.1125453E+00
         25   -1    0    0    0    0  0.00000000000E+00  0.00000000000E+00  0.99999998245E-14  0.12509000000E+03  0.12509000000E+03 0.  0.
        -13    1    3    3    0    0  0.29429033231E+02 -0.50280231973E+02 -0.11267560950E+02  0.59339184507E+02  0.10566000000E+00 0. -1.
         23    2    1    0    0    0  0.19041722303E+02 -0.15909105398E+02 -0.16013940329E+02  0.95558100167E+02  0.90880236575E+02 0.  0.
         13    1    3    3    0    0 -0.10387310928E+02  0.34371126575E+02 -0.47463793792E+01  0.36218915660E+02  0.10566000000E+00 0.  1.
         22    1    1    0    0    0 -0.19041722303E+02  0.15909105398E+02  0.16013940329E+02  0.29531899833E+02  0.00000000000E+00 0. -1.
</event>
<event>
 5    1  0.1258677E-009  0.9118800E+02  0.7561462E-02  0.1125453E+00
         25   -1    0    0    0    0  0.00000000000E+00  0.00000000000E+00  0.99999998245E-14  0.12509000000E+03  0.12509000000E+03 0.  0.
        -13    1    3    3    0    0 -0.42092777149E+02 -0.40646492501E+02  0.22084724482E+02  0.62543468566E+02  0.10566000000E+00 0. -1.
         23    2    1    0    0    0 -0.20376928930E+02 -0.19507034154E+02  0.10347815451E+02  0.95043021804E+02  0.90168481716E+02 0.  0.
         13    1    3    3    0    0  0.21715848219E+02  0.21139458346E+02 -0.11736909031E+02  0.32499553238E+02  0.10566000000E+00 0.  1.
         22    1    1    0    0    0  0.20376928930E+02  0.19507034154E+02 -0.10347815451E+02  0.30046978196E+02  0.00000000000E+00 0. -1.
</event>
<event>
 5    1  0.1258677E-009  0.9118800E+02  0.7561462E-02  0.1125453E+00
         25   -1    0    0    0    0  0.00000000000E+00  0.00000000000E+00  0.99999998245E-14  0.12509000000E+03  0.12509000000E+03 0.  0.
        -13    1    3    3    0    0  0.33227479896E+02 -0.17167035563E+02 -0.16513204136E+02  0.40883610471E+02  0.10566000000E+00 0.  1.
         23    2    1    0    0    0  0.53470710857E+01 -0.53907290232E+01  0.28761668444E+02  0.95342988380E+02  0.90583667032E+02 0.  0.
         13    1    3    3    0    0 -0.27880408810E+02  0.11776306540E+02  0.45274872580E+02  0.54459377910E+02  0.10566000000E+00 0. -1.
         22    1    1    0    0    0 -0.53470710857E+01  0.53907290232E+01 -0.28761668444E+02  0.29747011620E+02  0.00000000000E+00 0. -1.
</event>
<event>
 5    1  0.1258677E-009  0.9118800E+02  0.7561462E-02  0.1125453E+00
         25   -1    0    0    0    0  0.00000000000E+00  0.00000000000E+00  0.99999998245E-14  0.12509000000E+03  0.12509000000E+03 0.  0.
        -13    1    3    3    0    0 -0.47281370534E+02  0.24035330880E+02 -0.15648684237E+02  0.55300249660E+02  0.10566000000E+00 0.  1.
         23    2    1    0    0    0 -0.22484627739E+02 -0.84577806437E+01 -0.16089894039E+02  0.96176729203E+02  0.91727782117E+02 0.  0.
         13    1    3    3    0    0  0.24796742795E+02 -0.32493111524E+02 -0.44120980161E+00  0.40876479543E+02  0.10566000000E+00 0. -1.
         22    1    1    0    0    0  0.22484627739E+02  0.84577806437E+01  0.16089894039E+02  0.28913270797E+02  0.00000000000E+00 0.  1.
</event>
<event>
 5    1  0.1258677E-009  0.9118800E+02  0.7561462E-02  0.1125453E+00
         25   -1    0    0    0    0  0.00000000000E+00  0.00000000000E+00  0.99999998245E-14  0.12509000000E+03  0.12509000000E+03 0.  0.
        -13    1    3    3    0    0 -0.22233666723E+02  0.29487675853E+02 -0.48486822988E+02  0.60949504762E+02  0.10566000000E+00 0.  1.
         23    2    1    0    0    0 -0.63611190732E+01  0.58056586362E+01 -0.27284093744E+02  0.96478965774E+02  0.92139022989E+02 0.  0.
         13    1    3    3    0    0  0.15872547650E+02 -0.23682017217E+02  0.21202729245E+02  0.35529461012E+02  0.10566000000E+00 0. -1.
         22    1    1    0    0    0  0.63611190732E+01 -0.58056586362E+01  0.27284093744E+02  0.28611034226E+02  0.00000000000E+00 0.  1.
</event>
<event>
 5    1  0.1258677E-009  0.9118800E+02  0.7561462E-02  0.1125453E+00
         25   -1    0    0    0    0  0.00000000000E+00  0.00000000000E+00  0.99999998245E-14  0.12509000000E+03  0.12509000000E+03 0.  0.
        -13    1    3    3    0    0 -0.26882195865E+02 -0.61441559941E+01 -0.20897135583E+02  0.34599198648E+02  0.10566000000E+00 0.  1.
         23    2    1    0    0    0  0.21877169560E+02  0.10428706288E+02  0.14274869571E+02  0.96962782504E+02  0.92793538713E+02 0.  0.
         13    1    3    3    0    0  0.48759365425E+02  0.16572862283E+02  0.35172005154E+02  0.62363583857E+02  0.10566000000E+00 0. -1.
         22    1    1    0    0    0 -0.21877169560E+02 -0.10428706288E+02 -0.14274869571E+02  0.28127217496E+02  0.00000000000E+00 0. -1.
</event>
<event>
 5    1  0.1258677E-009  0.9118800E+02  0.7561462E-02  0.1125453E+00
         25   -1    0    0    0    0  0.00000000000E+00  0.00000000000E+00  0.99999998245E-14  0.12509000000E+03  0.12509000000E+03 0.  0.
        -13    1    3    3    0    0  0.20847442651E+01 -0.30651933321E+00 -0.53439574103E+02  0.53481205644E+02  0.10566000000E+00 0. -1.
         23    2    1    0    0    0 -0.67764757273E+00  0.23145032209E+02 -0.19554430886E+02  0.94782781562E+02  0.89806726871E+02 0.  0.
         13    1    3    3    0    0 -0.27623918378E+01  0.23451551542E+02  0.33885143218E+02  0.41301575918E+02  0.10566000000E+00 0.  1.
         22    1    1    0    0    0  0.67764757273E+00 -0.23145032209E+02  0.19554430886E+02  0.30307218438E+02  0.00000000000E+00 0. -1.
</event>
<event>
 5    1  0.1258677E-009  0.9118800E+02  0.7561462E-02  0.1125453E+00
         25   -1    0    0    0    0  0.00000000000E+00  0.00000000000E+00  0.99999998245E-14  0.12509000000E+03  0.12509000000E+03 0.  0.
        -13    1    3    3    0    0 -0.51085114482E+02  0.74086982523E+01 -0.10830830075E+02  0.52743679958E+02  0.10566000000E+00 0.  1.
         23    2    1    0    0    0 -0.23414696865E+02 -0.17509000502E+01  0.19322515772E+02  0.94681558803E+02  0.89665624858E+02 0.  0.
         13    1    3    3    0    0  0.27670417616E+02 -0.91595983025E+01  0.30153345847E+02  0.41937878844E+02  0.10566000000E+00 0. -1.
         22    1    1    0    0    0  0.23414696865E+02  0.17509000502E+01 -0.19322515772E+02  0.30408441197E+02  0.00000000000E+00 0.  1.
</event>
<event>
 5    1  0.1258677E-009  0.9118800E+02  0.7561462E-02  0.1125453E+00
         25   -1    0    0    0    0  0.00000000000E+00  0.00000000000E+00  0.99999998245E-14  0.12509000000E+03  0.12509000000E+03 0.  0.
        -13    1    3    3    0    0 -0.31596225022E+02 -0.29226040918E+02  0.38137783132E+02  0.57506387207E+02  0.10566000000E+00 0.  1.
         23    2    1    0    0    0 -0.23905376817E+02 -0.16381840746E+02  0.26904956082E+01  0.95985524165E+02  0.91466662427E+02 0.  0.
         13    1    3    3    0    0  0.76908482048E+01  0.12844200171E+02 -0.35447287524E+02  0.38479136958E+02  0.10566000000E+00 0. -1.
         22    1    1    0    0    0  0.23905376817E+02  0.16381840746E+02 -0.26904956082E+01  0.29104475835E+02  0.00000000000E+00 0.  1.
</event>
<event>
 5    1  0.1258677E-009  0.9118800E+02  0.7561462E-02  0.1125453E+00
         25   -1    0    0    0    0  0.00000000000E+00  0.00000000000E+00  0.99999998245E-14  0.12509000000E+03  0.12509000000E+03 0.  0.
        -13    1    3    3    0    0 -0.68882371025E-01  0.36088696206E+02 -0.36777528069E+02  0.51526657892E+02  0.10566000000E+00 0. -1.
         23    2    1    0    0    0  0.20700339154E+02  0.21534273430E+02 -0.12292690552E+01  0.95194514125E+02  0.90378401423E+02 0.  0.
         13    1    3    3    0    0  0.20769221525E+02 -0.14554422775E+02  0.35548259014E+02  0.43667856233E+02  0.10566000000E+00 0.  1.
         22    1    1    0    0    0 -0.20700339154E+02 -0.21534273430E+02  0.12292690552E+01  0.29895485875E+02  0.00000000000E+00 0. -1.
</event>
<event>
 5    1  0.1258677E-009  0.9118800E+02  0.7561462E-02  0.1125453E+00
         25   -1    0    0    0    0  0.00000000000E+00  0.00000000000E+00  0.99999998245E-14  0.12509000000E+03  0.12509000000E+03 0.  0.
        -13    1    3    3    0    0  0.37503222526E+02  0.56222735522E+01 -0.29289606705E+02  0.47916530391E+02  0.10566000000E+00 0.  1.
         23    2    1    0    0    0  0.22246557628E+02  0.73814613338E+01  0.16639320838E+02  0.96345221419E+02  0.91957269395E+02 0.  0.
         13    1    3    3    0    0 -0.15256664897E+02  0.17591877816E+01  0.45928927543E+02  0.48428691028E+02  0.10566000000E+00 0. -1.
         22    1    1    0    0    0 -0.22246557628E+02 -0.73814613338E+01 -0.16639320838E+02  0.28744778581E+02  0.00000000000E+00 0.  1.
</event>
<event>
 5    1  0.1258677E-009  0.9118800E+02  0.7561462E-02  0.1125453E+00
         25   -1    0    0    0    0  0.00000000000E+00  0.00000000000E+00  0.99999998245E-14  0.12509000000E+03  0.12509000000E+03 0.  0.
        -13    1    3    3    0    0  0.30937700782E+02 -0.75870422127E+01 -0.20435094659E+02  0.37845855744E+02  0.10566000000E+00 0.  1.
         23    2    1    0    0    0 -0.17038357806E+02 -0.21375682955E+02  0.96170000311E+01  0.96112212850E+02  0.91639758352E+02 0.  0.
         13    1    3    3    0    0 -0.47976058588E+02 -0.13788640742E+02  0.30052094690E+02  0.58266357106E+02  0.10566000000E+00 0. -1.
         22    1    1    0    0    0  0.17038357806E+02  0.21375682955E+02 -0.96170000311E+01  0.28977787150E+02  0.00000000000E+00 0. -1.
</event>
<event>
 5    1  0.1258677E-009  0.9118800E+02  0.7561462E-02  0.1125453E+00
         25   -1    0    0    0    0  0.00000000000E+00  0.00000000000E+00  0.99999998245E-14  0.12509000000E+03  0.12509000000E+03 0.  0.
        -13    1    3    3    0    0 -0.34353668753E+02  0.10183585716E+02 -0.10132531237E+02  0.37236532171E+02  0.10566000000E+00 0.  1.
         23    2    1    0    0    0  0.19582623294E+02  0.13601385802E+02  0.15086025429E+02  0.96875376237E+02  0.92675636103E+02 0.  0.
         13    1    3    3    0    0  0.53936292047E+02  0.34178000861E+01  0.25218556666E+02  0.59638844066E+02  0.10566000000E+00 0. -1.
         22    1    1    0    0    0 -0.19582623294E+02 -0.13601385802E+02 -0.15086025429E+02  0.28214623763E+02  0.00000000000E+00 0. -1.
</event>
<event>
 5    1  0.1258677E-009  0.9118800E+02  0.7561462E-02  0.1125453E+00
         25   -1    0    0    0    0  0.00000000000E+00  0.00000000000E+00  0.99999998245E-14  0.12509000000E+03  0.12509000000E+03 0.  0.
        -13    1    3    3    0    0 -0.31552010925E+02 -0.92634604935E+01  0.22078065986E+02  0.39607994842E+02  0.10566000000E+00 0. -1.
         23    2    1    0    0    0 -0.78421506123E+01  0.18588051033E+02 -0.20898398741E+02  0.96042486555E+02  0.91544531165E+02 0.  0.
         13    1    3    3    0    0  0.23709860312E+02  0.27851511527E+02 -0.42976464727E+02  0.56434491712E+02  0.10566000000E+00 0.  1.
         22    1    1    0    0    0  0.78421506123E+01 -0.18588051033E+02  0.20898398741E+02  0.29047513445E+02  0.00000000000E+00 0. -1.
</event>
<event>
 5    1  0.1258677E-009  0.9118800E+02  0.7561462E-02  0.1125453E+00
         25   -1    0    0    0    0  0.00000000000E+00  0.00000000000E+00  0.99999998245E-14  0.12509000000E+03  0.12509000000E+03 0.  0.
        -13    1    3    3    0    0  0.23255648368E+02  0.49907002140E+02  0.97402590496E+01  0.55914379671E+02  0.10566000000E+00 0. -1.
         23    2    1    0    0    0  0.73021618959E+00  0.27277407170E+02 -0.12751344798E+02  0.94970455651E+02  0.90067755023E+02 0.  0.
         13    1    3    3    0    0 -0.22525432178E+02 -0.22629594970E+02 -0.22491603848E+02  0.39056075980E+02  0.10566000000E+00 0.  1.
         22    1    1    0    0    0 -0.73021618959E+00 -0.27277407170E+02  0.12751344798E+02  0.30119544349E+02  0.00000000000E+00 0. -1.
</event>
<event>
 5    1  0.1258677E-009  0.9118800E+02  0.7561462E-02  0.1125453E+00
         25   -1    0    0    0    0  0.00000000000E+00  0.00000000000E+00  0.99999998245E-14  0.12509000000E+03  0.12509000000E+03 0.  0.
        -13    1    3    3    0    0 -0.17615957084E+02 -0.98731961935E+01  0.34097272213E+02  0.39628740624E+02  0.10566000000E+00 0.  1.
         23    2    1    0    0    0 -0.82878103260E+01  0.24823334513E+02 -0.10494478537E+02  0.96893904240E+02  0.92700641113E+02 0.  0.
         13    1    3    3    0    0  0.93281467580E+01  0.34696530707E+02 -0.44591750750E+02  0.57265163616E+02  0.10566000000E+00 0. -1.
         22    1    1    0    0    0  0.82878103260E+01 -0.24823334513E+02  0.10494478537E+02  0.28196095760E+02  0.00000000000E+00 0. -1.
</event>
<event>
 5    1  0.1258677E-009  0.9118800E+02  0.7561462E-02  0.1125453E+00
         25   -1    0    0    0    0  0.00000000000E+00  0.00000000000E+00  0.99999998245E-14  0.12509000000E+03  0.12509000000E+03 0.  0.
        -13    1    3    3    0    0 -0.13990391538E+02  0.19785646797E+02  0.33777922594E+02  0.41571169016E+02  0.10566000000E+00 0.  1.
         23    2    1    0    0    0 -0.19684587042E+02  0.10574885998E+02 -0.19190444774E+02  0.95635215134E+02  0.90986317774E+02 0.  0.
         13    1    3    3    0    0 -0.56941955040E+01 -0.92107607986E+01 -0.52968367368E+02  0.54064046117E+02  0.10566000000E+00 0. -1.
         22    1    1    0    0    0  0.19684587042E+02 -0.10574885998E+02  0.19190444774E+02  0.29454784866E+02  0.00000000000E+00 0. -1.
</event>
<event>
 5    1  0.1258677E-009  0.9118800E+02  0.7561462E-02  0.1125453E+00
         25   -1    0    0    0    0  0.00000000000E+00  0.00000000000E+00  0.99999998245E-14  0.12509000000E+03  0.12509000000E+03 0.  0.
        -13    1    3    3    0    0  0.25035911006E+02 -0.23263783245E+02 -0.13195521587E+02  0.36635138935E+02  0.10566000000E+00 0. -1.
         23    2    1    0    0    0 -0.11646006773E+02  0.22693859862E+02 -0.15062939944E+02  0.95466818048E+02  0.90754506440E+02 0.  0.
         13    1    3    3    0    0 -0.36681917779E+02  0.45957643107E+02 -0.18674183575E+01  0.58831679113E+02  0.10566000000E+00 0.  1.
         22    1    1    0    0    0  0.11646006773E+02 -0.22693859862E+02  0.15062939944E+02  0.29623181952E+02  0.00000000000E+00 0.  1.
</event>
<event>
 5    1  0.1258677E-009  0.9118800E+02  0.7561462E-02  0.1125453E+00
         25   -1    0    0    0    0  0.00000000000E+00  0.00000000000E+00  0.99999998245E-14  0.12509000000E+03  0.12509000000E+03 0.  0.
        -13    1    3    3    0    0 -0.35031321843E+02  0.45682454308E+01 -0.58751813880E+01  0.35813283803E+02  0.10566000000E+00 0.  1.
         23    2    1    0    0    0  0.23379390859E+02  0.15273887302E+02 -0.10211397563E+02  0.95355168733E+02  0.90600485725E+02 0.  0.
         13    1    3    3    0    0  0.58410712702E+02  0.10705641872E+02 -0.43362161753E+01  0.59541884930E+02  0.10566000000E+00 0. -1.
         22    1    1    0    0    0 -0.23379390859E+02 -0.15273887302E+02  0.10211397563E+02  0.29734831267E+02  0.00000000000E+00 0. -1.
</event>
<event>
 5    1  0.1258677E-009  0.9118800E+02  0.7561462E-02  0.1125453E+00
         25   -1    0    0    0    0  0.00000000000E+00  0.00000000000E+00  0.99999998245E-14  0.12509000000E+03  0.12509000000E+03 0.  0.
        -13    1    3    3    0    0 -0.20904981748E+02  0.22645732163E+02 -0.29478666023E+02  0.42647981917E+02  0.10566000000E+00 0.  1.
         23    2    1    0    0    0  0.34835710710E+01 -0.23604067601E+02 -0.15018776172E+02  0.96896899560E+02  0.92704682901E+02 0.  0.
         13    1    3    3    0    0  0.24388552819E+02 -0.46249799764E+02  0.14459889851E+02  0.54248917642E+02  0.10566000000E+00 0. -1.
         22    1    1    0    0    0 -0.34835710710E+01  0.23604067601E+02  0.15018776172E+02  0.28193100440E+02  0.00000000000E+00 0. -1.
</event>
<event>
 5    1  0.1258677E-009  0.9118800E+02  0.7561462E-02  0.1125453E+00
         25   -1    0    0    0    0  0.00000000000E+00  0.00000000000E+00  0.99999998245E-14  0.12509000000E+03  0.12509000000E+03 0.  0.
        -13    1    3    3    0    0  0.49516860781E+01 -0.58303921551E+02 -0.61147300907E+01  0.58832538203E+02  0.10566000000E+00 0. -1.
         23    2    1    0    0    0  0.17481768973E+02 -0.26160875775E+02 -0.23055000757E+01  0.93541323351E+02  0.88060548351E+02 0.  0.
         13    1    3    3    0    0  0.12530082895E+02  0.32143045776E+02  0.38092300150E+01  0.34708785148E+02  0.10566000000E+00 0.  1.
         22    1    1    0    0    0 -0.17481768973E+02  0.26160875775E+02  0.23055000757E+01  0.31548676649E+02  0.00000000000E+00 0. -1.
</event>
<event>
 5    1  0.1258677E-009  0.9118800E+02  0.7561462E-02  0.1125453E+00
         25   -1    0    0    0    0  0.00000000000E+00  0.00000000000E+00  0.99999998245E-14  0.12509000000E+03  0.12509000000E+03 0.  0.
        -13    1    3    3    0    0 -0.54126892446E+02 -0.12052117861E+02  0.23227274508E+02  0.60120641014E+02  0.10566000000E+00 0.  1.
         23    2    1    0    0    0 -0.22761061561E+02 -0.17358850834E+02  0.81319493651E+01  0.95332240909E+02  0.90568824275E+02 0.  0.
         13    1    3    3    0    0  0.31365830885E+02 -0.53067329723E+01 -0.15095325143E+02  0.35211599895E+02  0.10566000000E+00 0. -1.
         22    1    1    0    0    0  0.22761061561E+02  0.17358850834E+02 -0.81319493651E+01  0.29757759091E+02  0.00000000000E+00 0.  1.
</event>
<event>
 5    1  0.1258677E-009  0.9118800E+02  0.7561462E-02  0.1125453E+00
         25   -1    0    0    0    0  0.00000000000E+00  0.00000000000E+00  0.99999998245E-14  0.12509000000E+03  0.12509000000E+03 0.  0.
        -13    1    3    3    0    0 -0.41300774519E+02 -0.34599330031E+02  0.30257139018E+02  0.61792986981E+02  0.10566000000E+00 0.  1.
         23    2    1    0    0    0 -0.17601995640E+02 -0.21899463897E+02  0.10768322367E+02  0.95000574348E+02  0.90109575464E+02 0.  0.
         13    1    3    3    0    0  0.23698778880E+02  0.12699866134E+02 -0.19488816651E+02  0.33207587366E+02  0.10566000000E+00 0. -1.
         22    1    1    0    0    0  0.17601995640E+02  0.21899463897E+02 -0.10768322367E+02  0.30089425652E+02  0.00000000000E+00 0.  1.
</event>
<event>
 5    1  0.1258677E-009  0.9118800E+02  0.7561462E-02  0.1125453E+00
         25   -1    0    0    0    0  0.00000000000E+00  0.00000000000E+00  0.99999998245E-14  0.12509000000E+03  0.12509000000E+03 0.  0.
        -13    1    3    3    0    0 -0.28475172621E+02  0.30322690343E+01  0.18290034213E+02  0.33978914444E+02  0.10566000000E+00 0. -1.
         23    2    1    0    0    0  0.11916057621E+02  0.32153950856E+02 -0.73991151427E+01  0.90009864742E+02  0.82892459615E+02 0.  0.
         13    1    3    3    0    0  0.40391230242E+02  0.29121681821E+02 -0.25689149356E+02  0.56030950297E+02  0.10566000000E+00 0.  1.
         22    1    1    0    0    0 -0.11916057621E+02 -0.32153950856E+02  0.73991151427E+01  0.35080135258E+02  0.00000000000E+00 0.  1.
</event>
<event>
 5    1  0.1258677E-009  0.9118800E+02  0.7561462E-02  0.1125453E+00
         25   -1    0    0    0    0  0.00000000000E+00  0.00000000000E+00  0.99999998245E-14  0.12509000000E+03  0.12509000000E+03 0.  0.
        -13    1    3    3    0    0 -0.62947143950E+01 -0.48593086499E+02 -0.18587461302E+02  0.52406262665E+02  0.10566000000E+00 0. -1.
         23    2    1    0    0    0 -0.92460301484E+01 -0.39243142105E+01 -0.25481506006E+02  0.97700285436E+02  0.93782457370E+02 0.  0.
         13    1    3    3    0    0 -0.29513157535E+01  0.44668772288E+02 -0.68940447040E+01  0.45294022772E+02  0.10566000000E+00 0.  1.
         22    1    1    0    0    0  0.92460301484E+01  0.39243142105E+01  0.25481506006E+02  0.27389714564E+02  0.00000000000E+00 0. -1.
</event>
<event>
 5    1  0.1258677E-009  0.9118800E+02  0.7561462E-02  0.1125453E+00
         25   -1    0    0    0    0  0.00000000000E+00  0.00000000000E+00  0.99999998245E-14  0.12509000000E+03  0.12509000000E+03 0.  0.
        -13    1    3    3    0    0 -0.14778937355E+02  0.50874608820E+02 -0.32736856073E+02  0.62276445961E+02  0.10566000000E+00 0.  1.
         23    2    1    0    0    0 -0.68837714718E+01  0.21702401157E+02 -0.18829026036E+02  0.95544903162E+02  0.90862070047E+02 0.  0.
         13    1    3    3    0    0  0.78951658829E+01 -0.29172207663E+02  0.13907830037E+02  0.33268457202E+02  0.10566000000E+00 0. -1.
         22    1    1    0    0    0  0.68837714718E+01 -0.21702401157E+02  0.18829026036E+02  0.29545096838E+02  0.00000000000E+00 0.  1.
</event>
<event>
 5    1  0.1258677E-009  0.9118800E+02  0.7561462E-02  0.1125453E+00
         25   -1    0    0    0    0  0.00000000000E+00  0.00000000000E+00  0.99999998245E-14  0.12509000000E+03  0.12509000000E+03 0.  0.
        -13    1    3    3    0    0 -0.51821367480E+01 -0.57489444492E+02 -0.14622851557E+02  0.59546030270E+02  0.10566000000E+00 0.  1.
         23    2    1    0    0    0  0.30705517009E+01 -0.22356544121E+02 -0.18589680251E+02  0.95852702509E+02  0.91284834521E+02 0.  0.
         13    1    3    3    0    0  0.82526884489E+01  0.35132900371E+02 -0.39668286945E+01  0.36306672239E+02  0.10566000000E+00 0. -1.
         22    1    1    0    0    0 -0.30705517009E+01  0.22356544121E+02  0.18589680251E+02  0.29237297491E+02  0.00000000000E+00 0.  1.
</event>
<event>
 5    1  0.1258677E-009  0.9118800E+02  0.7561462E-02  0.1125453E+00
         25   -1    0    0    0    0  0.00000000000E+00  0.00000000000E+00  0.99999998245E-14  0.12509000000E+03  0.12509000000E+03 0.  0.
        -13    1    3    3    0    0 -0.16246261527E+02  0.17901143894E+02  0.27714730811E+02  0.36776479362E+02  0.10566000000E+00 0.  1.
         23    2    1    0    0    0  0.16727345416E+02 -0.20000880965E+02 -0.73012123996E+01  0.98013312120E+02  0.94199056929E+02 0.  0.
         13    1    3    3    0    0  0.32973606943E+02 -0.37902024859E+02 -0.35015943211E+02  0.61236832758E+02  0.10566000000E+00 0. -1.
         22    1    1    0    0    0 -0.16727345416E+02  0.20000880965E+02  0.73012123996E+01  0.27076687880E+02  0.00000000000E+00 0. -1.
</event>
<event>
 5    1  0.1258677E-009  0.9118800E+02  0.7561462E-02  0.1125453E+00
         25   -1    0    0    0    0  0.00000000000E+00  0.00000000000E+00  0.99999998245E-14  0.12509000000E+03  0.12509000000E+03 0.  0.
        -13    1    3    3    0    0  0.28290912152E+02 -0.34174270825E+02  0.14590270347E+02  0.46702715656E+02  0.10566000000E+00 0.  1.
         23    2    1    0    0    0 -0.91625745109E+01 -0.62112859264E+01  0.27710750119E+02  0.95250118688E+02  0.90455329270E+02 0.  0.
         13    1    3    3    0    0 -0.37453486663E+02  0.27962984899E+02  0.13120479773E+02  0.48547403032E+02  0.10566000000E+00 0. -1.
         22    1    1    0    0    0  0.91625745109E+01  0.62112859264E+01 -0.27710750119E+02  0.29839881312E+02  0.00000000000E+00 0. -1.
</event>
<event>
 5    1  0.1258677E-009  0.9118800E+02  0.7561462E-02  0.1125453E+00
         25   -1    0    0    0    0  0.00000000000E+00  0.00000000000E+00  0.99999998245E-14  0.12509000000E+03  0.12509000000E+03 0.  0.
        -13    1    3    3    0    0  0.43068749915E+02  0.34510579995E+02 -0.25694155151E+02  0.60877730935E+02  0.10566000000E+00 0. -1.
         23    2    1    0    0    0  0.12791732769E+02  0.19917911122E+02 -0.17985445477E+02  0.95360757499E+02  0.90608201677E+02 0.  0.
         13    1    3    3    0    0 -0.30277017146E+02 -0.14592668874E+02  0.77087096746E+01  0.34483026564E+02  0.10566000000E+00 0.  1.
         22    1    1    0    0    0 -0.12791732769E+02 -0.19917911122E+02  0.17985445477E+02  0.29729242501E+02  0.00000000000E+00 0. -1.
</event>
<event>
 5    1  0.1258677E-009  0.9118800E+02  0.7561462E-02  0.1125453E+00
         25   -1    0    0    0    0  0.00000000000E+00  0.00000000000E+00  0.99999998245E-14  0.12509000000E+03  0.12509000000E+03 0.  0.
        -13    1    3    3    0    0 -0.23308832117E+02 -0.19655106861E+02 -0.95471698199E+01  0.31949718246E+02  0.10566000000E+00 0. -1.
         23    2    1    0    0    0  0.28504089007E+02  0.99459224766E+01  0.74482182572E+01  0.93995299177E+02  0.88703076881E+02 0.  0.
         13    1    3    3    0    0  0.51812921124E+02  0.29601029338E+02  0.16995388077E+02  0.62045580932E+02  0.10566000000E+00 0.  1.
         22    1    1    0    0    0 -0.28504089007E+02 -0.99459224766E+01 -0.74482182572E+01  0.31094700823E+02  0.00000000000E+00 0.  1.
</event>
<event>
 5    1  0.1258677E-009  0.9118800E+02  0.7561462E-02  0.1125453E+00
         25   -1    0    0    0    0  0.00000000000E+00  0.00000000000E+00  0.99999998245E-14  0.12509000000E+03  0.12509000000E+03 0.  0.
        -13    1    3    3    0    0 -0.17681403492E+02 -0.31495369797E+02 -0.92816148214E+01  0.37292759161E+02  0.10566000000E+00 0. -1.
         23    2    1    0    0    0  0.29322148411E+02  0.22274685683E+01 -0.45205264387E+01  0.95337938509E+02  0.90576693228E+02 0.  0.
         13    1    3    3    0    0  0.47003551903E+02  0.33722838365E+02  0.47610883827E+01  0.58045179348E+02  0.10566000000E+00 0.  1.
         22    1    1    0    0    0 -0.29322148411E+02 -0.22274685683E+01  0.45205264387E+01  0.29752061491E+02  0.00000000000E+00 0.  1.
</event>
<event>
 5    1  0.1258677E-009  0.9118800E+02  0.7561462E-02  0.1125453E+00
         25   -1    0    0    0    0  0.00000000000E+00  0.00000000000E+00  0.99999998245E-14  0.12509000000E+03  0.12509000000E+03 0.  0.
        -13    1    3    3    0    0 -0.43369991146E+02 -0.23065222039E+02 -0.74547523335E+01  0.49684455276E+02  0.10566000000E+00 0. -1.
         23    2    1    0    0    0 -0.24478727274E+02  0.16992824209E+02  0.28455944812E+01  0.95155712444E+02  0.90324681229E+02 0.  0.
         13    1    3    3    0    0  0.18891263872E+02  0.40058046248E+02  0.10300346815E+02  0.45471257168E+02  0.10566000000E+00 0.  1.
         22    1    1    0    0    0  0.24478727274E+02 -0.16992824209E+02 -0.28455944812E+01  0.29934287556E+02  0.00000000000E+00 0. -1.
</event>
<event>
 5    1  0.1258677E-009  0.9118800E+02  0.7561462E-02  0.1125453E+00
         25   -1    0    0    0    0  0.00000000000E+00  0.00000000000E+00  0.99999998245E-14  0.12509000000E+03  0.12509000000E+03 0.  0.
        -13    1    3    3    0    0  0.12203687259E+02 -0.54175893109E+02  0.54231151797E+01  0.55797658725E+02  0.10566000000E+00 0. -1.
         23    2    1    0    0    0  0.88753224972E+01 -0.17241035255E+02  0.21429616473E+02  0.96189254192E+02  0.91744860967E+02 0.  0.
         13    1    3    3    0    0 -0.33283647620E+01  0.36934857854E+02  0.16006501293E+02  0.40391595467E+02  0.10566000000E+00 0.  1.
         22    1    1    0    0    0 -0.88753224972E+01  0.17241035255E+02 -0.21429616473E+02  0.28900745808E+02  0.00000000000E+00 0. -1.
</event>
<event>
 5    1  0.1258677E-009  0.9118800E+02  0.7561462E-02  0.1125453E+00
         25   -1    0    0    0    0  0.00000000000E+00  0.00000000000E+00  0.99999998245E-14  0.12509000000E+03  0.12509000000E+03 0.  0.
        -13    1    3    3    0    0 -0.16514386222E+02  0.46434753157E+01  0.42108855586E+02  0.45469261024E+02  0.10566000000E+00 0.  1.
         23    2    1    0    0    0  0.19467302050E+02 -0.16677014376E+02  0.13751024006E+02  0.96000666580E+02  0.91487368883E+02 0.  0.
         13    1    3    3    0    0  0.35981688272E+02 -0.21320489691E+02 -0.28357831580E+02  0.50531405556E+02  0.10566000000E+00 0. -1.
         22    1    1    0    0    0 -0.19467302050E+02  0.16677014376E+02 -0.13751024006E+02  0.29089333420E+02  0.00000000000E+00 0. -1.
</event>
<event>
 5    1  0.1258677E-009  0.9118800E+02  0.7561462E-02  0.1125453E+00
         25   -1    0    0    0    0  0.00000000000E+00  0.00000000000E+00  0.99999998245E-14  0.12509000000E+03  0.12509000000E+03 0.  0.
        -13    1    3    3    0    0  0.28869360536E+02 -0.20679289979E+02  0.89948284714E+01  0.36633196899E+02  0.10566000000E+00 0.  1.
         23    2    1    0    0    0 -0.11425620850E+02  0.19199921734E+02  0.20825301660E+02  0.94546997600E+02  0.89477705377E+02 0.  0.
         13    1    3    3    0    0 -0.40294981386E+02  0.39879211713E+02  0.11830473188E+02  0.57913800701E+02  0.10566000000E+00 0. -1.
         22    1    1    0    0    0  0.11425620850E+02 -0.19199921734E+02 -0.20825301660E+02  0.30543002400E+02  0.00000000000E+00 0. -1.
</event>
<event>
 5    1  0.1258677E-009  0.9118800E+02  0.7561462E-02  0.1125453E+00
         25   -1    0    0    0    0  0.00000000000E+00  0.00000000000E+00  0.99999998245E-14  0.12509000000E+03  0.12509000000E+03 0.  0.
        -13    1    3    3    0    0  0.40151070841E+02  0.26367637513E+02 -0.13058632279E+02  0.49778507799E+02  0.10566000000E+00 0. -1.
         23    2    1    0    0    0 -0.33913017388E+01  0.30218908146E+02 -0.40042977497E+01  0.94418877793E+02  0.89298414018E+02 0.  0.
         13    1    3    3    0    0 -0.43542372580E+02  0.38512706327E+01  0.90543345294E+01  0.44640369993E+02  0.10566000000E+00 0.  1.
         22    1    1    0    0    0  0.33913017388E+01 -0.30218908146E+02  0.40042977497E+01  0.30671122207E+02  0.00000000000E+00 0.  1.
</event>
<event>
 5    1  0.1258677E-009  0.9118800E+02  0.7561462E-02  0.1125453E+00
         25   -1    0    0    0    0  0.00000000000E+00  0.00000000000E+00  0.99999998245E-14  0.12509000000E+03  0.12509000000E+03 0.  0.
        -13    1    3    3    0    0  0.23038041831E+02  0.35939194640E+02  0.21792991460E+02  0.47930394570E+02  0.10566000000E+00 0. -1.
         23    2    1    0    0    0  0.28917593198E+02 -0.73642550806E+01  0.45756353687E+01  0.94900665985E+02  0.89970775900E+02 0.  0.
         13    1    3    3    0    0  0.58795513667E+01 -0.43303449721E+02 -0.17217356092E+02  0.46970271415E+02  0.10566000000E+00 0.  1.
         22    1    1    0    0    0 -0.28917593198E+02  0.73642550806E+01 -0.45756353687E+01  0.30189334015E+02  0.00000000000E+00 0.  1.
</event>
<event>
 5    1  0.1258677E-009  0.9118800E+02  0.7561462E-02  0.1125453E+00
         25   -1    0    0    0    0  0.00000000000E+00  0.00000000000E+00  0.99999998245E-14  0.12509000000E+03  0.12509000000E+03 0.  0.
        -13    1    3    3    0    0 -0.26994365507E+01  0.45328520175E+02 -0.29930154587E+02  0.54385540510E+02  0.10566000000E+00 0.  1.
         23    2    1    0    0    0  0.20725110305E+02  0.19002476746E+02 -0.81395760373E+01  0.95817538236E+02  0.91236635273E+02 0.  0.
         13    1    3    3    0    0  0.23424546856E+02 -0.26326043429E+02  0.21790578549E+02  0.41431997726E+02  0.10566000000E+00 0. -1.
         22    1    1    0    0    0 -0.20725110305E+02 -0.19002476746E+02  0.81395760373E+01  0.29272461764E+02  0.00000000000E+00 0.  1.
</event>
<event>
 5    1  0.1258677E-009  0.9118800E+02  0.7561462E-02  0.1125453E+00
         25   -1    0    0    0    0  0.00000000000E+00  0.00000000000E+00  0.99999998245E-14  0.12509000000E+03  0.12509000000E+03 0.  0.
        -13    1    3    3    0    0  0.43890218501E+02 -0.93822579201E+01 -0.30855265462E+02  0.54465003576E+02  0.10566000000E+00 0.  1.
         23    2    1    0    0    0  0.39175308437E+01  0.15779804758E+02 -0.89543738564E+01  0.10652847805E+03  0.10489893487E+03 0.  0.
         13    1    3    3    0    0 -0.39972687657E+02  0.25162062678E+02  0.21900891605E+02  0.52063474470E+02  0.10566000000E+00 0. -1.
         22    1    1    0    0    0 -0.39175308437E+01 -0.15779804758E+02  0.89543738564E+01  0.18561521954E+02  0.00000000000E+00 0. -1.
</event>
<event>
 5    1  0.1258677E-009  0.9118800E+02  0.7561462E-02  0.1125453E+00
         25   -1    0    0    0    0  0.00000000000E+00  0.00000000000E+00  0.99999998245E-14  0.12509000000E+03  0.12509000000E+03 0.  0.
        -13    1    3    3    0    0  0.47096283719E+02 -0.20243906217E+02 -0.45517140189E+01  0.51464598935E+02  0.10566000000E+00 0.  1.
         23    2    1    0    0    0  0.13929845101E+02 -0.33392678758E+01  0.23149773990E+02  0.97866786922E+02  0.94004279968E+02 0.  0.
         13    1    3    3    0    0 -0.33166438618E+02  0.16904638341E+02  0.27701488009E+02  0.46402187987E+02  0.10566000000E+00 0. -1.
         22    1    1    0    0    0 -0.13929845101E+02  0.33392678758E+01 -0.23149773990E+02  0.27223213078E+02  0.00000000000E+00 0. -1.
</event>
<event>
 5    1  0.1258677E-009  0.9118800E+02  0.7561462E-02  0.1125453E+00
         25   -1    0    0    0    0  0.00000000000E+00  0.00000000000E+00  0.99999998245E-14  0.12509000000E+03  0.12509000000E+03 0.  0.
        -13    1    3    3    0    0 -0.53395401900E+02  0.19831739914E+02 -0.52821392712E+01  0.57203837383E+02  0.10566000000E+00 0. -1.
         23    2    1    0    0    0 -0.25631273556E+02  0.31830644386E+00 -0.18346768919E+02  0.93567509095E+02  0.88097737345E+02 0.  0.
         13    1    3    3    0    0  0.27764128343E+02 -0.19513433470E+02 -0.13064629648E+02  0.36363671712E+02  0.10566000000E+00 0.  1.
         22    1    1    0    0    0  0.25631273556E+02 -0.31830644386E+00  0.18346768919E+02  0.31522490905E+02  0.00000000000E+00 0. -1.
</event>
<event>
 5    1  0.1258677E-009  0.9118800E+02  0.7561462E-02  0.1125453E+00
         25   -1    0    0    0    0  0.00000000000E+00  0.00000000000E+00  0.99999998245E-14  0.12509000000E+03  0.12509000000E+03 0.  0.
        -13    1    3    3    0    0  0.75708324692E+01  0.12228153652E+01  0.32593726623E+02  0.33483950796E+02  0.10566000000E+00 0. -1.
         23    2    1    0    0    0  0.25789665667E+02 -0.11776448452E+02 -0.19834432817E+02  0.90489475170E+02  0.83613089872E+02 0.  0.
         13    1    3    3    0    0  0.18218833198E+02 -0.12999263818E+02 -0.52428159440E+02  0.57005524374E+02  0.10566000000E+00 0.  1.
         22    1    1    0    0    0 -0.25789665667E+02  0.11776448452E+02  0.19834432817E+02  0.34600524830E+02  0.00000000000E+00 0.  1.
</event>
<event>
 5    1  0.1258677E-009  0.9118800E+02  0.7561462E-02  0.1125453E+00
         25   -1    0    0    0    0  0.00000000000E+00  0.00000000000E+00  0.99999998245E-14  0.12509000000E+03  0.12509000000E+03 0.  0.
        -13    1    3    3    0    0 -0.31054877326E+01  0.57111804517E+02  0.23264758132E+02  0.61746760273E+02  0.10566000000E+00 0. -1.
         23    2    1    0    0    0 -0.84972175192E+01  0.26607296045E+02  0.10526939306E+02  0.95240923640E+02  0.90442612613E+02 0.  0.
         13    1    3    3    0    0 -0.53917297866E+01 -0.30504508471E+02 -0.12737818827E+02  0.33494163367E+02  0.10566000000E+00 0.  1.
         22    1    1    0    0    0  0.84972175192E+01 -0.26607296045E+02 -0.10526939306E+02  0.29849076360E+02  0.00000000000E+00 0. -1.
</event>
<event>
 5    1  0.1258677E-009  0.9118800E+02  0.7561462E-02  0.1125453E+00
         25   -1    0    0    0    0  0.00000000000E+00  0.00000000000E+00  0.99999998245E-14  0.12509000000E+03  0.12509000000E+03 0.  0.
        -13    1    3    3    0    0  0.39251502174E+02 -0.16098308757E+02  0.33750722347E+02  0.54212160912E+02  0.10566000000E+00 0.  1.
         23    2    1    0    0    0  0.26967982569E+02 -0.33349289663E+01 -0.55813784805E+01  0.97349314702E+02  0.93313147263E+02 0.  0.
         13    1    3    3    0    0 -0.12283519605E+02  0.12763379791E+02 -0.39332100827E+02  0.43137153790E+02  0.10566000000E+00 0. -1.
         22    1    1    0    0    0 -0.26967982569E+02  0.33349289663E+01  0.55813784805E+01  0.27740685298E+02  0.00000000000E+00 0.  1.
</event>
<event>
 5    1  0.1258677E-009  0.9118800E+02  0.7561462E-02  0.1125453E+00
         25   -1    0    0    0    0  0.00000000000E+00  0.00000000000E+00  0.99999998245E-14  0.12509000000E+03  0.12509000000E+03 0.  0.
        -13    1    3    3    0    0  0.35113322786E+02  0.15467391161E+02  0.43514788844E+02  0.58014943235E+02  0.10566000000E+00 0.  1.
         23    2    1    0    0    0 -0.55957211437E+00  0.46994625594E+01  0.25040887477E+02  0.99605806567E+02  0.96290563333E+02 0.  0.
         13    1    3    3    0    0 -0.35672894901E+02 -0.10767928601E+02 -0.18473901367E+02  0.41590863332E+02  0.10566000000E+00 0. -1.
         22    1    1    0    0    0  0.55957211437E+00 -0.46994625594E+01 -0.25040887477E+02  0.25484193433E+02  0.00000000000E+00 0.  1.
</event>
<event>
 5    1  0.1258677E-009  0.9118800E+02  0.7561462E-02  0.1125453E+00
         25   -1    0    0    0    0  0.00000000000E+00  0.00000000000E+00  0.99999998245E-14  0.12509000000E+03  0.12509000000E+03 0.  0.
        -13    1    3    3    0    0  0.57665310000E+02  0.10667026202E+02  0.12268646638E+02  0.59913306366E+02  0.10566000000E+00 0. -1.
         23    2    1    0    0    0  0.22931552827E+02  0.13862689285E+02  0.14039325367E+02  0.94838835956E+02  0.89884770008E+02 0.  0.
         13    1    3    3    0    0 -0.34733757173E+02  0.31956630833E+01  0.17706787287E+01  0.34925529589E+02  0.10566000000E+00 0.  1.
         22    1    1    0    0    0 -0.22931552827E+02 -0.13862689285E+02 -0.14039325367E+02  0.30251164044E+02  0.00000000000E+00 0. -1.
</event>
<event>
 5    1  0.1258677E-009  0.9118800E+02  0.7561462E-02  0.1125453E+00
         25   -1    0    0    0    0  0.00000000000E+00  0.00000000000E+00  0.99999998245E-14  0.12509000000E+03  0.12509000000E+03 0.  0.
        -13    1    3    3    0    0  0.48284958560E+02 -0.32344160810E+02  0.93957071869E+01  0.58871660748E+02  0.10566000000E+00 0.  1.
         23    2    1    0    0    0  0.34748143462E+02 -0.12244888609E+02 -0.62564907612E+01  0.87720032811E+02  0.79361764777E+02 0.  0.
         13    1    3    3    0    0 -0.13536815098E+02  0.20099272201E+02 -0.15652197948E+02  0.28848372062E+02  0.10566000000E+00 0. -1.
         22    1    1    0    0    0 -0.34748143462E+02  0.12244888609E+02  0.62564907612E+01  0.37369967189E+02  0.00000000000E+00 0.  1.
</event>
<event>
 5    1  0.1258677E-009  0.9118800E+02  0.7561462E-02  0.1125453E+00
         25   -1    0    0    0    0  0.00000000000E+00  0.00000000000E+00  0.99999998245E-14  0.12509000000E+03  0.12509000000E+03 0.  0.
        -13    1    3    3    0    0 -0.28664052608E+02  0.78144963919E+01 -0.19256500321E+02  0.35405059447E+02  0.10566000000E+00 0.  1.
         23    2    1    0    0    0  0.25867354588E+02  0.12974678618E+02  0.56958250735E+01  0.95595852413E+02  0.90932184933E+02 0.  0.
         13    1    3    3    0    0  0.54531407195E+02  0.51601822266E+01  0.24952325395E+02  0.60190792967E+02  0.10566000000E+00 0. -1.
         22    1    1    0    0    0 -0.25867354588E+02 -0.12974678618E+02 -0.56958250735E+01  0.29494147587E+02  0.00000000000E+00 0. -1.
</event>
<event>
 5    1  0.1258677E-009  0.9118800E+02  0.7561462E-02  0.1125453E+00
         25   -1    0    0    0    0  0.00000000000E+00  0.00000000000E+00  0.99999998245E-14  0.12509000000E+03  0.12509000000E+03 0.  0.
        -13    1    3    3    0    0  0.10191911951E+02 -0.89116056090E+01  0.57550032167E+02  0.59121139622E+02  0.10566000000E+00 0. -1.
         23    2    1    0    0    0  0.73484123287E+01 -0.17001215643E+02  0.19221866174E+02  0.98396917820E+02  0.94707089493E+02 0.  0.
         13    1    3    3    0    0 -0.28434996224E+01 -0.80896100336E+01 -0.38328165993E+02  0.39275778198E+02  0.10566000000E+00 0.  1.
         22    1    1    0    0    0 -0.73484123287E+01  0.17001215643E+02 -0.19221866174E+02  0.26693082180E+02  0.00000000000E+00 0. -1.
</event>
<event>
 5    1  0.1258677E-009  0.9118800E+02  0.7561462E-02  0.1125453E+00
         25   -1    0    0    0    0  0.00000000000E+00  0.00000000000E+00  0.99999998245E-14  0.12509000000E+03  0.12509000000E+03 0.  0.
        -13    1    3    3    0    0 -0.42414858547E+01 -0.19663625458E+02 -0.43621982279E+02  0.48036828271E+02  0.10566000000E+00 0.  1.
         23    2    1    0    0    0  0.84236125723E+01 -0.28037369739E+02  0.16310819323E+01  0.95769157944E+02  0.91170279337E+02 0.  0.
         13    1    3    3    0    0  0.12665098427E+02 -0.83737442807E+01  0.45253064211E+02  0.47732329672E+02  0.10566000000E+00 0. -1.
         22    1    1    0    0    0 -0.84236125723E+01  0.28037369739E+02 -0.16310819323E+01  0.29320842056E+02  0.00000000000E+00 0. -1.
</event>
<event>
 5    1  0.1258677E-009  0.9118800E+02  0.7561462E-02  0.1125453E+00
         25   -1    0    0    0    0  0.00000000000E+00  0.00000000000E+00  0.99999998245E-14  0.12509000000E+03  0.12509000000E+03 0.  0.
        -13    1    3    3    0    0  0.20053982330E+02  0.10825014819E+02 -0.13515244440E+02  0.26495587357E+02  0.10566000000E+00 0. -1.
         23    2    1    0    0    0 -0.19040796009E+02 -0.31787094890E+02 -0.16774019600E+02  0.84416433058E+02  0.73971583210E+02 0.  0.
         13    1    3    3    0    0 -0.39094778339E+02 -0.42612109709E+02 -0.32587751606E+01  0.57920845701E+02  0.10566000000E+00 0.  1.
         22    1    1    0    0    0  0.19040796009E+02  0.31787094890E+02  0.16774019600E+02  0.40673566942E+02  0.00000000000E+00 0.  1.
</event>
<event>
 5    1  0.1258677E-009  0.9118800E+02  0.7561462E-02  0.1125453E+00
         25   -1    0    0    0    0  0.00000000000E+00  0.00000000000E+00  0.99999998245E-14  0.12509000000E+03  0.12509000000E+03 0.  0.
        -13    1    3    3    0    0  0.12333597594E+02 -0.13528696162E+02 -0.36691651222E+02  0.41005264088E+02  0.10566000000E+00 0. -1.
         23    2    1    0    0    0  0.25174225428E+02  0.11156587531E+01  0.14667248490E+02  0.95933276957E+02  0.91395181104E+02 0.  0.
         13    1    3    3    0    0  0.12840627834E+02  0.14644354915E+02  0.51358899712E+02  0.54928012869E+02  0.10566000000E+00 0.  1.
         22    1    1    0    0    0 -0.25174225428E+02 -0.11156587531E+01 -0.14667248490E+02  0.29156723043E+02  0.00000000000E+00 0.  1.
</event>
<event>
 5    1  0.1258677E-009  0.9118800E+02  0.7561462E-02  0.1125453E+00
         25   -1    0    0    0    0  0.00000000000E+00  0.00000000000E+00  0.99999998245E-14  0.12509000000E+03  0.12509000000E+03 0.  0.
        -13    1    3    3    0    0 -0.24158220929E+02 -0.12291986027E+02  0.35255382736E+02  0.44470953833E+02  0.10566000000E+00 0. -1.
         23    2    1    0    0    0 -0.24845127267E+02  0.13686111771E+02 -0.86016103512E+01  0.95449188524E+02  0.90730203819E+02 0.  0.
         13    1    3    3    0    0 -0.68690633722E+00  0.25978097798E+02 -0.43856993087E+02  0.50978234691E+02  0.10566000000E+00 0.  1.
         22    1    1    0    0    0  0.24845127267E+02 -0.13686111771E+02  0.86016103512E+01  0.29640811476E+02  0.00000000000E+00 0.  1.
</event>
<event>
 5    1  0.1258677E-009  0.9118800E+02  0.7561462E-02  0.1125453E+00
         25   -1    0    0    0    0  0.00000000000E+00  0.00000000000E+00  0.99999998245E-14  0.12509000000E+03  0.12509000000E+03 0.  0.
        -13    1    3    3    0    0 -0.85371046253E+01  0.47676888094E+02 -0.29801218528E+01  0.48526900828E+02  0.10566000000E+00 0. -1.
         23    2    1    0    0    0 -0.21713946378E+02  0.36149599620E+01 -0.17730480165E+02  0.96824591287E+02  0.92607063166E+02 0.  0.
         13    1    3    3    0    0 -0.13176841753E+02 -0.44061928132E+02 -0.14750358312E+02  0.48297690459E+02  0.10566000000E+00 0.  1.
         22    1    1    0    0    0  0.21713946378E+02 -0.36149599620E+01  0.17730480165E+02  0.28265408713E+02  0.00000000000E+00 0.  1.
</event>
<event>
 5    1  0.1258677E-009  0.9118800E+02  0.7561462E-02  0.1125453E+00
         25   -1    0    0    0    0  0.00000000000E+00  0.00000000000E+00  0.99999998245E-14  0.12509000000E+03  0.12509000000E+03 0.  0.
        -13    1    3    3    0    0 -0.11754860844E+02  0.22944115940E+02 -0.26495292759E+02  0.36967836185E+02  0.10566000000E+00 0. -1.
         23    2    1    0    0    0 -0.13242423370E+02 -0.13254378546E+02  0.21157628218E+02  0.96828974555E+02  0.92612983724E+02 0.  0.
         13    1    3    3    0    0 -0.14875625260E+01 -0.36198494486E+02  0.47652920977E+02  0.59861138371E+02  0.10566000000E+00 0.  1.
         22    1    1    0    0    0  0.13242423370E+02  0.13254378546E+02 -0.21157628218E+02  0.28261025445E+02  0.00000000000E+00 0.  1.
</event>
<event>
 5    1  0.1258677E-009  0.9118800E+02  0.7561462E-02  0.1125453E+00
         25   -1    0    0    0    0  0.00000000000E+00  0.00000000000E+00  0.99999998245E-14  0.12509000000E+03  0.12509000000E+03 0.  0.
        -13    1    3    3    0    0  0.30767545806E+02  0.80788244098E+01 -0.48048743868E+02  0.57624666854E+02  0.10566000000E+00 0.  1.
         23    2    1    0    0    0  0.55836636558E+01  0.18534343947E+02 -0.25905274042E+02  0.92751440531E+02  0.86931279135E+02 0.  0.
         13    1    3    3    0    0 -0.25183882150E+02  0.10455519537E+02  0.22143469826E+02  0.35126773677E+02  0.10566000000E+00 0. -1.
         22    1    1    0    0    0 -0.55836636558E+01 -0.18534343947E+02  0.25905274042E+02  0.32338559469E+02  0.00000000000E+00 0.  1.
</event>
<event>
 5    1  0.1258677E-009  0.9118800E+02  0.7561462E-02  0.1125453E+00
         25   -1    0    0    0    0  0.00000000000E+00  0.00000000000E+00  0.99999998245E-14  0.12509000000E+03  0.12509000000E+03 0.  0.
        -13    1    3    3    0    0  0.36964809866E+02 -0.27281516041E+02 -0.29073573507E+02  0.54368760574E+02  0.10566000000E+00 0. -1.
         23    2    1    0    0    0 -0.28924834908E+01 -0.23335321912E+02 -0.16558672158E+02  0.96330769602E+02  0.91937608404E+02 0.  0.
         13    1    3    3    0    0 -0.39857293357E+02  0.39461941294E+01  0.12514901349E+02  0.41962009028E+02  0.10566000000E+00 0.  1.
         22    1    1    0    0    0  0.28924834908E+01  0.23335321912E+02  0.16558672158E+02  0.28759230398E+02  0.00000000000E+00 0.  1.
</event>
<event>
 5    1  0.1258677E-009  0.9118800E+02  0.7561462E-02  0.1125453E+00
         25   -1    0    0    0    0  0.00000000000E+00  0.00000000000E+00  0.99999998245E-14  0.12509000000E+03  0.12509000000E+03 0.  0.
        -13    1    3    3    0    0  0.38211732533E+02  0.31209310486E+02  0.36630462825E+02  0.61448836726E+02  0.10566000000E+00 0.  1.
         23    2    1    0    0    0  0.21355663059E+02  0.70895603238E+01  0.17974304395E+02  0.96290662702E+02  0.91883022887E+02 0.  0.
         13    1    3    3    0    0 -0.16856069474E+02 -0.24119750162E+02 -0.18656158429E+02  0.34841825976E+02  0.10566000000E+00 0. -1.
         22    1    1    0    0    0 -0.21355663059E+02 -0.70895603238E+01 -0.17974304395E+02  0.28799337298E+02  0.00000000000E+00 0.  1.
</event>
<event>
 5    1  0.1258677E-009  0.9118800E+02  0.7561462E-02  0.1125453E+00
         25   -1    0    0    0    0  0.00000000000E+00  0.00000000000E+00  0.99999998245E-14  0.12509000000E+03  0.12509000000E+03 0.  0.
        -13    1    3    3    0    0 -0.49841783911E+02  0.42808631844E+00 -0.13721807064E+02  0.51698025440E+02  0.10566000000E+00 0. -1.
         23    2    1    0    0    0 -0.93587578081E+01  0.10855125506E+02 -0.26114765789E+02  0.95300721901E+02  0.90525281028E+02 0.  0.
         13    1    3    3    0    0  0.40483026102E+02  0.10427039187E+02 -0.12392958725E+02  0.43602696460E+02  0.10566000000E+00 0.  1.
         22    1    1    0    0    0  0.93587578081E+01 -0.10855125506E+02  0.26114765789E+02  0.29789278099E+02  0.00000000000E+00 0. -1.
</event>
<event>
 5    1  0.1258677E-009  0.9118800E+02  0.7561462E-02  0.1125453E+00
         25   -1    0    0    0    0  0.00000000000E+00  0.00000000000E+00  0.99999998245E-14  0.12509000000E+03  0.12509000000E+03 0.  0.
        -13    1    3    3    0    0  0.36933140493E+02 -0.33094264495E+02 -0.32882054615E+02  0.59502335155E+02  0.10566000000E+00 0. -1.
         23    2    1    0    0    0  0.25958425945E+02 -0.71928780522E+01 -0.81814310239E+01  0.96938389285E+02  0.92760649693E+02 0.  0.
         13    1    3    3    0    0 -0.10974714548E+02  0.25901386442E+02  0.24700623591E+02  0.37436054131E+02  0.10566000000E+00 0.  1.
         22    1    1    0    0    0 -0.25958425945E+02  0.71928780522E+01  0.81814310239E+01  0.28151610715E+02  0.00000000000E+00 0. -1.
</event>
<event>
 5    1  0.1258677E-009  0.9118800E+02  0.7561462E-02  0.1125453E+00
         25   -1    0    0    0    0  0.00000000000E+00  0.00000000000E+00  0.99999998245E-14  0.12509000000E+03  0.12509000000E+03 0.  0.
        -13    1    3    3    0    0 -0.15657031032E+02  0.20689618865E+02  0.23789868789E+02  0.35201874532E+02  0.10566000000E+00 0.  1.
         23    2    1    0    0    0 -0.42795523256E+01 -0.15578873585E+02 -0.23933944627E+02  0.96213546345E+02  0.91777976250E+02 0.  0.
         13    1    3    3    0    0  0.11377478707E+02 -0.36268492451E+02 -0.47723813416E+02  0.61011671813E+02  0.10566000000E+00 0. -1.
         22    1    1    0    0    0  0.42795523256E+01  0.15578873585E+02  0.23933944627E+02  0.28876453655E+02  0.00000000000E+00 0. -1.
</event>
<event>
 5    1  0.1258677E-009  0.9118800E+02  0.7561462E-02  0.1125453E+00
         25   -1    0    0    0    0  0.00000000000E+00  0.00000000000E+00  0.99999998245E-14  0.12509000000E+03  0.12509000000E+03 0.  0.
        -13    1    3    3    0    0 -0.19794583178E+02  0.18504732879E+01 -0.87028813321E+01  0.21702559345E+02  0.10566000000E+00 0.  1.
         23    2    1    0    0    0  0.29724871733E+02  0.31298060266E+02 -0.14375761071E+02  0.79594955409E+02  0.65311238269E+02 0.  0.
         13    1    3    3    0    0  0.49519454911E+02  0.29447586978E+02 -0.56728797392E+01  0.57892396064E+02  0.10566000000E+00 0. -1.
         22    1    1    0    0    0 -0.29724871733E+02 -0.31298060266E+02  0.14375761071E+02  0.45495044591E+02  0.00000000000E+00 0. -1.
</event>
<event>
 5    1  0.1258677E-009  0.9118800E+02  0.7561462E-02  0.1125453E+00
         25   -1    0    0    0    0  0.00000000000E+00  0.00000000000E+00  0.99999998245E-14  0.12509000000E+03  0.12509000000E+03 0.  0.
        -13    1    3    3    0    0 -0.20361171551E+02 -0.37613612861E+02  0.29593840356E+01  0.42873421805E+02  0.10566000000E+00 0. -1.
         23    2    1    0    0    0  0.14227036311E+02 -0.87238729519E+01 -0.24351008220E+02  0.95569056201E+02  0.90895315502E+02 0.  0.
         13    1    3    3    0    0  0.34588207861E+02  0.28889739909E+02 -0.27310392256E+02  0.52695634395E+02  0.10566000000E+00 0.  1.
         22    1    1    0    0    0 -0.14227036311E+02  0.87238729519E+01  0.24351008220E+02  0.29520943799E+02  0.00000000000E+00 0.  1.
</event>
<event>
 5    1  0.1258677E-009  0.9118800E+02  0.7561462E-02  0.1125453E+00
         25   -1    0    0    0    0  0.00000000000E+00  0.00000000000E+00  0.99999998245E-14  0.12509000000E+03  0.12509000000E+03 0.  0.
        -13    1    3    3    0    0 -0.12219921906E+02 -0.42168891715E+02 -0.76998484408E+01  0.44573991855E+02  0.10566000000E+00 0.  1.
         23    2    1    0    0    0 -0.25445161477E+02  0.77022238856E+01 -0.11098925946E+02  0.96280858178E+02  0.91869673990E+02 0.  0.
         13    1    3    3    0    0 -0.13225239570E+02  0.49871115601E+02 -0.33990775057E+01  0.51706866323E+02  0.10566000000E+00 0. -1.
         22    1    1    0    0    0  0.25445161477E+02 -0.77022238856E+01  0.11098925946E+02  0.28809141822E+02  0.00000000000E+00 0. -1.
</event>
<event>
 5    1  0.1258677E-009  0.9118800E+02  0.7561462E-02  0.1125453E+00
         25   -1    0    0    0    0  0.00000000000E+00  0.00000000000E+00  0.99999998245E-14  0.12509000000E+03  0.12509000000E+03 0.  0.
        -13    1    3    3    0    0  0.24744724622E+02 -0.37865392663E+02  0.10648941816E+02  0.46470425907E+02  0.10566000000E+00 0.  1.
         23    2    1    0    0    0  0.18935602122E+02 -0.26359775581E+01 -0.22758163533E+02  0.95367291295E+02  0.90617221520E+02 0.  0.
         13    1    3    3    0    0 -0.58091225004E+01  0.35229415105E+02 -0.33407105349E+02  0.48896865387E+02  0.10566000000E+00 0. -1.
         22    1    1    0    0    0 -0.18935602122E+02  0.26359775581E+01  0.22758163533E+02  0.29722708705E+02  0.00000000000E+00 0.  1.
</event>
<event>
 5    1  0.1258677E-009  0.9118800E+02  0.7561462E-02  0.1125453E+00
         25   -1    0    0    0    0  0.00000000000E+00  0.00000000000E+00  0.99999998245E-14  0.12509000000E+03  0.12509000000E+03 0.  0.
        -13    1    3    3    0    0 -0.16520995285E+02  0.26682354058E+02 -0.20823782891E+02  0.37663409314E+02  0.10566000000E+00 0.  1.
         23    2    1    0    0    0  0.21069947306E+02  0.51306309489E+01  0.18807481151E+02  0.96384819272E+02  0.92011118814E+02 0.  0.
         13    1    3    3    0    0  0.37590942591E+02 -0.21551723109E+02  0.39631264041E+02  0.58721409957E+02  0.10566000000E+00 0. -1.
         22    1    1    0    0    0 -0.21069947306E+02 -0.51306309489E+01 -0.18807481151E+02  0.28705180728E+02  0.00000000000E+00 0. -1.
</event>
<event>
 5    1  0.1258677E-009  0.9118800E+02  0.7561462E-02  0.1125453E+00
         25   -1    0    0    0    0  0.00000000000E+00  0.00000000000E+00  0.99999998245E-14  0.12509000000E+03  0.12509000000E+03 0.  0.
        -13    1    3    3    0    0  0.22308211155E+02 -0.43323407058E+02 -0.10295614899E+02  0.49805468919E+02  0.10566000000E+00 0. -1.
         23    2    1    0    0    0 -0.98098193786E+01 -0.41175610184E+02 -0.43610200251E+01  0.82537891639E+02  0.70723557817E+02 0.  0.
         13    1    3    3    0    0 -0.32118030534E+02  0.21477968739E+01  0.59345948741E+01  0.32732422720E+02  0.10566000000E+00 0.  1.
         22    1    1    0    0    0  0.98098193786E+01  0.41175610184E+02  0.43610200251E+01  0.42552108361E+02  0.00000000000E+00 0. -1.
</event>
<event>
 5    1  0.1258677E-009  0.9118800E+02  0.7561462E-02  0.1125453E+00
         25   -1    0    0    0    0  0.00000000000E+00  0.00000000000E+00  0.99999998245E-14  0.12509000000E+03  0.12509000000E+03 0.  0.
        -13    1    3    3    0    0  0.17775487631E+02 -0.40314608153E+02  0.20819027523E+02  0.48730674755E+02  0.10566000000E+00 0.  1.
         23    2    1    0    0    0  0.49505905419E+01  0.65267597257E+01  0.26243071631E+02  0.97598078498E+02  0.93646031303E+02 0.  0.
         13    1    3    3    0    0 -0.12824897089E+02  0.46841367879E+02  0.54240441076E+01  0.48867403743E+02  0.10566000000E+00 0. -1.
         22    1    1    0    0    0 -0.49505905419E+01 -0.65267597257E+01 -0.26243071631E+02  0.27491921502E+02  0.00000000000E+00 0. -1.
</event>
<event>
 5    1  0.1258677E-009  0.9118800E+02  0.7561462E-02  0.1125453E+00
         25   -1    0    0    0    0  0.00000000000E+00  0.00000000000E+00  0.99999998245E-14  0.12509000000E+03  0.12509000000E+03 0.  0.
        -13    1    3    3    0    0 -0.86304692191E+01  0.41933539001E+02  0.12899725499E+02  0.44713764929E+02  0.10566000000E+00 0. -1.
         23    2    1    0    0    0 -0.73114235597E+00 -0.69948459207E+01  0.27757840543E+02  0.96455053690E+02  0.92106553687E+02 0.  0.
         13    1    3    3    0    0  0.78993268631E+01 -0.48928384922E+02  0.14858115044E+02  0.51741288761E+02  0.10566000000E+00 0.  1.
         22    1    1    0    0    0  0.73114235597E+00  0.69948459207E+01 -0.27757840543E+02  0.28634946310E+02  0.00000000000E+00 0. -1.
</event>
<event>
 5    1  0.1258677E-009  0.9118800E+02  0.7561462E-02  0.1125453E+00
         25   -1    0    0    0    0  0.00000000000E+00  0.00000000000E+00  0.99999998245E-14  0.12509000000E+03  0.12509000000E+03 0.  0.
        -13    1    3    3    0    0  0.19961634742E+02  0.44777762320E+02  0.24741463650E+02  0.54915080329E+02  0.10566000000E+00 0. -1.
         23    2    1    0    0    0 -0.99847451647E+01  0.26929799618E+02  0.25164485313E+01  0.96258736471E+02  0.91839548073E+02 0.  0.
         13    1    3    3    0    0 -0.29946379907E+02 -0.17847962702E+02 -0.22225015119E+02  0.41343656142E+02  0.10566000000E+00 0.  1.
         22    1    1    0    0    0  0.99847451647E+01 -0.26929799618E+02 -0.25164485313E+01  0.28831263529E+02  0.00000000000E+00 0. -1.
</event>
<event>
 5    1  0.1258677E-009  0.9118800E+02  0.7561462E-02  0.1125453E+00
         25   -1    0    0    0    0  0.00000000000E+00  0.00000000000E+00  0.99999998245E-14  0.12509000000E+03  0.12509000000E+03 0.  0.
        -13    1    3    3    0    0 -0.43049675779E+01 -0.34154431967E+02 -0.28789183789E+02  0.44876343836E+02  0.10566000000E+00 0.  1.
         23    2    1    0    0    0  0.14905042100E+02  0.13307398067E+02 -0.19984489635E+02  0.96830011513E+02  0.92614384306E+02 0.  0.
         13    1    3    3    0    0  0.19210009678E+02  0.47461830034E+02  0.88046941542E+01  0.51953667677E+02  0.10566000000E+00 0. -1.
         22    1    1    0    0    0 -0.14905042100E+02 -0.13307398067E+02  0.19984489635E+02  0.28259988487E+02  0.00000000000E+00 0.  1.
</event>
<event>
 5    1  0.1258677E-009  0.9118800E+02  0.7561462E-02  0.1125453E+00
         25   -1    0    0    0    0  0.00000000000E+00  0.00000000000E+00  0.99999998245E-14  0.12509000000E+03  0.12509000000E+03 0.  0.
        -13    1    3    3    0    0  0.77994946838E+01 -0.21408558422E+02  0.24836176453E+02  0.33704677952E+02  0.10566000000E+00 0.  1.
         23    2    1    0    0    0 -0.62231093621E+01  0.25383741091E+02 -0.13382553803E+02  0.95727538451E+02  0.91113157500E+02 0.  0.
         13    1    3    3    0    0 -0.14022604046E+02  0.46792299513E+02 -0.38218730256E+02  0.62022860499E+02  0.10566000000E+00 0. -1.
         22    1    1    0    0    0  0.62231093621E+01 -0.25383741091E+02  0.13382553803E+02  0.29362461549E+02  0.00000000000E+00 0. -1.
</event>
<event>
 5    1  0.1258677E-009  0.9118800E+02  0.7561462E-02  0.1125453E+00
         25   -1    0    0    0    0  0.00000000000E+00  0.00000000000E+00  0.99999998245E-14  0.12509000000E+03  0.12509000000E+03 0.  0.
        -13    1    3    3    0    0  0.67125727474E+01  0.10995915354E+02  0.14074671552E+02  0.19080784331E+02  0.10566000000E+00 0. -1.
         23    2    1    0    0    0 -0.20007620176E+02  0.21311148331E+02 -0.37179626848E+02  0.77795237490E+02  0.61768150492E+02 0.  0.
         13    1    3    3    0    0 -0.26720192924E+02  0.10315232977E+02 -0.51254298400E+02  0.58714453159E+02  0.10566000000E+00 0.  1.
         22    1    1    0    0    0  0.20007620176E+02 -0.21311148331E+02  0.37179626848E+02  0.47294762510E+02  0.00000000000E+00 0.  1.
</event>
<event>
 5    1  0.1258677E-009  0.9118800E+02  0.7561462E-02  0.1125453E+00
         25   -1    0    0    0    0  0.00000000000E+00  0.00000000000E+00  0.99999998245E-14  0.12509000000E+03  0.12509000000E+03 0.  0.
        -13    1    3    3    0    0 -0.13898328842E+02  0.16925041007E+01  0.42690469979E+02  0.44927892292E+02  0.10566000000E+00 0. -1.
         23    2    1    0    0    0  0.26766181813E+02  0.18563880737E+01  0.13015065453E+02  0.95269426661E+02  0.90482026182E+02 0.  0.
         13    1    3    3    0    0  0.40664510655E+02  0.16388397297E+00 -0.29675404526E+02  0.50341534369E+02  0.10566000000E+00 0.  1.
         22    1    1    0    0    0 -0.26766181813E+02 -0.18563880737E+01 -0.13015065453E+02  0.29820573339E+02  0.00000000000E+00 0.  1.
</event>
<event>
 5    1  0.1258677E-009  0.9118800E+02  0.7561462E-02  0.1125453E+00
         25   -1    0    0    0    0  0.00000000000E+00  0.00000000000E+00  0.99999998245E-14  0.12509000000E+03  0.12509000000E+03 0.  0.
        -13    1    3    3    0    0  0.54133431768E+01  0.22827303864E+02 -0.27875146788E+02  0.36433844959E+02  0.10566000000E+00 0.  1.
         23    2    1    0    0    0 -0.30657427115E+01 -0.28770139281E+02  0.94836418845E+00  0.96141440670E+02  0.91679646198E+02 0.  0.
         13    1    3    3    0    0 -0.84790858882E+01 -0.51597443145E+02  0.28823510976E+02  0.59707595711E+02  0.10566000000E+00 0. -1.
         22    1    1    0    0    0  0.30657427115E+01  0.28770139281E+02 -0.94836418845E+00  0.28948559330E+02  0.00000000000E+00 0. -1.
</event>
<event>
 5    1  0.1258677E-009  0.9118800E+02  0.7561462E-02  0.1125453E+00
         25   -1    0    0    0    0  0.00000000000E+00  0.00000000000E+00  0.99999998245E-14  0.12509000000E+03  0.12509000000E+03 0.  0.
        -13    1    3    3    0    0  0.25729266435E+02  0.28530722812E+01 -0.22437484090E+02  0.34257656503E+02  0.10566000000E+00 0. -1.
         23    2    1    0    0    0 -0.53119873291E+01 -0.62052930865E+01  0.28970530055E+02  0.94989925526E+02  0.90094791570E+02 0.  0.
         13    1    3    3    0    0 -0.31041253764E+02 -0.90583653677E+01  0.51408014145E+02  0.60732269023E+02  0.10566000000E+00 0.  1.
         22    1    1    0    0    0  0.53119873291E+01  0.62052930865E+01 -0.28970530055E+02  0.30100074474E+02  0.00000000000E+00 0.  1.
</event>
<event>
 5    1  0.1258677E-009  0.9118800E+02  0.7561462E-02  0.1125453E+00
         25   -1    0    0    0    0  0.00000000000E+00  0.00000000000E+00  0.99999998245E-14  0.12509000000E+03  0.12509000000E+03 0.  0.
        -13    1    3    3    0    0  0.45958971941E+02 -0.22242003678E+01  0.37267150571E+02  0.59211703614E+02  0.10566000000E+00 0. -1.
         23    2    1    0    0    0  0.22925820804E+02  0.12387047103E+02  0.11967998647E+02  0.96414833268E+02  0.92051914087E+02 0.  0.
         13    1    3    3    0    0 -0.23033151138E+02  0.14611247471E+02 -0.25299151924E+02  0.37203129654E+02  0.10566000000E+00 0.  1.
         22    1    1    0    0    0 -0.22925820804E+02 -0.12387047103E+02 -0.11967998647E+02  0.28675166732E+02  0.00000000000E+00 0. -1.
</event>
<event>
 5    1  0.1258677E-009  0.9118800E+02  0.7561462E-02  0.1125453E+00
         25   -1    0    0    0    0  0.00000000000E+00  0.00000000000E+00  0.99999998245E-14  0.12509000000E+03  0.12509000000E+03 0.  0.
        -13    1    3    3    0    0 -0.40667929660E+01 -0.57951309936E+01  0.41104174505E+02  0.41709551352E+02  0.10566000000E+00 0. -1.
         23    2    1    0    0    0  0.13955418518E+02  0.23106972812E+02 -0.35414862607E+01  0.97864496819E+02  0.94001232514E+02 0.  0.
         13    1    3    3    0    0  0.18022211484E+02  0.28902103805E+02 -0.44645660765E+02  0.56154945467E+02  0.10566000000E+00 0.  1.
         22    1    1    0    0    0 -0.13955418518E+02 -0.23106972812E+02  0.35414862607E+01  0.27225503181E+02  0.00000000000E+00 0.  1.
</event>
<event>
 5    1  0.1258677E-009  0.9118800E+02  0.7561462E-02  0.1125453E+00
         25   -1    0    0    0    0  0.00000000000E+00  0.00000000000E+00  0.99999998245E-14  0.12509000000E+03  0.12509000000E+03 0.  0.
        -13    1    3    3    0    0 -0.31848369632E+02 -0.46890775508E+02 -0.84767256950E+01  0.57314304658E+02  0.10566000000E+00 0. -1.
         23    2    1    0    0    0  0.54392151277E+00 -0.30764843384E+02 -0.76827246150E+00  0.94310758918E+02  0.89146831497E+02 0.  0.
         13    1    3    3    0    0  0.32392291144E+02  0.16125932124E+02  0.77084532335E+01  0.36996454259E+02  0.10566000000E+00 0.  1.
         22    1    1    0    0    0 -0.54392151277E+00  0.30764843384E+02  0.76827246150E+00  0.30779241082E+02  0.00000000000E+00 0. -1.
</event>
<event>
 5    1  0.1258677E-009  0.9118800E+02  0.7561462E-02  0.1125453E+00
         25   -1    0    0    0    0  0.00000000000E+00  0.00000000000E+00  0.99999998245E-14  0.12509000000E+03  0.12509000000E+03 0.  0.
        -13    1    3    3    0    0 -0.37040030530E+02  0.38805700853E+02 -0.23812139533E+02  0.58693061204E+02  0.10566000000E+00 0.  1.
         23    2    1    0    0    0 -0.87009211669E+01  0.30259000891E+02 -0.66442902858E+01  0.92911439475E+02  0.87161205980E+02 0.  0.
         13    1    3    3    0    0  0.28339109363E+02 -0.85466999619E+01  0.17167849247E+02  0.34218378271E+02  0.10566000000E+00 0. -1.
         22    1    1    0    0    0  0.87009211669E+01 -0.30259000891E+02  0.66442902858E+01  0.32178560525E+02  0.00000000000E+00 0.  1.
</event>
<event>
 5    1  0.1258677E-009  0.9118800E+02  0.7561462E-02  0.1125453E+00
         25   -1    0    0    0    0  0.00000000000E+00  0.00000000000E+00  0.99999998245E-14  0.12509000000E+03  0.12509000000E+03 0.  0.
        -13    1    3    3    0    0  0.46826568850E+02  0.18035626236E+02  0.10067033810E+02  0.51179758672E+02  0.10566000000E+00 0.  1.
         23    2    1    0    0    0  0.22345842707E+02 -0.18497393483E+02  0.69096509031E+01  0.95269981093E+02  0.90482792673E+02 0.  0.
         13    1    3    3    0    0 -0.24480726143E+02 -0.36533019719E+02 -0.31573829069E+01  0.44090222421E+02  0.10566000000E+00 0. -1.
         22    1    1    0    0    0 -0.22345842707E+02  0.18497393483E+02 -0.69096509031E+01  0.29820018907E+02  0.00000000000E+00 0.  1.
</event>
<event>
 5    1  0.1258677E-009  0.9118800E+02  0.7561462E-02  0.1125453E+00
         25   -1    0    0    0    0  0.00000000000E+00  0.00000000000E+00  0.99999998245E-14  0.12509000000E+03  0.12509000000E+03 0.  0.
        -13    1    3    3    0    0  0.27819825875E+02 -0.47198823807E+01  0.45110854515E+02  0.53209213117E+02  0.10566000000E+00 0.  1.
         23    2    1    0    0    0  0.12606457551E+02 -0.24267147640E+02  0.10441431608E+02  0.95818158230E+02  0.91237485312E+02 0.  0.
         13    1    3    3    0    0 -0.15213368325E+02 -0.19547265259E+02 -0.34669422907E+02  0.42608945113E+02  0.10566000000E+00 0. -1.
         22    1    1    0    0    0 -0.12606457551E+02  0.24267147640E+02 -0.10441431608E+02  0.29271841770E+02  0.00000000000E+00 0.  1.
</event>
<event>
 5    1  0.1258677E-009  0.9118800E+02  0.7561462E-02  0.1125453E+00
         25   -1    0    0    0    0  0.00000000000E+00  0.00000000000E+00  0.99999998245E-14  0.12509000000E+03  0.12509000000E+03 0.  0.
        -13    1    3    3    0    0  0.29690089879E+02  0.31001273407E+02 -0.22853183924E+02  0.48629821811E+02  0.10566000000E+00 0.  1.
         23    2    1    0    0    0  0.12050227280E+02  0.18227235858E+02  0.19209222485E+02  0.95996455476E+02  0.91481610889E+02 0.  0.
         13    1    3    3    0    0 -0.17639862599E+02 -0.12774037549E+02  0.42062406408E+02  0.47366633665E+02  0.10566000000E+00 0. -1.
         22    1    1    0    0    0 -0.12050227280E+02 -0.18227235858E+02 -0.19209222485E+02  0.29093544524E+02  0.00000000000E+00 0. -1.
</event>
<event>
 5    1  0.1258677E-009  0.9118800E+02  0.7561462E-02  0.1125453E+00
         25   -1    0    0    0    0  0.00000000000E+00  0.00000000000E+00  0.99999998245E-14  0.12509000000E+03  0.12509000000E+03 0.  0.
        -13    1    3    3    0    0 -0.84326788509E+01 -0.58111842761E+01 -0.32146913301E+02  0.33738926096E+02  0.10566000000E+00 0.  1.
         23    2    1    0    0    0  0.13638564590E+02 -0.23373084141E+02  0.18915196495E+02  0.92073395620E+02  0.85950066994E+02 0.  0.
         13    1    3    3    0    0  0.22071243441E+02 -0.17561899865E+02  0.51062109795E+02  0.58334469524E+02  0.10566000000E+00 0. -1.
         22    1    1    0    0    0 -0.13638564590E+02  0.23373084141E+02 -0.18915196495E+02  0.33016604380E+02  0.00000000000E+00 0. -1.
</event>
<event>
 5    1  0.1258677E-009  0.9118800E+02  0.7561462E-02  0.1125453E+00
         25   -1    0    0    0    0  0.00000000000E+00  0.00000000000E+00  0.99999998245E-14  0.12509000000E+03  0.12509000000E+03 0.  0.
        -13    1    3    3    0    0  0.24633924886E+02  0.28274797772E+02 -0.46708991814E+02  0.59900213060E+02  0.10566000000E+00 0. -1.
         23    2    1    0    0    0  0.13823974021E+02  0.22571267162E+02 -0.13313757065E+02  0.95461964523E+02  0.90747816417E+02 0.  0.
         13    1    3    3    0    0 -0.10809950865E+02 -0.57035306099E+01  0.33395234749E+02  0.35561751463E+02  0.10566000000E+00 0.  1.
         22    1    1    0    0    0 -0.13823974021E+02 -0.22571267162E+02  0.13313757065E+02  0.29628035477E+02  0.00000000000E+00 0. -1.
</event>
<event>
 5    1  0.1258677E-009  0.9118800E+02  0.7561462E-02  0.1125453E+00
         25   -1    0    0    0    0  0.00000000000E+00  0.00000000000E+00  0.99999998245E-14  0.12509000000E+03  0.12509000000E+03 0.  0.
        -13    1    3    3    0    0 -0.20402570504E+02 -0.14006592629E+02  0.20799669177E+02  0.32327804166E+02  0.10566000000E+00 0. -1.
         23    2    1    0    0    0  0.16966662230E+02  0.15037819839E+02 -0.20032253672E+02  0.94836159914E+02  0.89881045763E+02 0.  0.
         13    1    3    3    0    0  0.37369232734E+02  0.29044412468E+02 -0.40831922850E+02  0.62508355749E+02  0.10566000000E+00 0.  1.
         22    1    1    0    0    0 -0.16966662230E+02 -0.15037819839E+02  0.20032253672E+02  0.30253840086E+02  0.00000000000E+00 0.  1.
</event>
<event>
 5    1  0.1258677E-009  0.9118800E+02  0.7561462E-02  0.1125453E+00
         25   -1    0    0    0    0  0.00000000000E+00  0.00000000000E+00  0.99999998245E-14  0.12509000000E+03  0.12509000000E+03 0.  0.
        -13    1    3    3    0    0 -0.40686598397E+02 -0.28933799913E+02  0.65221464303E+01  0.50349911863E+02  0.10566000000E+00 0. -1.
         23    2    1    0    0    0 -0.46687128338E+01 -0.36443386671E+02  0.91191023838E+01  0.87234018441E+02  0.78591975630E+02 0.  0.
         13    1    3    3    0    0  0.36017885564E+02 -0.75095867578E+01  0.25969559535E+01  0.36884106577E+02  0.10566000000E+00 0.  1.
         22    1    1    0    0    0  0.46687128338E+01  0.36443386671E+02 -0.91191023838E+01  0.37855981559E+02  0.00000000000E+00 0.  1.
</event>
<event>
 5    1  0.1258677E-009  0.9118800E+02  0.7561462E-02  0.1125453E+00
         25   -1    0    0    0    0  0.00000000000E+00  0.00000000000E+00  0.99999998245E-14  0.12509000000E+03  0.12509000000E+03 0.  0.
        -13    1    3    3    0    0  0.46336055079E+02  0.81295127652E+01 -0.87129324165E+01  0.47843968621E+02  0.10566000000E+00 0. -1.
         23    2    1    0    0    0  0.12709187174E+02 -0.25012486070E+02 -0.10606241674E+02  0.95095996258E+02  0.90241942819E+02 0.  0.
         13    1    3    3    0    0 -0.33626867904E+02 -0.33141998835E+02 -0.18933092576E+01  0.47252027637E+02  0.10566000000E+00 0.  1.
         22    1    1    0    0    0 -0.12709187174E+02  0.25012486070E+02  0.10606241674E+02  0.29994003742E+02  0.00000000000E+00 0.  1.
</event>
<event>
 5    1  0.1258677E-009  0.9118800E+02  0.7561462E-02  0.1125453E+00
         25   -1    0    0    0    0  0.00000000000E+00  0.00000000000E+00  0.99999998245E-14  0.12509000000E+03  0.12509000000E+03 0.  0.
        -13    1    3    3    0    0 -0.79548242691E+01 -0.85032395858E+01 -0.45942846953E+02  0.47395576405E+02  0.10566000000E+00 0. -1.
         23    2    1    0    0    0 -0.20672163117E+02  0.58845743353E+01  0.60003889219E+01  0.10277473145E+03  0.10032284992E+03 0.  0.
         13    1    3    3    0    0 -0.12717338848E+02  0.14387813921E+02  0.51943235875E+02  0.55379155049E+02  0.10566000000E+00 0.  1.
         22    1    1    0    0    0  0.20672163117E+02 -0.58845743353E+01 -0.60003889219E+01  0.22315268546E+02  0.00000000000E+00 0.  1.
</event>
<event>
 5    1  0.1258677E-009  0.9118800E+02  0.7561462E-02  0.1125453E+00
         25   -1    0    0    0    0  0.00000000000E+00  0.00000000000E+00  0.99999998245E-14  0.12509000000E+03  0.12509000000E+03 0.  0.
        -13    1    3    3    0    0 -0.52661589732E+02  0.27127879130E+02  0.59432711485E+01  0.59535690936E+02  0.10566000000E+00 0.  1.
         23    2    1    0    0    0 -0.17079703783E+02  0.22449493367E+02  0.88096139352E+01  0.95538260094E+02  0.90852924061E+02 0.  0.
         13    1    3    3    0    0  0.35581885949E+02 -0.46783857631E+01  0.28663427867E+01  0.36002569159E+02  0.10566000000E+00 0. -1.
         22    1    1    0    0    0  0.17079703783E+02 -0.22449493367E+02 -0.88096139352E+01  0.29551739906E+02  0.00000000000E+00 0.  1.
</event>
<event>
 5    1  0.1258677E-009  0.9118800E+02  0.7561462E-02  0.1125453E+00
         25   -1    0    0    0    0  0.00000000000E+00  0.00000000000E+00  0.99999998245E-14  0.12509000000E+03  0.12509000000E+03 0.  0.
        -13    1    3    3    0    0 -0.40479823175E+02 -0.86099027833E+01  0.45986333871E+02  0.61866797050E+02  0.10566000000E+00 0.  1.
         23    2    1    0    0    0 -0.20383925504E+02 -0.10863244185E+02  0.22763402125E+02  0.92660276451E+02  0.86799999207E+02 0.  0.
         13    1    3    3    0    0  0.20095897671E+02 -0.22533414020E+01 -0.23222931747E+02  0.30793479401E+02  0.10566000000E+00 0. -1.
         22    1    1    0    0    0  0.20383925504E+02  0.10863244185E+02 -0.22763402125E+02  0.32429723549E+02  0.00000000000E+00 0.  1.
</event>
<event>
 5    1  0.1258677E-009  0.9118800E+02  0.7561462E-02  0.1125453E+00
         25   -1    0    0    0    0  0.00000000000E+00  0.00000000000E+00  0.99999998245E-14  0.12509000000E+03  0.12509000000E+03 0.  0.
        -13    1    3    3    0    0 -0.35099230802E+02  0.38191965237E+02 -0.13670087751E+02  0.53642004760E+02  0.10566000000E+00 0. -1.
         23    2    1    0    0    0 -0.19690602712E+02  0.12135514706E+02  0.16730236127E+02  0.96543698082E+02  0.92226863148E+02 0.  0.
         13    1    3    3    0    0  0.15408628090E+02 -0.26056450531E+02  0.30400323878E+02  0.42901693322E+02  0.10566000000E+00 0.  1.
         22    1    1    0    0    0  0.19690602712E+02 -0.12135514706E+02 -0.16730236127E+02  0.28546301918E+02  0.00000000000E+00 0. -1.
</event>
<event>
 5    1  0.1258677E-009  0.9118800E+02  0.7561462E-02  0.1125453E+00
         25   -1    0    0    0    0  0.00000000000E+00  0.00000000000E+00  0.99999998245E-14  0.12509000000E+03  0.12509000000E+03 0.  0.
        -13    1    3    3    0    0 -0.18613024406E+01  0.37465490904E+02 -0.11381168583E+02  0.39200377776E+02  0.10566000000E+00 0.  1.
         23    2    1    0    0    0 -0.25791537432E+02 -0.11596783305E+02  0.53820783763E+01  0.96303622079E+02  0.91900664153E+02 0.  0.
         13    1    3    3    0    0 -0.23930234992E+02 -0.49062274209E+02  0.16763246959E+02  0.57103244303E+02  0.10566000000E+00 0. -1.
         22    1    1    0    0    0  0.25791537432E+02  0.11596783305E+02 -0.53820783763E+01  0.28786377921E+02  0.00000000000E+00 0. -1.
</event>
<event>
 5    1  0.1258677E-009  0.9118800E+02  0.7561462E-02  0.1125453E+00
         25   -1    0    0    0    0  0.00000000000E+00  0.00000000000E+00  0.99999998245E-14  0.12509000000E+03  0.12509000000E+03 0.  0.
        -13    1    3    3    0    0  0.14081570459E+02  0.20380826852E+02  0.24546798017E+02  0.34874420234E+02  0.10566000000E+00 0.  1.
         23    2    1    0    0    0  0.42665731217E+01 -0.26929828995E+02 -0.11843372985E+02  0.95363163311E+02  0.90611522982E+02 0.  0.
         13    1    3    3    0    0 -0.98149973378E+01 -0.47310655847E+02 -0.36390171002E+02  0.60488743076E+02  0.10566000000E+00 0. -1.
         22    1    1    0    0    0 -0.42665731217E+01  0.26929828995E+02  0.11843372985E+02  0.29726836689E+02  0.00000000000E+00 0. -1.
</event>
<event>
 5    1  0.1258677E-009  0.9118800E+02  0.7561462E-02  0.1125453E+00
         25   -1    0    0    0    0  0.00000000000E+00  0.00000000000E+00  0.99999998245E-14  0.12509000000E+03  0.12509000000E+03 0.  0.
        -13    1    3    3    0    0  0.20757922608E+02 -0.30599664116E+02 -0.16934717945E+02  0.40669726221E+02  0.10566000000E+00 0. -1.
         23    2    1    0    0    0 -0.14196810177E+02  0.10942496197E+02 -0.23693143390E+02  0.95380528683E+02  0.90635492860E+02 0.  0.
         13    1    3    3    0    0 -0.34954732785E+02  0.41542160313E+02 -0.67584254445E+01  0.54710802462E+02  0.10566000000E+00 0.  1.
         22    1    1    0    0    0  0.14196810177E+02 -0.10942496197E+02  0.23693143390E+02  0.29709471317E+02  0.00000000000E+00 0.  1.
</event>
<event>
 5    1  0.1258677E-009  0.9118800E+02  0.7561462E-02  0.1125453E+00
         25   -1    0    0    0    0  0.00000000000E+00  0.00000000000E+00  0.99999998245E-14  0.12509000000E+03  0.12509000000E+03 0.  0.
        -13    1    3    3    0    0  0.26354385308E+02 -0.25565703288E+01  0.40374930205E+02  0.48282873049E+02  0.10566000000E+00 0.  1.
         23    2    1    0    0    0 -0.16929938929E+02 -0.26772271785E+01  0.26108363380E+02  0.93858012937E+02  0.88509262660E+02 0.  0.
         13    1    3    3    0    0 -0.43284324238E+02 -0.12065684973E+00 -0.14266566825E+02  0.45575139888E+02  0.10566000000E+00 0. -1.
         22    1    1    0    0    0  0.16929938929E+02  0.26772271785E+01 -0.26108363380E+02  0.31231987063E+02  0.00000000000E+00 0. -1.
</event>
<event>
 5    1  0.1258677E-009  0.9118800E+02  0.7561462E-02  0.1125453E+00
         25   -1    0    0    0    0  0.00000000000E+00  0.00000000000E+00  0.99999998245E-14  0.12509000000E+03  0.12509000000E+03 0.  0.
        -13    1    3    3    0    0  0.20957223019E+02  0.74785494057E+01 -0.40812493315E+02  0.46484456246E+02  0.10566000000E+00 0.  1.
         23    2    1    0    0    0  0.12297933035E+02 -0.25800390866E+02 -0.51077345416E+01  0.96055739583E+02  0.91562638827E+02 0.  0.
         13    1    3    3    0    0 -0.86592899841E+01 -0.33278940272E+02  0.35704758773E+02  0.49571283337E+02  0.10566000000E+00 0. -1.
         22    1    1    0    0    0 -0.12297933035E+02  0.25800390866E+02  0.51077345416E+01  0.29034260417E+02  0.00000000000E+00 0. -1.
</event>
<event>
 5    1  0.1258677E-009  0.9118800E+02  0.7561462E-02  0.1125453E+00
         25   -1    0    0    0    0  0.00000000000E+00  0.00000000000E+00  0.99999998245E-14  0.12509000000E+03  0.12509000000E+03 0.  0.
        -13    1    3    3    0    0  0.37136956564E+02 -0.15646747784E+02 -0.18671414910E+01  0.40341934019E+02  0.10566000000E+00 0.  1.
         23    2    1    0    0    0 -0.14008964472E+02 -0.16161339629E+02  0.19850112553E+02  0.95910093342E+02  0.91363444837E+02 0.  0.
         13    1    3    3    0    0 -0.51145921035E+02 -0.51459184469E+00  0.21717254044E+02  0.55568159323E+02  0.10566000000E+00 0. -1.
         22    1    1    0    0    0  0.14008964472E+02  0.16161339629E+02 -0.19850112553E+02  0.29179906658E+02  0.00000000000E+00 0. -1.
</event>
<event>
 5    1  0.1258677E-009  0.9118800E+02  0.7561462E-02  0.1125453E+00
         25   -1    0    0    0    0  0.00000000000E+00  0.00000000000E+00  0.99999998245E-14  0.12509000000E+03  0.12509000000E+03 0.  0.
        -13    1    3    3    0    0 -0.92255790444E+00 -0.30041990658E+02  0.19119160210E+02  0.35621984321E+02  0.10566000000E+00 0.  1.
         23    2    1    0    0    0 -0.21840612341E+01  0.28515744645E+02  0.32395149833E+01  0.96307848005E+02  0.91906416065E+02 0.  0.
         13    1    3    3    0    0 -0.12615033297E+01  0.58557735303E+02 -0.15879645227E+02  0.60685863684E+02  0.10566000000E+00 0. -1.
         22    1    1    0    0    0  0.21840612341E+01 -0.28515744645E+02 -0.32395149833E+01  0.28782151995E+02  0.00000000000E+00 0. -1.
</event>
<event>
 5    1  0.1258677E-009  0.9118800E+02  0.7561462E-02  0.1125453E+00
         25   -1    0    0    0    0  0.00000000000E+00  0.00000000000E+00  0.99999998245E-14  0.12509000000E+03  0.12509000000E+03 0.  0.
        -13    1    3    3    0    0 -0.84430235909E+01  0.15001099854E+02 -0.31345510750E+02  0.35761289859E+02  0.10566000000E+00 0.  1.
         23    2    1    0    0    0  0.20417069392E+02 -0.22711687100E+02  0.30509734758E+01  0.94398211316E+02  0.89269459543E+02 0.  0.
         13    1    3    3    0    0  0.28860092983E+02 -0.37712786953E+02  0.34396484226E+02  0.58636921457E+02  0.10566000000E+00 0. -1.
         22    1    1    0    0    0 -0.20417069392E+02  0.22711687100E+02 -0.30509734758E+01  0.30691788684E+02  0.00000000000E+00 0. -1.
</event>
<event>
 5    1  0.1258677E-009  0.9118800E+02  0.7561462E-02  0.1125453E+00
         25   -1    0    0    0    0  0.00000000000E+00  0.00000000000E+00  0.99999998245E-14  0.12509000000E+03  0.12509000000E+03 0.  0.
        -13    1    3    3    0    0  0.29074080312E+02 -0.64613756463E+01 -0.12904489640E+02  0.32459028608E+02  0.10566000000E+00 0.  1.
         23    2    1    0    0    0 -0.20867840931E+02  0.97782723113E+01  0.20121577057E+02  0.94496548777E+02  0.89407150010E+02 0.  0.
         13    1    3    3    0    0 -0.49941921243E+02  0.16239647958E+02  0.33026066697E+02  0.62037520169E+02  0.10566000000E+00 0. -1.
         22    1    1    0    0    0  0.20867840931E+02 -0.97782723113E+01 -0.20121577057E+02  0.30593451223E+02  0.00000000000E+00 0. -1.
</event>
<event>
 5    1  0.1258677E-009  0.9118800E+02  0.7561462E-02  0.1125453E+00
         25   -1    0    0    0    0  0.00000000000E+00  0.00000000000E+00  0.99999998245E-14  0.12509000000E+03  0.12509000000E+03 0.  0.
        -13    1    3    3    0    0  0.24742734202E+02  0.39309361319E+02  0.41202538860E+02  0.62089364271E+02  0.10566000000E+00 0. -1.
         23    2    1    0    0    0  0.67627007139E+01  0.19935969065E+02  0.20974258737E+02  0.95373060166E+02  0.90625184648E+02 0.  0.
         13    1    3    3    0    0 -0.17980033488E+02 -0.19373392254E+02 -0.20228280123E+02  0.33283695895E+02  0.10566000000E+00 0.  1.
         22    1    1    0    0    0 -0.67627007139E+01 -0.19935969065E+02 -0.20974258737E+02  0.29716939834E+02  0.00000000000E+00 0. -1.
</event>
<event>
 5    1  0.1258677E-009  0.9118800E+02  0.7561462E-02  0.1125453E+00
         25   -1    0    0    0    0  0.00000000000E+00  0.00000000000E+00  0.99999998245E-14  0.12509000000E+03  0.12509000000E+03 0.  0.
        -13    1    3    3    0    0 -0.19384406178E+02  0.22428497845E+02  0.19924769375E+02  0.35718347066E+02  0.10566000000E+00 0.  1.
         23    2    1    0    0    0  0.27958165277E+02 -0.93074372695E+01  0.16297417676E+01  0.95578248910E+02  0.90907965615E+02 0.  0.
         13    1    3    3    0    0  0.47342571455E+02 -0.31735935114E+02 -0.18295027608E+02  0.59859901844E+02  0.10566000000E+00 0. -1.
         22    1    1    0    0    0 -0.27958165277E+02  0.93074372695E+01 -0.16297417676E+01  0.29511751090E+02  0.00000000000E+00 0. -1.
</event>
<event>
 5    1  0.1258677E-009  0.9118800E+02  0.7561462E-02  0.1125453E+00
         25   -1    0    0    0    0  0.00000000000E+00  0.00000000000E+00  0.99999998245E-14  0.12509000000E+03  0.12509000000E+03 0.  0.
        -13    1    3    3    0    0  0.19382358867E+02  0.29857829303E+02  0.26308128997E+02  0.44263920085E+02  0.10566000000E+00 0.  1.
         23    2    1    0    0    0 -0.21997785957E+02  0.18162666205E+02 -0.31529930938E+01  0.96389365928E+02  0.92017299830E+02 0.  0.
         13    1    3    3    0    0 -0.41380144823E+02 -0.11695163098E+02 -0.29461122091E+02  0.52125445843E+02  0.10566000000E+00 0. -1.
         22    1    1    0    0    0  0.21997785957E+02 -0.18162666205E+02  0.31529930938E+01  0.28700634072E+02  0.00000000000E+00 0. -1.
</event>
<event>
 5    1  0.1258677E-009  0.9118800E+02  0.7561462E-02  0.1125453E+00
         25   -1    0    0    0    0  0.00000000000E+00  0.00000000000E+00  0.99999998245E-14  0.12509000000E+03  0.12509000000E+03 0.  0.
        -13    1    3    3    0    0  0.20339485273E+02 -0.25530815122E+02 -0.33382724311E+02  0.46689770062E+02  0.10566000000E+00 0.  1.
         23    2    1    0    0    0  0.27223174181E+02 -0.50711898233E+01  0.10404038939E+02  0.95508549648E+02  0.90812008297E+02 0.  0.
         13    1    3    3    0    0  0.68836889072E+01  0.20459625299E+02  0.43786763249E+02  0.48818779586E+02  0.10566000000E+00 0. -1.
         22    1    1    0    0    0 -0.27223174181E+02  0.50711898233E+01 -0.10404038939E+02  0.29581450352E+02  0.00000000000E+00 0.  1.
</event>
<event>
 5    1  0.1258677E-009  0.9118800E+02  0.7561462E-02  0.1125453E+00
         25   -1    0    0    0    0  0.00000000000E+00  0.00000000000E+00  0.99999998245E-14  0.12509000000E+03  0.12509000000E+03 0.  0.
        -13    1    3    3    0    0  0.55452326546E+02  0.28363865303E+02 -0.84956358707E-01  0.62285534082E+02  0.10566000000E+00 0. -1.
         23    2    1    0    0    0  0.27467620077E+02  0.10230055453E+02 -0.21831154834E+01  0.95697991214E+02  0.91072582822E+02 0.  0.
         13    1    3    3    0    0 -0.27984706469E+02 -0.18133809849E+02 -0.20981591247E+01  0.33412457131E+02  0.10566000000E+00 0.  1.
         22    1    1    0    0    0 -0.27467620077E+02 -0.10230055453E+02  0.21831154834E+01  0.29392008786E+02  0.00000000000E+00 0. -1.
</event>
<event>
 5    1  0.1258677E-009  0.9118800E+02  0.7561462E-02  0.1125453E+00
         25   -1    0    0    0    0  0.00000000000E+00  0.00000000000E+00  0.99999998245E-14  0.12509000000E+03  0.12509000000E+03 0.  0.
        -13    1    3    3    0    0 -0.41631154675E+02 -0.93549280073E+01  0.69219403321E+01  0.43227215265E+02  0.10566000000E+00 0.  1.
         23    2    1    0    0    0  0.70898823916E+01 -0.95538744940E+01  0.26738136589E+02  0.95824475942E+02  0.91246146719E+02 0.  0.
         13    1    3    3    0    0  0.48721037067E+02 -0.19894648661E+00  0.19816196257E+02  0.52597260676E+02  0.10566000000E+00 0. -1.
         22    1    1    0    0    0 -0.70898823916E+01  0.95538744940E+01 -0.26738136589E+02  0.29265524058E+02  0.00000000000E+00 0. -1.
</event>
<event>
 5    1  0.1258677E-009  0.9118800E+02  0.7561462E-02  0.1125453E+00
         25   -1    0    0    0    0  0.00000000000E+00  0.00000000000E+00  0.99999998245E-14  0.12509000000E+03  0.12509000000E+03 0.  0.
        -13    1    3    3    0    0  0.19735588325E+02  0.16163544780E+02 -0.37592041920E+02  0.45430456812E+02  0.10566000000E+00 0. -1.
         23    2    1    0    0    0 -0.10160563033E+02  0.27733562578E+02  0.92098942738E+00  0.95539437299E+02  0.90854544870E+02 0.  0.
         13    1    3    3    0    0 -0.29896151357E+02  0.11570017799E+02  0.38513031348E+02  0.50108980487E+02  0.10566000000E+00 0.  1.
         22    1    1    0    0    0  0.10160563033E+02 -0.27733562578E+02 -0.92098942738E+00  0.29550562701E+02  0.00000000000E+00 0. -1.
</event>
<event>
 5    1  0.1258677E-009  0.9118800E+02  0.7561462E-02  0.1125453E+00
         25   -1    0    0    0    0  0.00000000000E+00  0.00000000000E+00  0.99999998245E-14  0.12509000000E+03  0.12509000000E+03 0.  0.
        -13    1    3    3    0    0 -0.84133506394E+01 -0.31642446295E+02  0.32158851258E+02  0.45893700600E+02  0.10566000000E+00 0.  1.
         23    2    1    0    0    0  0.17513100685E+02 -0.20816662574E+02 -0.96151081664E+01  0.96237054893E+02  0.91810011944E+02 0.  0.
         13    1    3    3    0    0  0.25926451324E+02  0.10825783721E+02 -0.41773959424E+02  0.50343354293E+02  0.10566000000E+00 0. -1.
         22    1    1    0    0    0 -0.17513100685E+02  0.20816662574E+02  0.96151081664E+01  0.28852945107E+02  0.00000000000E+00 0. -1.
</event>
<event>
 5    1  0.1258677E-009  0.9118800E+02  0.7561462E-02  0.1125453E+00
         25   -1    0    0    0    0  0.00000000000E+00  0.00000000000E+00  0.99999998245E-14  0.12509000000E+03  0.12509000000E+03 0.  0.
        -13    1    3    3    0    0 -0.13722770242E+01 -0.29397869952E+02 -0.38975636866E+02  0.48838809722E+02  0.10566000000E+00 0. -1.
         23    2    1    0    0    0  0.25706291185E+02 -0.13885911893E+02 -0.41852688358E+01  0.95574776287E+02  0.90903187136E+02 0.  0.
         13    1    3    3    0    0  0.27078568209E+02  0.15511958059E+02  0.34790368030E+02  0.46735966565E+02  0.10566000000E+00 0.  1.
         22    1    1    0    0    0 -0.25706291185E+02  0.13885911893E+02  0.41852688358E+01  0.29515223713E+02  0.00000000000E+00 0. -1.
</event>
<event>
 5    1  0.1258677E-009  0.9118800E+02  0.7561462E-02  0.1125453E+00
         25   -1    0    0    0    0  0.00000000000E+00  0.00000000000E+00  0.99999998245E-14  0.12509000000E+03  0.12509000000E+03 0.  0.
        -13    1    3    3    0    0  0.97300094683E+01  0.42942719229E+02  0.37001780023E+02  0.57514286121E+02  0.10566000000E+00 0. -1.
         23    2    1    0    0    0  0.12439073533E+02  0.57600307998E+01  0.24821268477E+02  0.96735037930E+02  0.92486018886E+02 0.  0.
         13    1    3    3    0    0  0.27090640644E+01 -0.37182688429E+02 -0.12180511547E+02  0.39220751810E+02  0.10566000000E+00 0.  1.
         22    1    1    0    0    0 -0.12439073533E+02 -0.57600307998E+01 -0.24821268477E+02  0.28354962070E+02  0.00000000000E+00 0. -1.
</event>
<event>
 5    1  0.1258677E-009  0.9118800E+02  0.7561462E-02  0.1125453E+00
         25   -1    0    0    0    0  0.00000000000E+00  0.00000000000E+00  0.99999998245E-14  0.12509000000E+03  0.12509000000E+03 0.  0.
        -13    1    3    3    0    0  0.31338751879E+02  0.13169696595E+02 -0.14744012935E+02  0.37053412248E+02  0.10566000000E+00 0.  1.
         23    2    1    0    0    0  0.21611022482E+01  0.15960875474E+02  0.30288772314E+02  0.90785049379E+02  0.84054122764E+02 0.  0.
         13    1    3    3    0    0 -0.29177649631E+02  0.27911788790E+01  0.45032785249E+02  0.53731637131E+02  0.10566000000E+00 0. -1.
         22    1    1    0    0    0 -0.21611022482E+01 -0.15960875474E+02 -0.30288772314E+02  0.34304950621E+02  0.00000000000E+00 0. -1.
</event>
<event>
 5    1  0.1258677E-009  0.9118800E+02  0.7561462E-02  0.1125453E+00
         25   -1    0    0    0    0  0.00000000000E+00  0.00000000000E+00  0.99999998245E-14  0.12509000000E+03  0.12509000000E+03 0.  0.
        -13    1    3    3    0    0 -0.27024645615E+02 -0.19665783692E+02  0.35720169414E+02  0.48918464672E+02  0.10566000000E+00 0.  1.
         23    2    1    0    0    0 -0.26231375265E+02  0.13403104090E+02  0.29427825001E+01  0.95486145245E+02  0.90781141859E+02 0.  0.
         13    1    3    3    0    0  0.79327035009E+00  0.33068887782E+02 -0.32777386914E+02  0.46567680573E+02  0.10566000000E+00 0. -1.
         22    1    1    0    0    0  0.26231375265E+02 -0.13403104090E+02 -0.29427825001E+01  0.29603854755E+02  0.00000000000E+00 0. -1.
</event>
<event>
 5    1  0.1258677E-009  0.9118800E+02  0.7561462E-02  0.1125453E+00
         25   -1    0    0    0    0  0.00000000000E+00  0.00000000000E+00  0.99999998245E-14  0.12509000000E+03  0.12509000000E+03 0.  0.
        -13    1    3    3    0    0 -0.55597480156E+01  0.20334114529E+01 -0.37474808597E+02  0.37939662670E+02  0.10566000000E+00 0. -1.
         23    2    1    0    0    0 -0.21492795563E+02 -0.15208236446E+02  0.14544062528E+02  0.95010763445E+02  0.90123718846E+02 0.  0.
         13    1    3    3    0    0 -0.15933047547E+02 -0.17241647899E+02  0.52018871125E+02  0.57071100774E+02  0.10566000000E+00 0.  1.
         22    1    1    0    0    0  0.21492795563E+02  0.15208236446E+02 -0.14544062528E+02  0.30079236555E+02  0.00000000000E+00 0.  1.
</event>
<event>
 5    1  0.1258677E-009  0.9118800E+02  0.7561462E-02  0.1125453E+00
         25   -1    0    0    0    0  0.00000000000E+00  0.00000000000E+00  0.99999998245E-14  0.12509000000E+03  0.12509000000E+03 0.  0.
        -13    1    3    3    0    0 -0.33944870691E+02 -0.27292656294E+01  0.69793682601E+00  0.34061729506E+02  0.10566000000E+00 0. -1.
         23    2    1    0    0    0  0.26357264423E+02 -0.23608690453E+01  0.12998970494E+02  0.95606914605E+02  0.90947401259E+02 0.  0.
         13    1    3    3    0    0  0.60302135115E+02  0.36839658407E+00  0.12301033668E+02  0.61545185098E+02  0.10566000000E+00 0.  1.
         22    1    1    0    0    0 -0.26357264423E+02  0.23608690453E+01 -0.12998970494E+02  0.29483085395E+02  0.00000000000E+00 0.  1.
</event>
<event>
 5    1  0.1258677E-009  0.9118800E+02  0.7561462E-02  0.1125453E+00
         25   -1    0    0    0    0  0.00000000000E+00  0.00000000000E+00  0.99999998245E-14  0.12509000000E+03  0.12509000000E+03 0.  0.
        -13    1    3    3    0    0  0.33169190388E+02 -0.75253471738E+01 -0.11437563072E+02  0.35883910798E+02  0.10566000000E+00 0.  1.
         23    2    1    0    0    0 -0.14831705998E+02 -0.59684432801E+01  0.24477419333E+02  0.95853962731E+02  0.91286561420E+02 0.  0.
         13    1    3    3    0    0 -0.48000896386E+02  0.15569038937E+01  0.35914982405E+02  0.59970051933E+02  0.10566000000E+00 0. -1.
         22    1    1    0    0    0  0.14831705998E+02  0.59684432801E+01 -0.24477419333E+02  0.29236037269E+02  0.00000000000E+00 0. -1.
</event>
<event>
 5    1  0.1258677E-009  0.9118800E+02  0.7561462E-02  0.1125453E+00
         25   -1    0    0    0    0  0.00000000000E+00  0.00000000000E+00  0.99999998245E-14  0.12509000000E+03  0.12509000000E+03 0.  0.
        -13    1    3    3    0    0  0.19862262885E+02 -0.54241734089E+02  0.51047487509E+01  0.57989178540E+02  0.10566000000E+00 0. -1.
         23    2    1    0    0    0  0.47891594486E+00 -0.23989278795E+02  0.16828102870E+02  0.95783005889E+02  0.91189277404E+02 0.  0.
         13    1    3    3    0    0 -0.19383346940E+02  0.30252455294E+02  0.11723354119E+02  0.37793827350E+02  0.10566000000E+00 0.  1.
         22    1    1    0    0    0 -0.47891594486E+00  0.23989278795E+02 -0.16828102870E+02  0.29306994111E+02  0.00000000000E+00 0. -1.
</event>
<event>
 5    1  0.1258677E-009  0.9118800E+02  0.7561462E-02  0.1125453E+00
         25   -1    0    0    0    0  0.00000000000E+00  0.00000000000E+00  0.99999998245E-14  0.12509000000E+03  0.12509000000E+03 0.  0.
        -13    1    3    3    0    0  0.16956528555E+02  0.29909037127E+02  0.10556039455E+02  0.35965476439E+02  0.10566000000E+00 0.  1.
         23    2    1    0    0    0 -0.18511710096E+02 -0.16739043721E+02  0.16960058774E+02  0.94915133157E+02  0.89990887946E+02 0.  0.
         13    1    3    3    0    0 -0.35468238651E+02 -0.46648080847E+02  0.64040193186E+01  0.58949656718E+02  0.10566000000E+00 0. -1.
         22    1    1    0    0    0  0.18511710096E+02  0.16739043721E+02 -0.16960058774E+02  0.30174866843E+02  0.00000000000E+00 0. -1.
</event>
<event>
 5    1  0.1258677E-009  0.9118800E+02  0.7561462E-02  0.1125453E+00
         25   -1    0    0    0    0  0.00000000000E+00  0.00000000000E+00  0.99999998245E-14  0.12509000000E+03  0.12509000000E+03 0.  0.
        -13    1    3    3    0    0 -0.50784107270E+02 -0.78894171005E+00 -0.15480686115E+02  0.53097182475E+02  0.10566000000E+00 0. -1.
         23    2    1    0    0    0 -0.19267295608E+02 -0.22900926421E+02  0.13863053457E+01  0.95129977412E+02  0.90289033935E+02 0.  0.
         13    1    3    3    0    0  0.31516811662E+02 -0.22111984711E+02  0.16866991460E+02  0.42032794936E+02  0.10566000000E+00 0.  1.
         22    1    1    0    0    0  0.19267295608E+02  0.22900926421E+02 -0.13863053457E+01  0.29960022588E+02  0.00000000000E+00 0. -1.
</event>
<event>
 5    1  0.1258677E-009  0.9118800E+02  0.7561462E-02  0.1125453E+00
         25   -1    0    0    0    0  0.00000000000E+00  0.00000000000E+00  0.99999998245E-14  0.12509000000E+03  0.12509000000E+03 0.  0.
        -13    1    3    3    0    0 -0.41749998683E+02 -0.27672922043E+02  0.15291678349E+02  0.52370789523E+02  0.10566000000E+00 0.  1.
         23    2    1    0    0    0 -0.29041477377E+02  0.86011759981E+01 -0.24474624393E+01  0.94702869349E+02  0.89695349677E+02 0.  0.
         13    1    3    3    0    0  0.12708521306E+02  0.36274098041E+02 -0.17739140788E+02  0.42332079826E+02  0.10566000000E+00 0. -1.
         22    1    1    0    0    0  0.29041477377E+02 -0.86011759981E+01  0.24474624393E+01  0.30387130651E+02  0.00000000000E+00 0.  1.
</event>
<event>
 5    1  0.1258677E-009  0.9118800E+02  0.7561462E-02  0.1125453E+00
         25   -1    0    0    0    0  0.00000000000E+00  0.00000000000E+00  0.99999998245E-14  0.12509000000E+03  0.12509000000E+03 0.  0.
        -13    1    3    3    0    0  0.26680378912E+02  0.17796536355E+02 -0.13352355569E+01  0.32099117483E+02  0.10566000000E+00 0. -1.
         23    2    1    0    0    0 -0.13768145084E+02 -0.20385426880E+02 -0.22635243975E+02  0.91661244146E+02  0.85348122184E+02 0.  0.
         13    1    3    3    0    0 -0.40448523996E+02 -0.38181963236E+02 -0.21300008419E+02  0.59562126663E+02  0.10566000000E+00 0.  1.
         22    1    1    0    0    0  0.13768145084E+02  0.20385426880E+02  0.22635243975E+02  0.33428755854E+02  0.00000000000E+00 0.  1.
</event>
<event>
 5    1  0.1258677E-009  0.9118800E+02  0.7561462E-02  0.1125453E+00
         25   -1    0    0    0    0  0.00000000000E+00  0.00000000000E+00  0.99999998245E-14  0.12509000000E+03  0.12509000000E+03 0.  0.
        -13    1    3    3    0    0  0.28147092218E+01  0.27393404345E+02 -0.23583712546E+02  0.36256362905E+02  0.10566000000E+00 0.  1.
         23    2    1    0    0    0 -0.14006295647E+02  0.91119732966E+01  0.27415016582E+02  0.92984120331E+02  0.87265452067E+02 0.  0.
         13    1    3    3    0    0 -0.16821004869E+02 -0.18281431048E+02  0.50998729128E+02  0.56727757427E+02  0.10566000000E+00 0. -1.
         22    1    1    0    0    0  0.14006295647E+02 -0.91119732966E+01 -0.27415016582E+02  0.32105879669E+02  0.00000000000E+00 0. -1.
</event>
<event>
 5    1  0.1258677E-009  0.9118800E+02  0.7561462E-02  0.1125453E+00
         25   -1    0    0    0    0  0.00000000000E+00  0.00000000000E+00  0.99999998245E-14  0.12509000000E+03  0.12509000000E+03 0.  0.
        -13    1    3    3    0    0 -0.33023869394E+02 -0.18963549089E+02  0.50686634688E+01  0.38417374418E+02  0.10566000000E+00 0. -1.
         23    2    1    0    0    0  0.12155218077E+02 -0.20605532543E+01  0.29955606519E+02  0.92696581407E+02  0.86852303576E+02 0.  0.
         13    1    3    3    0    0  0.45179087471E+02  0.16902995835E+02  0.24886943050E+02  0.54279206989E+02  0.10566000000E+00 0.  1.
         22    1    1    0    0    0 -0.12155218077E+02  0.20605532543E+01 -0.29955606519E+02  0.32393418593E+02  0.00000000000E+00 0. -1.
</event>
<event>
 5    1  0.1258677E-009  0.9118800E+02  0.7561462E-02  0.1125453E+00
         25   -1    0    0    0    0  0.00000000000E+00  0.00000000000E+00  0.99999998245E-14  0.12509000000E+03  0.12509000000E+03 0.  0.
        -13    1    3    3    0    0 -0.18412574129E+02  0.15160555369E+02 -0.41505036221E+02  0.47870079600E+02  0.10566000000E+00 0.  1.
         23    2    1    0    0    0 -0.21771893986E+02 -0.17715227593E+02 -0.59763651741E+01  0.96392237072E+02  0.92021202832E+02 0.  0.
         13    1    3    3    0    0 -0.33593198570E+01 -0.32875782962E+02  0.35528671047E+02  0.48522157472E+02  0.10566000000E+00 0. -1.
         22    1    1    0    0    0  0.21771893986E+02  0.17715227593E+02  0.59763651741E+01  0.28697762928E+02  0.00000000000E+00 0. -1.
</event>
<event>
 5    1  0.1258677E-009  0.9118800E+02  0.7561462E-02  0.1125453E+00
         25   -1    0    0    0    0  0.00000000000E+00  0.00000000000E+00  0.99999998245E-14  0.12509000000E+03  0.12509000000E+03 0.  0.
        -13    1    3    3    0    0 -0.90271517451E+01 -0.29252539802E+02 -0.19992635061E+02  0.36563877997E+02  0.10566000000E+00 0.  1.
         23    2    1    0    0    0  0.22879932386E+02  0.43253323451E+01  0.17341650685E+02  0.96056697495E+02  0.91563947486E+02 0.  0.
         13    1    3    3    0    0  0.31907084131E+02  0.33577872147E+02  0.37334285745E+02  0.59492819498E+02  0.10566000000E+00 0. -1.
         22    1    1    0    0    0 -0.22879932386E+02 -0.43253323451E+01 -0.17341650685E+02  0.29033302505E+02  0.00000000000E+00 0. -1.
</event>
<event>
 5    1  0.1258677E-009  0.9118800E+02  0.7561462E-02  0.1125453E+00
         25   -1    0    0    0    0  0.00000000000E+00  0.00000000000E+00  0.99999998245E-14  0.12509000000E+03  0.12509000000E+03 0.  0.
        -13    1    3    3    0    0  0.31461367039E+02  0.19932417300E+02 -0.27588123544E+02  0.46349051771E+02  0.10566000000E+00 0. -1.
         23    2    1    0    0    0  0.11219596486E+02  0.16908439829E+02  0.19035377403E+02  0.97266982988E+02  0.93202712965E+02 0.  0.
         13    1    3    3    0    0 -0.20241770552E+02 -0.30239774712E+01  0.46623500947E+02  0.50917931217E+02  0.10566000000E+00 0.  1.
         22    1    1    0    0    0 -0.11219596486E+02 -0.16908439829E+02 -0.19035377403E+02  0.27823017012E+02  0.00000000000E+00 0. -1.
</event>
<event>
 5    1  0.1258677E-009  0.9118800E+02  0.7561462E-02  0.1125453E+00
         25   -1    0    0    0    0  0.00000000000E+00  0.00000000000E+00  0.99999998245E-14  0.12509000000E+03  0.12509000000E+03 0.  0.
        -13    1    3    3    0    0  0.12760869883E+02 -0.24868158296E+02 -0.52002787059E+02  0.59038683277E+02  0.10566000000E+00 0. -1.
         23    2    1    0    0    0 -0.76866679969E+01 -0.17101885685E+02 -0.21687759830E+02  0.96420882725E+02  0.92060134369E+02 0.  0.
         13    1    3    3    0    0 -0.20447537880E+02  0.77662726108E+01  0.30315027228E+02  0.37382199447E+02  0.10566000000E+00 0.  1.
         22    1    1    0    0    0  0.76866679969E+01  0.17101885685E+02  0.21687759830E+02  0.28669117275E+02  0.00000000000E+00 0. -1.
</event>
<event>
 5    1  0.1258677E-009  0.9118800E+02  0.7561462E-02  0.1125453E+00
         25   -1    0    0    0    0  0.00000000000E+00  0.00000000000E+00  0.99999998245E-14  0.12509000000E+03  0.12509000000E+03 0.  0.
        -13    1    3    3    0    0  0.31585513560E+02  0.13211953367E+02 -0.11113494581E+02  0.35996129021E+02  0.10566000000E+00 0.  1.
         23    2    1    0    0    0  0.50326994541E+01 -0.15891753293E+02  0.28632242526E+02  0.91958727785E+02  0.85783019400E+02 0.  0.
         13    1    3    3    0    0 -0.26552814106E+02 -0.29103706659E+02  0.39745737107E+02  0.55962598765E+02  0.10566000000E+00 0. -1.
         22    1    1    0    0    0 -0.50326994541E+01  0.15891753293E+02 -0.28632242526E+02  0.33131272215E+02  0.00000000000E+00 0. -1.
</event>
<event>
 5    1  0.1258677E-009  0.9118800E+02  0.7561462E-02  0.1125453E+00
         25   -1    0    0    0    0  0.00000000000E+00  0.00000000000E+00  0.99999998245E-14  0.12509000000E+03  0.12509000000E+03 0.  0.
        -13    1    3    3    0    0  0.24683007038E+02  0.65738068001E+01  0.24763445783E+02  0.35576750602E+02  0.10566000000E+00 0. -1.
         23    2    1    0    0    0  0.13512174473E+02 -0.14935154086E+02 -0.26219718622E+02  0.92027765787E+02  0.85883632576E+02 0.  0.
         13    1    3    3    0    0 -0.11170832565E+02 -0.21508960886E+02 -0.50983164405E+02  0.56451015185E+02  0.10566000000E+00 0.  1.
         22    1    1    0    0    0 -0.13512174473E+02  0.14935154086E+02  0.26219718622E+02  0.33062234213E+02  0.00000000000E+00 0.  1.
</event>
<event>
 5    1  0.1258677E-009  0.9118800E+02  0.7561462E-02  0.1125453E+00
         25   -1    0    0    0    0  0.00000000000E+00  0.00000000000E+00  0.99999998245E-14  0.12509000000E+03  0.12509000000E+03 0.  0.
        -13    1    3    3    0    0 -0.59638295062E+01 -0.25885794698E+02  0.26967022451E+01  0.26700655358E+02  0.10566000000E+00 0.  1.
         23    2    1    0    0    0  0.35308280868E+02 -0.16751396549E+02 -0.26320284752E+02  0.77972684991E+02  0.62126469649E+02 0.  0.
         13    1    3    3    0    0  0.41272110374E+02  0.91343981485E+01 -0.29016986998E+02  0.51272029633E+02  0.10566000000E+00 0. -1.
         22    1    1    0    0    0 -0.35308280868E+02  0.16751396549E+02  0.26320284752E+02  0.47117315009E+02  0.00000000000E+00 0. -1.
</event>
<event>
 5    1  0.1258677E-009  0.9118800E+02  0.7561462E-02  0.1125453E+00
         25   -1    0    0    0    0  0.00000000000E+00  0.00000000000E+00  0.99999998245E-14  0.12509000000E+03  0.12509000000E+03 0.  0.
        -13    1    3    3    0    0 -0.26714768761E+02  0.39875745335E+01  0.25650105316E+02  0.37249411906E+02  0.10566000000E+00 0.  1.
         23    2    1    0    0    0 -0.49520715754E+01 -0.10491080146E+02 -0.26819170538E+02  0.95869225132E+02  0.91307473098E+02 0.  0.
         13    1    3    3    0    0  0.21762697185E+02 -0.14478654680E+02 -0.52469275853E+02  0.58619813227E+02  0.10566000000E+00 0. -1.
         22    1    1    0    0    0  0.49520715754E+01  0.10491080146E+02  0.26819170538E+02  0.29220774868E+02  0.00000000000E+00 0.  1.
</event>
<event>
 5    1  0.1258677E-009  0.9118800E+02  0.7561462E-02  0.1125453E+00
         25   -1    0    0    0    0  0.00000000000E+00  0.00000000000E+00  0.99999998245E-14  0.12509000000E+03  0.12509000000E+03 0.  0.
        -13    1    3    3    0    0 -0.24091413946E+02 -0.29272904784E+02  0.49174184828E+02  0.62091954374E+02  0.10566000000E+00 0.  1.
         23    2    1    0    0    0 -0.73932025851E+01 -0.17250509159E+02  0.22149805209E+02  0.96058062732E+02  0.91565812585E+02 0.  0.
         13    1    3    3    0    0  0.16698211361E+02  0.12022395625E+02 -0.27024379619E+02  0.33966108359E+02  0.10566000000E+00 0. -1.
         22    1    1    0    0    0  0.73932025851E+01  0.17250509159E+02 -0.22149805209E+02  0.29031937268E+02  0.00000000000E+00 0.  1.
</event>
<event>
 5    1  0.1258677E-009  0.9118800E+02  0.7561462E-02  0.1125453E+00
         25   -1    0    0    0    0  0.00000000000E+00  0.00000000000E+00  0.99999998245E-14  0.12509000000E+03  0.12509000000E+03 0.  0.
        -13    1    3    3    0    0  0.27379960514E+02 -0.22474073549E+02  0.17021858378E+02  0.39300140538E+02  0.10566000000E+00 0.  1.
         23    2    1    0    0    0 -0.27290681290E+01  0.24180832248E+02  0.17977325703E+02  0.94835335889E+02  0.89879898935E+02 0.  0.
         13    1    3    3    0    0 -0.30109028643E+02  0.46654905797E+02  0.95546732508E+00  0.55535195351E+02  0.10566000000E+00 0. -1.
         22    1    1    0    0    0  0.27290681290E+01 -0.24180832248E+02 -0.17977325703E+02  0.30254664111E+02  0.00000000000E+00 0. -1.
</event>
<event>
 5    1  0.1258677E-009  0.9118800E+02  0.7561462E-02  0.1125453E+00
         25   -1    0    0    0    0  0.00000000000E+00  0.00000000000E+00  0.99999998245E-14  0.12509000000E+03  0.12509000000E+03 0.  0.
        -13    1    3    3    0    0 -0.16918878076E+02  0.10975448966E+02  0.41541931592E+02  0.46178481566E+02  0.10566000000E+00 0.  1.
         23    2    1    0    0    0 -0.71968945005E+01  0.28100628557E+02 -0.40115887251E+01  0.95806327761E+02  0.91221263854E+02 0.  0.
         13    1    3    3    0    0  0.97219835754E+01  0.17125179590E+02 -0.45553520317E+02  0.49627846195E+02  0.10566000000E+00 0. -1.
         22    1    1    0    0    0  0.71968945005E+01 -0.28100628557E+02  0.40115887251E+01  0.29283672239E+02  0.00000000000E+00 0. -1.
</event>
<event>
 5    1  0.1258677E-009  0.9118800E+02  0.7561462E-02  0.1125453E+00
         25   -1    0    0    0    0  0.00000000000E+00  0.00000000000E+00  0.99999998245E-14  0.12509000000E+03  0.12509000000E+03 0.  0.
        -13    1    3    3    0    0 -0.18141339745E+02  0.23429285667E+02  0.84552210168E+01  0.30814632257E+02  0.10566000000E+00 0.  1.
         23    2    1    0    0    0  0.28664705374E+02 -0.15691463979E+02 -0.83238931873E-01  0.92411347875E+02  0.86440516607E+02 0.  0.
         13    1    3    3    0    0  0.46806045120E+02 -0.39120749646E+02 -0.85384599487E+01  0.61596715618E+02  0.10566000000E+00 0. -1.
         22    1    1    0    0    0 -0.28664705374E+02  0.15691463979E+02  0.83238931873E-01  0.32678652125E+02  0.00000000000E+00 0. -1.
</event>
<event>
 5    1  0.1258677E-009  0.9118800E+02  0.7561462E-02  0.1125453E+00
         25   -1    0    0    0    0  0.00000000000E+00  0.00000000000E+00  0.99999998245E-14  0.12509000000E+03  0.12509000000E+03 0.  0.
        -13    1    3    3    0    0  0.32939410439E+02  0.31432503916E+02  0.29617603980E+02  0.54315934053E+02  0.10566000000E+00 0.  1.
         23    2    1    0    0    0  0.69129265327E+01 -0.82782789157E+00  0.28468984459E+02  0.95782033021E+02  0.91187942851E+02 0.  0.
         13    1    3    3    0    0 -0.26026483906E+02 -0.32260331807E+02 -0.11486195208E+01  0.41466098969E+02  0.10566000000E+00 0. -1.
         22    1    1    0    0    0 -0.69129265327E+01  0.82782789157E+00 -0.28468984459E+02  0.29307966979E+02  0.00000000000E+00 0.  1.
</event>
<event>
 5    1  0.1258677E-009  0.9118800E+02  0.7561462E-02  0.1125453E+00
         25   -1    0    0    0    0  0.00000000000E+00  0.00000000000E+00  0.99999998245E-14  0.12509000000E+03  0.12509000000E+03 0.  0.
        -13    1    3    3    0    0 -0.36877185368E+01 -0.30767381350E+02  0.43911068586E+02  0.53744061361E+02  0.10566000000E+00 0. -1.
         23    2    1    0    0    0 -0.23678088228E+02 -0.62359464510E+01  0.17039705607E+02  0.95258968214E+02  0.90467566386E+02 0.  0.
         13    1    3    3    0    0 -0.19990369691E+02  0.24531434899E+02 -0.26871362980E+02  0.41514906853E+02  0.10566000000E+00 0.  1.
         22    1    1    0    0    0  0.23678088228E+02  0.62359464510E+01 -0.17039705607E+02  0.29831031786E+02  0.00000000000E+00 0. -1.
</event>
<event>
 5    1  0.1258677E-009  0.9118800E+02  0.7561462E-02  0.1125453E+00
         25   -1    0    0    0    0  0.00000000000E+00  0.00000000000E+00  0.99999998245E-14  0.12509000000E+03  0.12509000000E+03 0.  0.
        -13    1    3    3    0    0  0.28505434463E+02 -0.23792431953E+02 -0.41117713179E+02  0.55401417972E+02  0.10566000000E+00 0.  1.
         23    2    1    0    0    0  0.21207646441E+02  0.86611363922E+01 -0.14807301445E+02  0.97812981702E+02  0.93932654930E+02 0.  0.
         13    1    3    3    0    0 -0.72977880218E+01  0.32453568346E+02  0.26310411734E+02  0.42411563730E+02  0.10566000000E+00 0. -1.
         22    1    1    0    0    0 -0.21207646441E+02 -0.86611363922E+01  0.14807301445E+02  0.27277018298E+02  0.00000000000E+00 0.  1.
</event>
<event>
 5    1  0.1258677E-009  0.9118800E+02  0.7561462E-02  0.1125453E+00
         25   -1    0    0    0    0  0.00000000000E+00  0.00000000000E+00  0.99999998245E-14  0.12509000000E+03  0.12509000000E+03 0.  0.
        -13    1    3    3    0    0  0.61157585275E+02  0.88592563453E+01 -0.26894859662E+01  0.61854516072E+02  0.10566000000E+00 0. -1.
         23    2    1    0    0    0  0.27320001211E+02  0.96923590233E+01 -0.45171067529E+01  0.95751824477E+02  0.91146493886E+02 0.  0.
         13    1    3    3    0    0 -0.33837584064E+02  0.83310267794E+00 -0.18276207867E+01  0.33897308405E+02  0.10566000000E+00 0.  1.
         22    1    1    0    0    0 -0.27320001211E+02 -0.96923590233E+01  0.45171067529E+01  0.29338175523E+02  0.00000000000E+00 0. -1.
</event>
<event>
 5    1  0.1258677E-009  0.9118800E+02  0.7561462E-02  0.1125453E+00
         25   -1    0    0    0    0  0.00000000000E+00  0.00000000000E+00  0.99999998245E-14  0.12509000000E+03  0.12509000000E+03 0.  0.
        -13    1    3    3    0    0 -0.24143306389E+02 -0.26565280390E+02  0.56852942848E+01  0.36344835957E+02  0.10566000000E+00 0.  1.
         23    2    1    0    0    0  0.26389413024E+02 -0.82681705004E+00 -0.12471001471E+02  0.95890503020E+02  0.91336618864E+02 0.  0.
         13    1    3    3    0    0  0.50532719413E+02  0.25738463340E+02 -0.18156295756E+02  0.59545667063E+02  0.10566000000E+00 0. -1.
         22    1    1    0    0    0 -0.26389413024E+02  0.82681705004E+00  0.12471001471E+02  0.29199496980E+02  0.00000000000E+00 0. -1.
</event>
<event>
 5    1  0.1258677E-009  0.9118800E+02  0.7561462E-02  0.1125453E+00
         25   -1    0    0    0    0  0.00000000000E+00  0.00000000000E+00  0.99999998245E-14  0.12509000000E+03  0.12509000000E+03 0.  0.
        -13    1    3    3    0    0 -0.67888707162E+01  0.56031265377E+02 -0.12218809399E+02  0.57748609789E+02  0.10566000000E+00 0.  1.
         23    2    1    0    0    0  0.26223316651E+00  0.20705148660E+02 -0.21799081429E+02  0.95023874570E+02  0.90141915000E+02 0.  0.
         13    1    3    3    0    0  0.70511038828E+01 -0.35326116718E+02 -0.95802720293E+01  0.37275264781E+02  0.10566000000E+00 0. -1.
         22    1    1    0    0    0 -0.26223316651E+00 -0.20705148660E+02  0.21799081429E+02  0.30066125430E+02  0.00000000000E+00 0.  1.
</event>
<event>
 5    1  0.1258677E-009  0.9118800E+02  0.7561462E-02  0.1125453E+00
         25   -1    0    0    0    0  0.00000000000E+00  0.00000000000E+00  0.99999998245E-14  0.12509000000E+03  0.12509000000E+03 0.  0.
        -13    1    3    3    0    0 -0.22185250910E+02  0.17753290081E+02  0.27022940189E+02  0.39212435874E+02  0.10566000000E+00 0.  1.
         23    2    1    0    0    0 -0.80234069764E+01 -0.25001912038E+02 -0.94659618796E+01  0.97178083201E+02  0.93083321574E+02 0.  0.
         13    1    3    3    0    0  0.14161843934E+02 -0.42755202119E+02 -0.36488902068E+02  0.57965647327E+02  0.10566000000E+00 0. -1.
         22    1    1    0    0    0  0.80234069764E+01  0.25001912038E+02  0.94659618796E+01  0.27911916799E+02  0.00000000000E+00 0. -1.
</event>
<event>
 5    1  0.1258677E-009  0.9118800E+02  0.7561462E-02  0.1125453E+00
         25   -1    0    0    0    0  0.00000000000E+00  0.00000000000E+00  0.99999998245E-14  0.12509000000E+03  0.12509000000E+03 0.  0.
        -13    1    3    3    0    0  0.13031249113E+02  0.27827571972E+02 -0.40704606827E+02  0.51000621528E+02  0.10566000000E+00 0.  1.
         23    2    1    0    0    0 -0.16379000985E+02  0.20230613454E+02 -0.38226386737E+01  0.98781028898E+02  0.95213075309E+02 0.  0.
         13    1    3    3    0    0 -0.29410250098E+02 -0.75969585177E+01  0.36881968153E+02  0.47780407370E+02  0.10566000000E+00 0. -1.
         22    1    1    0    0    0  0.16379000985E+02 -0.20230613454E+02  0.38226386737E+01  0.26308971102E+02  0.00000000000E+00 0. -1.
</event>
<event>
 5    1  0.1258677E-009  0.9118800E+02  0.7561462E-02  0.1125453E+00
         25   -1    0    0    0    0  0.00000000000E+00  0.00000000000E+00  0.99999998245E-14  0.12509000000E+03  0.12509000000E+03 0.  0.
        -13    1    3    3    0    0  0.40367815315E+01  0.32819782006E+02 -0.22046938435E+01  0.33140693037E+02  0.10566000000E+00 0.  1.
         23    2    1    0    0    0  0.31440253067E+01 -0.28775631395E+02 -0.81193859180E+01  0.95025963595E+02  0.90144813895E+02 0.  0.
         13    1    3    3    0    0 -0.89275622473E+00 -0.61595413400E+02 -0.59146920744E+01  0.61885270557E+02  0.10566000000E+00 0. -1.
         22    1    1    0    0    0 -0.31440253067E+01  0.28775631395E+02  0.81193859180E+01  0.30064036405E+02  0.00000000000E+00 0. -1.
</event>
<event>
 5    1  0.1258677E-009  0.9118800E+02  0.7561462E-02  0.1125453E+00
         25   -1    0    0    0    0  0.00000000000E+00  0.00000000000E+00  0.99999998245E-14  0.12509000000E+03  0.12509000000E+03 0.  0.
        -13    1    3    3    0    0 -0.21610187355E+02  0.32872048726E+02  0.14831570838E+02  0.42042341069E+02  0.10566000000E+00 0.  1.
         23    2    1    0    0    0  0.10691709789E+02  0.19072816304E+01  0.33009230055E+02  0.90340041004E+02  0.83389228071E+02 0.  0.
         13    1    3    3    0    0  0.32301897144E+02 -0.30964767095E+02  0.18177659216E+02  0.48297699935E+02  0.10566000000E+00 0. -1.
         22    1    1    0    0    0 -0.10691709789E+02 -0.19072816304E+01 -0.33009230055E+02  0.34749958996E+02  0.00000000000E+00 0. -1.
</event>
<event>
 5    1  0.1258677E-009  0.9118800E+02  0.7561462E-02  0.1125453E+00
         25   -1    0    0    0    0  0.00000000000E+00  0.00000000000E+00  0.99999998245E-14  0.12509000000E+03  0.12509000000E+03 0.  0.
        -13    1    3    3    0    0  0.21895289556E+02 -0.15698921713E+02  0.19262531172E+02  0.33119724016E+02  0.10566000000E+00 0.  1.
         23    2    1    0    0    0 -0.32925916770E+02 -0.92606788732E-01  0.65862204072E+01  0.91511690477E+02  0.85128647490E+02 0.  0.
         13    1    3    3    0    0 -0.54821206326E+02  0.15606314924E+02 -0.12676310765E+02  0.58391966461E+02  0.10566000000E+00 0. -1.
         22    1    1    0    0    0  0.32925916770E+02  0.92606788732E-01 -0.65862204072E+01  0.33578309523E+02  0.00000000000E+00 0. -1.
</event>
<event>
 5    1  0.1258677E-009  0.9118800E+02  0.7561462E-02  0.1125453E+00
         25   -1    0    0    0    0  0.00000000000E+00  0.00000000000E+00  0.99999998245E-14  0.12509000000E+03  0.12509000000E+03 0.  0.
        -13    1    3    3    0    0 -0.38641223503E+02 -0.33750249791E+02  0.19666955042E+02  0.54945644044E+02  0.10566000000E+00 0. -1.
         23    2    1    0    0    0 -0.23521002839E+02 -0.20107922668E+02 -0.11416642009E+02  0.92106582298E+02  0.85998352655E+02 0.  0.
         13    1    3    3    0    0  0.15120220664E+02  0.13642327124E+02 -0.31083597051E+02  0.37160938254E+02  0.10566000000E+00 0.  1.
         22    1    1    0    0    0  0.23521002839E+02  0.20107922668E+02  0.11416642009E+02  0.32983417702E+02  0.00000000000E+00 0. -1.
</event>
<event>
 5    1  0.1258677E-009  0.9118800E+02  0.7561462E-02  0.1125453E+00
         25   -1    0    0    0    0  0.00000000000E+00  0.00000000000E+00  0.99999998245E-14  0.12509000000E+03  0.12509000000E+03 0.  0.
        -13    1    3    3    0    0  0.51318708978E+02  0.11253170564E+02 -0.38333864215E+01  0.52677791852E+02  0.10566000000E+00 0.  1.
         23    2    1    0    0    0  0.14159188203E+02 -0.19428458157E+02 -0.28910214902E+01  0.10087625179E+03  0.97927077838E+02 0.  0.
         13    1    3    3    0    0 -0.37159520775E+02 -0.30681628720E+02  0.94236493131E+00  0.48198459943E+02  0.10566000000E+00 0. -1.
         22    1    1    0    0    0 -0.14159188203E+02  0.19428458157E+02  0.28910214902E+01  0.24213748206E+02  0.00000000000E+00 0. -1.
</event>
<event>
 5    1  0.1258677E-009  0.9118800E+02  0.7561462E-02  0.1125453E+00
         25   -1    0    0    0    0  0.00000000000E+00  0.00000000000E+00  0.99999998245E-14  0.12509000000E+03  0.12509000000E+03 0.  0.
        -13    1    3    3    0    0 -0.49295633104E+02  0.36911960012E+01  0.15228046384E+02  0.51726095269E+02  0.10566000000E+00 0.  1.
         23    2    1    0    0    0 -0.19164218280E+02  0.13783172669E+02 -0.16231964445E+02  0.96441792712E+02  0.92088542179E+02 0.  0.
         13    1    3    3    0    0  0.30131414825E+02  0.10091976668E+02 -0.31460010829E+02  0.44715697443E+02  0.10566000000E+00 0. -1.
         22    1    1    0    0    0  0.19164218280E+02 -0.13783172669E+02  0.16231964445E+02  0.28648207288E+02  0.00000000000E+00 0.  1.
</event>
<event>
 5    1  0.1258677E-009  0.9118800E+02  0.7561462E-02  0.1125453E+00
         25   -1    0    0    0    0  0.00000000000E+00  0.00000000000E+00  0.99999998245E-14  0.12509000000E+03  0.12509000000E+03 0.  0.
        -13    1    3    3    0    0  0.43357781138E+02  0.20166034707E+02 -0.37832942804E+02  0.60974657574E+02  0.10566000000E+00 0.  1.
         23    2    1    0    0    0  0.24817279458E+02  0.81718167442E+00 -0.15891500160E+02  0.95609414474E+02  0.90950839541E+02 0.  0.
         13    1    3    3    0    0 -0.18540501680E+02 -0.19348853033E+02  0.21941442644E+02  0.34634756900E+02  0.10566000000E+00 0. -1.
         22    1    1    0    0    0 -0.24817279458E+02 -0.81718167442E+00  0.15891500160E+02  0.29480585526E+02  0.00000000000E+00 0.  1.
</event>
<event>
 5    1  0.1258677E-009  0.9118800E+02  0.7561462E-02  0.1125453E+00
         25   -1    0    0    0    0  0.00000000000E+00  0.00000000000E+00  0.99999998245E-14  0.12509000000E+03  0.12509000000E+03 0.  0.
        -13    1    3    3    0    0 -0.26395728555E+02  0.43936786721E+02  0.26227980405E+02  0.57576851542E+02  0.10566000000E+00 0. -1.
         23    2    1    0    0    0 -0.20808686067E+02  0.22767315771E+02 -0.30049718526E+01  0.94099970327E+02  0.88850562612E+02 0.  0.
         13    1    3    3    0    0  0.55870424877E+01 -0.21169470950E+02 -0.29232952258E+02  0.36523118785E+02  0.10566000000E+00 0.  1.
         22    1    1    0    0    0  0.20808686067E+02 -0.22767315771E+02  0.30049718526E+01  0.30990029673E+02  0.00000000000E+00 0.  1.
</event>
<event>
 5    1  0.1258677E-009  0.9118800E+02  0.7561462E-02  0.1125453E+00
         25   -1    0    0    0    0  0.00000000000E+00  0.00000000000E+00  0.99999998245E-14  0.12509000000E+03  0.12509000000E+03 0.  0.
        -13    1    3    3    0    0 -0.13144585723E+02 -0.60435200068E+01  0.48620662891E+02  0.50727549635E+02  0.10566000000E+00 0.  1.
         23    2    1    0    0    0 -0.26744910660E+02 -0.12757745396E+02  0.75473158507E+01  0.94512029329E+02  0.89428806307E+02 0.  0.
         13    1    3    3    0    0 -0.13600324936E+02 -0.67142253896E+01 -0.41073347041E+02  0.43784479694E+02  0.10566000000E+00 0. -1.
         22    1    1    0    0    0  0.26744910660E+02  0.12757745396E+02 -0.75473158507E+01  0.30577970671E+02  0.00000000000E+00 0.  1.
</event>
<event>
 5    1  0.1258677E-009  0.9118800E+02  0.7561462E-02  0.1125453E+00
         25   -1    0    0    0    0  0.00000000000E+00  0.00000000000E+00  0.99999998245E-14  0.12509000000E+03  0.12509000000E+03 0.  0.
        -13    1    3    3    0    0 -0.29377151848E+02 -0.34489201410E+02  0.39685190255E+02  0.60228295296E+02  0.10566000000E+00 0.  1.
         23    2    1    0    0    0 -0.67858294983E+01 -0.87608973305E+01  0.25493553131E+02  0.97292121389E+02  0.93236445820E+02 0.  0.
         13    1    3    3    0    0  0.22591322350E+02  0.25728304080E+02 -0.14191637124E+02  0.37063826093E+02  0.10566000000E+00 0. -1.
         22    1    1    0    0    0  0.67858294983E+01  0.87608973305E+01 -0.25493553131E+02  0.27797878611E+02  0.00000000000E+00 0. -1.
</event>
<event>
 5    1  0.1258677E-009  0.9118800E+02  0.7561462E-02  0.1125453E+00
         25   -1    0    0    0    0  0.00000000000E+00  0.00000000000E+00  0.99999998245E-14  0.12509000000E+03  0.12509000000E+03 0.  0.
        -13    1    3    3    0    0  0.45741126866E+02 -0.24582882740E+02  0.24210195472E+02  0.57294969584E+02  0.10566000000E+00 0. -1.
         23    2    1    0    0    0  0.25801927389E+02 -0.13485046200E+02 -0.62087123679E+01  0.95321996418E+02  0.90554673893E+02 0.  0.
         13    1    3    3    0    0 -0.19939199477E+02  0.11097836541E+02 -0.30418907840E+02  0.38027026834E+02  0.10566000000E+00 0.  1.
         22    1    1    0    0    0 -0.25801927389E+02  0.13485046200E+02  0.62087123679E+01  0.29768003582E+02  0.00000000000E+00 0. -1.
</event>
<event>
 5    1  0.1258677E-009  0.9118800E+02  0.7561462E-02  0.1125453E+00
         25   -1    0    0    0    0  0.00000000000E+00  0.00000000000E+00  0.99999998245E-14  0.12509000000E+03  0.12509000000E+03 0.  0.
        -13    1    3    3    0    0 -0.40001143261E+02 -0.21899744511E+02 -0.22769482353E+02  0.50972058645E+02  0.10566000000E+00 0. -1.
         23    2    1    0    0    0 -0.56605296456E+01  0.69931295922E+01 -0.27553416037E+02  0.96104897056E+02  0.91629771611E+02 0.  0.
         13    1    3    3    0    0  0.34340613616E+02  0.28892874104E+02 -0.47839336843E+01  0.45132838411E+02  0.10566000000E+00 0.  1.
         22    1    1    0    0    0  0.56605296456E+01 -0.69931295922E+01  0.27553416037E+02  0.28985102944E+02  0.00000000000E+00 0. -1.
</event>
<event>
 5    1  0.1258677E-009  0.9118800E+02  0.7561462E-02  0.1125453E+00
         25   -1    0    0    0    0  0.00000000000E+00  0.00000000000E+00  0.99999998245E-14  0.12509000000E+03  0.12509000000E+03 0.  0.
        -13    1    3    3    0    0  0.34405343280E+02 -0.24547298618E+02 -0.42027124781E+02  0.59603589632E+02  0.10566000000E+00 0. -1.
         23    2    1    0    0    0  0.23408881055E+02 -0.15203364863E+02 -0.88098419582E+01  0.95820026807E+02  0.91240047164E+02 0.  0.
         13    1    3    3    0    0 -0.10996462225E+02  0.93439337545E+01  0.33217282822E+02  0.36216437175E+02  0.10566000000E+00 0.  1.
         22    1    1    0    0    0 -0.23408881055E+02  0.15203364863E+02  0.88098419582E+01  0.29269973193E+02  0.00000000000E+00 0. -1.
</event>
<event>
 5    1  0.1258677E-009  0.9118800E+02  0.7561462E-02  0.1125453E+00
         25   -1    0    0    0    0  0.00000000000E+00  0.00000000000E+00  0.99999998245E-14  0.12509000000E+03  0.12509000000E+03 0.  0.
        -13    1    3    3    0    0 -0.29904978537E+02  0.73333226454E+01  0.12795465301E+02  0.33343971848E+02  0.10566000000E+00 0. -1.
         23    2    1    0    0    0  0.30024716785E+02 -0.23012561629E+01  0.30069504140E+01  0.94827462949E+02  0.89868941134E+02 0.  0.
         13    1    3    3    0    0  0.59929695322E+02 -0.96345788083E+01 -0.97885148867E+01  0.61483491101E+02  0.10566000000E+00 0.  1.
         22    1    1    0    0    0 -0.30024716785E+02  0.23012561629E+01 -0.30069504140E+01  0.30262537051E+02  0.00000000000E+00 0.  1.
</event>
<event>
 5    1  0.1258677E-009  0.9118800E+02  0.7561462E-02  0.1125453E+00
         25   -1    0    0    0    0  0.00000000000E+00  0.00000000000E+00  0.99999998245E-14  0.12509000000E+03  0.12509000000E+03 0.  0.
        -13    1    3    3    0    0 -0.39688463959E+02  0.23370716818E+02 -0.95739003001E+01  0.47042909211E+02  0.10566000000E+00 0. -1.
         23    2    1    0    0    0 -0.17916837411E+02  0.71321018161E+01  0.26573071026E+02  0.92256967200E+02  0.86216819438E+02 0.  0.
         13    1    3    3    0    0  0.21771626549E+02 -0.16238615002E+02  0.36146971326E+02  0.45214057989E+02  0.10566000000E+00 0.  1.
         22    1    1    0    0    0  0.17916837411E+02 -0.71321018161E+01 -0.26573071026E+02  0.32833032800E+02  0.00000000000E+00 0. -1.
</event>
<event>
 5    1  0.1258677E-009  0.9118800E+02  0.7561462E-02  0.1125453E+00
         25   -1    0    0    0    0  0.00000000000E+00  0.00000000000E+00  0.99999998245E-14  0.12509000000E+03  0.12509000000E+03 0.  0.
        -13    1    3    3    0    0 -0.23109367774E+01 -0.24853861407E+02  0.23533666963E+02  0.34305968874E+02  0.10566000000E+00 0.  1.
         23    2    1    0    0    0  0.15033025474E+02  0.13819449990E+02 -0.21009493665E+02  0.95792084085E+02  0.91201729679E+02 0.  0.
         13    1    3    3    0    0  0.17343962252E+02  0.38673311397E+02 -0.44543160627E+02  0.61486115211E+02  0.10566000000E+00 0. -1.
         22    1    1    0    0    0 -0.15033025474E+02 -0.13819449990E+02  0.21009493665E+02  0.29297915915E+02  0.00000000000E+00 0. -1.
</event>
<event>
 5    1  0.1258677E-009  0.9118800E+02  0.7561462E-02  0.1125453E+00
         25   -1    0    0    0    0  0.00000000000E+00  0.00000000000E+00  0.99999998245E-14  0.12509000000E+03  0.12509000000E+03 0.  0.
        -13    1    3    3    0    0  0.13712183241E+01  0.34794995371E+00  0.56195568676E+02  0.56213471799E+02  0.10566000000E+00 0.  1.
         23    2    1    0    0    0  0.18031974443E+02  0.89798313051E+01  0.21707793489E+02  0.95475514174E+02  0.90766491813E+02 0.  0.
         13    1    3    3    0    0  0.16660756119E+02  0.86318813513E+01 -0.34487775186E+02  0.39262042375E+02  0.10566000000E+00 0. -1.
         22    1    1    0    0    0 -0.18031974443E+02 -0.89798313051E+01 -0.21707793489E+02  0.29614485826E+02  0.00000000000E+00 0.  1.
</event>
<event>
 5    1  0.1258677E-009  0.9118800E+02  0.7561462E-02  0.1125453E+00
         25   -1    0    0    0    0  0.00000000000E+00  0.00000000000E+00  0.99999998245E-14  0.12509000000E+03  0.12509000000E+03 0.  0.
        -13    1    3    3    0    0  0.29749627504E+02  0.49999846738E+02  0.15271129244E+02  0.60151837569E+02  0.10566000000E+00 0.  1.
         23    2    1    0    0    0  0.20939341589E+01  0.26687844209E+02  0.89026473627E+01  0.96878606578E+02  0.92679996189E+02 0.  0.
         13    1    3    3    0    0 -0.27655693345E+02 -0.23312002530E+02 -0.63684818813E+01  0.36726769009E+02  0.10566000000E+00 0. -1.
         22    1    1    0    0    0 -0.20939341589E+01 -0.26687844209E+02 -0.89026473627E+01  0.28211393422E+02  0.00000000000E+00 0.  1.
</event>
<event>
 5    1  0.1258677E-009  0.9118800E+02  0.7561462E-02  0.1125453E+00
         25   -1    0    0    0    0  0.00000000000E+00  0.00000000000E+00  0.99999998245E-14  0.12509000000E+03  0.12509000000E+03 0.  0.
        -13    1    3    3    0    0 -0.10628667279E+02 -0.17597661723E+02  0.33559867865E+02  0.39356348425E+02  0.10566000000E+00 0.  1.
         23    2    1    0    0    0 -0.96374240311E+01 -0.16566073370E+02 -0.22556379765E+02  0.95490929120E+02  0.90787733463E+02 0.  0.
         13    1    3    3    0    0  0.99124324832E+00  0.10315883535E+01 -0.56116247629E+02  0.56134580695E+02  0.10566000000E+00 0. -1.
         22    1    1    0    0    0  0.96374240311E+01  0.16566073370E+02  0.22556379765E+02  0.29599070880E+02  0.00000000000E+00 0. -1.
</event>
<event>
 5    1  0.1258677E-009  0.9118800E+02  0.7561462E-02  0.1125453E+00
         25   -1    0    0    0    0  0.00000000000E+00  0.00000000000E+00  0.99999998245E-14  0.12509000000E+03  0.12509000000E+03 0.  0.
        -13    1    3    3    0    0 -0.21405684333E+02 -0.33273226123E+02  0.40031900632E+01  0.39766161408E+02  0.10566000000E+00 0. -1.
         23    2    1    0    0    0  0.23905393952E+01  0.49612628091E+01 -0.28982365154E+02  0.95589045826E+02  0.90922821033E+02 0.  0.
         13    1    3    3    0    0  0.23796223728E+02  0.38234488932E+02 -0.32985555218E+02  0.55822884417E+02  0.10566000000E+00 0.  1.
         22    1    1    0    0    0 -0.23905393952E+01 -0.49612628091E+01  0.28982365154E+02  0.29500954174E+02  0.00000000000E+00 0.  1.
</event>
<event>
 5    1  0.1258677E-009  0.9118800E+02  0.7561462E-02  0.1125453E+00
         25   -1    0    0    0    0  0.00000000000E+00  0.00000000000E+00  0.99999998245E-14  0.12509000000E+03  0.12509000000E+03 0.  0.
        -13    1    3    3    0    0 -0.38390767511E+02  0.13650758187E+02  0.22295893897E+02  0.46446875867E+02  0.10566000000E+00 0.  1.
         23    2    1    0    0    0 -0.25352130179E+02 -0.24137975750E+02  0.14630595668E+02  0.87150222621E+02  0.78458489633E+02 0.  0.
         13    1    3    3    0    0  0.13038637332E+02 -0.37788733937E+02 -0.76652982290E+01  0.40703346754E+02  0.10566000000E+00 0. -1.
         22    1    1    0    0    0  0.25352130179E+02  0.24137975750E+02 -0.14630595668E+02  0.37939777379E+02  0.00000000000E+00 0.  1.
</event>
<event>
 5    1  0.1258677E-009  0.9118800E+02  0.7561462E-02  0.1125453E+00
         25   -1    0    0    0    0  0.00000000000E+00  0.00000000000E+00  0.99999998245E-14  0.12509000000E+03  0.12509000000E+03 0.  0.
        -13    1    3    3    0    0  0.60714672804E+02 -0.20142590228E+01  0.58366473205E+01  0.61027914507E+02  0.10566000000E+00 0.  1.
         23    2    1    0    0    0  0.23554756921E+02 -0.84680143565E+01  0.80158856124E+01  0.98807148882E+02  0.95247385305E+02 0.  0.
         13    1    3    3    0    0 -0.37159915884E+02 -0.64537553337E+01  0.21792382919E+01  0.37779234375E+02  0.10566000000E+00 0. -1.
         22    1    1    0    0    0 -0.23554756921E+02  0.84680143565E+01 -0.80158856124E+01  0.26282851118E+02  0.00000000000E+00 0.  1.
</event>
<event>
 5    1  0.1258677E-009  0.9118800E+02  0.7561462E-02  0.1125453E+00
         25   -1    0    0    0    0  0.00000000000E+00  0.00000000000E+00  0.99999998245E-14  0.12509000000E+03  0.12509000000E+03 0.  0.
        -13    1    3    3    0    0  0.45879105949E+02 -0.12926617485E+02 -0.11685377454E+02  0.49076970287E+02  0.10566000000E+00 0. -1.
         23    2    1    0    0    0  0.20212213250E+02  0.22999764224E+02 -0.12557604893E+01  0.94445267121E+02  0.89335372772E+02 0.  0.
         13    1    3    3    0    0 -0.25666892699E+02  0.35926381709E+02  0.10429616965E+02  0.45368296834E+02  0.10566000000E+00 0.  1.
         22    1    1    0    0    0 -0.20212213250E+02 -0.22999764224E+02  0.12557604893E+01  0.30644732879E+02  0.00000000000E+00 0. -1.
</event>
<event>
 5    1  0.1258677E-009  0.9118800E+02  0.7561462E-02  0.1125453E+00
         25   -1    0    0    0    0  0.00000000000E+00  0.00000000000E+00  0.99999998245E-14  0.12509000000E+03  0.12509000000E+03 0.  0.
        -13    1    3    3    0    0 -0.34790338424E+02 -0.12158742038E+02 -0.35956524924E+02  0.51488692974E+02  0.10566000000E+00 0.  1.
         23    2    1    0    0    0 -0.12068330118E+02 -0.26108861139E+02  0.92646407353E-01  0.96326728191E+02  0.91932109509E+02 0.  0.
         13    1    3    3    0    0  0.22722008306E+02 -0.13950119101E+02  0.36049171331E+02  0.44838035217E+02  0.10566000000E+00 0. -1.
         22    1    1    0    0    0  0.12068330118E+02  0.26108861139E+02 -0.92646407353E-01  0.28763271809E+02  0.00000000000E+00 0.  1.
</event>
<event>
 5    1  0.1258677E-009  0.9118800E+02  0.7561462E-02  0.1125453E+00
         25   -1    0    0    0    0  0.00000000000E+00  0.00000000000E+00  0.99999998245E-14  0.12509000000E+03  0.12509000000E+03 0.  0.
        -13    1    3    3    0    0 -0.23446675664E+02  0.87653748049E+01  0.20267109508E+02  0.32207845116E+02  0.10566000000E+00 0.  1.
         23    2    1    0    0    0  0.20096289382E+02  0.46204353437E+01 -0.23322230110E+02  0.93959055796E+02  0.88651951355E+02 0.  0.
         13    1    3    3    0    0  0.43542965046E+02 -0.41449394613E+01 -0.43589339618E+02  0.61751210681E+02  0.10566000000E+00 0. -1.
         22    1    1    0    0    0 -0.20096289382E+02 -0.46204353437E+01  0.23322230110E+02  0.31130944204E+02  0.00000000000E+00 0. -1.
</event>
<event>
 5    1  0.1258677E-009  0.9118800E+02  0.7561462E-02  0.1125453E+00
         25   -1    0    0    0    0  0.00000000000E+00  0.00000000000E+00  0.99999998245E-14  0.12509000000E+03  0.12509000000E+03 0.  0.
        -13    1    3    3    0    0  0.44913617434E+02 -0.35049028211E+02 -0.25534661140E+02  0.62431542454E+02  0.10566000000E+00 0. -1.
         23    2    1    0    0    0  0.17757256719E+02 -0.17069613268E+02 -0.11803291742E+02  0.97776824438E+02  0.93884491999E+02 0.  0.
         13    1    3    3    0    0 -0.27156360715E+02  0.17979414943E+02  0.13731369398E+02  0.35345281984E+02  0.10566000000E+00 0.  1.
         22    1    1    0    0    0 -0.17757256719E+02  0.17069613268E+02  0.11803291742E+02  0.27313175562E+02  0.00000000000E+00 0. -1.
</event>
<event>
 5    1  0.1258677E-009  0.9118800E+02  0.7561462E-02  0.1125453E+00
         25   -1    0    0    0    0  0.00000000000E+00  0.00000000000E+00  0.99999998245E-14  0.12509000000E+03  0.12509000000E+03 0.  0.
        -13    1    3    3    0    0 -0.34568382755E+02  0.43088257514E+02  0.68216552753E+01  0.55660732717E+02  0.10566000000E+00 0.  1.
         23    2    1    0    0    0 -0.18442469919E+02  0.17994181284E+02 -0.17326946607E+02  0.94039422944E+02  0.88765278866E+02 0.  0.
         13    1    3    3    0    0  0.16125912837E+02 -0.25094076230E+02 -0.24148601882E+02  0.38378690227E+02  0.10566000000E+00 0. -1.
         22    1    1    0    0    0  0.18442469919E+02 -0.17994181284E+02  0.17326946607E+02  0.31050577056E+02  0.00000000000E+00 0.  1.
</event>
<event>
 5    1  0.1258677E-009  0.9118800E+02  0.7561462E-02  0.1125453E+00
         25   -1    0    0    0    0  0.00000000000E+00  0.00000000000E+00  0.99999998245E-14  0.12509000000E+03  0.12509000000E+03 0.  0.
        -13    1    3    3    0    0 -0.21057982961E+02  0.56147184851E+02 -0.58531162571E+01  0.60251266767E+02  0.10566000000E+00 0.  1.
         23    2    1    0    0    0 -0.12980696221E+02  0.27495929099E+02  0.88078745228E+01  0.93433985642E+02  0.87907942917E+02 0.  0.
         13    1    3    3    0    0  0.80772867403E+01 -0.28651255752E+02  0.14660990780E+02  0.33182718875E+02  0.10566000000E+00 0. -1.
         22    1    1    0    0    0  0.12980696221E+02 -0.27495929099E+02 -0.88078745228E+01  0.31656014358E+02  0.00000000000E+00 0.  1.
</event>
<event>
 5    1  0.1258677E-009  0.9118800E+02  0.7561462E-02  0.1125453E+00
         25   -1    0    0    0    0  0.00000000000E+00  0.00000000000E+00  0.99999998245E-14  0.12509000000E+03  0.12509000000E+03 0.  0.
        -13    1    3    3    0    0 -0.69545738001E+01  0.36613872075E+02  0.26306167836E+02  0.45617621106E+02  0.10566000000E+00 0. -1.
         23    2    1    0    0    0 -0.22671508235E+02 -0.99458191522E+01  0.15334257934E+02  0.95968597721E+02  0.91443510857E+02 0.  0.
         13    1    3    3    0    0 -0.15716934435E+02 -0.46559691227E+02 -0.10971909902E+02  0.50350976616E+02  0.10566000000E+00 0.  1.
         22    1    1    0    0    0  0.22671508235E+02  0.99458191522E+01 -0.15334257934E+02  0.29121402279E+02  0.00000000000E+00 0. -1.
</event>
<event>
 5    1  0.1258677E-009  0.9118800E+02  0.7561462E-02  0.1125453E+00
         25   -1    0    0    0    0  0.00000000000E+00  0.00000000000E+00  0.99999998245E-14  0.12509000000E+03  0.12509000000E+03 0.  0.
        -13    1    3    3    0    0 -0.20180601138E+02 -0.32177036787E+01 -0.52302754893E+02  0.56153357983E+02  0.10566000000E+00 0. -1.
         23    2    1    0    0    0  0.19590052060E+01  0.14681874805E+02 -0.27238418307E+02  0.94084733011E+02  0.88829107868E+02 0.  0.
         13    1    3    3    0    0  0.22139606344E+02  0.17899578484E+02  0.25064336586E+02  0.37931375028E+02  0.10566000000E+00 0.  1.
         22    1    1    0    0    0 -0.19590052060E+01 -0.14681874805E+02  0.27238418307E+02  0.31005266989E+02  0.00000000000E+00 0. -1.
</event>
<event>
 5    1  0.1258677E-009  0.9118800E+02  0.7561462E-02  0.1125453E+00
         25   -1    0    0    0    0  0.00000000000E+00  0.00000000000E+00  0.99999998245E-14  0.12509000000E+03  0.12509000000E+03 0.  0.
        -13    1    3    3    0    0 -0.24230475258E+02  0.21258653690E+02 -0.38716660454E+02  0.50378936558E+02  0.10566000000E+00 0.  1.
         23    2    1    0    0    0  0.96876143870E+01  0.25776012874E+02 -0.78626236766E+01  0.96453073432E+02  0.92103864258E+02 0.  0.
         13    1    3    3    0    0  0.33918089645E+02  0.45173591833E+01  0.30854036778E+02  0.46074136874E+02  0.10566000000E+00 0. -1.
         22    1    1    0    0    0 -0.96876143870E+01 -0.25776012874E+02  0.78626236766E+01  0.28636926568E+02  0.00000000000E+00 0.  1.
</event>
<event>
 5    1  0.1258677E-009  0.9118800E+02  0.7561462E-02  0.1125453E+00
         25   -1    0    0    0    0  0.00000000000E+00  0.00000000000E+00  0.99999998245E-14  0.12509000000E+03  0.12509000000E+03 0.  0.
        -13    1    3    3    0    0 -0.39442668054E+02  0.45521526914E+02  0.56633813099E+01  0.60498086975E+02  0.10566000000E+00 0. -1.
         23    2    1    0    0    0 -0.15214807650E+02  0.22904628436E+02  0.13352072855E+02  0.94522202808E+02  0.89443035495E+02 0.  0.
         13    1    3    3    0    0  0.24227860404E+02 -0.22616898477E+02  0.76886915454E+01  0.34024115833E+02  0.10566000000E+00 0.  1.
         22    1    1    0    0    0  0.15214807650E+02 -0.22904628436E+02 -0.13352072855E+02  0.30567797192E+02  0.00000000000E+00 0. -1.
</event>
<event>
 4    1  0.1258677E-009  0.9118800E+02  0.7561462E-02  0.1125453E+00
         25   -1    0    0    0    0  0.00000000000E+00  0.00000000000E+00  0.99999998245E-14  0.12509000000E+03  0.12509000000E+03 0.  0.
        -13    1    1    0    0    0 -0.31790740793E+02  0.12561718294E+02  0.69873879830E-02  0.34182732184E+02  0.10566000000E+00 0. -1.
         13    1    1    0    0    0  0.12342031665E+02  0.34798570599E+02 -0.11032097066E+02  0.38535497804E+02  0.10566000000E+00 0.  1.
         22    1    1    0    0    0  0.19448709128E+02 -0.47360288893E+02  0.11025109678E+02  0.52371770012E+02  0.00000000000E+00 0. -1.
</event>
<event>
 5    1  0.1258677E-009  0.9118800E+02  0.7561462E-02  0.1125453E+00
         25   -1    0    0    0    0  0.00000000000E+00  0.00000000000E+00  0.99999998245E-14  0.12509000000E+03  0.12509000000E+03 0.  0.
        -13    1    3    3    0    0 -0.53393840420E+02 -0.22985753799E+02 -0.45391650494E+01  0.58308337791E+02  0.10566000000E+00 0.  1.
         23    2    1    0    0    0 -0.25313059437E+02 -0.18457197340E+02  0.12381331373E+02  0.91404447040E+02  0.84970915379E+02 0.  0.
         13    1    3    3    0    0  0.28080780983E+02  0.45285564600E+01  0.16920496422E+02  0.33096109249E+02  0.10566000000E+00 0. -1.
         22    1    1    0    0    0  0.25313059437E+02  0.18457197340E+02 -0.12381331373E+02  0.33685552960E+02  0.00000000000E+00 0.  1.
</event>
<event>
 5    1  0.1258677E-009  0.9118800E+02  0.7561462E-02  0.1125453E+00
         25   -1    0    0    0    0  0.00000000000E+00  0.00000000000E+00  0.99999998245E-14  0.12509000000E+03  0.12509000000E+03 0.  0.
        -13    1    3    3    0    0 -0.21427254332E+02  0.38807313535E+01 -0.28457974039E+02  0.35833709750E+02  0.10566000000E+00 0.  1.
         23    2    1    0    0    0  0.29114107368E+01  0.49041813365E+01  0.27574144632E+02  0.96932216720E+02  0.92752325464E+02 0.  0.
         13    1    3    3    0    0  0.24338665069E+02  0.10234499829E+01  0.56032118671E+02  0.61098506970E+02  0.10566000000E+00 0. -1.
         22    1    1    0    0    0 -0.29114107368E+01 -0.49041813365E+01 -0.27574144632E+02  0.28157783280E+02  0.00000000000E+00 0. -1.
</event>
<event>
 5    1  0.1258677E-009  0.9118800E+02  0.7561462E-02  0.1125453E+00
         25   -1    0    0    0    0  0.00000000000E+00  0.00000000000E+00  0.99999998245E-14  0.12509000000E+03  0.12509000000E+03 0.  0.
        -13    1    3    3    0    0 -0.61873504988E+01  0.32947568663E+02  0.11917314217E+02  0.35578914109E+02  0.10566000000E+00 0.  1.
         23    2    1    0    0    0 -0.23641089624E+02 -0.10646905009E+02 -0.19988824779E+02  0.92351478028E+02  0.86353834153E+02 0.  0.
         13    1    3    3    0    0 -0.17453739125E+02 -0.43594473672E+02 -0.31906138996E+02  0.56772563918E+02  0.10566000000E+00 0. -1.
         22    1    1    0    0    0  0.23641089624E+02  0.10646905009E+02  0.19988824779E+02  0.32738521972E+02  0.00000000000E+00 0. -1.
</event>
<event>
 5    1  0.1258677E-009  0.9118800E+02  0.7561462E-02  0.1125453E+00
         25   -1    0    0    0    0  0.00000000000E+00  0.00000000000E+00  0.99999998245E-14  0.12509000000E+03  0.12509000000E+03 0.  0.
        -13    1    3    3    0    0  0.29497889282E+02 -0.22561366002E+02 -0.42153789419E+02  0.56179122763E+02  0.10566000000E+00 0.  1.
         23    2    1    0    0    0 -0.49911444436E+01 -0.12736963322E+02 -0.26416658698E+02  0.95341359455E+02  0.90581417567E+02 0.  0.
         13    1    3    3    0    0 -0.34489033725E+02  0.98244026803E+01  0.15737130721E+02  0.39162236692E+02  0.10566000000E+00 0. -1.
         22    1    1    0    0    0  0.49911444436E+01  0.12736963322E+02  0.26416658698E+02  0.29748640545E+02  0.00000000000E+00 0.  1.
</event>
<event>
 5    1  0.1258677E-009  0.9118800E+02  0.7561462E-02  0.1125453E+00
         25   -1    0    0    0    0  0.00000000000E+00  0.00000000000E+00  0.99999998245E-14  0.12509000000E+03  0.12509000000E+03 0.  0.
        -13    1    3    3    0    0 -0.17438439756E+01 -0.35980176388E+02 -0.15097202582E+02  0.39058299689E+02  0.10566000000E+00 0. -1.
         23    2    1    0    0    0  0.24414848120E+02  0.62964007939E+01  0.13580320911E+02  0.96451658782E+02  0.92101942945E+02 0.  0.
         13    1    3    3    0    0  0.26158692095E+02  0.42276577182E+02  0.28677523493E+02  0.57393359094E+02  0.10566000000E+00 0.  1.
         22    1    1    0    0    0 -0.24414848120E+02 -0.62964007939E+01 -0.13580320911E+02  0.28638341218E+02  0.00000000000E+00 0.  1.
</event>
<event>
 5    1  0.1258677E-009  0.9118800E+02  0.7561462E-02  0.1125453E+00
         25   -1    0    0    0    0  0.00000000000E+00  0.00000000000E+00  0.99999998245E-14  0.12509000000E+03  0.12509000000E+03 0.  0.
        -13    1    3    3    0    0 -0.39950320459E+02 -0.33414805990E+02  0.59558381502E+01  0.52421947086E+02  0.10566000000E+00 0.  1.
         23    2    1    0    0    0 -0.25395367104E+02  0.22702061210E+01 -0.14191626760E+02  0.95909856473E+02  0.91363120527E+02 0.  0.
         13    1    3    3    0    0  0.14554953356E+02  0.35685012111E+02 -0.20147464910E+02  0.43487909388E+02  0.10566000000E+00 0. -1.
         22    1    1    0    0    0  0.25395367104E+02 -0.22702061210E+01  0.14191626760E+02  0.29180143527E+02  0.00000000000E+00 0.  1.
</event>
<event>
 5    1  0.1258677E-009  0.9118800E+02  0.7561462E-02  0.1125453E+00
         25   -1    0    0    0    0  0.00000000000E+00  0.00000000000E+00  0.99999998245E-14  0.12509000000E+03  0.12509000000E+03 0.  0.
        -13    1    3    3    0    0  0.51096637060E+02 -0.97165701072E+01  0.14521388241E+02  0.54001480850E+02  0.10566000000E+00 0.  1.
         23    2    1    0    0    0  0.13705883973E+02  0.11101396676E+02  0.21412681451E+02  0.97348421267E+02  0.93311949570E+02 0.  0.
         13    1    3    3    0    0 -0.37390753087E+02  0.20817966784E+02  0.68912932100E+01  0.43346940417E+02  0.10566000000E+00 0. -1.
         22    1    1    0    0    0 -0.13705883973E+02 -0.11101396676E+02 -0.21412681451E+02  0.27741578733E+02  0.00000000000E+00 0. -1.
</event>
<event>
 5    1  0.1258677E-009  0.9118800E+02  0.7561462E-02  0.1125453E+00
         25   -1    0    0    0    0  0.00000000000E+00  0.00000000000E+00  0.99999998245E-14  0.12509000000E+03  0.12509000000E+03 0.  0.
        -13    1    3    3    0    0  0.48879410949E+02 -0.11132482032E+02  0.21802497120E+02  0.54667074328E+02  0.10566000000E+00 0.  1.
         23    2    1    0    0    0  0.28806355364E+02 -0.50956125188E+01 -0.11201656817E+02  0.93765113859E+02  0.88377871016E+02 0.  0.
         13    1    3    3    0    0 -0.20073055585E+02  0.60368695135E+01 -0.33004153937E+02  0.39098039531E+02  0.10566000000E+00 0. -1.
         22    1    1    0    0    0 -0.28806355364E+02  0.50956125188E+01  0.11201656817E+02  0.31324886141E+02  0.00000000000E+00 0.  1.
</event>
<event>
 5    1  0.1258677E-009  0.9118800E+02  0.7561462E-02  0.1125453E+00
         25   -1    0    0    0    0  0.00000000000E+00  0.00000000000E+00  0.99999998245E-14  0.12509000000E+03  0.12509000000E+03 0.  0.
        -13    1    3    3    0    0  0.64708982749E+01  0.16025209124E+02 -0.49245886616E+02  0.52190500712E+02  0.10566000000E+00 0.  1.
         23    2    1    0    0    0  0.85059566568E+01  0.26360866705E+02 -0.59377273826E+01  0.96761512597E+02  0.92521819705E+02 0.  0.
         13    1    3    3    0    0  0.20350583820E+01  0.10335657581E+02  0.43308159233E+02  0.44571011885E+02  0.10566000000E+00 0. -1.
         22    1    1    0    0    0 -0.85059566568E+01 -0.26360866705E+02  0.59377273826E+01  0.28328487403E+02  0.00000000000E+00 0.  1.
</event>
<event>
 5    1  0.1258677E-009  0.9118800E+02  0.7561462E-02  0.1125453E+00
         25   -1    0    0    0    0  0.00000000000E+00  0.00000000000E+00  0.99999998245E-14  0.12509000000E+03  0.12509000000E+03 0.  0.
        -13    1    3    3    0    0 -0.21529791768E+02 -0.35132024971E+02 -0.17835610614E+02  0.44898900679E+02  0.10566000000E+00 0.  1.
         23    2    1    0    0    0 -0.26718062162E+02  0.11403615103E+02 -0.16368484714E+02  0.91745966427E+02  0.85472204725E+02 0.  0.
         13    1    3    3    0    0 -0.51882703938E+01  0.46535640074E+02  0.14671258997E+01  0.46847065748E+02  0.10566000000E+00 0. -1.
         22    1    1    0    0    0  0.26718062162E+02 -0.11403615103E+02  0.16368484714E+02  0.33344033573E+02  0.00000000000E+00 0. -1.
</event>
<event>
 5    1  0.1258677E-009  0.9118800E+02  0.7561462E-02  0.1125453E+00
         25   -1    0    0    0    0  0.00000000000E+00  0.00000000000E+00  0.99999998245E-14  0.12509000000E+03  0.12509000000E+03 0.  0.
        -13    1    3    3    0    0 -0.31128584033E+02  0.14989373557E+02 -0.23092188039E+02  0.41556351813E+02  0.10566000000E+00 0.  1.
         23    2    1    0    0    0  0.17731105449E+02  0.24347283247E+02 -0.46443450581E+01  0.94614563285E+02  0.89572112528E+02 0.  0.
         13    1    3    3    0    0  0.48859689482E+02  0.93579096895E+01  0.18447842981E+02  0.53058211473E+02  0.10566000000E+00 0. -1.
         22    1    1    0    0    0 -0.17731105449E+02 -0.24347283247E+02  0.46443450581E+01  0.30475436715E+02  0.00000000000E+00 0.  1.
</event>
<event>
 5    1  0.1258677E-009  0.9118800E+02  0.7561462E-02  0.1125453E+00
         25   -1    0    0    0    0  0.00000000000E+00  0.00000000000E+00  0.99999998245E-14  0.12509000000E+03  0.12509000000E+03 0.  0.
        -13    1    3    3    0    0 -0.10196390608E+02 -0.21243565264E+02 -0.33935883714E+02  0.41314777187E+02  0.10566000000E+00 0.  1.
         23    2    1    0    0    0  0.77502830376E+01 -0.15820391638E+02  0.20012548241E+02  0.98428158994E+02  0.94748344140E+02 0.  0.
         13    1    3    3    0    0  0.17946673646E+02  0.54231736260E+01  0.53948431954E+02  0.57113381807E+02  0.10566000000E+00 0. -1.
         22    1    1    0    0    0 -0.77502830376E+01  0.15820391638E+02 -0.20012548241E+02  0.26661841006E+02  0.00000000000E+00 0. -1.
</event>
<event>
 5    1  0.1258677E-009  0.9118800E+02  0.7561462E-02  0.1125453E+00
         25   -1    0    0    0    0  0.00000000000E+00  0.00000000000E+00  0.99999998245E-14  0.12509000000E+03  0.12509000000E+03 0.  0.
        -13    1    3    3    0    0  0.43285631899E+02  0.13638007165E+02 -0.25927699620E+01  0.45457395311E+02  0.10566000000E+00 0.  1.
         23    2    1    0    0    0 -0.21189301186E+01  0.16899518495E+02 -0.23918792449E+02  0.95726890110E+02  0.91112267383E+02 0.  0.
         13    1    3    3    0    0 -0.45404562018E+02  0.32615113293E+01 -0.21326022487E+02  0.50269494799E+02  0.10566000000E+00 0. -1.
         22    1    1    0    0    0  0.21189301186E+01 -0.16899518495E+02  0.23918792449E+02  0.29363109890E+02  0.00000000000E+00 0. -1.
</event>
<event>
 5    1  0.1258677E-009  0.9118800E+02  0.7561462E-02  0.1125453E+00
         25   -1    0    0    0    0  0.00000000000E+00  0.00000000000E+00  0.99999998245E-14  0.12509000000E+03  0.12509000000E+03 0.  0.
        -13    1    3    3    0    0  0.25134802473E+02  0.27967094687E+02 -0.27801350038E+01  0.37704866997E+02  0.10566000000E+00 0. -1.
         23    2    1    0    0    0  0.16332447511E+02 -0.25192795025E+02  0.10643336447E+02  0.93235543897E+02  0.87625112109E+02 0.  0.
         13    1    3    3    0    0 -0.88023549623E+01 -0.53159889712E+02  0.13423471451E+02  0.55530676900E+02  0.10566000000E+00 0.  1.
         22    1    1    0    0    0 -0.16332447511E+02  0.25192795025E+02 -0.10643336447E+02  0.31854456103E+02  0.00000000000E+00 0.  1.
</event>
<event>
 5    1  0.1258677E-009  0.9118800E+02  0.7561462E-02  0.1125453E+00
         25   -1    0    0    0    0  0.00000000000E+00  0.00000000000E+00  0.99999998245E-14  0.12509000000E+03  0.12509000000E+03 0.  0.
        -13    1    3    3    0    0  0.44139878065E+02 -0.31220996043E+02 -0.20210361654E+01  0.54103374948E+02  0.10566000000E+00 0. -1.
         23    2    1    0    0    0  0.88098683081E+01 -0.21049313540E+02 -0.19742034537E+02  0.94916579449E+02  0.89992898311E+02 0.  0.
         13    1    3    3    0    0 -0.35330009757E+02  0.10171682503E+02 -0.17720998371E+02  0.40813204501E+02  0.10566000000E+00 0.  1.
         22    1    1    0    0    0 -0.88098683081E+01  0.21049313540E+02  0.19742034537E+02  0.30173420551E+02  0.00000000000E+00 0. -1.
</event>
<event>
 5    1  0.1258677E-009  0.9118800E+02  0.7561462E-02  0.1125453E+00
         25   -1    0    0    0    0  0.00000000000E+00  0.00000000000E+00  0.99999998245E-14  0.12509000000E+03  0.12509000000E+03 0.  0.
        -13    1    3    3    0    0 -0.21448582018E+02 -0.25072638482E+02  0.27878079898E+02  0.43195802734E+02  0.10566000000E+00 0.  1.
         23    2    1    0    0    0  0.18329509041E+02  0.91940938264E+01  0.20287335018E+02  0.96244233844E+02  0.91819792655E+02 0.  0.
         13    1    3    3    0    0  0.39778091059E+02  0.34266732308E+02 -0.75907448804E+01  0.53048431110E+02  0.10566000000E+00 0. -1.
         22    1    1    0    0    0 -0.18329509041E+02 -0.91940938264E+01 -0.20287335018E+02  0.28845766156E+02  0.00000000000E+00 0.  1.
</event>
<event>
 5    1  0.1258677E-009  0.9118800E+02  0.7561462E-02  0.1125453E+00
         25   -1    0    0    0    0  0.00000000000E+00  0.00000000000E+00  0.99999998245E-14  0.12509000000E+03  0.12509000000E+03 0.  0.
        -13    1    3    3    0    0  0.11337147290E+02  0.10930700871E+02  0.35425305723E+02  0.38768216103E+02  0.10566000000E+00 0. -1.
         23    2    1    0    0    0  0.16828017992E+02  0.87633212520E+01 -0.21738564323E+02  0.96236175856E+02  0.91808814259E+02 0.  0.
         13    1    3    3    0    0  0.54908707018E+01 -0.21673796190E+01 -0.57163870046E+02  0.57467959753E+02  0.10566000000E+00 0.  1.
         22    1    1    0    0    0 -0.16828017992E+02 -0.87633212520E+01  0.21738564323E+02  0.28853824144E+02  0.00000000000E+00 0.  1.
</event>
<event>
 5    1  0.1258677E-009  0.9118800E+02  0.7561462E-02  0.1125453E+00
         25   -1    0    0    0    0  0.00000000000E+00  0.00000000000E+00  0.99999998245E-14  0.12509000000E+03  0.12509000000E+03 0.  0.
        -13    1    3    3    0    0 -0.43673547008E+02  0.24754817615E+02 -0.35537855689E+02  0.61507154498E+02  0.10566000000E+00 0.  1.
         23    2    1    0    0    0 -0.24218362126E+02  0.15291349361E+02 -0.10532170554E+02  0.94573102289E+02  0.89514192342E+02 0.  0.
         13    1    3    3    0    0  0.19455184883E+02 -0.94634682538E+01  0.25005685135E+02  0.33065947791E+02  0.10566000000E+00 0. -1.
         22    1    1    0    0    0  0.24218362126E+02 -0.15291349361E+02  0.10532170554E+02  0.30516897711E+02  0.00000000000E+00 0.  1.
</event>
<event>
 5    1  0.1258677E-009  0.9118800E+02  0.7561462E-02  0.1125453E+00
         25   -1    0    0    0    0  0.00000000000E+00  0.00000000000E+00  0.99999998245E-14  0.12509000000E+03  0.12509000000E+03 0.  0.
        -13    1    3    3    0    0  0.47274784530E+01 -0.12200935863E+02 -0.48544642014E+02  0.50277284341E+02  0.10566000000E+00 0.  1.
         23    2    1    0    0    0 -0.12873149880E+02 -0.27879749816E+02 -0.38353626251E+02  0.75957535333E+02  0.57927092881E+02 0.  0.
         13    1    3    3    0    0 -0.17600628333E+02 -0.15678813953E+02  0.10191015762E+02  0.25680250992E+02  0.10566000000E+00 0. -1.
         22    1    1    0    0    0  0.12873149880E+02  0.27879749816E+02  0.38353626251E+02  0.49132464667E+02  0.00000000000E+00 0. -1.
</event>
<event>
 5    1  0.1258677E-009  0.9118800E+02  0.7561462E-02  0.1125453E+00
         25   -1    0    0    0    0  0.00000000000E+00  0.00000000000E+00  0.99999998245E-14  0.12509000000E+03  0.12509000000E+03 0.  0.
        -13    1    3    3    0    0 -0.40547545195E+01 -0.25742076388E+02  0.24735387596E+02  0.35929738304E+02  0.10566000000E+00 0. -1.
         23    2    1    0    0    0 -0.13988666294E+02  0.24177196544E+01 -0.26382684322E+02  0.95130457530E+02  0.90289699107E+02 0.  0.
         13    1    3    3    0    0 -0.99339117741E+01  0.28159796043E+02 -0.51118071918E+02  0.59200719226E+02  0.10566000000E+00 0.  1.
         22    1    1    0    0    0  0.13988666294E+02 -0.24177196544E+01  0.26382684322E+02  0.29959542470E+02  0.00000000000E+00 0.  1.
</event>
<event>
 5    1  0.1258677E-009  0.9118800E+02  0.7561462E-02  0.1125453E+00
         25   -1    0    0    0    0  0.00000000000E+00  0.00000000000E+00  0.99999998245E-14  0.12509000000E+03  0.12509000000E+03 0.  0.
        -13    1    3    3    0    0 -0.19229350110E+02  0.37093244590E+02  0.14798003915E+02  0.44324584418E+02  0.10566000000E+00 0.  1.
         23    2    1    0    0    0  0.24858223220E+02  0.15299049332E+02 -0.71105876005E+00  0.95892435432E+02  0.91339265360E+02 0.  0.
         13    1    3    3    0    0  0.44087573331E+02 -0.21794195258E+02 -0.15509062675E+02  0.51567851014E+02  0.10566000000E+00 0. -1.
         22    1    1    0    0    0 -0.24858223220E+02 -0.15299049332E+02  0.71105876005E+00  0.29197564568E+02  0.00000000000E+00 0. -1.
</event>
<event>
 5    1  0.1258677E-009  0.9118800E+02  0.7561462E-02  0.1125453E+00
         25   -1    0    0    0    0  0.00000000000E+00  0.00000000000E+00  0.99999998245E-14  0.12509000000E+03  0.12509000000E+03 0.  0.
        -13    1    3    3    0    0 -0.42072909056E+02 -0.29869801107E+02 -0.98989838052E+01  0.52538897391E+02  0.10566000000E+00 0. -1.
         23    2    1    0    0    0  0.87192972553E+01 -0.15782716480E+02 -0.82157220164E+01  0.10527540002E+03  0.10339386576E+03 0.  0.
         13    1    3    3    0    0  0.50792206311E+02  0.14087084628E+02  0.16832617888E+01  0.52736502629E+02  0.10566000000E+00 0.  1.
         22    1    1    0    0    0 -0.87192972553E+01  0.15782716480E+02  0.82157220164E+01  0.19814599980E+02  0.00000000000E+00 0.  1.
</event>
<event>
 5    1  0.1258677E-009  0.9118800E+02  0.7561462E-02  0.1125453E+00
         25   -1    0    0    0    0  0.00000000000E+00  0.00000000000E+00  0.99999998245E-14  0.12509000000E+03  0.12509000000E+03 0.  0.
        -13    1    3    3    0    0 -0.47290041812E+02 -0.36797437679E+02 -0.96705187121E+01  0.60695383436E+02  0.10566000000E+00 0.  1.
         23    2    1    0    0    0 -0.27871779191E+02 -0.91328696351E+01 -0.34412837278E+00  0.95758041194E+02  0.91155025346E+02 0.  0.
         13    1    3    3    0    0  0.19418262620E+02  0.27664568044E+02  0.93263903393E+01  0.35062657758E+02  0.10566000000E+00 0. -1.
         22    1    1    0    0    0  0.27871779191E+02  0.91328696351E+01  0.34412837278E+00  0.29331958806E+02  0.00000000000E+00 0.  1.
</event>
<event>
 5    1  0.1258677E-009  0.9118800E+02  0.7561462E-02  0.1125453E+00
         25   -1    0    0    0    0  0.00000000000E+00  0.00000000000E+00  0.99999998245E-14  0.12509000000E+03  0.12509000000E+03 0.  0.
        -13    1    3    3    0    0 -0.13565927402E+02 -0.43389934065E+02 -0.21575732004E-01  0.45461328555E+02  0.10566000000E+00 0.  1.
         23    2    1    0    0    0  0.64972997077E+01 -0.47615696065E+01  0.27147466042E+02  0.96772649116E+02  0.92536875114E+02 0.  0.
         13    1    3    3    0    0  0.20063227109E+02  0.38628364458E+02  0.27169041774E+02  0.51311320561E+02  0.10566000000E+00 0. -1.
         22    1    1    0    0    0 -0.64972997077E+01  0.47615696065E+01 -0.27147466042E+02  0.28317350884E+02  0.00000000000E+00 0. -1.
</event>
<event>
 5    1  0.1258677E-009  0.9118800E+02  0.7561462E-02  0.1125453E+00
         25   -1    0    0    0    0  0.00000000000E+00  0.00000000000E+00  0.99999998245E-14  0.12509000000E+03  0.12509000000E+03 0.  0.
        -13    1    3    3    0    0  0.29079189474E+02 -0.29476040794E+02 -0.46732131951E+02  0.62436684426E+02  0.10566000000E+00 0. -1.
         23    2    1    0    0    0  0.12150354962E+02 -0.14380684737E+02 -0.24443138509E+02  0.94237087020E+02  0.89043395772E+02 0.  0.
         13    1    3    3    0    0 -0.16928834512E+02  0.15095356057E+02  0.22288993442E+02  0.31800402594E+02  0.10566000000E+00 0.  1.
         22    1    1    0    0    0 -0.12150354962E+02  0.14380684737E+02  0.24443138509E+02  0.30852912980E+02  0.00000000000E+00 0. -1.
</event>
<event>
 5    1  0.1258677E-009  0.9118800E+02  0.7561462E-02  0.1125453E+00
         25   -1    0    0    0    0  0.00000000000E+00  0.00000000000E+00  0.99999998245E-14  0.12509000000E+03  0.12509000000E+03 0.  0.
        -13    1    3    3    0    0  0.30691908352E+02 -0.13672787724E+02  0.35599703782E+01  0.33787910790E+02  0.10566000000E+00 0.  1.
         23    2    1    0    0    0 -0.26920375604E+02  0.94967839769E+01 -0.36883354718E+01  0.96306335412E+02  0.91904357314E+02 0.  0.
         13    1    3    3    0    0 -0.57612283956E+02  0.23169571700E+02 -0.72483058500E+01  0.62518424622E+02  0.10566000000E+00 0. -1.
         22    1    1    0    0    0  0.26920375604E+02 -0.94967839769E+01  0.36883354718E+01  0.28783664588E+02  0.00000000000E+00 0. -1.
</event>
<event>
 5    1  0.1258677E-009  0.9118800E+02  0.7561462E-02  0.1125453E+00
         25   -1    0    0    0    0  0.00000000000E+00  0.00000000000E+00  0.99999998245E-14  0.12509000000E+03  0.12509000000E+03 0.  0.
        -13    1    3    3    0    0 -0.67705188990E+01 -0.34453055095E+02  0.32639807726E+02  0.47939765790E+02  0.10566000000E+00 0.  1.
         23    2    1    0    0    0  0.19294085072E+02 -0.22747508289E+02 -0.46331368587E+01  0.94904294621E+02  0.89975820798E+02 0.  0.
         13    1    3    3    0    0  0.26064603971E+02  0.11705546807E+02 -0.37272944585E+02  0.46964528831E+02  0.10566000000E+00 0. -1.
         22    1    1    0    0    0 -0.19294085072E+02  0.22747508289E+02  0.46331368587E+01  0.30185705379E+02  0.00000000000E+00 0.  1.
</event>
<event>
 5    1  0.1258677E-009  0.9118800E+02  0.7561462E-02  0.1125453E+00
         25   -1    0    0    0    0  0.00000000000E+00  0.00000000000E+00  0.99999998245E-14  0.12509000000E+03  0.12509000000E+03 0.  0.
        -13    1    3    3    0    0  0.32634624887E+02 -0.10179764110E+02  0.13070312995E+02  0.36599051690E+02  0.10566000000E+00 0. -1.
         23    2    1    0    0    0 -0.16145333686E+02 -0.15443943775E+02 -0.19455071252E+02  0.95464217368E+02  0.90750921765E+02 0.  0.
         13    1    3    3    0    0 -0.48779958572E+02 -0.52641796646E+01 -0.32525384246E+02  0.58865165678E+02  0.10566000000E+00 0.  1.
         22    1    1    0    0    0  0.16145333686E+02  0.15443943775E+02  0.19455071252E+02  0.29625782632E+02  0.00000000000E+00 0.  1.
</event>
<event>
 5    1  0.1258677E-009  0.9118800E+02  0.7561462E-02  0.1125453E+00
         25   -1    0    0    0    0  0.00000000000E+00  0.00000000000E+00  0.99999998245E-14  0.12509000000E+03  0.12509000000E+03 0.  0.
        -13    1    3    3    0    0 -0.13323971581E+02 -0.34675065740E+02  0.11748656404E+02  0.38960627486E+02  0.10566000000E+00 0.  1.
         23    2    1    0    0    0  0.94229706135E+01  0.16066381273E+02  0.22793926554E+02  0.95653898523E+02  0.91012000486E+02 0.  0.
         13    1    3    3    0    0  0.22746942194E+02  0.50741447013E+02  0.11045270150E+02  0.56693271037E+02  0.10566000000E+00 0. -1.
         22    1    1    0    0    0 -0.94229706135E+01 -0.16066381273E+02 -0.22793926554E+02  0.29436101477E+02  0.00000000000E+00 0. -1.
</event>
<event>
 5    1  0.1258677E-009  0.9118800E+02  0.7561462E-02  0.1125453E+00
         25   -1    0    0    0    0  0.00000000000E+00  0.00000000000E+00  0.99999998245E-14  0.12509000000E+03  0.12509000000E+03 0.  0.
        -13    1    3    3    0    0 -0.56826291083E+02  0.16322741976E+02  0.12106990288E+01  0.59136589520E+02  0.10566000000E+00 0.  1.
         23    2    1    0    0    0 -0.32698102918E+02  0.13417589887E+02 -0.13166164717E+02  0.87373351870E+02  0.78813432046E+02 0.  0.
         13    1    3    3    0    0  0.24128188165E+02 -0.29051520898E+01 -0.14376863746E+02  0.28236762350E+02  0.10566000000E+00 0. -1.
         22    1    1    0    0    0  0.32698102918E+02 -0.13417589887E+02  0.13166164717E+02  0.37716648130E+02  0.00000000000E+00 0.  1.
</event>
<event>
 5    1  0.1258677E-009  0.9118800E+02  0.7561462E-02  0.1125453E+00
         25   -1    0    0    0    0  0.00000000000E+00  0.00000000000E+00  0.99999998245E-14  0.12509000000E+03  0.12509000000E+03 0.  0.
        -13    1    3    3    0    0 -0.13193054192E+02  0.18314825511E+01  0.33264731929E+02  0.35832451236E+02  0.10566000000E+00 0. -1.
         23    2    1    0    0    0 -0.19788860227E+02 -0.55487249957E+01 -0.23739730401E+02  0.93689965961E+02  0.88271442630E+02 0.  0.
         13    1    3    3    0    0 -0.65958060354E+01 -0.73802075468E+01 -0.57004462329E+02  0.57857514725E+02  0.10566000000E+00 0.  1.
         22    1    1    0    0    0  0.19788860227E+02  0.55487249957E+01  0.23739730401E+02  0.31400034039E+02  0.00000000000E+00 0.  1.
</event>
<event>
 5    1  0.1258677E-009  0.9118800E+02  0.7561462E-02  0.1125453E+00
         25   -1    0    0    0    0  0.00000000000E+00  0.00000000000E+00  0.99999998245E-14  0.12509000000E+03  0.12509000000E+03 0.  0.
        -13    1    3    3    0    0 -0.87461263197E+01  0.10587963165E+02 -0.47595777380E+02  0.49537550181E+02  0.10566000000E+00 0.  1.
         23    2    1    0    0    0 -0.18159864324E+02 -0.18550060220E+02 -0.12001837183E+02  0.96490533183E+02  0.92154725824E+02 0.  0.
         13    1    3    3    0    0 -0.94137380048E+01 -0.29138023385E+02  0.35593940197E+02  0.46952983002E+02  0.10566000000E+00 0. -1.
         22    1    1    0    0    0  0.18159864324E+02  0.18550060220E+02  0.12001837183E+02  0.28599466817E+02  0.00000000000E+00 0. -1.
</event>
<event>
 5    1  0.1258677E-009  0.9118800E+02  0.7561462E-02  0.1125453E+00
         25   -1    0    0    0    0  0.00000000000E+00  0.00000000000E+00  0.99999998245E-14  0.12509000000E+03  0.12509000000E+03 0.  0.
        -13    1    3    3    0    0 -0.25649883720E+01  0.34361606174E+02  0.69628271114E+01  0.35153822974E+02  0.10566000000E+00 0.  1.
         23    2    1    0    0    0 -0.48195010372E+01 -0.17899456418E+02 -0.23088273366E+02  0.95481107800E+02  0.90774200351E+02 0.  0.
         13    1    3    3    0    0 -0.22545126652E+01 -0.52261062592E+02 -0.30051100477E+02  0.60327284827E+02  0.10566000000E+00 0. -1.
         22    1    1    0    0    0  0.48195010372E+01  0.17899456418E+02  0.23088273366E+02  0.29608892200E+02  0.00000000000E+00 0. -1.
</event>
<event>
 5    1  0.1258677E-009  0.9118800E+02  0.7561462E-02  0.1125453E+00
         25   -1    0    0    0    0  0.00000000000E+00  0.00000000000E+00  0.99999998245E-14  0.12509000000E+03  0.12509000000E+03 0.  0.
        -13    1    3    3    0    0 -0.13417197608E+02  0.21445081874E+02 -0.34856210167E+02  0.43068309457E+02  0.10566000000E+00 0. -1.
         23    2    1    0    0    0 -0.23314335870E+02 -0.35029811328E+01  0.13169550482E+02  0.98085070935E+02  0.94294299650E+02 0.  0.
         13    1    3    3    0    0 -0.98971382622E+01 -0.24948063007E+02  0.48025760649E+02  0.55016761478E+02  0.10566000000E+00 0.  1.
         22    1    1    0    0    0  0.23314335870E+02  0.35029811328E+01 -0.13169550482E+02  0.27004929065E+02  0.00000000000E+00 0.  1.
</event>
<event>
 5    1  0.1258677E-009  0.9118800E+02  0.7561462E-02  0.1125453E+00
         25   -1    0    0    0    0  0.00000000000E+00  0.00000000000E+00  0.99999998245E-14  0.12509000000E+03  0.12509000000E+03 0.  0.
        -13    1    3    3    0    0  0.40828413532E+01 -0.52984035475E+02  0.74780479443E+01  0.53664792684E+02  0.10566000000E+00 0.  1.
         23    2    1    0    0    0  0.22964143858E+02 -0.15614328198E+02  0.99116319121E+01  0.95604417161E+02  0.90943966184E+02 0.  0.
         13    1    3    3    0    0  0.18881302505E+02  0.37369707277E+02  0.24335839679E+01  0.41939624477E+02  0.10566000000E+00 0. -1.
         22    1    1    0    0    0 -0.22964143858E+02  0.15614328198E+02 -0.99116319121E+01  0.29485582839E+02  0.00000000000E+00 0.  1.
</event>
<event>
 5    1  0.1258677E-009  0.9118800E+02  0.7561462E-02  0.1125453E+00
         25   -1    0    0    0    0  0.00000000000E+00  0.00000000000E+00  0.99999998245E-14  0.12509000000E+03  0.12509000000E+03 0.  0.
        -13    1    3    3    0    0 -0.13817672673E+02 -0.29026205596E+02 -0.18214400419E+02  0.36948940933E+02  0.10566000000E+00 0. -1.
         23    2    1    0    0    0  0.22048935010E+02 -0.16314825688E+02  0.20204523387E+02  0.91023126976E+02  0.84407688080E+02 0.  0.
         13    1    3    3    0    0  0.35866607683E+02  0.12711379908E+02  0.38418923806E+02  0.54074186044E+02  0.10566000000E+00 0.  1.
         22    1    1    0    0    0 -0.22048935010E+02  0.16314825688E+02 -0.20204523387E+02  0.34066873024E+02  0.00000000000E+00 0.  1.
</event>
<event>
 5    1  0.1258677E-009  0.9118800E+02  0.7561462E-02  0.1125453E+00
         25   -1    0    0    0    0  0.00000000000E+00  0.00000000000E+00  0.99999998245E-14  0.12509000000E+03  0.12509000000E+03 0.  0.
        -13    1    3    3    0    0 -0.49656008716E+01  0.45814538460E+02 -0.86392695449E+01  0.46885789624E+02  0.10566000000E+00 0. -1.
         23    2    1    0    0    0 -0.48636556803E+01  0.32538626568E+01 -0.30012802476E+02  0.94512049100E+02  0.89428833962E+02 0.  0.
         13    1    3    3    0    0  0.10194519132E+00 -0.42560675804E+02 -0.21373532931E+02  0.47626259476E+02  0.10566000000E+00 0.  1.
         22    1    1    0    0    0  0.48636556803E+01 -0.32538626568E+01  0.30012802476E+02  0.30577950900E+02  0.00000000000E+00 0. -1.
</event>
<event>
 5    1  0.1258677E-009  0.9118800E+02  0.7561462E-02  0.1125453E+00
         25   -1    0    0    0    0  0.00000000000E+00  0.00000000000E+00  0.99999998245E-14  0.12509000000E+03  0.12509000000E+03 0.  0.
        -13    1    3    3    0    0 -0.40226961670E+01  0.47998495612E+02 -0.25051006945E+02  0.54291820549E+02  0.10566000000E+00 0.  1.
         23    2    1    0    0    0  0.16619815567E+02  0.63842925225E+01 -0.14976864897E+02  0.10182449028E+03  0.99130938045E+02 0.  0.
         13    1    3    3    0    0  0.20642511734E+02 -0.41614203090E+02  0.10074142048E+02  0.47532669729E+02  0.10566000000E+00 0. -1.
         22    1    1    0    0    0 -0.16619815567E+02 -0.63842925225E+01  0.14976864897E+02  0.23265509723E+02  0.00000000000E+00 0.  1.
</event>
<event>
 5    1  0.1258677E-009  0.9118800E+02  0.7561462E-02  0.1125453E+00
         25   -1    0    0    0    0  0.00000000000E+00  0.00000000000E+00  0.99999998245E-14  0.12509000000E+03  0.12509000000E+03 0.  0.
        -13    1    3    3    0    0  0.25357273580E+02 -0.23878792661E+02 -0.26712185141E+02  0.43894647298E+02  0.10566000000E+00 0. -1.
         23    2    1    0    0    0 -0.78297657662E+01  0.16855653183E+02 -0.21463065466E+02  0.96698426332E+02  0.92436487383E+02 0.  0.
         13    1    3    3    0    0 -0.33187039346E+02  0.40734445845E+02  0.52491196756E+01  0.52803779034E+02  0.10566000000E+00 0.  1.
         22    1    1    0    0    0  0.78297657662E+01 -0.16855653183E+02  0.21463065466E+02  0.28391573668E+02  0.00000000000E+00 0.  1.
</event>
<event>
 5    1  0.1258677E-009  0.9118800E+02  0.7561462E-02  0.1125453E+00
         25   -1    0    0    0    0  0.00000000000E+00  0.00000000000E+00  0.99999998245E-14  0.12509000000E+03  0.12509000000E+03 0.  0.
        -13    1    3    3    0    0  0.43135297121E+02 -0.27140149607E+02  0.16298837464E+02  0.53506119698E+02  0.10566000000E+00 0.  1.
         23    2    1    0    0    0 -0.14119689476E+01 -0.79837124296E+01  0.21342560006E+02  0.10225935857E+03  0.99678173274E+02 0.  0.
         13    1    3    3    0    0 -0.44547266068E+02  0.19156437178E+02  0.50437225420E+01  0.48753238873E+02  0.10566000000E+00 0. -1.
         22    1    1    0    0    0  0.14119689476E+01  0.79837124296E+01 -0.21342560006E+02  0.22830641429E+02  0.00000000000E+00 0.  1.
</event>
<event>
 5    1  0.1258677E-009  0.9118800E+02  0.7561462E-02  0.1125453E+00
         25   -1    0    0    0    0  0.00000000000E+00  0.00000000000E+00  0.99999998245E-14  0.12509000000E+03  0.12509000000E+03 0.  0.
        -13    1    3    3    0    0 -0.38162441456E+02 -0.15953571838E+02 -0.24650225562E+02  0.48151149275E+02  0.10566000000E+00 0. -1.
         23    2    1    0    0    0  0.74678013874E+01 -0.20122240355E+02 -0.22459551013E+02  0.94023876229E+02  0.88743367385E+02 0.  0.
         13    1    3    3    0    0  0.45630242843E+02 -0.41686685174E+01  0.21906745494E+01  0.45872726953E+02  0.10566000000E+00 0.  1.
         22    1    1    0    0    0 -0.74678013874E+01  0.20122240355E+02  0.22459551013E+02  0.31066123771E+02  0.00000000000E+00 0. -1.
</event>
<event>
 5    1  0.1258677E-009  0.9118800E+02  0.7561462E-02  0.1125453E+00
         25   -1    0    0    0    0  0.00000000000E+00  0.00000000000E+00  0.99999998245E-14  0.12509000000E+03  0.12509000000E+03 0.  0.
        -13    1    3    3    0    0  0.15392810086E+02 -0.56608160072E+01 -0.31742507227E+02  0.35729278880E+02  0.10566000000E+00 0. -1.
         23    2    1    0    0    0 -0.11397383234E+02  0.23638272369E+02  0.13215709609E+02  0.95707637167E+02  0.91085830767E+02 0.  0.
         13    1    3    3    0    0 -0.26790193320E+02  0.29299088376E+02  0.44958216835E+02  0.59978358287E+02  0.10566000000E+00 0.  1.
         22    1    1    0    0    0  0.11397383234E+02 -0.23638272369E+02 -0.13215709609E+02  0.29382362833E+02  0.00000000000E+00 0.  1.
</event>
<event>
 5    1  0.1258677E-009  0.9118800E+02  0.7561462E-02  0.1125453E+00
         25   -1    0    0    0    0  0.00000000000E+00  0.00000000000E+00  0.99999998245E-14  0.12509000000E+03  0.12509000000E+03 0.  0.
        -13    1    3    3    0    0  0.18143977011E+01 -0.31397452018E+02  0.42368271158E+02  0.52765268854E+02  0.10566000000E+00 0.  1.
         23    2    1    0    0    0  0.23178473872E+02 -0.34768565485E+01  0.17902290561E+02  0.95597251911E+02  0.90934110119E+02 0.  0.
         13    1    3    3    0    0  0.21364076171E+02  0.27920595470E+02 -0.24465980597E+02  0.42831983057E+02  0.10566000000E+00 0. -1.
         22    1    1    0    0    0 -0.23178473872E+02  0.34768565485E+01 -0.17902290561E+02  0.29492748089E+02  0.00000000000E+00 0.  1.
</event>
<event>
 5    1  0.1258677E-009  0.9118800E+02  0.7561462E-02  0.1125453E+00
         25   -1    0    0    0    0  0.00000000000E+00  0.00000000000E+00  0.99999998245E-14  0.12509000000E+03  0.12509000000E+03 0.  0.
        -13    1    3    3    0    0 -0.39639198544E+02  0.29021188470E+02  0.37679656169E+02  0.61913351504E+02  0.10566000000E+00 0. -1.
         23    2    1    0    0    0 -0.12679807094E+02  0.14841022199E+02  0.20043840308E+02  0.97111633676E+02  0.92993980521E+02 0.  0.
         13    1    3    3    0    0  0.26959391449E+02 -0.14180166271E+02 -0.17635815861E+02  0.35198282173E+02  0.10566000000E+00 0.  1.
         22    1    1    0    0    0  0.12679807094E+02 -0.14841022199E+02 -0.20043840308E+02  0.27978366324E+02  0.00000000000E+00 0. -1.
</event>
<event>
 5    1  0.1258677E-009  0.9118800E+02  0.7561462E-02  0.1125453E+00
         25   -1    0    0    0    0  0.00000000000E+00  0.00000000000E+00  0.99999998245E-14  0.12509000000E+03  0.12509000000E+03 0.  0.
        -13    1    3    3    0    0  0.26283727111E+02  0.97850698955E+01  0.24115580463E+02  0.36988569705E+02  0.10566000000E+00 0.  1.
         23    2    1    0    0    0 -0.37490215822E+01 -0.25799925888E+02 -0.12454479124E+02  0.96197001040E+02  0.91755422838E+02 0.  0.
         13    1    3    3    0    0 -0.30032748693E+02 -0.35584995783E+02 -0.36570059587E+02  0.59208431335E+02  0.10566000000E+00 0. -1.
         22    1    1    0    0    0  0.37490215822E+01  0.25799925888E+02  0.12454479124E+02  0.28892998960E+02  0.00000000000E+00 0. -1.
</event>
<event>
 5    1  0.1258677E-009  0.9118800E+02  0.7561462E-02  0.1125453E+00
         25   -1    0    0    0    0  0.00000000000E+00  0.00000000000E+00  0.99999998245E-14  0.12509000000E+03  0.12509000000E+03 0.  0.
        -13    1    3    3    0    0 -0.26116216025E+02  0.40671420011E+02 -0.33573965789E+02  0.58851027926E+02  0.10566000000E+00 0. -1.
         23    2    1    0    0    0 -0.14587282251E+02  0.20224225757E+02  0.40603677820E+00  0.10015061394E+03  0.96995734426E+02 0.  0.
         13    1    3    3    0    0  0.11528933774E+02 -0.20447194254E+02  0.33980002567E+02  0.41299586019E+02  0.10566000000E+00 0.  1.
         22    1    1    0    0    0  0.14587282251E+02 -0.20224225757E+02 -0.40603677820E+00  0.24939386055E+02  0.00000000000E+00 0. -1.
</event>
<event>
 5    1  0.1258677E-009  0.9118800E+02  0.7561462E-02  0.1125453E+00
         25   -1    0    0    0    0  0.00000000000E+00  0.00000000000E+00  0.99999998245E-14  0.12509000000E+03  0.12509000000E+03 0.  0.
        -13    1    3    3    0    0 -0.27614509282E+02  0.15415777115E+01  0.31162365185E+02  0.41665834357E+02  0.10566000000E+00 0. -1.
         23    2    1    0    0    0  0.74195623035E+01  0.27838934571E+02 -0.13952157096E+01  0.96245541092E+02  0.91821573557E+02 0.  0.
         13    1    3    3    0    0  0.35034071585E+02  0.26297356859E+02 -0.32557580894E+02  0.54579706736E+02  0.10566000000E+00 0.  1.
         22    1    1    0    0    0 -0.74195623035E+01 -0.27838934571E+02  0.13952157096E+01  0.28844458908E+02  0.00000000000E+00 0.  1.
</event>
<event>
 5    1  0.1258677E-009  0.9118800E+02  0.7561462E-02  0.1125453E+00
         25   -1    0    0    0    0  0.00000000000E+00  0.00000000000E+00  0.99999998245E-14  0.12509000000E+03  0.12509000000E+03 0.  0.
        -13    1    3    3    0    0  0.18531487277E+02 -0.38531829796E+02 -0.10452751475E+02  0.44015782460E+02  0.10566000000E+00 0. -1.
         23    2    1    0    0    0 -0.24882366335E+01  0.47612480336E+01 -0.29003244653E+02  0.95593406895E+02  0.90928820717E+02 0.  0.
         13    1    3    3    0    0 -0.21019723910E+02  0.43293077829E+02 -0.18550493178E+02  0.51577624435E+02  0.10566000000E+00 0.  1.
         22    1    1    0    0    0  0.24882366335E+01 -0.47612480336E+01  0.29003244653E+02  0.29496593105E+02  0.00000000000E+00 0.  1.
</event>
<event>
 5    1  0.1258677E-009  0.9118800E+02  0.7561462E-02  0.1125453E+00
         25   -1    0    0    0    0  0.00000000000E+00  0.00000000000E+00  0.99999998245E-14  0.12509000000E+03  0.12509000000E+03 0.  0.
        -13    1    3    3    0    0  0.28717745606E+02 -0.33652141326E+02  0.33705512675E+02  0.55616978318E+02  0.10566000000E+00 0. -1.
         23    2    1    0    0    0  0.85379119595E+01 -0.30134260935E+02  0.15647534752E+01  0.93730502616E+02  0.88328868693E+02 0.  0.
         13    1    3    3    0    0 -0.20179833647E+02  0.35178803909E+01 -0.32140759200E+02  0.38113524298E+02  0.10566000000E+00 0.  1.
         22    1    1    0    0    0 -0.85379119595E+01  0.30134260935E+02 -0.15647534752E+01  0.31359497384E+02  0.00000000000E+00 0. -1.
</event>
<event>
 5    1  0.1258677E-009  0.9118800E+02  0.7561462E-02  0.1125453E+00
         25   -1    0    0    0    0  0.00000000000E+00  0.00000000000E+00  0.99999998245E-14  0.12509000000E+03  0.12509000000E+03 0.  0.
        -13    1    3    3    0    0 -0.26696184955E+02  0.62943652167E+01  0.17723585274E+02  0.32656423008E+02  0.10566000000E+00 0. -1.
         23    2    1    0    0    0  0.22497624949E+02  0.11445298840E+01 -0.20081202877E+02  0.94912064584E+02  0.89986622437E+02 0.  0.
         13    1    3    3    0    0  0.49193809904E+02 -0.51498353327E+01 -0.37804788151E+02  0.62255641576E+02  0.10566000000E+00 0.  1.
         22    1    1    0    0    0 -0.22497624949E+02 -0.11445298840E+01  0.20081202877E+02  0.30177935416E+02  0.00000000000E+00 0.  1.
</event>
<event>
 5    1  0.1258677E-009  0.9118800E+02  0.7561462E-02  0.1125453E+00
         25   -1    0    0    0    0  0.00000000000E+00  0.00000000000E+00  0.99999998245E-14  0.12509000000E+03  0.12509000000E+03 0.  0.
        -13    1    3    3    0    0  0.38415738451E+02  0.42832576839E+02  0.15752180580E+02  0.59653507496E+02  0.10566000000E+00 0.  1.
         23    2    1    0    0    0  0.28208243647E+02  0.11559365304E+02  0.54840725227E+01  0.94115833550E+02  0.88872893153E+02 0.  0.
         13    1    3    3    0    0 -0.10207494804E+02 -0.31273211536E+02 -0.10268108058E+02  0.34462326054E+02  0.10566000000E+00 0. -1.
         22    1    1    0    0    0 -0.28208243647E+02 -0.11559365304E+02 -0.54840725227E+01  0.30974166450E+02  0.00000000000E+00 0.  1.
</event>
<event>
 5    1  0.1258677E-009  0.9118800E+02  0.7561462E-02  0.1125453E+00
         25   -1    0    0    0    0  0.00000000000E+00  0.00000000000E+00  0.99999998245E-14  0.12509000000E+03  0.12509000000E+03 0.  0.
        -13    1    3    3    0    0  0.31670958054E+02 -0.35690846798E+02  0.40415758132E+02  0.62532637867E+02  0.10566000000E+00 0.  1.
         23    2    1    0    0    0  0.14502155946E+02 -0.17198275390E+02  0.19924574267E+02  0.95038679510E+02  0.90162457486E+02 0.  0.
         13    1    3    3    0    0 -0.17168802108E+02  0.18492571408E+02 -0.20491183865E+02  0.32506041643E+02  0.10566000000E+00 0. -1.
         22    1    1    0    0    0 -0.14502155946E+02  0.17198275390E+02 -0.19924574267E+02  0.30051320490E+02  0.00000000000E+00 0.  1.
</event>
<event>
 5    1  0.1258677E-009  0.9118800E+02  0.7561462E-02  0.1125453E+00
         25   -1    0    0    0    0  0.00000000000E+00  0.00000000000E+00  0.99999998245E-14  0.12509000000E+03  0.12509000000E+03 0.  0.
        -13    1    3    3    0    0 -0.10655362214E+02 -0.16946427275E+01  0.20191927101E+02  0.22893965187E+02  0.10566000000E+00 0.  1.
         23    2    1    0    0    0 -0.28049714031E+02  0.15615518831E+02 -0.31498961714E+02  0.80114279053E+02  0.66298433115E+02 0.  0.
         13    1    3    3    0    0 -0.17394351817E+02  0.17310161559E+02 -0.51690888816E+02  0.57220313866E+02  0.10566000000E+00 0. -1.
         22    1    1    0    0    0  0.28049714031E+02 -0.15615518831E+02  0.31498961714E+02  0.44975720947E+02  0.00000000000E+00 0. -1.
</event>
<event>
 5    1  0.1258677E-009  0.9118800E+02  0.7561462E-02  0.1125453E+00
         25   -1    0    0    0    0  0.00000000000E+00  0.00000000000E+00  0.99999998245E-14  0.12509000000E+03  0.12509000000E+03 0.  0.
        -13    1    3    3    0    0 -0.56186496618E+02  0.44968950400E+01  0.26405400532E+02  0.62244684982E+02  0.10566000000E+00 0. -1.
         23    2    1    0    0    0 -0.27998807269E+02 -0.15547985975E+01  0.10693112682E+02  0.95078447791E+02  0.90217614513E+02 0.  0.
         13    1    3    3    0    0  0.28187689349E+02 -0.60516936375E+01 -0.15712287850E+02  0.32833762810E+02  0.10566000000E+00 0.  1.
         22    1    1    0    0    0  0.27998807269E+02  0.15547985975E+01 -0.10693112682E+02  0.30011552209E+02  0.00000000000E+00 0. -1.
</event>
<event>
 5    1  0.1258677E-009  0.9118800E+02  0.7561462E-02  0.1125453E+00
         25   -1    0    0    0    0  0.00000000000E+00  0.00000000000E+00  0.99999998245E-14  0.12509000000E+03  0.12509000000E+03 0.  0.
        -13    1    3    3    0    0  0.44418844176E+02  0.12417334085E+02  0.60795060597E+00  0.46125965265E+02  0.10566000000E+00 0. -1.
         23    2    1    0    0    0  0.71188782486E+01  0.81852060223E+01  0.29604745438E+02  0.93560379362E+02  0.88087613253E+02 0.  0.
         13    1    3    3    0    0 -0.37299965927E+02 -0.42321280626E+01  0.28996794832E+02  0.47434414096E+02  0.10566000000E+00 0.  1.
         22    1    1    0    0    0 -0.71188782486E+01 -0.81852060223E+01 -0.29604745438E+02  0.31529620638E+02  0.00000000000E+00 0. -1.
</event>
<event>
 5    1  0.1258677E-009  0.9118800E+02  0.7561462E-02  0.1125453E+00
         25   -1    0    0    0    0  0.00000000000E+00  0.00000000000E+00  0.99999998245E-14  0.12509000000E+03  0.12509000000E+03 0.  0.
        -13    1    3    3    0    0  0.41998122638E+02  0.18407817046E+02 -0.13205291705E+02  0.47718769122E+02  0.10566000000E+00 0. -1.
         23    2    1    0    0    0  0.12239424265E+02 -0.21731622700E+02 -0.11261405872E+02  0.97724214907E+02  0.93814369824E+02 0.  0.
         13    1    3    3    0    0 -0.29758698373E+02 -0.40139439746E+02  0.19438858330E+01  0.50005445785E+02  0.10566000000E+00 0.  1.
         22    1    1    0    0    0 -0.12239424265E+02  0.21731622700E+02  0.11261405872E+02  0.27365785093E+02  0.00000000000E+00 0.  1.
</event>
<event>
 5    1  0.1258677E-009  0.9118800E+02  0.7561462E-02  0.1125453E+00
         25   -1    0    0    0    0  0.00000000000E+00  0.00000000000E+00  0.99999998245E-14  0.12509000000E+03  0.12509000000E+03 0.  0.
        -13    1    3    3    0    0  0.33686749482E+02 -0.14864790968E+02 -0.10855730287E+02  0.38387721282E+02  0.10566000000E+00 0.  1.
         23    2    1    0    0    0 -0.22630527896E+02 -0.96518985912E+01 -0.16861274953E+02  0.95263794537E+02  0.90474239524E+02 0.  0.
         13    1    3    3    0    0 -0.56317277377E+02  0.52128923768E+01 -0.60055446664E+01  0.56876073255E+02  0.10566000000E+00 0. -1.
         22    1    1    0    0    0  0.22630527896E+02  0.96518985912E+01  0.16861274953E+02  0.29826205463E+02  0.00000000000E+00 0. -1.
</event>
<event>
 5    1  0.1258677E-009  0.9118800E+02  0.7561462E-02  0.1125453E+00
         25   -1    0    0    0    0  0.00000000000E+00  0.00000000000E+00  0.99999998245E-14  0.12509000000E+03  0.12509000000E+03 0.  0.
        -13    1    3    3    0    0  0.26054915495E+02  0.34582419271E+02  0.15497443387E+02  0.45988958019E+02  0.10566000000E+00 0. -1.
         23    2    1    0    0    0  0.28423940580E+02 -0.81848279805E+01 -0.74579456197E+01  0.94585364941E+02  0.89531326926E+02 0.  0.
         13    1    3    3    0    0  0.23690250856E+01 -0.42767247252E+02 -0.22955389006E+02  0.48596406923E+02  0.10566000000E+00 0.  1.
         22    1    1    0    0    0 -0.28423940580E+02  0.81848279805E+01  0.74579456197E+01  0.30504635059E+02  0.00000000000E+00 0. -1.
</event>
<event>
 5    1  0.1258677E-009  0.9118800E+02  0.7561462E-02  0.1125453E+00
         25   -1    0    0    0    0  0.00000000000E+00  0.00000000000E+00  0.99999998245E-14  0.12509000000E+03  0.12509000000E+03 0.  0.
        -13    1    3    3    0    0 -0.42803987228E+01 -0.35732378724E+02 -0.10801632588E+02  0.37574075279E+02  0.10566000000E+00 0. -1.
         23    2    1    0    0    0  0.60872451308E+01  0.52617988330E+01  0.28605162928E+02  0.95374744215E+02  0.90627509111E+02 0.  0.
         13    1    3    3    0    0  0.10367643854E+02  0.40994177557E+02  0.39406795515E+02  0.57800668936E+02  0.10566000000E+00 0.  1.
         22    1    1    0    0    0 -0.60872451308E+01 -0.52617988330E+01 -0.28605162928E+02  0.29715255785E+02  0.00000000000E+00 0.  1.
</event>
<event>
 5    1  0.1258677E-009  0.9118800E+02  0.7561462E-02  0.1125453E+00
         25   -1    0    0    0    0  0.00000000000E+00  0.00000000000E+00  0.99999998245E-14  0.12509000000E+03  0.12509000000E+03 0.  0.
        -13    1    3    3    0    0 -0.77978542396E+01 -0.53932661027E+02  0.30930039187E+01  0.54581281530E+02  0.10566000000E+00 0.  1.
         23    2    1    0    0    0 -0.17407137545E+02 -0.15896429891E+02  0.16804853055E+02  0.96139904888E+02  0.91677550714E+02 0.  0.
         13    1    3    3    0    0 -0.96092833050E+01  0.38036231136E+02  0.13711849137E+02  0.41558623358E+02  0.10566000000E+00 0. -1.
         22    1    1    0    0    0  0.17407137545E+02  0.15896429891E+02 -0.16804853055E+02  0.28950095112E+02  0.00000000000E+00 0.  1.
</event>
<event>
 5    1  0.1258677E-009  0.9118800E+02  0.7561462E-02  0.1125453E+00
         25   -1    0    0    0    0  0.00000000000E+00  0.00000000000E+00  0.99999998245E-14  0.12509000000E+03  0.12509000000E+03 0.  0.
        -13    1    3    3    0    0  0.16438964249E+02 -0.37752283164E+02  0.43563482800E+02  0.59943828935E+02  0.10566000000E+00 0. -1.
         23    2    1    0    0    0  0.42247877325E+01 -0.26160977397E+02  0.11413650031E+02  0.96236629716E+02  0.91809432643E+02 0.  0.
         13    1    3    3    0    0 -0.12214176516E+02  0.11591305767E+02 -0.32149832770E+02  0.36292800781E+02  0.10566000000E+00 0.  1.
         22    1    1    0    0    0 -0.42247877325E+01  0.26160977397E+02 -0.11413650031E+02  0.28853370284E+02  0.00000000000E+00 0. -1.
</event>
<event>
 5    1  0.1258677E-009  0.9118800E+02  0.7561462E-02  0.1125453E+00
         25   -1    0    0    0    0  0.00000000000E+00  0.00000000000E+00  0.99999998245E-14  0.12509000000E+03  0.12509000000E+03 0.  0.
        -13    1    3    3    0    0  0.55965483471E+01  0.98047832735E+01 -0.45811683706E+02  0.47182376545E+02  0.10566000000E+00 0.  1.
         23    2    1    0    0    0  0.25832397841E+02 -0.13685698844E+02 -0.10859728242E+02  0.93904348996E+02  0.88574725130E+02 0.  0.
         13    1    3    3    0    0  0.20235849494E+02 -0.23490482118E+02  0.34951955464E+02  0.46721972451E+02  0.10566000000E+00 0. -1.
         22    1    1    0    0    0 -0.25832397841E+02  0.13685698844E+02  0.10859728242E+02  0.31185651004E+02  0.00000000000E+00 0.  1.
</event>
<event>
 5    1  0.1258677E-009  0.9118800E+02  0.7561462E-02  0.1125453E+00
         25   -1    0    0    0    0  0.00000000000E+00  0.00000000000E+00  0.99999998245E-14  0.12509000000E+03  0.12509000000E+03 0.  0.
        -13    1    3    3    0    0 -0.41322546832E+02  0.44496834048E+01  0.69155637825E+01  0.42132988804E+02  0.10566000000E+00 0. -1.
         23    2    1    0    0    0 -0.29404125997E+01 -0.21513651670E+02 -0.19870489912E+02  0.95656692273E+02  0.91015840230E+02 0.  0.
         13    1    3    3    0    0  0.38382134233E+02 -0.25963335075E+02 -0.26786053694E+02  0.53523703469E+02  0.10566000000E+00 0.  1.
         22    1    1    0    0    0  0.29404125997E+01  0.21513651670E+02  0.19870489912E+02  0.29433307727E+02  0.00000000000E+00 0.  1.
</event>
<event>
 5    1  0.1258677E-009  0.9118800E+02  0.7561462E-02  0.1125453E+00
         25   -1    0    0    0    0  0.00000000000E+00  0.00000000000E+00  0.99999998245E-14  0.12509000000E+03  0.12509000000E+03 0.  0.
        -13    1    3    3    0    0 -0.47648344175E+02 -0.95041532848E+01  0.35115241765E+02  0.59948185965E+02  0.10566000000E+00 0. -1.
         23    2    1    0    0    0 -0.18112806665E+02  0.60141085848E+01  0.22421696093E+02  0.95645548519E+02  0.91000523231E+02 0.  0.
         13    1    3    3    0    0  0.29535537511E+02  0.15518261870E+02 -0.12693545671E+02  0.35697362553E+02  0.10566000000E+00 0.  1.
         22    1    1    0    0    0  0.18112806665E+02 -0.60141085848E+01 -0.22421696093E+02  0.29444451481E+02  0.00000000000E+00 0. -1.
</event>
<event>
 5    1  0.1258677E-009  0.9118800E+02  0.7561462E-02  0.1125453E+00
         25   -1    0    0    0    0  0.00000000000E+00  0.00000000000E+00  0.99999998245E-14  0.12509000000E+03  0.12509000000E+03 0.  0.
        -13    1    3    3    0    0  0.56502443679E+02  0.21789912339E+02 -0.11641003943E+02  0.61667256777E+02  0.10566000000E+00 0.  1.
         23    2    1    0    0    0  0.26158134258E+02  0.13550749039E+02  0.11388840684E+01  0.95608347327E+02  0.90949371820E+02 0.  0.
         13    1    3    3    0    0 -0.30344309421E+02 -0.82391633001E+01  0.12779888012E+02  0.33941090551E+02  0.10566000000E+00 0. -1.
         22    1    1    0    0    0 -0.26158134258E+02 -0.13550749039E+02 -0.11388840684E+01  0.29481652673E+02  0.00000000000E+00 0.  1.
</event>
<event>
 5    1  0.1258677E-009  0.9118800E+02  0.7561462E-02  0.1125453E+00
         25   -1    0    0    0    0  0.00000000000E+00  0.00000000000E+00  0.99999998245E-14  0.12509000000E+03  0.12509000000E+03 0.  0.
        -13    1    3    3    0    0 -0.28678866906E+02  0.19916787847E+02  0.28820303064E+02  0.45274461652E+02  0.10566000000E+00 0. -1.
         23    2    1    0    0    0  0.11702208916E+02  0.27722089673E+02  0.89804161268E+00  0.94985807134E+02  0.90089073304E+02 0.  0.
         13    1    3    3    0    0  0.40381075822E+02  0.78053018257E+01 -0.27922261451E+02  0.49711345482E+02  0.10566000000E+00 0.  1.
         22    1    1    0    0    0 -0.11702208916E+02 -0.27722089673E+02 -0.89804161268E+00  0.30104192866E+02  0.00000000000E+00 0.  1.
</event>
<event>
 5    1  0.1258677E-009  0.9118800E+02  0.7561462E-02  0.1125453E+00
         25   -1    0    0    0    0  0.00000000000E+00  0.00000000000E+00  0.99999998245E-14  0.12509000000E+03  0.12509000000E+03 0.  0.
        -13    1    3    3    0    0 -0.32615174590E+01 -0.39010712041E+02 -0.21823083124E+02  0.44818871819E+02  0.10566000000E+00 0.  1.
         23    2    1    0    0    0 -0.18578270401E+02 -0.14443699863E+02  0.18985578301E+02  0.94853849778E+02  0.89905661877E+02 0.  0.
         13    1    3    3    0    0 -0.15316752942E+02  0.24567012177E+02  0.40808661425E+02  0.50034977959E+02  0.10566000000E+00 0. -1.
         22    1    1    0    0    0  0.18578270401E+02  0.14443699863E+02 -0.18985578301E+02  0.30236150222E+02  0.00000000000E+00 0. -1.
</event>
<event>
 5    1  0.1258677E-009  0.9118800E+02  0.7561462E-02  0.1125453E+00
         25   -1    0    0    0    0  0.00000000000E+00  0.00000000000E+00  0.99999998245E-14  0.12509000000E+03  0.12509000000E+03 0.  0.
        -13    1    3    3    0    0  0.38040309330E+02  0.15178393549E+01  0.97198041542E+01  0.39291916816E+02  0.10566000000E+00 0.  1.
         23    2    1    0    0    0 -0.34805123713E+01  0.23704410008E+02 -0.19064978464E+02  0.94471599911E+02  0.89372237108E+02 0.  0.
         13    1    3    3    0    0 -0.41520821701E+02  0.22186570653E+02 -0.28784782618E+02  0.55179683095E+02  0.10566000000E+00 0. -1.
         22    1    1    0    0    0  0.34805123713E+01 -0.23704410008E+02  0.19064978464E+02  0.30618400089E+02  0.00000000000E+00 0. -1.
</event>
<event>
 5    1  0.1258677E-009  0.9118800E+02  0.7561462E-02  0.1125453E+00
         25   -1    0    0    0    0  0.00000000000E+00  0.00000000000E+00  0.99999998245E-14  0.12509000000E+03  0.12509000000E+03 0.  0.
        -13    1    3    3    0    0  0.23672713710E+02 -0.56346416816E+02 -0.77532901731E+01  0.61607148408E+02  0.10566000000E+00 0.  1.
         23    2    1    0    0    0  0.39221936817E+01 -0.28039095749E+02 -0.58744502943E+01  0.96174888726E+02  0.91725272208E+02 0.  0.
         13    1    3    3    0    0 -0.19750520028E+02  0.28307321067E+02  0.18788398788E+01  0.34567740318E+02  0.10566000000E+00 0. -1.
         22    1    1    0    0    0 -0.39221936817E+01  0.28039095749E+02  0.58744502943E+01  0.28915111274E+02  0.00000000000E+00 0.  1.
</event>
<event>
 5    1  0.1258677E-009  0.9118800E+02  0.7561462E-02  0.1125453E+00
         25   -1    0    0    0    0  0.00000000000E+00  0.00000000000E+00  0.99999998245E-14  0.12509000000E+03  0.12509000000E+03 0.  0.
        -13    1    3    3    0    0 -0.31879954747E+02 -0.27356676080E+01  0.12252963765E+02  0.34263124157E+02  0.10566000000E+00 0.  1.
         23    2    1    0    0    0  0.28006082955E+02 -0.96148136988E+01  0.61135893230E+01  0.94854899548E+02  0.89907122459E+02 0.  0.
         13    1    3    3    0    0  0.59886037702E+02 -0.68791460908E+01 -0.61393744415E+01  0.60591775391E+02  0.10566000000E+00 0. -1.
         22    1    1    0    0    0 -0.28006082955E+02  0.96148136988E+01 -0.61135893230E+01  0.30235100452E+02  0.00000000000E+00 0. -1.
</event>
<event>
 5    1  0.1258677E-009  0.9118800E+02  0.7561462E-02  0.1125453E+00
         25   -1    0    0    0    0  0.00000000000E+00  0.00000000000E+00  0.99999998245E-14  0.12509000000E+03  0.12509000000E+03 0.  0.
        -13    1    3    3    0    0  0.33955291191E+02  0.93693913959E+01  0.16288239579E+02  0.38808055963E+02  0.10566000000E+00 0.  1.
         23    2    1    0    0    0 -0.19764291443E+02  0.21870730962E+02  0.37085669118E+01  0.95379571568E+02  0.90634171894E+02 0.  0.
         13    1    3    3    0    0 -0.53719582635E+02  0.12501339566E+02 -0.12579672667E+02  0.56571515605E+02  0.10566000000E+00 0. -1.
         22    1    1    0    0    0  0.19764291443E+02 -0.21870730962E+02 -0.37085669118E+01  0.29710428432E+02  0.00000000000E+00 0. -1.
</event>
<event>
 5    1  0.1258677E-009  0.9118800E+02  0.7561462E-02  0.1125453E+00
         25   -1    0    0    0    0  0.00000000000E+00  0.00000000000E+00  0.99999998245E-14  0.12509000000E+03  0.12509000000E+03 0.  0.
        -13    1    3    3    0    0  0.12954020539E+02  0.50233070299E+02 -0.14789685343E+02  0.53943618310E+02  0.10566000000E+00 0.  1.
         23    2    1    0    0    0  0.23636771020E+02  0.13488504426E+02  0.56032537126E+01  0.97304515515E+02  0.93253072827E+02 0.  0.
         13    1    3    3    0    0  0.10682750481E+02 -0.36744565874E+02  0.20392939056E+02  0.43360897205E+02  0.10566000000E+00 0. -1.
         22    1    1    0    0    0 -0.23636771020E+02 -0.13488504426E+02 -0.56032537126E+01  0.27785484485E+02  0.00000000000E+00 0. -1.
</event>
<event>
 5    1  0.1258677E-009  0.9118800E+02  0.7561462E-02  0.1125453E+00
         25   -1    0    0    0    0  0.00000000000E+00  0.00000000000E+00  0.99999998245E-14  0.12509000000E+03  0.12509000000E+03 0.  0.
        -13    1    3    3    0    0 -0.51271567229E+02  0.79723175994E+01  0.46718932991E+01  0.52097689057E+02  0.10566000000E+00 0.  1.
         23    2    1    0    0    0 -0.18109123783E+02  0.34086573319E+01 -0.23062888379E+02  0.95569564208E+02  0.90896014618E+02 0.  0.
         13    1    3    3    0    0  0.33162443446E+02 -0.45636602675E+01 -0.27734781678E+02  0.43471875151E+02  0.10566000000E+00 0. -1.
         22    1    1    0    0    0  0.18109123783E+02 -0.34086573319E+01  0.23062888379E+02  0.29520435792E+02  0.00000000000E+00 0. -1.
</event>
<event>
 5    1  0.1258677E-009  0.9118800E+02  0.7561462E-02  0.1125453E+00
         25   -1    0    0    0    0  0.00000000000E+00  0.00000000000E+00  0.99999998245E-14  0.12509000000E+03  0.12509000000E+03 0.  0.
        -13    1    3    3    0    0  0.44339356207E+01  0.17800487368E+02  0.45693837816E+02  0.49238756219E+02  0.10566000000E+00 0. -1.
         23    2    1    0    0    0  0.70315965709E+01  0.27920119022E+02 -0.19027692617E+00  0.96297421063E+02  0.91892223292E+02 0.  0.
         13    1    3    3    0    0  0.25976609502E+01  0.10119631654E+02 -0.45884114742E+02  0.47058664844E+02  0.10566000000E+00 0.  1.
         22    1    1    0    0    0 -0.70315965709E+01 -0.27920119022E+02  0.19027692617E+00  0.28792578937E+02  0.00000000000E+00 0. -1.
</event>
<event>
 5    1  0.1258677E-009  0.9118800E+02  0.7561462E-02  0.1125453E+00
         25   -1    0    0    0    0  0.00000000000E+00  0.00000000000E+00  0.99999998245E-14  0.12509000000E+03  0.12509000000E+03 0.  0.
        -13    1    3    3    0    0  0.24038578579E+02  0.23707008749E+02 -0.33032567345E+02  0.47233856431E+02  0.10566000000E+00 0.  1.
         23    2    1    0    0    0 -0.93448364066E+01 -0.10718973774E+02 -0.25662044161E+02  0.95751239346E+02  0.91145690844E+02 0.  0.
         13    1    3    3    0    0 -0.33383414986E+02 -0.34425982523E+02  0.73705231842E+01  0.48517382914E+02  0.10566000000E+00 0. -1.
         22    1    1    0    0    0  0.93448364066E+01  0.10718973774E+02  0.25662044161E+02  0.29338760654E+02  0.00000000000E+00 0.  1.
</event>
<event>
 5    1  0.1258677E-009  0.9118800E+02  0.7561462E-02  0.1125453E+00
         25   -1    0    0    0    0  0.00000000000E+00  0.00000000000E+00  0.99999998245E-14  0.12509000000E+03  0.12509000000E+03 0.  0.
        -13    1    3    3    0    0  0.24674120255E+02 -0.23458291765E+02 -0.13896814591E+02  0.36772765503E+02  0.10566000000E+00 0.  1.
         23    2    1    0    0    0  0.97524353385E+01  0.27317108305E+02  0.94040773467E+01  0.94597852291E+02  0.89548772109E+02 0.  0.
         13    1    3    3    0    0 -0.14921684917E+02  0.50775400069E+02  0.23300891938E+02  0.57825086788E+02  0.10566000000E+00 0. -1.
         22    1    1    0    0    0 -0.97524353385E+01 -0.27317108305E+02 -0.94040773467E+01  0.30492147709E+02  0.00000000000E+00 0. -1.
</event>
<event>
 5    1  0.1258677E-009  0.9118800E+02  0.7561462E-02  0.1125453E+00
         25   -1    0    0    0    0  0.00000000000E+00  0.00000000000E+00  0.99999998245E-14  0.12509000000E+03  0.12509000000E+03 0.  0.
        -13    1    3    3    0    0  0.22689302021E+02  0.27088735684E+01  0.35320260820E+02  0.42067498269E+02  0.10566000000E+00 0.  1.
         23    2    1    0    0    0  0.11361507510E+02  0.25978925941E+02 -0.10632585162E+02  0.94807326519E+02  0.89840908547E+02 0.  0.
         13    1    3    3    0    0 -0.11327794512E+02  0.23270052373E+02 -0.45952845982E+02  0.52739828249E+02  0.10566000000E+00 0. -1.
         22    1    1    0    0    0 -0.11361507510E+02 -0.25978925941E+02  0.10632585162E+02  0.30282673481E+02  0.00000000000E+00 0. -1.
</event>
<event>
 5    1  0.1258677E-009  0.9118800E+02  0.7561462E-02  0.1125453E+00
         25   -1    0    0    0    0  0.00000000000E+00  0.00000000000E+00  0.99999998245E-14  0.12509000000E+03  0.12509000000E+03 0.  0.
        -13    1    3    3    0    0  0.28379591242E+02 -0.36029803923E+02 -0.33063684643E+02  0.56539953802E+02  0.10566000000E+00 0.  1.
         23    2    1    0    0    0  0.42665902282E+01 -0.23661161692E+02  0.21235861870E+01  0.10095363774E+03  0.98025879185E+02 0.  0.
         13    1    3    3    0    0 -0.24113001013E+02  0.12368642231E+02  0.35187270830E+02  0.44413683939E+02  0.10566000000E+00 0. -1.
         22    1    1    0    0    0 -0.42665902282E+01  0.23661161692E+02 -0.21235861870E+01  0.24136362259E+02  0.00000000000E+00 0. -1.
</event>
<event>
 5    1  0.1258677E-009  0.9118800E+02  0.7561462E-02  0.1125453E+00
         25   -1    0    0    0    0  0.00000000000E+00  0.00000000000E+00  0.99999998245E-14  0.12509000000E+03  0.12509000000E+03 0.  0.
        -13    1    3    3    0    0  0.14181346550E+02 -0.66457863473E+01 -0.45823644365E+02  0.48426176941E+02  0.10566000000E+00 0. -1.
         23    2    1    0    0    0  0.27879069313E+02 -0.10796881745E+02 -0.13318823480E+01  0.95163605767E+02  0.90335611975E+02 0.  0.
         13    1    3    3    0    0  0.13697722763E+02 -0.41510953974E+01  0.44491762017E+02  0.46737428827E+02  0.10566000000E+00 0.  1.
         22    1    1    0    0    0 -0.27879069313E+02  0.10796881745E+02  0.13318823480E+01  0.29926394233E+02  0.00000000000E+00 0.  1.
</event>
<event>
 5    1  0.1258677E-009  0.9118800E+02  0.7561462E-02  0.1125453E+00
         25   -1    0    0    0    0  0.00000000000E+00  0.00000000000E+00  0.99999998245E-14  0.12509000000E+03  0.12509000000E+03 0.  0.
        -13    1    3    3    0    0  0.10140399648E+02  0.50334729320E+02  0.28378868025E+02  0.58666719655E+02  0.10566000000E+00 0. -1.
         23    2    1    0    0    0  0.16947198024E+02  0.26197710700E+02  0.40153337548E+01  0.93631289411E+02  0.88188252533E+02 0.  0.
         13    1    3    3    0    0  0.68067983761E+01 -0.24137018619E+02 -0.24363534271E+02  0.34964569755E+02  0.10566000000E+00 0.  1.
         22    1    1    0    0    0 -0.16947198024E+02 -0.26197710700E+02 -0.40153337548E+01  0.31458710589E+02  0.00000000000E+00 0. -1.
</event>
<event>
 5    1  0.1258677E-009  0.9118800E+02  0.7561462E-02  0.1125453E+00
         25   -1    0    0    0    0  0.00000000000E+00  0.00000000000E+00  0.99999998245E-14  0.12509000000E+03  0.12509000000E+03 0.  0.
        -13    1    3    3    0    0 -0.13387233449E+02 -0.14217344518E+02  0.32803932689E+02  0.38176695358E+02  0.10566000000E+00 0. -1.
         23    2    1    0    0    0  0.31897731259E+02 -0.14647037651E+02  0.12202528149E+02  0.87929501287E+02  0.79691245014E+02 0.  0.
         13    1    3    3    0    0  0.45284964707E+02 -0.42969313271E+00 -0.20601404540E+02  0.49752805929E+02  0.10566000000E+00 0.  1.
         22    1    1    0    0    0 -0.31897731259E+02  0.14647037651E+02 -0.12202528149E+02  0.37160498713E+02  0.00000000000E+00 0.  1.
</event>
<event>
 5    1  0.1258677E-009  0.9118800E+02  0.7561462E-02  0.1125453E+00
         25   -1    0    0    0    0  0.00000000000E+00  0.00000000000E+00  0.99999998245E-14  0.12509000000E+03  0.12509000000E+03 0.  0.
        -13    1    3    3    0    0 -0.33858042476E+02  0.82346958139E+00 -0.15932153720E+02  0.37428462814E+02  0.10566000000E+00 0. -1.
         23    2    1    0    0    0  0.16698840682E+02 -0.24314965332E+02 -0.23593532709E+01  0.95498863369E+02  0.90798664846E+02 0.  0.
         13    1    3    3    0    0  0.50556883158E+02 -0.25138434914E+02  0.13572800449E+02  0.58070400555E+02  0.10566000000E+00 0.  1.
         22    1    1    0    0    0 -0.16698840682E+02  0.24314965332E+02  0.23593532709E+01  0.29591136631E+02  0.00000000000E+00 0.  1.
</event>
<event>
 5    1  0.1258677E-009  0.9118800E+02  0.7561462E-02  0.1125453E+00
         25   -1    0    0    0    0  0.00000000000E+00  0.00000000000E+00  0.99999998245E-14  0.12509000000E+03  0.12509000000E+03 0.  0.
        -13    1    3    3    0    0  0.80741219357E+01  0.16473017090E+02 -0.43117143583E+02  0.46857773868E+02  0.10566000000E+00 0. -1.
         23    2    1    0    0    0 -0.19604778496E+02 -0.14007093478E+02 -0.16607772876E+02  0.95826300174E+02  0.91248647539E+02 0.  0.
         13    1    3    3    0    0 -0.27678900432E+02 -0.30480110568E+02  0.26509370706E+02  0.48968526307E+02  0.10566000000E+00 0.  1.
         22    1    1    0    0    0  0.19604778496E+02  0.14007093478E+02  0.16607772876E+02  0.29263699826E+02  0.00000000000E+00 0. -1.
</event>
<event>
 5    1  0.1258677E-009  0.9118800E+02  0.7561462E-02  0.1125453E+00
         25   -1    0    0    0    0  0.00000000000E+00  0.00000000000E+00  0.99999998245E-14  0.12509000000E+03  0.12509000000E+03 0.  0.
        -13    1    3    3    0    0 -0.20861368653E+02 -0.22971906083E+02  0.89443565177E+01  0.32294238631E+02  0.10566000000E+00 0.  1.
         23    2    1    0    0    0  0.20125708482E+02  0.20265370570E+02  0.16107128854E+02  0.92300230465E+02  0.86279566281E+02 0.  0.
         13    1    3    3    0    0  0.40987077135E+02  0.43237276653E+02  0.71627723365E+01  0.60005991834E+02  0.10566000000E+00 0. -1.
         22    1    1    0    0    0 -0.20125708482E+02 -0.20265370570E+02 -0.16107128854E+02  0.32789769535E+02  0.00000000000E+00 0. -1.
</event>
<event>
 5    1  0.1258677E-009  0.9118800E+02  0.7561462E-02  0.1125453E+00
         25   -1    0    0    0    0  0.00000000000E+00  0.00000000000E+00  0.99999998245E-14  0.12509000000E+03  0.12509000000E+03 0.  0.
        -13    1    3    3    0    0  0.47955704644E+02  0.13094922832E+01  0.34647028914E+02  0.59176787295E+02  0.10566000000E+00 0.  1.
         23    2    1    0    0    0  0.26024896450E+02 -0.13094979801E+02  0.13021243677E+02  0.93178771285E+02  0.87544028352E+02 0.  0.
         13    1    3    3    0    0 -0.21930808194E+02 -0.14404472085E+02 -0.21625785237E+02  0.34001983990E+02  0.10566000000E+00 0. -1.
         22    1    1    0    0    0 -0.26024896450E+02  0.13094979801E+02 -0.13021243677E+02  0.31911228715E+02  0.00000000000E+00 0.  1.
</event>
<event>
 5    1  0.1258677E-009  0.9118800E+02  0.7561462E-02  0.1125453E+00
         25   -1    0    0    0    0  0.00000000000E+00  0.00000000000E+00  0.99999998245E-14  0.12509000000E+03  0.12509000000E+03 0.  0.
        -13    1    3    3    0    0 -0.30964279520E+02 -0.18738049073E+02  0.52112572595E+01  0.36565960339E+02  0.10566000000E+00 0.  1.
         23    2    1    0    0    0  0.18669376073E+02  0.99853058087E+01  0.20188634631E+02  0.95835378086E+02  0.91261091324E+02 0.  0.
         13    1    3    3    0    0  0.49633655593E+02  0.28723354882E+02  0.14977377372E+02  0.59269417747E+02  0.10566000000E+00 0. -1.
         22    1    1    0    0    0 -0.18669376073E+02 -0.99853058087E+01 -0.20188634631E+02  0.29254621914E+02  0.00000000000E+00 0.  1.
</event>
<event>
 5    1  0.1258677E-009  0.9118800E+02  0.7561462E-02  0.1125453E+00
         25   -1    0    0    0    0  0.00000000000E+00  0.00000000000E+00  0.99999998245E-14  0.12509000000E+03  0.12509000000E+03 0.  0.
        -13    1    3    3    0    0 -0.28014290633E+02 -0.30647253916E+02  0.46762185610E+01  0.41784361145E+02  0.10566000000E+00 0. -1.
         23    2    1    0    0    0 -0.56422271899E+01  0.14182038087E+02  0.24957348808E+02  0.95835356070E+02  0.91261061146E+02 0.  0.
         13    1    3    3    0    0  0.22372063443E+02  0.44829292003E+02  0.20281130247E+02  0.54050994924E+02  0.10566000000E+00 0.  1.
         22    1    1    0    0    0  0.56422271899E+01 -0.14182038087E+02 -0.24957348808E+02  0.29254643930E+02  0.00000000000E+00 0.  1.
</event>
<event>
 5    1  0.1258677E-009  0.9118800E+02  0.7561462E-02  0.1125453E+00
         25   -1    0    0    0    0  0.00000000000E+00  0.00000000000E+00  0.99999998245E-14  0.12509000000E+03  0.12509000000E+03 0.  0.
        -13    1    3    3    0    0 -0.23033908066E+00 -0.47297564058E+02 -0.54031909360E+00  0.47301329058E+02  0.10566000000E+00 0.  1.
         23    2    1    0    0    0 -0.38762457372E+01 -0.46577054497E+01 -0.26868224180E+02  0.97546925160E+02  0.93577677021E+02 0.  0.
         13    1    3    3    0    0 -0.36459066565E+01  0.42639858608E+02 -0.26327905086E+02  0.50245596102E+02  0.10566000000E+00 0. -1.
         22    1    1    0    0    0  0.38762457372E+01  0.46577054497E+01  0.26868224180E+02  0.27543074840E+02  0.00000000000E+00 0.  1.
</event>
<event>
 5    1  0.1258677E-009  0.9118800E+02  0.7561462E-02  0.1125453E+00
         25   -1    0    0    0    0  0.00000000000E+00  0.00000000000E+00  0.99999998245E-14  0.12509000000E+03  0.12509000000E+03 0.  0.
        -13    1    3    3    0    0 -0.13281212668E+02 -0.52931624719E+02  0.15297048085E+02  0.56675906252E+02  0.10566000000E+00 0.  1.
         23    2    1    0    0    0  0.52760599453E+01 -0.18753455166E+02  0.21519841401E+02  0.96061867729E+02  0.91571010524E+02 0.  0.
         13    1    3    3    0    0  0.18557272613E+02  0.34178169552E+02  0.62227933162E+01  0.39385961477E+02  0.10566000000E+00 0. -1.
         22    1    1    0    0    0 -0.52760599453E+01  0.18753455166E+02 -0.21519841401E+02  0.29028132271E+02  0.00000000000E+00 0. -1.
</event>
<event>
 5    1  0.1258677E-009  0.9118800E+02  0.7561462E-02  0.1125453E+00
         25   -1    0    0    0    0  0.00000000000E+00  0.00000000000E+00  0.99999998245E-14  0.12509000000E+03  0.12509000000E+03 0.  0.
        -13    1    3    3    0    0  0.27582932353E+02 -0.13212930763E+02 -0.51613756552E+02  0.59994922502E+02  0.10566000000E+00 0.  1.
         23    2    1    0    0    0  0.10415974049E+02 -0.17527822459E+02 -0.18424884696E+02  0.97609216685E+02  0.93660908229E+02 0.  0.
         13    1    3    3    0    0 -0.17166958304E+02 -0.43148916962E+01  0.33188871857E+02  0.37614294183E+02  0.10566000000E+00 0. -1.
         22    1    1    0    0    0 -0.10415974049E+02  0.17527822459E+02  0.18424884696E+02  0.27480783315E+02  0.00000000000E+00 0.  1.
</event>
<event>
 5    1  0.1258677E-009  0.9118800E+02  0.7561462E-02  0.1125453E+00
         25   -1    0    0    0    0  0.00000000000E+00  0.00000000000E+00  0.99999998245E-14  0.12509000000E+03  0.12509000000E+03 0.  0.
        -13    1    3    3    0    0  0.22919027702E+02 -0.75787924270E+01  0.50881977527E+02  0.56317907689E+02  0.10566000000E+00 0. -1.
         23    2    1    0    0    0  0.20223868757E+02 -0.21452781533E+02  0.22575739800E+02  0.87956582025E+02  0.79733741860E+02 0.  0.
         13    1    3    3    0    0 -0.26951589447E+01 -0.13873989106E+02 -0.28306237727E+02  0.31638674336E+02  0.10566000000E+00 0.  1.
         22    1    1    0    0    0 -0.20223868757E+02  0.21452781533E+02 -0.22575739800E+02  0.37133417975E+02  0.00000000000E+00 0. -1.
</event>
<event>
 5    1  0.1258677E-009  0.9118800E+02  0.7561462E-02  0.1125453E+00
         25   -1    0    0    0    0  0.00000000000E+00  0.00000000000E+00  0.99999998245E-14  0.12509000000E+03  0.12509000000E+03 0.  0.
        -13    1    3    3    0    0  0.34730449964E+02 -0.38616455632E+02 -0.33610175998E+02  0.61863477876E+02  0.10566000000E+00 0.  1.
         23    2    1    0    0    0  0.21376954039E+02 -0.25770193207E+02 -0.14132658828E+02  0.88747063032E+02  0.80964388031E+02 0.  0.
         13    1    3    3    0    0 -0.13353495924E+02  0.12846262425E+02  0.19477517170E+02  0.26883585156E+02  0.10566000000E+00 0. -1.
         22    1    1    0    0    0 -0.21376954039E+02  0.25770193207E+02  0.14132658828E+02  0.36342936968E+02  0.00000000000E+00 0.  1.
</event>
<event>
 5    1  0.1258677E-009  0.9118800E+02  0.7561462E-02  0.1125453E+00
         25   -1    0    0    0    0  0.00000000000E+00  0.00000000000E+00  0.99999998245E-14  0.12509000000E+03  0.12509000000E+03 0.  0.
        -13    1    3    3    0    0 -0.23711428049E+02  0.46697492015E+02 -0.16826197340E+02  0.55009268869E+02  0.10566000000E+00 0.  1.
         23    2    1    0    0    0 -0.60284311774E+01  0.11348823529E+02 -0.26445134045E+02  0.95687910064E+02  0.91058735109E+02 0.  0.
         13    1    3    3    0    0  0.17682996871E+02 -0.35348668485E+02 -0.96189367054E+01  0.40678641194E+02  0.10566000000E+00 0. -1.
         22    1    1    0    0    0  0.60284311774E+01 -0.11348823529E+02  0.26445134045E+02  0.29402089936E+02  0.00000000000E+00 0.  1.
</event>
<event>
 5    1  0.1258677E-009  0.9118800E+02  0.7561462E-02  0.1125453E+00
         25   -1    0    0    0    0  0.00000000000E+00  0.00000000000E+00  0.99999998245E-14  0.12509000000E+03  0.12509000000E+03 0.  0.
        -13    1    3    3    0    0  0.32378106884E+02 -0.46525533742E+02  0.30157970903E+01  0.56763309378E+02  0.10566000000E+00 0.  1.
         23    2    1    0    0    0  0.28119876074E+02 -0.83845652949E+01  0.55559244931E+01  0.95225361000E+02  0.90421085567E+02 0.  0.
         13    1    3    3    0    0 -0.42582308100E+01  0.38140968447E+02  0.25401274028E+01  0.38462051622E+02  0.10566000000E+00 0. -1.
         22    1    1    0    0    0 -0.28119876074E+02  0.83845652949E+01 -0.55559244931E+01  0.29864639000E+02  0.00000000000E+00 0.  1.
</event>
<event>
 5    1  0.1258677E-009  0.9118800E+02  0.7561462E-02  0.1125453E+00
         25   -1    0    0    0    0  0.00000000000E+00  0.00000000000E+00  0.99999998245E-14  0.12509000000E+03  0.12509000000E+03 0.  0.
        -13    1    3    3    0    0  0.28450671457E+02  0.37884233348E+02 -0.50939426201E+01  0.47650973318E+02  0.10566000000E+00 0.  1.
         23    2    1    0    0    0  0.53425035753E+01  0.45807688423E+00 -0.27540199384E+02  0.97032652281E+02  0.92887678665E+02 0.  0.
         13    1    3    3    0    0 -0.23108167882E+02 -0.37426156463E+02 -0.22446256764E+02  0.49381678963E+02  0.10566000000E+00 0. -1.
         22    1    1    0    0    0 -0.53425035753E+01 -0.45807688423E+00  0.27540199384E+02  0.28057347719E+02  0.00000000000E+00 0.  1.
</event>
<event>
 5    1  0.1258677E-009  0.9118800E+02  0.7561462E-02  0.1125453E+00
         25   -1    0    0    0    0  0.00000000000E+00  0.00000000000E+00  0.99999998245E-14  0.12509000000E+03  0.12509000000E+03 0.  0.
        -13    1    3    3    0    0  0.67880893505E-01  0.30624720262E+02  0.12001023909E+02  0.32892458678E+02  0.10566000000E+00 0.  1.
         23    2    1    0    0    0  0.34960857543E+00 -0.20103044865E+02 -0.23012573613E+02  0.94531315747E+02  0.89455779431E+02 0.  0.
         13    1    3    3    0    0  0.28172768192E+00 -0.50727765128E+02 -0.35013597521E+02  0.61638857069E+02  0.10566000000E+00 0. -1.
         22    1    1    0    0    0 -0.34960857543E+00  0.20103044865E+02  0.23012573613E+02  0.30558684253E+02  0.00000000000E+00 0. -1.
</event>
<event>
 5    1  0.1258677E-009  0.9118800E+02  0.7561462E-02  0.1125453E+00
         25   -1    0    0    0    0  0.00000000000E+00  0.00000000000E+00  0.99999998245E-14  0.12509000000E+03  0.12509000000E+03 0.  0.
        -13    1    3    3    0    0  0.19548871332E+02 -0.20888807597E+02  0.47625567450E+02  0.55558136147E+02  0.10566000000E+00 0.  1.
         23    2    1    0    0    0  0.18863116239E+02 -0.18735612982E+02  0.52548627577E+01  0.97989189483E+02  0.94167018243E+02 0.  0.
         13    1    3    3    0    0 -0.68575509257E+00  0.21531946145E+01 -0.42370704692E+02  0.42431053336E+02  0.10566000000E+00 0. -1.
         22    1    1    0    0    0 -0.18863116239E+02  0.18735612982E+02 -0.52548627577E+01  0.27100810517E+02  0.00000000000E+00 0.  1.
</event>
<event>
 5    1  0.1258677E-009  0.9118800E+02  0.7561462E-02  0.1125453E+00
         25   -1    0    0    0    0  0.00000000000E+00  0.00000000000E+00  0.99999998245E-14  0.12509000000E+03  0.12509000000E+03 0.  0.
        -13    1    3    3    0    0  0.95465557172E+01  0.40015217820E+02 -0.38687280617E+01  0.41319881463E+02  0.10566000000E+00 0. -1.
         23    2    1    0    0    0 -0.28576292948E+02  0.28246571340E+00 -0.11020665933E+00  0.96512098554E+02  0.92183993818E+02 0.  0.
         13    1    3    3    0    0 -0.38122848665E+02 -0.39732752106E+02  0.37585214024E+01  0.55192217092E+02  0.10566000000E+00 0.  1.
         22    1    1    0    0    0  0.28576292948E+02 -0.28246571340E+00  0.11020665933E+00  0.28577901446E+02  0.00000000000E+00 0.  1.
</event>
<event>
 5    1  0.1258677E-009  0.9118800E+02  0.7561462E-02  0.1125453E+00
         25   -1    0    0    0    0  0.00000000000E+00  0.00000000000E+00  0.99999998245E-14  0.12509000000E+03  0.12509000000E+03 0.  0.
        -13    1    3    3    0    0  0.44176985262E+02 -0.34173965710E+02 -0.24842138460E+02  0.61127808455E+02  0.10566000000E+00 0.  1.
         23    2    1    0    0    0  0.20291156285E+02 -0.23053342497E+02 -0.53169603985E+01  0.93921783953E+02  0.88599344294E+02 0.  0.
         13    1    3    3    0    0 -0.23885828977E+02  0.11120623213E+02  0.19525178062E+02  0.32793975498E+02  0.10566000000E+00 0. -1.
         22    1    1    0    0    0 -0.20291156285E+02  0.23053342497E+02  0.53169603985E+01  0.31168216047E+02  0.00000000000E+00 0.  1.
</event>
<event>
 5    1  0.1258677E-009  0.9118800E+02  0.7561462E-02  0.1125453E+00
         25   -1    0    0    0    0  0.00000000000E+00  0.00000000000E+00  0.99999998245E-14  0.12509000000E+03  0.12509000000E+03 0.  0.
        -13    1    3    3    0    0 -0.46719052264E+02 -0.28791694938E+02 -0.22950431205E+02  0.59484157541E+02  0.10566000000E+00 0.  1.
         23    2    1    0    0    0 -0.19163022979E+02 -0.76335292378E+01 -0.22958179188E+02  0.94226263837E+02  0.89028189843E+02 0.  0.
         13    1    3    3    0    0  0.27556029286E+02  0.21158165700E+02 -0.77479836491E-02  0.34742106295E+02  0.10566000000E+00 0. -1.
         22    1    1    0    0    0  0.19163022979E+02  0.76335292378E+01  0.22958179188E+02  0.30863736163E+02  0.00000000000E+00 0.  1.
</event>
<event>
 5    1  0.1258677E-009  0.9118800E+02  0.7561462E-02  0.1125453E+00
         25   -1    0    0    0    0  0.00000000000E+00  0.00000000000E+00  0.99999998245E-14  0.12509000000E+03  0.12509000000E+03 0.  0.
        -13    1    3    3    0    0 -0.37081542711E+02  0.47612666827E+01 -0.26800310332E+02  0.45999763784E+02  0.10566000000E+00 0.  1.
         23    2    1    0    0    0  0.11245569451E+02  0.15641070804E+02 -0.22120423871E+02  0.95757099011E+02  0.91153732401E+02 0.  0.
         13    1    3    3    0    0  0.48327112162E+02  0.10879804121E+02  0.46798864606E+01  0.49757335228E+02  0.10566000000E+00 0. -1.
         22    1    1    0    0    0 -0.11245569451E+02 -0.15641070804E+02  0.22120423871E+02  0.29332900989E+02  0.00000000000E+00 0. -1.
</event>
<event>
 5    1  0.1258677E-009  0.9118800E+02  0.7561462E-02  0.1125453E+00
         25   -1    0    0    0    0  0.00000000000E+00  0.00000000000E+00  0.99999998245E-14  0.12509000000E+03  0.12509000000E+03 0.  0.
        -13    1    3    3    0    0 -0.27088533559E+02 -0.13669060225E+02  0.29279868614E+02  0.42165788596E+02  0.10566000000E+00 0.  1.
         23    2    1    0    0    0 -0.15950434383E+02  0.22506595062E+02 -0.90720196423E+01  0.96050979378E+02  0.91556135353E+02 0.  0.
         13    1    3    3    0    0  0.11138099176E+02  0.36175655288E+02 -0.38351888256E+02  0.53885190782E+02  0.10566000000E+00 0. -1.
         22    1    1    0    0    0  0.15950434383E+02 -0.22506595062E+02  0.90720196423E+01  0.29039020622E+02  0.00000000000E+00 0. -1.
</event>
<event>
 5    1  0.1258677E-009  0.9118800E+02  0.7561462E-02  0.1125453E+00
         25   -1    0    0    0    0  0.00000000000E+00  0.00000000000E+00  0.99999998245E-14  0.12509000000E+03  0.12509000000E+03 0.  0.
        -13    1    3    3    0    0 -0.22850076039E+02  0.10883966562E+02  0.27444570024E+02  0.37333661633E+02  0.10566000000E+00 0.  1.
         23    2    1    0    0    0  0.18957132829E+02  0.17816517354E+02 -0.13081795365E+02  0.95970684319E+02  0.91446365171E+02 0.  0.
         13    1    3    3    0    0  0.41807208868E+02  0.69325507918E+01 -0.40526365389E+02  0.58637022686E+02  0.10566000000E+00 0. -1.
         22    1    1    0    0    0 -0.18957132829E+02 -0.17816517354E+02  0.13081795365E+02  0.29119315681E+02  0.00000000000E+00 0. -1.
</event>
<event>
 5    1  0.1258677E-009  0.9118800E+02  0.7561462E-02  0.1125453E+00
         25   -1    0    0    0    0  0.00000000000E+00  0.00000000000E+00  0.99999998245E-14  0.12509000000E+03  0.12509000000E+03 0.  0.
        -13    1    3    3    0    0  0.35983013532E+02 -0.25636489563E+02 -0.15291672743E+02  0.46753109836E+02  0.10566000000E+00 0.  1.
         23    2    1    0    0    0  0.14088203509E+02 -0.64418970996E+01  0.24526028557E+02  0.96081353132E+02  0.91597624568E+02 0.  0.
         13    1    3    3    0    0 -0.21894810023E+02  0.19194592464E+02  0.39817701300E+02  0.49328243296E+02  0.10566000000E+00 0. -1.
         22    1    1    0    0    0 -0.14088203509E+02  0.64418970996E+01 -0.24526028557E+02  0.29008646868E+02  0.00000000000E+00 0. -1.
</event>
<event>
 5    1  0.1258677E-009  0.9118800E+02  0.7561462E-02  0.1125453E+00
         25   -1    0    0    0    0  0.00000000000E+00  0.00000000000E+00  0.99999998245E-14  0.12509000000E+03  0.12509000000E+03 0.  0.
        -13    1    3    3    0    0  0.27491428249E+02 -0.19576241576E+02  0.18549054121E+02  0.38510861250E+02  0.10566000000E+00 0.  1.
         23    2    1    0    0    0  0.29633470398E+02  0.25423022045E+02  0.40544406288E+01  0.85835559404E+02  0.76333689493E+02 0.  0.
         13    1    3    3    0    0  0.21420421485E+01  0.44999263621E+02 -0.14494613492E+02  0.47324698154E+02  0.10566000000E+00 0. -1.
         22    1    1    0    0    0 -0.29633470398E+02 -0.25423022045E+02 -0.40544406288E+01  0.39254440596E+02  0.00000000000E+00 0. -1.
</event>
<event>
 5    1  0.1258677E-009  0.9118800E+02  0.7561462E-02  0.1125453E+00
         25   -1    0    0    0    0  0.00000000000E+00  0.00000000000E+00  0.99999998245E-14  0.12509000000E+03  0.12509000000E+03 0.  0.
        -13    1    3    3    0    0  0.11232964738E+02  0.20939769339E+02  0.25647950113E+02  0.34964009293E+02  0.10566000000E+00 0.  1.
         23    2    1    0    0    0  0.22676495420E+01 -0.26317629616E+02 -0.12029919849E+02  0.96064514050E+02  0.91574625443E+02 0.  0.
         13    1    3    3    0    0 -0.89653151962E+01 -0.47257398955E+02 -0.37677869963E+02  0.61100504757E+02  0.10566000000E+00 0. -1.
         22    1    1    0    0    0 -0.22676495420E+01  0.26317629616E+02  0.12029919849E+02  0.29025485950E+02  0.00000000000E+00 0. -1.
</event>
<event>
 5    1  0.1258677E-009  0.9118800E+02  0.7561462E-02  0.1125453E+00
         25   -1    0    0    0    0  0.00000000000E+00  0.00000000000E+00  0.99999998245E-14  0.12509000000E+03  0.12509000000E+03 0.  0.
        -13    1    3    3    0    0 -0.56711512273E+02  0.92451619916E+00 -0.19241300453E+02  0.59893982683E+02  0.10566000000E+00 0.  1.
         23    2    1    0    0    0 -0.29710077925E+02 -0.25919263341E+01  0.30870224648E+01  0.95107729904E+02  0.90258206094E+02 0.  0.
         13    1    3    3    0    0  0.27001434349E+02 -0.35164425333E+01  0.22328322917E+02  0.35213747221E+02  0.10566000000E+00 0. -1.
         22    1    1    0    0    0  0.29710077925E+02  0.25919263341E+01 -0.30870224648E+01  0.29982270096E+02  0.00000000000E+00 0.  1.
</event>
<event>
 5    1  0.1258677E-009  0.9118800E+02  0.7561462E-02  0.1125453E+00
         25   -1    0    0    0    0  0.00000000000E+00  0.00000000000E+00  0.99999998245E-14  0.12509000000E+03  0.12509000000E+03 0.  0.
        -13    1    3    3    0    0  0.16457973110E+02  0.97103855818E+01  0.29652407443E+02  0.35276520495E+02  0.10566000000E+00 0.  1.
         23    2    1    0    0    0  0.69918614068E+01 -0.11418551382E+02 -0.26161115665E+02  0.95701678945E+02  0.91077647853E+02 0.  0.
         13    1    3    3    0    0 -0.94661117031E+01 -0.21128936964E+02 -0.55813523108E+02  0.60425158450E+02  0.10566000000E+00 0. -1.
         22    1    1    0    0    0 -0.69918614068E+01  0.11418551382E+02  0.26161115665E+02  0.29388321055E+02  0.00000000000E+00 0. -1.
</event>
<event>
 5    1  0.1258677E-009  0.9118800E+02  0.7561462E-02  0.1125453E+00
         25   -1    0    0    0    0  0.00000000000E+00  0.00000000000E+00  0.99999998245E-14  0.12509000000E+03  0.12509000000E+03 0.  0.
        -13    1    3    3    0    0 -0.14100504516E+02  0.89569627693E+01  0.33588244194E+02  0.37513100668E+02  0.10566000000E+00 0.  1.
         23    2    1    0    0    0  0.15461450842E+01 -0.28599662165E+02 -0.76511490780E+01  0.95444236006E+02  0.90723375511E+02 0.  0.
         13    1    3    3    0    0  0.15646649600E+02 -0.37556624934E+02 -0.41239393272E+02  0.57931135338E+02  0.10566000000E+00 0. -1.
         22    1    1    0    0    0 -0.15461450842E+01  0.28599662165E+02  0.76511490780E+01  0.29645763994E+02  0.00000000000E+00 0. -1.
</event>
<event>
 5    1  0.1258677E-009  0.9118800E+02  0.7561462E-02  0.1125453E+00
         25   -1    0    0    0    0  0.00000000000E+00  0.00000000000E+00  0.99999998245E-14  0.12509000000E+03  0.12509000000E+03 0.  0.
        -13    1    3    3    0    0 -0.18162735695E+02  0.31935717806E+01 -0.56176747417E+02  0.59126322252E+02  0.10566000000E+00 0.  1.
         23    2    1    0    0    0 -0.67908972411E+01 -0.13039171798E+02 -0.25736855320E+02  0.95450128065E+02  0.90731499158E+02 0.  0.
         13    1    3    3    0    0  0.11371838454E+02 -0.16232743579E+02  0.30439892096E+02  0.36323805814E+02  0.10566000000E+00 0. -1.
         22    1    1    0    0    0  0.67908972411E+01  0.13039171798E+02  0.25736855320E+02  0.29639871935E+02  0.00000000000E+00 0.  1.
</event>
<event>
 5    1  0.1258677E-009  0.9118800E+02  0.7561462E-02  0.1125453E+00
         25   -1    0    0    0    0  0.00000000000E+00  0.00000000000E+00  0.99999998245E-14  0.12509000000E+03  0.12509000000E+03 0.  0.
        -13    1    3    3    0    0 -0.11161949530E+02  0.21246027051E+02  0.78278895653E+00  0.24012636369E+02  0.10566000000E+00 0.  1.
         23    2    1    0    0    0  0.35242816164E+00 -0.12492948297E+02  0.43603408665E+02  0.79730820003E+02  0.65570942103E+02 0.  0.
         13    1    3    3    0    0  0.11514377692E+02 -0.33738975349E+02  0.42820619709E+02  0.55718183634E+02  0.10566000000E+00 0. -1.
         22    1    1    0    0    0 -0.35242816164E+00  0.12492948297E+02 -0.43603408665E+02  0.45359179997E+02  0.00000000000E+00 0. -1.
</event>
<event>
 5    1  0.1258677E-009  0.9118800E+02  0.7561462E-02  0.1125453E+00
         25   -1    0    0    0    0  0.00000000000E+00  0.00000000000E+00  0.99999998245E-14  0.12509000000E+03  0.12509000000E+03 0.  0.
        -13    1    3    3    0    0  0.45291715633E+02 -0.28975006710E+02 -0.31004079371E+02  0.62065728228E+02  0.10566000000E+00 0.  1.
         23    2    1    0    0    0  0.14857167755E+02 -0.14378941338E+02 -0.15710178851E+02  0.99122730077E+02  0.95660945588E+02 0.  0.
         13    1    3    3    0    0 -0.30434547878E+02  0.14596065372E+02  0.15293900520E+02  0.37057001849E+02  0.10566000000E+00 0. -1.
         22    1    1    0    0    0 -0.14857167755E+02  0.14378941338E+02  0.15710178851E+02  0.25967269923E+02  0.00000000000E+00 0.  1.
</event>
<event>
 5    1  0.1258677E-009  0.9118800E+02  0.7561462E-02  0.1125453E+00
         25   -1    0    0    0    0  0.00000000000E+00  0.00000000000E+00  0.99999998245E-14  0.12509000000E+03  0.12509000000E+03 0.  0.
        -13    1    3    3    0    0  0.33265875987E+02  0.38934325829E+02 -0.10648685854E+02  0.52305887885E+02  0.10566000000E+00 0.  1.
         23    2    1    0    0    0  0.29263491403E+02  0.71702458917E+01  0.13168456101E+02  0.92208810981E+02  0.86146922354E+02 0.  0.
         13    1    3    3    0    0 -0.40023845841E+01 -0.31764079938E+02  0.23817141954E+02  0.39902923096E+02  0.10566000000E+00 0. -1.
         22    1    1    0    0    0 -0.29263491403E+02 -0.71702458917E+01 -0.13168456101E+02  0.32881189019E+02  0.00000000000E+00 0.  1.
</event>
<event>
 5    1  0.1258677E-009  0.9118800E+02  0.7561462E-02  0.1125453E+00
         25   -1    0    0    0    0  0.00000000000E+00  0.00000000000E+00  0.99999998245E-14  0.12509000000E+03  0.12509000000E+03 0.  0.
        -13    1    3    3    0    0 -0.34981993484E+01 -0.30701683852E+02  0.18528581802E+02  0.36029852868E+02  0.10566000000E+00 0.  1.
         23    2    1    0    0    0 -0.19377125437E+02  0.16822786046E+02 -0.14086765156E+02  0.95816871142E+02  0.91235720649E+02 0.  0.
         13    1    3    3    0    0 -0.15878926088E+02  0.47524469899E+02 -0.32615346959E+02  0.59787018274E+02  0.10566000000E+00 0. -1.
         22    1    1    0    0    0  0.19377125437E+02 -0.16822786046E+02  0.14086765156E+02  0.29273128858E+02  0.00000000000E+00 0. -1.
</event>
<event>
 5    1  0.1258677E-009  0.9118800E+02  0.7561462E-02  0.1125453E+00
         25   -1    0    0    0    0  0.00000000000E+00  0.00000000000E+00  0.99999998245E-14  0.12509000000E+03  0.12509000000E+03 0.  0.
        -13    1    3    3    0    0 -0.19044252156E+02 -0.57767641233E+02  0.10553321512E+02  0.61734655363E+02  0.10566000000E+00 0.  1.
         23    2    1    0    0    0 -0.15846917502E+02 -0.25369602678E+02  0.53296782930E+01  0.94706665669E+02  0.89700643906E+02 0.  0.
         13    1    3    3    0    0  0.31973346539E+01  0.32398038555E+02 -0.52236432191E+01  0.32972010306E+02  0.10566000000E+00 0. -1.
         22    1    1    0    0    0  0.15846917502E+02  0.25369602678E+02 -0.53296782930E+01  0.30383334331E+02  0.00000000000E+00 0.  1.
</event>
<event>
 5    1  0.1258677E-009  0.9118800E+02  0.7561462E-02  0.1125453E+00
         25   -1    0    0    0    0  0.00000000000E+00  0.00000000000E+00  0.99999998245E-14  0.12509000000E+03  0.12509000000E+03 0.  0.
        -13    1    3    3    0    0 -0.20480758215E+02 -0.63932646557E+01  0.25415148457E+02  0.33260730978E+02  0.10566000000E+00 0.  1.
         23    2    1    0    0    0  0.28552156259E+02  0.80130436909E+01 -0.80663211471E+01  0.94357280741E+02  0.89212086601E+02 0.  0.
         13    1    3    3    0    0  0.49032914474E+02  0.14406308347E+02 -0.33481469605E+02  0.61096549763E+02  0.10566000000E+00 0. -1.
         22    1    1    0    0    0 -0.28552156259E+02 -0.80130436909E+01  0.80663211471E+01  0.30732719259E+02  0.00000000000E+00 0. -1.
</event>
<event>
 5    1  0.1258677E-009  0.9118800E+02  0.7561462E-02  0.1125453E+00
         25   -1    0    0    0    0  0.00000000000E+00  0.00000000000E+00  0.99999998245E-14  0.12509000000E+03  0.12509000000E+03 0.  0.
        -13    1    3    3    0    0  0.16771248092E+01  0.56416543668E+02 -0.14921027376E+02  0.58380539300E+02  0.10566000000E+00 0.  1.
         23    2    1    0    0    0  0.16685367112E+02  0.26959107828E+02 -0.43608174672E+01  0.93086692366E+02  0.87412359515E+02 0.  0.
         13    1    3    3    0    0  0.15008242303E+02 -0.29457435839E+02  0.10560209909E+02  0.34706153065E+02  0.10566000000E+00 0. -1.
         22    1    1    0    0    0 -0.16685367112E+02 -0.26959107828E+02  0.43608174672E+01  0.32003307634E+02  0.00000000000E+00 0.  1.
</event>
<event>
 5    1  0.1258677E-009  0.9118800E+02  0.7561462E-02  0.1125453E+00
         25   -1    0    0    0    0  0.00000000000E+00  0.00000000000E+00  0.99999998245E-14  0.12509000000E+03  0.12509000000E+03 0.  0.
        -13    1    3    3    0    0 -0.40235510800E+02 -0.11179168223E+02  0.12577120727E+02  0.43612673174E+02  0.10566000000E+00 0.  1.
         23    2    1    0    0    0 -0.94349607767E-01  0.18385308524E+02  0.24097088047E+02  0.94779966617E+02  0.89802805903E+02 0.  0.
         13    1    3    3    0    0  0.40141161193E+02  0.29564476747E+02  0.11519967320E+02  0.51167293443E+02  0.10566000000E+00 0. -1.
         22    1    1    0    0    0  0.94349607767E-01 -0.18385308524E+02 -0.24097088047E+02  0.30310033383E+02  0.00000000000E+00 0.  1.
</event>
<event>
 5    1  0.1258677E-009  0.9118800E+02  0.7561462E-02  0.1125453E+00
         25   -1    0    0    0    0  0.00000000000E+00  0.00000000000E+00  0.99999998245E-14  0.12509000000E+03  0.12509000000E+03 0.  0.
        -13    1    3    3    0    0 -0.52533954896E+01 -0.37866886482E+01  0.36815185657E+02  0.37380559575E+02  0.10566000000E+00 0.  1.
         23    2    1    0    0    0  0.77807629641E+00  0.25704402221E+02 -0.13524904857E+02  0.96034109932E+02  0.91533084307E+02 0.  0.
         13    1    3    3    0    0  0.60314717860E+01  0.29491090869E+02 -0.50340090514E+02  0.58653550358E+02  0.10566000000E+00 0. -1.
         22    1    1    0    0    0 -0.77807629641E+00 -0.25704402221E+02  0.13524904857E+02  0.29055890068E+02  0.00000000000E+00 0. -1.
</event>
<event>
 5    1  0.1258677E-009  0.9118800E+02  0.7561462E-02  0.1125453E+00
         25   -1    0    0    0    0  0.00000000000E+00  0.00000000000E+00  0.99999998245E-14  0.12509000000E+03  0.12509000000E+03 0.  0.
        -13    1    3    3    0    0 -0.21480450928E+02 -0.12959340176E+00  0.26981842917E+02  0.34488513708E+02  0.10566000000E+00 0. -1.
         23    2    1    0    0    0  0.21457454805E+02 -0.78316520745E+01 -0.17138215905E+02  0.96533466854E+02  0.92212985190E+02 0.  0.
         13    1    3    3    0    0  0.42937905733E+02 -0.77020586727E+01 -0.44120058822E+02  0.62044953147E+02  0.10566000000E+00 0.  1.
         22    1    1    0    0    0 -0.21457454805E+02  0.78316520745E+01  0.17138215905E+02  0.28556533146E+02  0.00000000000E+00 0.  1.
</event>
<event>
 5    1  0.1258677E-009  0.9118800E+02  0.7561462E-02  0.1125453E+00
         25   -1    0    0    0    0  0.00000000000E+00  0.00000000000E+00  0.99999998245E-14  0.12509000000E+03  0.12509000000E+03 0.  0.
        -13    1    3    3    0    0  0.18772995865E+02 -0.24408314608E+02 -0.45747925148E+01  0.31130870312E+02  0.10566000000E+00 0. -1.
         23    2    1    0    0    0 -0.29876284195E+02  0.12867354857E+02 -0.45343367554E+00  0.92557450447E+02  0.86651686959E+02 0.  0.
         13    1    3    3    0    0 -0.48649280060E+02  0.37275669465E+02  0.41213588393E+01  0.61426580136E+02  0.10566000000E+00 0.  1.
         22    1    1    0    0    0  0.29876284195E+02 -0.12867354857E+02  0.45343367554E+00  0.32532549553E+02  0.00000000000E+00 0.  1.
</event>
<event>
 5    1  0.1258677E-009  0.9118800E+02  0.7561462E-02  0.1125453E+00
         25   -1    0    0    0    0  0.00000000000E+00  0.00000000000E+00  0.99999998245E-14  0.12509000000E+03  0.12509000000E+03 0.  0.
        -13    1    3    3    0    0  0.23945925757E+02 -0.23846534277E+02 -0.19046451631E+02  0.38792306469E+02  0.10566000000E+00 0. -1.
         23    2    1    0    0    0 -0.24745918481E+02  0.56888245028E+00 -0.19994265366E+02  0.93270905792E+02  0.87675578761E+02 0.  0.
         13    1    3    3    0    0 -0.48691844238E+02  0.24415416727E+02 -0.94781373479E+00  0.54478599323E+02  0.10566000000E+00 0.  1.
         22    1    1    0    0    0  0.24745918481E+02 -0.56888245028E+00  0.19994265366E+02  0.31819094208E+02  0.00000000000E+00 0.  1.
</event>
<event>
 5    1  0.1258677E-009  0.9118800E+02  0.7561462E-02  0.1125453E+00
         25   -1    0    0    0    0  0.00000000000E+00  0.00000000000E+00  0.99999998245E-14  0.12509000000E+03  0.12509000000E+03 0.  0.
        -13    1    3    3    0    0  0.31317435658E+02 -0.26244325564E+02 -0.19264559058E+02  0.45173895119E+02  0.10566000000E+00 0. -1.
         23    2    1    0    0    0 -0.12177398382E+02  0.44780976944E+01 -0.23134611484E+02  0.98565433296E+02  0.94929405360E+02 0.  0.
         13    1    3    3    0    0 -0.43494834040E+02  0.30722423259E+02 -0.38700524259E+01  0.53391538176E+02  0.10566000000E+00 0.  1.
         22    1    1    0    0    0  0.12177398382E+02 -0.44780976944E+01  0.23134611484E+02  0.26524566704E+02  0.00000000000E+00 0. -1.
</event>
<event>
 5    1  0.1258677E-009  0.9118800E+02  0.7561462E-02  0.1125453E+00
         25   -1    0    0    0    0  0.00000000000E+00  0.00000000000E+00  0.99999998245E-14  0.12509000000E+03  0.12509000000E+03 0.  0.
        -13    1    3    3    0    0  0.28039401515E+02  0.50108204395E+02  0.45401124935E+01  0.57599166405E+02  0.10566000000E+00 0. -1.
         23    2    1    0    0    0  0.41408362742E+01  0.19394815022E+02  0.17524912091E+02  0.98624401224E+02  0.95007076569E+02 0.  0.
         13    1    3    3    0    0 -0.23898565240E+02 -0.30713389373E+02  0.12984799597E+02  0.41025234819E+02  0.10566000000E+00 0.  1.
         22    1    1    0    0    0 -0.41408362742E+01 -0.19394815022E+02 -0.17524912091E+02  0.26465598776E+02  0.00000000000E+00 0. -1.
</event>
<event>
 5    1  0.1258677E-009  0.9118800E+02  0.7561462E-02  0.1125453E+00
         25   -1    0    0    0    0  0.00000000000E+00  0.00000000000E+00  0.99999998245E-14  0.12509000000E+03  0.12509000000E+03 0.  0.
        -13    1    3    3    0    0  0.35894727810E+02  0.14668550441E+02 -0.31452046046E+02  0.49928350875E+02  0.10566000000E+00 0.  1.
         23    2    1    0    0    0 -0.96324536898E+01  0.64736302022E+01 -0.26137659538E+02  0.96491585740E+02  0.92156154544E+02 0.  0.
         13    1    3    3    0    0 -0.45527181500E+02 -0.81949202386E+01  0.53143865075E+01  0.46563234865E+02  0.10566000000E+00 0. -1.
         22    1    1    0    0    0  0.96324536898E+01 -0.64736302022E+01  0.26137659538E+02  0.28598414260E+02  0.00000000000E+00 0.  1.
</event>
<event>
 5    1  0.1258677E-009  0.9118800E+02  0.7561462E-02  0.1125453E+00
         25   -1    0    0    0    0  0.00000000000E+00  0.00000000000E+00  0.99999998245E-14  0.12509000000E+03  0.12509000000E+03 0.  0.
        -13    1    3    3    0    0 -0.12087433215E+02  0.24850466500E+02 -0.33017076883E+02  0.43055664633E+02  0.10566000000E+00 0.  1.
         23    2    1    0    0    0 -0.25745627583E+02 -0.15395563533E+02 -0.33081666133E+01  0.94910459207E+02  0.89984390781E+02 0.  0.
         13    1    3    3    0    0 -0.13658194368E+02 -0.40246030034E+02  0.29708910270E+02  0.51854794574E+02  0.10566000000E+00 0. -1.
         22    1    1    0    0    0  0.25745627583E+02  0.15395563533E+02  0.33081666133E+01  0.30179540793E+02  0.00000000000E+00 0. -1.
</event>
<event>
 5    1  0.1258677E-009  0.9118800E+02  0.7561462E-02  0.1125453E+00
         25   -1    0    0    0    0  0.00000000000E+00  0.00000000000E+00  0.99999998245E-14  0.12509000000E+03  0.12509000000E+03 0.  0.
        -13    1    3    3    0    0 -0.15854343903E+02 -0.58754340590E+01 -0.43193958545E+02  0.46385452081E+02  0.10566000000E+00 0.  1.
         23    2    1    0    0    0  0.14683326141E+02 -0.23731708026E+02 -0.85413071725E+01  0.95905278644E+02  0.91356852569E+02 0.  0.
         13    1    3    3    0    0  0.30537670043E+02 -0.17856273967E+02  0.34652651373E+02  0.49519826563E+02  0.10566000000E+00 0. -1.
         22    1    1    0    0    0 -0.14683326141E+02  0.23731708026E+02  0.85413071725E+01  0.29184721356E+02  0.00000000000E+00 0.  1.
</event>
<event>
 5    1  0.1258677E-009  0.9118800E+02  0.7561462E-02  0.1125453E+00
         25   -1    0    0    0    0  0.00000000000E+00  0.00000000000E+00  0.99999998245E-14  0.12509000000E+03  0.12509000000E+03 0.  0.
        -13    1    3    3    0    0 -0.41628667411E+02 -0.29583986757E+02 -0.21174436533E+02  0.55285858493E+02  0.10566000000E+00 0.  1.
         23    2    1    0    0    0 -0.10691269920E+02 -0.30110276482E+02  0.61820502623E+00  0.93131993494E+02  0.87477162919E+02 0.  0.
         13    1    3    3    0    0  0.30937397490E+02 -0.52628972546E+00  0.21792641559E+02  0.37846135001E+02  0.10566000000E+00 0. -1.
         22    1    1    0    0    0  0.10691269920E+02  0.30110276482E+02 -0.61820502623E+00  0.31958006506E+02  0.00000000000E+00 0.  1.
</event>
<event>
 5    1  0.1258677E-009  0.9118800E+02  0.7561462E-02  0.1125453E+00
         25   -1    0    0    0    0  0.00000000000E+00  0.00000000000E+00  0.99999998245E-14  0.12509000000E+03  0.12509000000E+03 0.  0.
        -13    1    3    3    0    0  0.43095444583E+02  0.18892143308E+02 -0.16517146697E+01  0.47083646290E+02  0.10566000000E+00 0.  1.
         23    2    1    0    0    0  0.13426902089E+02 -0.59115745669E+01  0.26420444595E+02  0.94869670647E+02  0.89927671506E+02 0.  0.
         13    1    3    3    0    0 -0.29668542493E+02 -0.24803717875E+02  0.28072159265E+02  0.47786024358E+02  0.10566000000E+00 0. -1.
         22    1    1    0    0    0 -0.13426902089E+02  0.59115745669E+01 -0.26420444595E+02  0.30220329353E+02  0.00000000000E+00 0. -1.
</event>
<event>
 5    1  0.1258677E-009  0.9118800E+02  0.7561462E-02  0.1125453E+00
         25   -1    0    0    0    0  0.00000000000E+00  0.00000000000E+00  0.99999998245E-14  0.12509000000E+03  0.12509000000E+03 0.  0.
        -13    1    3    3    0    0  0.10070931070E+02 -0.66130042793E+01  0.28967534089E+02  0.31373311484E+02  0.10566000000E+00 0. -1.
         23    2    1    0    0    0 -0.19119955461E+02 -0.10402497967E+02 -0.24444145096E+02  0.92359266885E+02  0.86365116160E+02 0.  0.
         13    1    3    3    0    0 -0.29190886531E+02 -0.37894936882E+01 -0.53411679185E+02  0.60985955401E+02  0.10566000000E+00 0.  1.
         22    1    1    0    0    0  0.19119955461E+02  0.10402497967E+02  0.24444145096E+02  0.32730733115E+02  0.00000000000E+00 0.  1.
</event>
<event>
 5    1  0.1258677E-009  0.9118800E+02  0.7561462E-02  0.1125453E+00
         25   -1    0    0    0    0  0.00000000000E+00  0.00000000000E+00  0.99999998245E-14  0.12509000000E+03  0.12509000000E+03 0.  0.
        -13    1    3    3    0    0 -0.22125476793E+02 -0.89609907028E+00 -0.24602515349E+02  0.33100372240E+02  0.10566000000E+00 0.  1.
         23    2    1    0    0    0  0.27813465186E+02  0.17787382211E+02  0.58541137531E+00  0.92069967927E+02  0.85945078254E+02 0.  0.
         13    1    3    3    0    0  0.49938941980E+02  0.18683481282E+02  0.25187926724E+02  0.58969595688E+02  0.10566000000E+00 0. -1.
         22    1    1    0    0    0 -0.27813465186E+02 -0.17787382211E+02 -0.58541137531E+00  0.33020032073E+02  0.00000000000E+00 0. -1.
</event>
<event>
 5    1  0.1258677E-009  0.9118800E+02  0.7561462E-02  0.1125453E+00
         25   -1    0    0    0    0  0.00000000000E+00  0.00000000000E+00  0.99999998245E-14  0.12509000000E+03  0.12509000000E+03 0.  0.
        -13    1    3    3    0    0  0.18546325310E+02 -0.12925406894E+02  0.38085611413E+02  0.44289471510E+02  0.10566000000E+00 0.  1.
         23    2    1    0    0    0  0.18894047973E+01 -0.22918478886E+02 -0.12810426667E+02  0.98766368861E+02  0.95193813148E+02 0.  0.
         13    1    3    3    0    0 -0.16656920513E+02 -0.99930719917E+01 -0.50896038080E+02  0.54476897352E+02  0.10566000000E+00 0. -1.
         22    1    1    0    0    0 -0.18894047973E+01  0.22918478886E+02  0.12810426667E+02  0.26323631139E+02  0.00000000000E+00 0. -1.
</event>
<event>
 5    1  0.1258677E-009  0.9118800E+02  0.7561462E-02  0.1125453E+00
         25   -1    0    0    0    0  0.00000000000E+00  0.00000000000E+00  0.99999998245E-14  0.12509000000E+03  0.12509000000E+03 0.  0.
        -13    1    3    3    0    0 -0.15970143862E+02  0.35070820901E+02 -0.12436534254E+02  0.40493042883E+02  0.10566000000E+00 0. -1.
         23    2    1    0    0    0 -0.29921628201E+02 -0.10980207777E+02  0.71170189951E+01  0.92432370625E+02  0.86470933746E+02 0.  0.
         13    1    3    3    0    0 -0.13951484338E+02 -0.46051028678E+02  0.19553553249E+02  0.51939327742E+02  0.10566000000E+00 0.  1.
         22    1    1    0    0    0  0.29921628201E+02  0.10980207777E+02 -0.71170189951E+01  0.32657629375E+02  0.00000000000E+00 0.  1.
</event>
<event>
 5    1  0.1258677E-009  0.9118800E+02  0.7561462E-02  0.1125453E+00
         25   -1    0    0    0    0  0.00000000000E+00  0.00000000000E+00  0.99999998245E-14  0.12509000000E+03  0.12509000000E+03 0.  0.
        -13    1    3    3    0    0 -0.18023820189E+02  0.77857015494E+01  0.51998209770E+02  0.55581473767E+02  0.10566000000E+00 0.  1.
         23    2    1    0    0    0  0.12287490297E+02  0.35662262711E+00  0.26484062196E+02  0.95892137957E+02  0.91338857963E+02 0.  0.
         13    1    3    3    0    0  0.30311310486E+02 -0.74290789223E+01 -0.25514147574E+02  0.40310664190E+02  0.10566000000E+00 0. -1.
         22    1    1    0    0    0 -0.12287490297E+02 -0.35662262711E+00 -0.26484062196E+02  0.29197862043E+02  0.00000000000E+00 0.  1.
</event>
<event>
 5    1  0.1258677E-009  0.9118800E+02  0.7561462E-02  0.1125453E+00
         25   -1    0    0    0    0  0.00000000000E+00  0.00000000000E+00  0.99999998245E-14  0.12509000000E+03  0.12509000000E+03 0.  0.
        -13    1    3    3    0    0 -0.37665540028E+02  0.21241946048E+02 -0.41690979151E+02  0.60067146463E+02  0.10566000000E+00 0.  1.
         23    2    1    0    0    0 -0.76492134001E+01  0.14652554324E+02 -0.25225567658E+02  0.94931467584E+02  0.90013590419E+02 0.  0.
         13    1    3    3    0    0  0.30016326628E+02 -0.65893917238E+01  0.16465411494E+02  0.34864321121E+02  0.10566000000E+00 0. -1.
         22    1    1    0    0    0  0.76492134001E+01 -0.14652554324E+02  0.25225567658E+02  0.30158532416E+02  0.00000000000E+00 0.  1.
</event>
<event>
 5    1  0.1258677E-009  0.9118800E+02  0.7561462E-02  0.1125453E+00
         25   -1    0    0    0    0  0.00000000000E+00  0.00000000000E+00  0.99999998245E-14  0.12509000000E+03  0.12509000000E+03 0.  0.
        -13    1    3    3    0    0  0.83275591164E+01 -0.21450692350E+02 -0.15896000857E+02  0.27967381901E+02  0.10566000000E+00 0. -1.
         23    2    1    0    0    0 -0.38434063251E+02 -0.13271934173E+01  0.10380419861E+02  0.85256700151E+02  0.75379129364E+02 0.  0.
         13    1    3    3    0    0 -0.46761622368E+02  0.20123498932E+02  0.26276420718E+02  0.57289318250E+02  0.10566000000E+00 0.  1.
         22    1    1    0    0    0  0.38434063251E+02  0.13271934173E+01 -0.10380419861E+02  0.39833299849E+02  0.00000000000E+00 0.  1.
</event>
<event>
 5    1  0.1258677E-009  0.9118800E+02  0.7561462E-02  0.1125453E+00
         25   -1    0    0    0    0  0.00000000000E+00  0.00000000000E+00  0.99999998245E-14  0.12509000000E+03  0.12509000000E+03 0.  0.
        -13    1    3    3    0    0  0.25663537337E+01 -0.18261874665E+01 -0.43832231681E+02  0.43945384630E+02  0.10566000000E+00 0. -1.
         23    2    1    0    0    0  0.22768017021E+02  0.13117207841E+02  0.45110493927E+01  0.98429292822E+02  0.94749841046E+02 0.  0.
         13    1    3    3    0    0  0.20201663287E+02  0.14943395307E+02  0.48343281073E+02  0.54483908192E+02  0.10566000000E+00 0.  1.
         22    1    1    0    0    0 -0.22768017021E+02 -0.13117207841E+02 -0.45110493927E+01  0.26660707178E+02  0.00000000000E+00 0.  1.
</event>
<event>
 5    1  0.1258677E-009  0.9118800E+02  0.7561462E-02  0.1125453E+00
         25   -1    0    0    0    0  0.00000000000E+00  0.00000000000E+00  0.99999998245E-14  0.12509000000E+03  0.12509000000E+03 0.  0.
        -13    1    3    3    0    0 -0.15413594323E+02  0.29010081947E+02 -0.49145014791E+02  0.59113512731E+02  0.10566000000E+00 0. -1.
         23    2    1    0    0    0  0.27031772603E+01  0.24135108695E+02 -0.20750923414E+02  0.93146120123E+02  0.87497361288E+02 0.  0.
         13    1    3    3    0    0  0.18116771583E+02 -0.48749732514E+01  0.28394091377E+02  0.34032607393E+02  0.10566000000E+00 0.  1.
         22    1    1    0    0    0 -0.27031772603E+01 -0.24135108695E+02  0.20750923414E+02  0.31943879877E+02  0.00000000000E+00 0. -1.
</event>
<event>
 5    1  0.1258677E-009  0.9118800E+02  0.7561462E-02  0.1125453E+00
         25   -1    0    0    0    0  0.00000000000E+00  0.00000000000E+00  0.99999998245E-14  0.12509000000E+03  0.12509000000E+03 0.  0.
        -13    1    3    3    0    0  0.30290559578E+02 -0.50603807388E+02  0.12738075492E+02  0.60336829988E+02  0.10566000000E+00 0. -1.
         23    2    1    0    0    0  0.22598541985E+02 -0.16611033573E+02  0.13188015629E+01  0.97012254831E+02  0.92860205759E+02 0.  0.
         13    1    3    3    0    0 -0.76920175932E+01  0.33992773815E+02 -0.11419273929E+02  0.36675424843E+02  0.10566000000E+00 0.  1.
         22    1    1    0    0    0 -0.22598541985E+02  0.16611033573E+02 -0.13188015629E+01  0.28077745169E+02  0.00000000000E+00 0. -1.
</event>
<event>
 5    1  0.1258677E-009  0.9118800E+02  0.7561462E-02  0.1125453E+00
         25   -1    0    0    0    0  0.00000000000E+00  0.00000000000E+00  0.99999998245E-14  0.12509000000E+03  0.12509000000E+03 0.  0.
        -13    1    3    3    0    0 -0.97759134116E+01  0.99705124165E+01 -0.59021839592E+02  0.60651202080E+02  0.10566000000E+00 0.  1.
         23    2    1    0    0    0 -0.12990190005E+02 -0.21903275085E+01 -0.27241245957E+02  0.94830653473E+02  0.89873381965E+02 0.  0.
         13    1    3    3    0    0 -0.32142765933E+01 -0.12160839925E+02  0.31780593635E+02  0.34179451393E+02  0.10566000000E+00 0. -1.
         22    1    1    0    0    0  0.12990190005E+02  0.21903275085E+01  0.27241245957E+02  0.30259346527E+02  0.00000000000E+00 0.  1.
</event>
<event>
 5    1  0.1258677E-009  0.9118800E+02  0.7561462E-02  0.1125453E+00
         25   -1    0    0    0    0  0.00000000000E+00  0.00000000000E+00  0.99999998245E-14  0.12509000000E+03  0.12509000000E+03 0.  0.
        -13    1    3    3    0    0 -0.88650403305E+01 -0.30231106170E+02  0.35411534710E+02  0.47397222227E+02  0.10566000000E+00 0. -1.
         23    2    1    0    0    0  0.25474168439E+02 -0.38313643768E+01  0.15003878615E+02  0.95278442105E+02  0.90494489035E+02 0.  0.
         13    1    3    3    0    0  0.34339208770E+02  0.26399741793E+02 -0.20407656095E+02  0.47881219878E+02  0.10566000000E+00 0.  1.
         22    1    1    0    0    0 -0.25474168439E+02  0.38313643768E+01 -0.15003878615E+02  0.29811557895E+02  0.00000000000E+00 0.  1.
</event>
<event>
 5    1  0.1258677E-009  0.9118800E+02  0.7561462E-02  0.1125453E+00
         25   -1    0    0    0    0  0.00000000000E+00  0.00000000000E+00  0.99999998245E-14  0.12509000000E+03  0.12509000000E+03 0.  0.
        -13    1    3    3    0    0 -0.13814605630E+02 -0.13795468232E+02  0.34018944202E+02  0.39223181935E+02  0.10566000000E+00 0.  1.
         23    2    1    0    0    0  0.26325425735E+01  0.13912852903E+02  0.48511276255E+02  0.74554451322E+02  0.54813543324E+02 0.  0.
         13    1    3    3    0    0  0.16447148203E+02  0.27708321135E+02  0.14492332053E+02  0.35331269387E+02  0.10566000000E+00 0. -1.
         22    1    1    0    0    0 -0.26325425735E+01 -0.13912852903E+02 -0.48511276255E+02  0.50535548678E+02  0.00000000000E+00 0.  1.
</event>
<event>
 5    1  0.1258677E-009  0.9118800E+02  0.7561462E-02  0.1125453E+00
         25   -1    0    0    0    0  0.00000000000E+00  0.00000000000E+00  0.99999998245E-14  0.12509000000E+03  0.12509000000E+03 0.  0.
        -13    1    3    3    0    0 -0.40633841472E+02 -0.63015369632E+01  0.45678590106E+02  0.61460257069E+02  0.10566000000E+00 0.  1.
         23    2    1    0    0    0 -0.24097383634E+02 -0.17920740179E+01  0.14866504101E+02  0.96719092868E+02  0.92464450216E+02 0.  0.
         13    1    3    3    0    0  0.16536457838E+02  0.45094629453E+01 -0.30812086005E+02  0.35258835799E+02  0.10566000000E+00 0. -1.
         22    1    1    0    0    0  0.24097383634E+02  0.17920740179E+01 -0.14866504101E+02  0.28370907132E+02  0.00000000000E+00 0.  1.
</event>
<event>
 5    1  0.1258677E-009  0.9118800E+02  0.7561462E-02  0.1125453E+00
         25   -1    0    0    0    0  0.00000000000E+00  0.00000000000E+00  0.99999998245E-14  0.12509000000E+03  0.12509000000E+03 0.  0.
        -13    1    3    3    0    0 -0.70530309462E+01  0.36413283772E+02 -0.20490049803E+01  0.37146763870E+02  0.10566000000E+00 0. -1.
         23    2    1    0    0    0  0.25854110974E+02 -0.12503375908E+02 -0.37549109683E+01  0.96126767795E+02  0.91659623973E+02 0.  0.
         13    1    3    3    0    0  0.32907141921E+02 -0.48916659680E+02 -0.17059059880E+01  0.58980003925E+02  0.10566000000E+00 0.  1.
         22    1    1    0    0    0 -0.25854110974E+02  0.12503375908E+02  0.37549109683E+01  0.28963232205E+02  0.00000000000E+00 0.  1.
</event>
<event>
 5    1  0.1258677E-009  0.9118800E+02  0.7561462E-02  0.1125453E+00
         25   -1    0    0    0    0  0.00000000000E+00  0.00000000000E+00  0.99999998245E-14  0.12509000000E+03  0.12509000000E+03 0.  0.
        -13    1    3    3    0    0  0.20981406211E+02  0.18563262412E+02  0.24233852983E+02  0.37041934512E+02  0.10566000000E+00 0.  1.
         23    2    1    0    0    0 -0.30031455684E+02  0.90450295272E+01  0.15182057539E+01  0.93689270098E+02  0.88270456514E+02 0.  0.
         13    1    3    3    0    0 -0.51012861895E+02 -0.95182328849E+01 -0.22715647229E+02  0.56647335586E+02  0.10566000000E+00 0. -1.
         22    1    1    0    0    0  0.30031455684E+02 -0.90450295272E+01 -0.15182057539E+01  0.31400729902E+02  0.00000000000E+00 0. -1.
</event>
<event>
 5    1  0.1258677E-009  0.9118800E+02  0.7561462E-02  0.1125453E+00
         25   -1    0    0    0    0  0.00000000000E+00  0.00000000000E+00  0.99999998245E-14  0.12509000000E+03  0.12509000000E+03 0.  0.
        -13    1    3    3    0    0 -0.54980994990E+02  0.29030352005E+02 -0.43228083606E+01  0.62324706046E+02  0.10566000000E+00 0. -1.
         23    2    1    0    0    0 -0.26490815843E+02  0.16882118478E+02 -0.48703119802E+01  0.93301807426E+02  0.87719656189E+02 0.  0.
         13    1    3    3    0    0  0.28490179147E+02 -0.12148233526E+02 -0.54750361965E+00  0.30977101380E+02  0.10566000000E+00 0.  1.
         22    1    1    0    0    0  0.26490815843E+02 -0.16882118478E+02  0.48703119802E+01  0.31788192574E+02  0.00000000000E+00 0. -1.
</event>
<event>
 5    1  0.1258677E-009  0.9118800E+02  0.7561462E-02  0.1125453E+00
         25   -1    0    0    0    0  0.00000000000E+00  0.00000000000E+00  0.99999998245E-14  0.12509000000E+03  0.12509000000E+03 0.  0.
        -13    1    3    3    0    0 -0.30721636938E+02 -0.26865755567E+02  0.10303131158E+02  0.42092202057E+02  0.10566000000E+00 0.  1.
         23    2    1    0    0    0  0.42058865365E+01 -0.46249762442E+01 -0.26726529301E+02  0.97642099255E+02  0.93704814666E+02 0.  0.
         13    1    3    3    0    0  0.34927523475E+02  0.22240779322E+02 -0.37029660459E+02  0.55549897198E+02  0.10566000000E+00 0. -1.
         22    1    1    0    0    0 -0.42058865365E+01  0.46249762442E+01  0.26726529301E+02  0.27447900745E+02  0.00000000000E+00 0.  1.
</event>
<event>
 5    1  0.1258677E-009  0.9118800E+02  0.7561462E-02  0.1125453E+00
         25   -1    0    0    0    0  0.00000000000E+00  0.00000000000E+00  0.99999998245E-14  0.12509000000E+03  0.12509000000E+03 0.  0.
        -13    1    3    3    0    0 -0.37563401628E+02  0.12597905306E+02  0.14815427821E+02  0.42299224881E+02  0.10566000000E+00 0.  1.
         23    2    1    0    0    0  0.11025839712E+02  0.14334082127E+01  0.28915690445E+02  0.94110313843E+02  0.88865123740E+02 0.  0.
         13    1    3    3    0    0  0.48589241340E+02 -0.11164497094E+02  0.14100262624E+02  0.51811088962E+02  0.10566000000E+00 0. -1.
         22    1    1    0    0    0 -0.11025839712E+02 -0.14334082127E+01 -0.28915690445E+02  0.30979686157E+02  0.00000000000E+00 0.  1.
</event>
<event>
 5    1  0.1258677E-009  0.9118800E+02  0.7561462E-02  0.1125453E+00
         25   -1    0    0    0    0  0.00000000000E+00  0.00000000000E+00  0.99999998245E-14  0.12509000000E+03  0.12509000000E+03 0.  0.
        -13    1    3    3    0    0 -0.65822808863E+01  0.51774089823E+02  0.30209793784E+02  0.60303611859E+02  0.10566000000E+00 0. -1.
         23    2    1    0    0    0  0.63320960982E+01  0.27407057299E+02  0.76344349486E+01  0.95943356493E+02  0.91408975639E+02 0.  0.
         13    1    3    3    0    0  0.12914376984E+02 -0.24367032525E+02 -0.22575358836E+02  0.35639744634E+02  0.10566000000E+00 0.  1.
         22    1    1    0    0    0 -0.63320960982E+01 -0.27407057299E+02 -0.76344349486E+01  0.29146643507E+02  0.00000000000E+00 0. -1.
</event>
<event>
 5    1  0.1258677E-009  0.9118800E+02  0.7561462E-02  0.1125453E+00
         25   -1    0    0    0    0  0.00000000000E+00  0.00000000000E+00  0.99999998245E-14  0.12509000000E+03  0.12509000000E+03 0.  0.
        -13    1    3    3    0    0  0.28136469015E+01 -0.58796304306E+02  0.75238773971E+01  0.59342580867E+02  0.10566000000E+00 0.  1.
         23    2    1    0    0    0  0.71668872166E+01 -0.28483246845E+02  0.16688683381E+02  0.91308765917E+02  0.84829941395E+02 0.  0.
         13    1    3    3    0    0  0.43532403151E+01  0.30313057461E+02  0.91648059836E+01  0.31966185050E+02  0.10566000000E+00 0. -1.
         22    1    1    0    0    0 -0.71668872166E+01  0.28483246845E+02 -0.16688683381E+02  0.33781234083E+02  0.00000000000E+00 0.  1.
</event>
<event>
 5    1  0.1258677E-009  0.9118800E+02  0.7561462E-02  0.1125453E+00
         25   -1    0    0    0    0  0.00000000000E+00  0.00000000000E+00  0.99999998245E-14  0.12509000000E+03  0.12509000000E+03 0.  0.
        -13    1    3    3    0    0  0.54183543051E+01 -0.44657479255E+02  0.47492182275E+01  0.45235110860E+02  0.10566000000E+00 0.  1.
         23    2    1    0    0    0 -0.26830337709E+02 -0.92876060637E+01 -0.94581129081E+01  0.95163714768E+02  0.90335762911E+02 0.  0.
         13    1    3    3    0    0 -0.32248692014E+02  0.35369873191E+02 -0.14207331136E+02  0.49928603908E+02  0.10566000000E+00 0. -1.
         22    1    1    0    0    0  0.26830337709E+02  0.92876060637E+01  0.94581129081E+01  0.29926285232E+02  0.00000000000E+00 0. -1.
</event>
<event>
 5    1  0.1258677E-009  0.9118800E+02  0.7561462E-02  0.1125453E+00
         25   -1    0    0    0    0  0.00000000000E+00  0.00000000000E+00  0.99999998245E-14  0.12509000000E+03  0.12509000000E+03 0.  0.
        -13    1    3    3    0    0 -0.19055944102E+02  0.32123456980E+02 -0.97637843136E+01  0.38605545484E+02  0.10566000000E+00 0.  1.
         23    2    1    0    0    0  0.24719913141E+02 -0.39024531253E+01 -0.15601352028E+02  0.95599231424E+02  0.90936833119E+02 0.  0.
         13    1    3    3    0    0  0.43775857243E+02 -0.36025910105E+02 -0.58375677140E+01  0.56993685941E+02  0.10566000000E+00 0. -1.
         22    1    1    0    0    0 -0.24719913141E+02  0.39024531253E+01  0.15601352028E+02  0.29490768576E+02  0.00000000000E+00 0. -1.
</event>
<event>
 5    1  0.1258677E-009  0.9118800E+02  0.7561462E-02  0.1125453E+00
         25   -1    0    0    0    0  0.00000000000E+00  0.00000000000E+00  0.99999998245E-14  0.12509000000E+03  0.12509000000E+03 0.  0.
        -13    1    3    3    0    0 -0.69209237365E+01  0.38428985350E+02  0.11723068097E+02  0.40769199036E+02  0.10566000000E+00 0. -1.
         23    2    1    0    0    0  0.24761666417E+02  0.51514085642E+01 -0.16685653010E+02  0.94790030523E+02  0.89816823237E+02 0.  0.
         13    1    3    3    0    0  0.31682590153E+02 -0.33277576786E+02 -0.28408721107E+02  0.54020831487E+02  0.10566000000E+00 0.  1.
         22    1    1    0    0    0 -0.24761666417E+02 -0.51514085642E+01  0.16685653010E+02  0.30299969477E+02  0.00000000000E+00 0. -1.
</event>
<event>
 5    1  0.1258677E-009  0.9118800E+02  0.7561462E-02  0.1125453E+00
         25   -1    0    0    0    0  0.00000000000E+00  0.00000000000E+00  0.99999998245E-14  0.12509000000E+03  0.12509000000E+03 0.  0.
        -13    1    3    3    0    0  0.95559925145E+01 -0.15441246967E+02  0.41453660540E+02  0.45256670636E+02  0.10566000000E+00 0.  1.
         23    2    1    0    0    0  0.66539251195E+01  0.25713598781E+02  0.12024720263E+02  0.95934249638E+02  0.91396512376E+02 0.  0.
         13    1    3    3    0    0 -0.29020673950E+01  0.41154845748E+02 -0.29428940277E+02  0.50677579002E+02  0.10566000000E+00 0. -1.
         22    1    1    0    0    0 -0.66539251195E+01 -0.25713598781E+02 -0.12024720263E+02  0.29155750362E+02  0.00000000000E+00 0. -1.
</event>
<event>
 5    1  0.1258677E-009  0.9118800E+02  0.7561462E-02  0.1125453E+00
         25   -1    0    0    0    0  0.00000000000E+00  0.00000000000E+00  0.99999998245E-14  0.12509000000E+03  0.12509000000E+03 0.  0.
        -13    1    3    3    0    0  0.30750768978E+02  0.14331417974E+02 -0.73177665878E+01  0.34706774637E+02  0.10566000000E+00 0.  1.
         23    2    1    0    0    0 -0.24895663916E+02 -0.11924716735E+02 -0.83671158909E+01  0.96245562419E+02  0.91821602610E+02 0.  0.
         13    1    3    3    0    0 -0.55646432894E+02 -0.26256134709E+02 -0.10493493032E+01  0.61538787782E+02  0.10566000000E+00 0. -1.
         22    1    1    0    0    0  0.24895663916E+02  0.11924716735E+02  0.83671158909E+01  0.28844437581E+02  0.00000000000E+00 0. -1.
</event>
<event>
 5    1  0.1258677E-009  0.9118800E+02  0.7561462E-02  0.1125453E+00
         25   -1    0    0    0    0  0.00000000000E+00  0.00000000000E+00  0.99999998245E-14  0.12509000000E+03  0.12509000000E+03 0.  0.
        -13    1    3    3    0    0  0.42648574823E+02  0.28102706726E+02  0.82257554481E+01  0.51733328488E+02  0.10566000000E+00 0.  1.
         23    2    1    0    0    0  0.18414704483E+02  0.35394743007E+01 -0.20988261160E+02  0.96945083478E+02  0.92769676536E+02 0.  0.
         13    1    3    3    0    0 -0.24233870340E+02 -0.24563232425E+02 -0.29214016608E+02  0.45211754990E+02  0.10566000000E+00 0. -1.
         22    1    1    0    0    0 -0.18414704483E+02 -0.35394743007E+01  0.20988261160E+02  0.28144916522E+02  0.00000000000E+00 0. -1.
</event>
<event>
 5    1  0.1258677E-009  0.9118800E+02  0.7561462E-02  0.1125453E+00
         25   -1    0    0    0    0  0.00000000000E+00  0.00000000000E+00  0.99999998245E-14  0.12509000000E+03  0.12509000000E+03 0.  0.
        -13    1    3    3    0    0  0.88136157759E+01 -0.93511101762E+01 -0.32051766936E+02  0.34531869517E+02  0.10566000000E+00 0. -1.
         23    2    1    0    0    0 -0.16939310956E+02 -0.19693923506E+01  0.23411218270E+02  0.96126162153E+02  0.91658797437E+02 0.  0.
         13    1    3    3    0    0 -0.25752926732E+02  0.73817178256E+01  0.55462985206E+02  0.61594292636E+02  0.10566000000E+00 0.  1.
         22    1    1    0    0    0  0.16939310956E+02  0.19693923506E+01 -0.23411218270E+02  0.28963837847E+02  0.00000000000E+00 0.  1.
</event>
<event>
 5    1  0.1258677E-009  0.9118800E+02  0.7561462E-02  0.1125453E+00
         25   -1    0    0    0    0  0.00000000000E+00  0.00000000000E+00  0.99999998245E-14  0.12509000000E+03  0.12509000000E+03 0.  0.
        -13    1    3    3    0    0  0.93464583207E+00 -0.13181580260E+02  0.35308814467E+02  0.37700811186E+02  0.10566000000E+00 0.  1.
         23    2    1    0    0    0 -0.29789284645E+02 -0.31779965487E+02  0.24016800991E+02  0.75348926270E+02  0.56597581876E+02 0.  0.
         13    1    3    3    0    0 -0.30723930477E+02 -0.18598385226E+02 -0.11292013476E+02  0.37648115084E+02  0.10566000000E+00 0. -1.
         22    1    1    0    0    0  0.29789284645E+02  0.31779965487E+02 -0.24016800991E+02  0.49741073730E+02  0.00000000000E+00 0. -1.
</event>
<event>
 5    1  0.1258677E-009  0.9118800E+02  0.7561462E-02  0.1125453E+00
         25   -1    0    0    0    0  0.00000000000E+00  0.00000000000E+00  0.99999998245E-14  0.12509000000E+03  0.12509000000E+03 0.  0.
        -13    1    3    3    0    0  0.29417379137E+02 -0.16136620586E+02  0.18265936774E+02  0.38202464967E+02  0.10566000000E+00 0. -1.
         23    2    1    0    0    0 -0.15077693358E+02 -0.16834882761E+02 -0.18466536501E+02  0.95905019532E+02  0.91356497779E+02 0.  0.
         13    1    3    3    0    0 -0.44495072495E+02 -0.69826217463E+00 -0.36732473275E+02  0.57702554565E+02  0.10566000000E+00 0.  1.
         22    1    1    0    0    0  0.15077693358E+02  0.16834882761E+02  0.18466536501E+02  0.29184980468E+02  0.00000000000E+00 0.  1.
</event>
<event>
 4    1  0.1258677E-009  0.9118800E+02  0.7561462E-02  0.1125453E+00
         25   -1    0    0    0    0  0.00000000000E+00  0.00000000000E+00  0.99999998245E-14  0.12509000000E+03  0.12509000000E+03 0.  0.
        -13    1    1    0    0    0 -0.30162018933E+02 -0.19505164750E+02 -0.22792825820E+01  0.35991736984E+02  0.10566000000E+00 0.  1.
         13    1    1    0    0    0 -0.62873573337E+01 -0.15169322562E+02  0.28103618172E+02  0.32549404413E+02  0.10566000000E+00 0. -1.
         22    1    1    0    0    0  0.36449376266E+02  0.34674487312E+02 -0.25824335590E+02  0.56548858603E+02  0.00000000000E+00 0. -1.
</event>
<event>
 5    1  0.1258677E-009  0.9118800E+02  0.7561462E-02  0.1125453E+00
         25   -1    0    0    0    0  0.00000000000E+00  0.00000000000E+00  0.99999998245E-14  0.12509000000E+03  0.12509000000E+03 0.  0.
        -13    1    3    3    0    0 -0.21925855731E+02 -0.53251971260E+02  0.18421942732E+02  0.60463995325E+02  0.10566000000E+00 0. -1.
         23    2    1    0    0    0 -0.14639984538E+02 -0.16857083496E+02  0.15926151616E+02  0.97664961868E+02  0.93735329840E+02 0.  0.
         13    1    3    3    0    0  0.72858711932E+01  0.36394887764E+02 -0.24957911162E+01  0.37200966543E+02  0.10566000000E+00 0.  1.
         22    1    1    0    0    0  0.14639984538E+02  0.16857083496E+02 -0.15926151616E+02  0.27425038132E+02  0.00000000000E+00 0. -1.
</event>
<event>
 5    1  0.1258677E-009  0.9118800E+02  0.7561462E-02  0.1125453E+00
         25   -1    0    0    0    0  0.00000000000E+00  0.00000000000E+00  0.99999998245E-14  0.12509000000E+03  0.12509000000E+03 0.  0.
        -13    1    3    3    0    0  0.40526696202E+02 -0.11347153522E+02 -0.88750041644E+00  0.42094771874E+02  0.10566000000E+00 0.  1.
         23    2    1    0    0    0 -0.57565933502E+00  0.57955427326E+01 -0.29494907650E+02  0.95025581221E+02  0.90144283291E+02 0.  0.
         13    1    3    3    0    0 -0.41102355537E+02  0.17142696254E+02 -0.28607407233E+02  0.52930809348E+02  0.10566000000E+00 0. -1.
         22    1    1    0    0    0  0.57565933502E+00 -0.57955427326E+01  0.29494907650E+02  0.30064418779E+02  0.00000000000E+00 0. -1.
</event>
<event>
 5    1  0.1258677E-009  0.9118800E+02  0.7561462E-02  0.1125453E+00
         25   -1    0    0    0    0  0.00000000000E+00  0.00000000000E+00  0.99999998245E-14  0.12509000000E+03  0.12509000000E+03 0.  0.
        -13    1    3    3    0    0 -0.23452617231E+02  0.30875213842E+02  0.59121481704E+01  0.39220769304E+02  0.10566000000E+00 0. -1.
         23    2    1    0    0    0  0.12415245895E+02  0.96481777101E+00 -0.26324396611E+02  0.95968821093E+02  0.91443816418E+02 0.  0.
         13    1    3    3    0    0  0.35867863126E+02 -0.29910396071E+02 -0.32236544782E+02  0.56748051789E+02  0.10566000000E+00 0.  1.
         22    1    1    0    0    0 -0.12415245895E+02 -0.96481777101E+00  0.26324396611E+02  0.29121178907E+02  0.00000000000E+00 0.  1.
</event>
<event>
 5    1  0.1258677E-009  0.9118800E+02  0.7561462E-02  0.1125453E+00
         25   -1    0    0    0    0  0.00000000000E+00  0.00000000000E+00  0.99999998245E-14  0.12509000000E+03  0.12509000000E+03 0.  0.
        -13    1    3    3    0    0 -0.12141942166E+02 -0.37071384640E+02  0.82380118239E+01  0.39869666684E+02  0.10566000000E+00 0. -1.
         23    2    1    0    0    0 -0.11360082669E+00  0.14635792654E+02  0.25495442907E+02  0.95692092918E+02  0.91064481036E+02 0.  0.
         13    1    3    3    0    0  0.12028341340E+02  0.51707177293E+02  0.17257431083E+02  0.55822426234E+02  0.10566000000E+00 0.  1.
         22    1    1    0    0    0  0.11360082669E+00 -0.14635792654E+02 -0.25495442907E+02  0.29397907082E+02  0.00000000000E+00 0.  1.
</event>
<event>
 5    1  0.1258677E-009  0.9118800E+02  0.7561462E-02  0.1125453E+00
         25   -1    0    0    0    0  0.00000000000E+00  0.00000000000E+00  0.99999998245E-14  0.12509000000E+03  0.12509000000E+03 0.  0.
        -13    1    3    3    0    0 -0.15461744866E+01 -0.13963733524E+02 -0.31534727972E+02  0.34522843768E+02  0.10566000000E+00 0.  1.
         23    2    1    0    0    0 -0.44800794561E+01 -0.10575942725E+02  0.28311834459E+02  0.94537068113E+02  0.89463822859E+02 0.  0.
         13    1    3    3    0    0 -0.29339049695E+01  0.33877907990E+01  0.59846562432E+02  0.60014224345E+02  0.10566000000E+00 0. -1.
         22    1    1    0    0    0  0.44800794561E+01  0.10575942725E+02 -0.28311834459E+02  0.30552931887E+02  0.00000000000E+00 0. -1.
</event>
<event>
 5    1  0.1258677E-009  0.9118800E+02  0.7561462E-02  0.1125453E+00
         25   -1    0    0    0    0  0.00000000000E+00  0.00000000000E+00  0.99999998245E-14  0.12509000000E+03  0.12509000000E+03 0.  0.
        -13    1    3    3    0    0 -0.70883273115E+01 -0.64918466856E+01  0.59748817325E+02  0.60517111574E+02  0.10566000000E+00 0.  1.
         23    2    1    0    0    0 -0.13971454425E+02 -0.50370335185E+01  0.24670975045E+02  0.96293641635E+02  0.91887078331E+02 0.  0.
         13    1    3    3    0    0 -0.68831271130E+01  0.14548131670E+01 -0.35077842280E+02  0.35776530061E+02  0.10566000000E+00 0. -1.
         22    1    1    0    0    0  0.13971454425E+02  0.50370335185E+01 -0.24670975045E+02  0.28796358365E+02  0.00000000000E+00 0.  1.
</event>
<event>
 5    1  0.1258677E-009  0.9118800E+02  0.7561462E-02  0.1125453E+00
         25   -1    0    0    0    0  0.00000000000E+00  0.00000000000E+00  0.99999998245E-14  0.12509000000E+03  0.12509000000E+03 0.  0.
        -13    1    3    3    0    0 -0.10908305900E+02 -0.12537463467E+02  0.57446903512E+02  0.59802483351E+02  0.10566000000E+00 0.  1.
         23    2    1    0    0    0  0.78507557215E+01 -0.32198928429E+01  0.27224810944E+02  0.96573471350E+02  0.92267236668E+02 0.  0.
         13    1    3    3    0    0  0.18759061621E+02  0.93175706239E+01 -0.30222092568E+02  0.36770987999E+02  0.10566000000E+00 0. -1.
         22    1    1    0    0    0 -0.78507557215E+01  0.32198928429E+01 -0.27224810944E+02  0.28516528650E+02  0.00000000000E+00 0.  1.
</event>
<event>
 5    1  0.1258677E-009  0.9118800E+02  0.7561462E-02  0.1125453E+00
         25   -1    0    0    0    0  0.00000000000E+00  0.00000000000E+00  0.99999998245E-14  0.12509000000E+03  0.12509000000E+03 0.  0.
        -13    1    3    3    0    0 -0.27238828339E+02 -0.35644983340E+02  0.86948182458E+01  0.45696057105E+02  0.10566000000E+00 0.  1.
         23    2    1    0    0    0  0.20562776375E+02 -0.19606765105E+02  0.48913936008E+01  0.96259829319E+02  0.91841036574E+02 0.  0.
         13    1    3    3    0    0  0.47801604715E+02  0.16038218235E+02 -0.38034246449E+01  0.50563772214E+02  0.10566000000E+00 0. -1.
         22    1    1    0    0    0 -0.20562776375E+02  0.19606765105E+02 -0.48913936008E+01  0.28830170681E+02  0.00000000000E+00 0.  1.
</event>
<event>
 5    1  0.1258677E-009  0.9118800E+02  0.7561462E-02  0.1125453E+00
         25   -1    0    0    0    0  0.00000000000E+00  0.00000000000E+00  0.99999998245E-14  0.12509000000E+03  0.12509000000E+03 0.  0.
        -13    1    3    3    0    0 -0.23989444051E+02  0.22914392486E+02 -0.50836411641E+02  0.60703498428E+02  0.10566000000E+00 0.  1.
         23    2    1    0    0    0 -0.20956201446E+02  0.71547379983E+01 -0.21055328486E+02  0.94533830205E+02  0.89459295440E+02 0.  0.
         13    1    3    3    0    0  0.30332426045E+01 -0.15759654487E+02  0.29781083154E+02  0.33830331777E+02  0.10566000000E+00 0. -1.
         22    1    1    0    0    0  0.20956201446E+02 -0.71547379983E+01  0.21055328486E+02  0.30556169795E+02  0.00000000000E+00 0.  1.
</event>
<event>
 5    1  0.1258677E-009  0.9118800E+02  0.7561462E-02  0.1125453E+00
         25   -1    0    0    0    0  0.00000000000E+00  0.00000000000E+00  0.99999998245E-14  0.12509000000E+03  0.12509000000E+03 0.  0.
        -13    1    3    3    0    0  0.14732357298E+02  0.19471294260E+01  0.43358556284E+02  0.45834585540E+02  0.10566000000E+00 0.  1.
         23    2    1    0    0    0  0.86452026016E+01  0.26174804350E+02 -0.18250803651E+01  0.97464091343E+02  0.93466883291E+02 0.  0.
         13    1    3    3    0    0 -0.60871546962E+01  0.24227674924E+02 -0.45183636649E+02  0.51629505803E+02  0.10566000000E+00 0. -1.
         22    1    1    0    0    0 -0.86452026016E+01 -0.26174804350E+02  0.18250803651E+01  0.27625908657E+02  0.00000000000E+00 0. -1.
</event>
<event>
 5    1  0.1258677E-009  0.9118800E+02  0.7561462E-02  0.1125453E+00
         25   -1    0    0    0    0  0.00000000000E+00  0.00000000000E+00  0.99999998245E-14  0.12509000000E+03  0.12509000000E+03 0.  0.
        -13    1    3    3    0    0 -0.31194454069E+02  0.13805648477E+02  0.22177561307E+02  0.40688392498E+02  0.10566000000E+00 0.  1.
         23    2    1    0    0    0 -0.13147444883E+02 -0.14225391892E+02 -0.21834454491E+02  0.95901637861E+02  0.91351867304E+02 0.  0.
         13    1    3    3    0    0  0.18047009186E+02 -0.28031040369E+02 -0.44012015798E+02  0.55213245362E+02  0.10566000000E+00 0. -1.
         22    1    1    0    0    0  0.13147444883E+02  0.14225391892E+02  0.21834454491E+02  0.29188362139E+02  0.00000000000E+00 0. -1.
</event>
<event>
 5    1  0.1258677E-009  0.9118800E+02  0.7561462E-02  0.1125453E+00
         25   -1    0    0    0    0  0.00000000000E+00  0.00000000000E+00  0.99999998245E-14  0.12509000000E+03  0.12509000000E+03 0.  0.
        -13    1    3    3    0    0 -0.29186702398E+02 -0.37806280316E+01 -0.18746066463E+02  0.34893880797E+02  0.10566000000E+00 0.  1.
         23    2    1    0    0    0  0.20004049888E+02 -0.35441330581E+01  0.19289884991E+02  0.97075315386E+02  0.92945114467E+02 0.  0.
         13    1    3    3    0    0  0.49190752286E+02  0.23649497341E+00  0.38035951455E+02  0.62181434588E+02  0.10566000000E+00 0. -1.
         22    1    1    0    0    0 -0.20004049888E+02  0.35441330581E+01 -0.19289884991E+02  0.28014684614E+02  0.00000000000E+00 0. -1.
</event>
<event>
 5    1  0.1258677E-009  0.9118800E+02  0.7561462E-02  0.1125453E+00
         25   -1    0    0    0    0  0.00000000000E+00  0.00000000000E+00  0.99999998245E-14  0.12509000000E+03  0.12509000000E+03 0.  0.
        -13    1    3    3    0    0 -0.16696191988E+02 -0.40186373577E+02 -0.32023786819E+02  0.54030005872E+02  0.10566000000E+00 0. -1.
         23    2    1    0    0    0  0.11924562684E+02 -0.27510692396E+02 -0.65229897440E+01  0.94404779022E+02  0.89278662152E+02 0.  0.
         13    1    3    3    0    0  0.28620754672E+02  0.12675681182E+02  0.25500797075E+02  0.40374773150E+02  0.10566000000E+00 0.  1.
         22    1    1    0    0    0 -0.11924562684E+02  0.27510692396E+02  0.65229897440E+01  0.30685220978E+02  0.00000000000E+00 0.  1.
</event>
<event>
 5    1  0.1258677E-009  0.9118800E+02  0.7561462E-02  0.1125453E+00
         25   -1    0    0    0    0  0.00000000000E+00  0.00000000000E+00  0.99999998245E-14  0.12509000000E+03  0.12509000000E+03 0.  0.
        -13    1    3    3    0    0  0.33327020892E+02  0.48969233356E+01 -0.20701927975E+02  0.39537971187E+02  0.10566000000E+00 0.  1.
         23    2    1    0    0    0  0.12084658800E+02  0.79767393944E+01  0.28447111291E+02  0.93169700965E+02  0.87531066984E+02 0.  0.
         13    1    3    3    0    0 -0.21242362092E+02  0.30798160589E+01  0.49149039266E+02  0.53631729778E+02  0.10566000000E+00 0. -1.
         22    1    1    0    0    0 -0.12084658800E+02 -0.79767393944E+01 -0.28447111291E+02  0.31920299035E+02  0.00000000000E+00 0. -1.
</event>
<event>
 5    1  0.1258677E-009  0.9118800E+02  0.7561462E-02  0.1125453E+00
         25   -1    0    0    0    0  0.00000000000E+00  0.00000000000E+00  0.99999998245E-14  0.12509000000E+03  0.12509000000E+03 0.  0.
        -13    1    3    3    0    0 -0.32571730737E+02 -0.10162424279E+02  0.17032705980E+02  0.38135505077E+02  0.10566000000E+00 0.  1.
         23    2    1    0    0    0 -0.22115071771E+01  0.11830074724E+02 -0.26739245916E+02  0.95767164118E+02  0.91167543672E+02 0.  0.
         13    1    3    3    0    0  0.30360223560E+02  0.21992499003E+02 -0.43771951896E+02  0.57631659041E+02  0.10566000000E+00 0. -1.
         22    1    1    0    0    0  0.22115071771E+01 -0.11830074724E+02  0.26739245916E+02  0.29322835882E+02  0.00000000000E+00 0. -1.
</event>
<event>
 5    1  0.1258677E-009  0.9118800E+02  0.7561462E-02  0.1125453E+00
         25   -1    0    0    0    0  0.00000000000E+00  0.00000000000E+00  0.99999998245E-14  0.12509000000E+03  0.12509000000E+03 0.  0.
        -13    1    3    3    0    0 -0.37842819775E+02 -0.25428955053E+02 -0.42375218309E+02  0.62244526300E+02  0.10566000000E+00 0.  1.
         23    2    1    0    0    0 -0.20653949133E+02 -0.12277920302E+02 -0.16679871658E+02  0.95840195552E+02  0.91267694302E+02 0.  0.
         13    1    3    3    0    0  0.17188870642E+02  0.13151034751E+02  0.25695346650E+02  0.33595669252E+02  0.10566000000E+00 0. -1.
         22    1    1    0    0    0  0.20653949133E+02  0.12277920302E+02  0.16679871658E+02  0.29249804448E+02  0.00000000000E+00 0.  1.
</event>
<event>
 5    1  0.1258677E-009  0.9118800E+02  0.7561462E-02  0.1125453E+00
         25   -1    0    0    0    0  0.00000000000E+00  0.00000000000E+00  0.99999998245E-14  0.12509000000E+03  0.12509000000E+03 0.  0.
        -13    1    3    3    0    0 -0.21501140695E+02  0.21888286999E+01  0.54858687879E+02  0.58962503527E+02  0.10566000000E+00 0. -1.
         23    2    1    0    0    0  0.43176707241E+01 -0.23200462967E+01  0.28634879985E+02  0.96038644660E+02  0.91539281301E+02 0.  0.
         13    1    3    3    0    0  0.25818811419E+02 -0.45088749966E+01 -0.26223807894E+02  0.37076141133E+02  0.10566000000E+00 0.  1.
         22    1    1    0    0    0 -0.43176707241E+01  0.23200462967E+01 -0.28634879985E+02  0.29051355340E+02  0.00000000000E+00 0. -1.
</event>
<event>
 5    1  0.1258677E-009  0.9118800E+02  0.7561462E-02  0.1125453E+00
         25   -1    0    0    0    0  0.00000000000E+00  0.00000000000E+00  0.99999998245E-14  0.12509000000E+03  0.12509000000E+03 0.  0.
        -13    1    3    3    0    0 -0.49737554111E+02  0.19600657059E+02  0.20667935911E+02  0.57316531515E+02  0.10566000000E+00 0.  1.
         23    2    1    0    0    0 -0.16086342892E+02  0.51960191854E+00  0.24052893430E+02  0.96148989372E+02  0.91689945257E+02 0.  0.
         13    1    3    3    0    0  0.33651211219E+02 -0.19081055140E+02  0.33849575187E+01  0.38832457857E+02  0.10566000000E+00 0. -1.
         22    1    1    0    0    0  0.16086342892E+02 -0.51960191854E+00 -0.24052893430E+02  0.28941010628E+02  0.00000000000E+00 0.  1.
</event>
<event>
 5    1  0.1258677E-009  0.9118800E+02  0.7561462E-02  0.1125453E+00
         25   -1    0    0    0    0  0.00000000000E+00  0.00000000000E+00  0.99999998245E-14  0.12509000000E+03  0.12509000000E+03 0.  0.
        -13    1    3    3    0    0  0.27806989330E+02 -0.30957493909E+02  0.48343959623E+01  0.41892453175E+02  0.10566000000E+00 0. -1.
         23    2    1    0    0    0 -0.94429068543E+01  0.30604371709E+01 -0.23378284185E+02  0.99691595779E+02  0.96401946723E+02 0.  0.
         13    1    3    3    0    0 -0.37249896184E+02  0.34017931080E+02 -0.28212680147E+02  0.57799142604E+02  0.10566000000E+00 0.  1.
         22    1    1    0    0    0  0.94429068543E+01 -0.30604371709E+01  0.23378284185E+02  0.25398404221E+02  0.00000000000E+00 0.  1.
</event>
<event>
 5    1  0.1258677E-009  0.9118800E+02  0.7561462E-02  0.1125453E+00
         25   -1    0    0    0    0  0.00000000000E+00  0.00000000000E+00  0.99999998245E-14  0.12509000000E+03  0.12509000000E+03 0.  0.
        -13    1    3    3    0    0  0.38083268180E+02  0.73680429247E+01 -0.13053344430E+02  0.40927061178E+02  0.10566000000E+00 0.  1.
         23    2    1    0    0    0 -0.16236760173E+02  0.36653463432E+01 -0.23425993707E+02  0.96352492699E+02  0.91967160027E+02 0.  0.
         13    1    3    3    0    0 -0.54320028353E+02 -0.37026965815E+01 -0.10372649277E+02  0.55425431521E+02  0.10566000000E+00 0. -1.
         22    1    1    0    0    0  0.16236760173E+02 -0.36653463432E+01  0.23425993707E+02  0.28737507301E+02  0.00000000000E+00 0. -1.
</event>
<event>
 5    1  0.1258677E-009  0.9118800E+02  0.7561462E-02  0.1125453E+00
         25   -1    0    0    0    0  0.00000000000E+00  0.00000000000E+00  0.99999998245E-14  0.12509000000E+03  0.12509000000E+03 0.  0.
        -13    1    3    3    0    0  0.40524351946E+02  0.67166281113E+01 -0.29346276740E+02  0.50483178549E+02  0.10566000000E+00 0. -1.
         23    2    1    0    0    0  0.18968348123E+02 -0.20899407491E+02  0.10238411116E+01  0.96847625549E+02  0.92638171721E+02 0.  0.
         13    1    3    3    0    0 -0.21556003823E+02 -0.27616035603E+02  0.30370117852E+02  0.46364447000E+02  0.10566000000E+00 0.  1.
         22    1    1    0    0    0 -0.18968348123E+02  0.20899407491E+02 -0.10238411116E+01  0.28242374451E+02  0.00000000000E+00 0. -1.
</event>
<event>
 5    1  0.1258677E-009  0.9118800E+02  0.7561462E-02  0.1125453E+00
         25   -1    0    0    0    0  0.00000000000E+00  0.00000000000E+00  0.99999998245E-14  0.12509000000E+03  0.12509000000E+03 0.  0.
        -13    1    3    3    0    0  0.31391288062E+02 -0.25214403994E+02 -0.13820190849E+02  0.42569801199E+02  0.10566000000E+00 0. -1.
         23    2    1    0    0    0 -0.14341029777E+01  0.18552163295E+02 -0.20172648686E+02  0.97645962955E+02  0.93709972320E+02 0.  0.
         13    1    3    3    0    0 -0.32825391040E+02  0.43766567289E+02 -0.63524578375E+01  0.55076161756E+02  0.10566000000E+00 0.  1.
         22    1    1    0    0    0  0.14341029777E+01 -0.18552163295E+02  0.20172648686E+02  0.27444037045E+02  0.00000000000E+00 0.  1.
</event>
<event>
 5    1  0.1258677E-009  0.9118800E+02  0.7561462E-02  0.1125453E+00
         25   -1    0    0    0    0  0.00000000000E+00  0.00000000000E+00  0.99999998245E-14  0.12509000000E+03  0.12509000000E+03 0.  0.
        -13    1    3    3    0    0 -0.49367634991E+02  0.26403901361E+02  0.26983669940E+02  0.62148684613E+02  0.10566000000E+00 0.  1.
         23    2    1    0    0    0 -0.27664209818E+02  0.17440246065E+02  0.20438822891E+02  0.86525558233E+02  0.77456155718E+02 0.  0.
         13    1    3    3    0    0  0.21703425174E+02 -0.89636552953E+01 -0.65448470490E+01  0.24376873619E+02  0.10566000000E+00 0. -1.
         22    1    1    0    0    0  0.27664209818E+02 -0.17440246065E+02 -0.20438822891E+02  0.38564441767E+02  0.00000000000E+00 0.  1.
</event>
<event>
 5    1  0.1258677E-009  0.9118800E+02  0.7561462E-02  0.1125453E+00
         25   -1    0    0    0    0  0.00000000000E+00  0.00000000000E+00  0.99999998245E-14  0.12509000000E+03  0.12509000000E+03 0.  0.
        -13    1    3    3    0    0  0.23790956629E+02  0.23764358185E+02 -0.16443569616E+02  0.37432024832E+02  0.10566000000E+00 0. -1.
         23    2    1    0    0    0 -0.28790954003E+02  0.47683027634E+01  0.66495913284E+00  0.95899283766E+02  0.91348643736E+02 0.  0.
         13    1    3    3    0    0 -0.52581910632E+02 -0.18996055421E+02  0.17108528749E+02  0.58467258934E+02  0.10566000000E+00 0.  1.
         22    1    1    0    0    0  0.28790954003E+02 -0.47683027634E+01 -0.66495913284E+00  0.29190716234E+02  0.00000000000E+00 0.  1.
</event>
<event>
 5    1  0.1258677E-009  0.9118800E+02  0.7561462E-02  0.1125453E+00
         25   -1    0    0    0    0  0.00000000000E+00  0.00000000000E+00  0.99999998245E-14  0.12509000000E+03  0.12509000000E+03 0.  0.
        -13    1    3    3    0    0  0.15251425675E+02 -0.66916328279E+01 -0.57662966998E+02  0.60020103815E+02  0.10566000000E+00 0. -1.
         23    2    1    0    0    0  0.17650057101E+02  0.22451232262E+01 -0.22364258200E+02  0.96511596637E+02  0.92183312734E+02 0.  0.
         13    1    3    3    0    0  0.23986314265E+01  0.89367560541E+01  0.35298708798E+02  0.36491492821E+02  0.10566000000E+00 0.  1.
         22    1    1    0    0    0 -0.17650057101E+02 -0.22451232262E+01  0.22364258200E+02  0.28578403363E+02  0.00000000000E+00 0. -1.
</event>
<event>
 5    1  0.1258677E-009  0.9118800E+02  0.7561462E-02  0.1125453E+00
         25   -1    0    0    0    0  0.00000000000E+00  0.00000000000E+00  0.99999998245E-14  0.12509000000E+03  0.12509000000E+03 0.  0.
        -13    1    3    3    0    0  0.15153575357E+02 -0.48243948680E+02 -0.35200252820E+02  0.61613134906E+02  0.10566000000E+00 0.  1.
         23    2    1    0    0    0  0.19756830262E+01 -0.23968307720E+02 -0.98606713017E+01  0.99097386878E+02  0.95627800085E+02 0.  0.
         13    1    3    3    0    0 -0.13177892331E+02  0.24275640960E+02  0.25339581518E+02  0.37484251971E+02  0.10566000000E+00 0. -1.
         22    1    1    0    0    0 -0.19756830262E+01  0.23968307720E+02  0.98606713017E+01  0.25992613122E+02  0.00000000000E+00 0.  1.
</event>
<event>
 5    1  0.1258677E-009  0.9118800E+02  0.7561462E-02  0.1125453E+00
         25   -1    0    0    0    0  0.00000000000E+00  0.00000000000E+00  0.99999998245E-14  0.12509000000E+03  0.12509000000E+03 0.  0.
        -13    1    3    3    0    0  0.26346086042E+02  0.43506507178E+02  0.26710634281E+02  0.57449121528E+02  0.10566000000E+00 0.  1.
         23    2    1    0    0    0  0.27271396013E+01  0.14820454729E+02  0.26496292055E+02  0.94608256916E+02  0.89563305071E+02 0.  0.
         13    1    3    3    0    0 -0.23618946441E+02 -0.28686052449E+02 -0.21434222614E+00  0.37159135387E+02  0.10566000000E+00 0. -1.
         22    1    1    0    0    0 -0.27271396013E+01 -0.14820454729E+02 -0.26496292055E+02  0.30481743084E+02  0.00000000000E+00 0.  1.
</event>
<event>
 5    1  0.1258677E-009  0.9118800E+02  0.7561462E-02  0.1125453E+00
         25   -1    0    0    0    0  0.00000000000E+00  0.00000000000E+00  0.99999998245E-14  0.12509000000E+03  0.12509000000E+03 0.  0.
        -13    1    3    3    0    0 -0.97788883473E+01  0.14016468132E+02 -0.11276239051E+02  0.20475662807E+02  0.10566000000E+00 0.  1.
         23    2    1    0    0    0  0.19470729790E+02 -0.31582849689E+02  0.19907900513E+02  0.82984059613E+02  0.71508348701E+02 0.  0.
         13    1    3    3    0    0  0.29249618137E+02 -0.45599317821E+02  0.31184139564E+02  0.62508396806E+02  0.10566000000E+00 0. -1.
         22    1    1    0    0    0 -0.19470729790E+02  0.31582849689E+02 -0.19907900513E+02  0.42105940387E+02  0.00000000000E+00 0. -1.
</event>
<event>
 5    1  0.1258677E-009  0.9118800E+02  0.7561462E-02  0.1125453E+00
         25   -1    0    0    0    0  0.00000000000E+00  0.00000000000E+00  0.99999998245E-14  0.12509000000E+03  0.12509000000E+03 0.  0.
        -13    1    3    3    0    0 -0.36206640292E+02 -0.13816482827E+02 -0.43235282533E+02  0.58061319471E+02  0.10566000000E+00 0. -1.
         23    2    1    0    0    0 -0.26063201151E+02 -0.89757498057E+01 -0.61035779728E+01  0.96856895267E+02  0.92650687844E+02 0.  0.
         13    1    3    3    0    0  0.10143439142E+02  0.48407330213E+01  0.37131704560E+02  0.38795575796E+02  0.10566000000E+00 0.  1.
         22    1    1    0    0    0  0.26063201151E+02  0.89757498057E+01  0.61035779728E+01  0.28233104733E+02  0.00000000000E+00 0. -1.
</event>
<event>
 5    1  0.1258677E-009  0.9118800E+02  0.7561462E-02  0.1125453E+00
         25   -1    0    0    0    0  0.00000000000E+00  0.00000000000E+00  0.99999998245E-14  0.12509000000E+03  0.12509000000E+03 0.  0.
        -13    1    3    3    0    0 -0.30490020164E+01  0.48551589853E+02 -0.11723190770E+02  0.50039960595E+02  0.10566000000E+00 0. -1.
         23    2    1    0    0    0 -0.32339565732E+01  0.54941346856E+01 -0.28226635325E+02  0.96152361312E+02  0.91694545384E+02 0.  0.
         13    1    3    3    0    0 -0.18495455688E+00 -0.43057455167E+02 -0.16503444555E+02  0.46112400717E+02  0.10566000000E+00 0.  1.
         22    1    1    0    0    0  0.32339565732E+01 -0.54941346856E+01  0.28226635325E+02  0.28937638688E+02  0.00000000000E+00 0. -1.
</event>
<event>
 5    1  0.1258677E-009  0.9118800E+02  0.7561462E-02  0.1125453E+00
         25   -1    0    0    0    0  0.00000000000E+00  0.00000000000E+00  0.99999998245E-14  0.12509000000E+03  0.12509000000E+03 0.  0.
        -13    1    3    3    0    0  0.60755606547E+01  0.38600767872E+02  0.29036988113E+02  0.48683565608E+02  0.10566000000E+00 0. -1.
         23    2    1    0    0    0  0.19338711393E+02 -0.62982971437E+01  0.20386195651E+02  0.96293276603E+02  0.91886581396E+02 0.  0.
         13    1    3    3    0    0  0.13263150739E+02 -0.44899065016E+02 -0.86507924623E+01  0.47609710996E+02  0.10566000000E+00 0.  1.
         22    1    1    0    0    0 -0.19338711393E+02  0.62982971437E+01 -0.20386195651E+02  0.28796723397E+02  0.00000000000E+00 0. -1.
</event>
<event>
 5    1  0.1258677E-009  0.9118800E+02  0.7561462E-02  0.1125453E+00
         25   -1    0    0    0    0  0.00000000000E+00  0.00000000000E+00  0.99999998245E-14  0.12509000000E+03  0.12509000000E+03 0.  0.
        -13    1    3    3    0    0 -0.25856165359E+02 -0.25488364001E+02  0.62661483508E+01  0.36843910836E+02  0.10566000000E+00 0.  1.
         23    2    1    0    0    0  0.27667416696E+02 -0.40291463432E+01  0.11734933886E+02  0.94767918274E+02  0.89786021706E+02 0.  0.
         13    1    3    3    0    0  0.53523582054E+02  0.21459217658E+02  0.54687855352E+01  0.57924007438E+02  0.10566000000E+00 0. -1.
         22    1    1    0    0    0 -0.27667416696E+02  0.40291463432E+01 -0.11734933886E+02  0.30322081726E+02  0.00000000000E+00 0. -1.
</event>
<event>
 5    1  0.1258677E-009  0.9118800E+02  0.7561462E-02  0.1125453E+00
         25   -1    0    0    0    0  0.00000000000E+00  0.00000000000E+00  0.99999998245E-14  0.12509000000E+03  0.12509000000E+03 0.  0.
        -13    1    3    3    0    0  0.14809908342E+02 -0.87235054543E+01 -0.36334480338E+02  0.40195006630E+02  0.10566000000E+00 0.  1.
         23    2    1    0    0    0 -0.66727281643E+00  0.32206954763E+02 -0.95932675486E+01  0.91478038285E+02  0.85079183811E+02 0.  0.
         13    1    3    3    0    0 -0.15477181159E+02  0.40930460217E+02  0.26741212789E+02  0.51283031655E+02  0.10566000000E+00 0. -1.
         22    1    1    0    0    0  0.66727281643E+00 -0.32206954763E+02  0.95932675486E+01  0.33611961715E+02  0.00000000000E+00 0. -1.
</event>
<event>
 5    1  0.1258677E-009  0.9118800E+02  0.7561462E-02  0.1125453E+00
         25   -1    0    0    0    0  0.00000000000E+00  0.00000000000E+00  0.99999998245E-14  0.12509000000E+03  0.12509000000E+03 0.  0.
        -13    1    3    3    0    0  0.14054786669E+02 -0.20315583307E+02  0.27143886764E+02  0.36702339246E+02  0.10566000000E+00 0. -1.
         23    2    1    0    0    0 -0.12931001891E+02  0.23359667885E+02 -0.58854664281E+01  0.97749122021E+02  0.93847574541E+02 0.  0.
         13    1    3    3    0    0 -0.26985788560E+02  0.43675251192E+02 -0.33029353192E+02  0.61046782775E+02  0.10566000000E+00 0.  1.
         22    1    1    0    0    0  0.12931001891E+02 -0.23359667885E+02  0.58854664281E+01  0.27340877979E+02  0.00000000000E+00 0.  1.
</event>
<event>
 5    1  0.1258677E-009  0.9118800E+02  0.7561462E-02  0.1125453E+00
         25   -1    0    0    0    0  0.00000000000E+00  0.00000000000E+00  0.99999998245E-14  0.12509000000E+03  0.12509000000E+03 0.  0.
        -13    1    3    3    0    0  0.16705298803E+02 -0.33964889077E+02 -0.48223309835E+02  0.61303992314E+02  0.10566000000E+00 0. -1.
         23    2    1    0    0    0  0.29007293851E+01 -0.10009439290E+02 -0.26968028807E+02  0.96178450688E+02  0.91730129691E+02 0.  0.
         13    1    3    3    0    0 -0.13804569417E+02  0.23955449787E+02  0.21255281028E+02  0.34874458374E+02  0.10566000000E+00 0.  1.
         22    1    1    0    0    0 -0.29007293851E+01  0.10009439290E+02  0.26968028807E+02  0.28911549312E+02  0.00000000000E+00 0. -1.
</event>
<event>
 5    1  0.1258677E-009  0.9118800E+02  0.7561462E-02  0.1125453E+00
         25   -1    0    0    0    0  0.00000000000E+00  0.00000000000E+00  0.99999998245E-14  0.12509000000E+03  0.12509000000E+03 0.  0.
        -13    1    3    3    0    0 -0.10976660519E+02 -0.88851033894E+00 -0.42322226477E+02  0.43731665241E+02  0.10566000000E+00 0.  1.
         23    2    1    0    0    0 -0.15662512012E+02  0.29383536563E+02 -0.59831715374E+01  0.91259468743E+02  0.84757216744E+02 0.  0.
         13    1    3    3    0    0 -0.46858514930E+01  0.30272046902E+02  0.36339054939E+02  0.47527803502E+02  0.10566000000E+00 0. -1.
         22    1    1    0    0    0  0.15662512012E+02 -0.29383536563E+02  0.59831715374E+01  0.33830531257E+02  0.00000000000E+00 0.  1.
</event>
<event>
 5    1  0.1258677E-009  0.9118800E+02  0.7561462E-02  0.1125453E+00
         25   -1    0    0    0    0  0.00000000000E+00  0.00000000000E+00  0.99999998245E-14  0.12509000000E+03  0.12509000000E+03 0.  0.
        -13    1    3    3    0    0 -0.27204707629E+02  0.13883701194E+02  0.19092199478E+02  0.36019113273E+02  0.10566000000E+00 0.  1.
         23    2    1    0    0    0  0.22727152944E+02 -0.16475999871E+02  0.10666831493E+02  0.95060625268E+02  0.90192899552E+02 0.  0.
         13    1    3    3    0    0  0.49931860572E+02 -0.30359701065E+02 -0.84253679855E+01  0.59041511995E+02  0.10566000000E+00 0. -1.
         22    1    1    0    0    0 -0.22727152944E+02  0.16475999871E+02 -0.10666831493E+02  0.30029374732E+02  0.00000000000E+00 0. -1.
</event>
<event>
 5    1  0.1258677E-009  0.9118800E+02  0.7561462E-02  0.1125453E+00
         25   -1    0    0    0    0  0.00000000000E+00  0.00000000000E+00  0.99999998245E-14  0.12509000000E+03  0.12509000000E+03 0.  0.
        -13    1    3    3    0    0  0.91206573687E+01 -0.68243287554E+01  0.61374403047E+02  0.62422643065E+02  0.10566000000E+00 0. -1.
         23    2    1    0    0    0  0.50743657233E+01 -0.51161552662E+00  0.28020088612E+02  0.96609545232E+02  0.92316130368E+02 0.  0.
         13    1    3    3    0    0 -0.40462916454E+01  0.63127132287E+01 -0.33354314434E+02  0.34186902167E+02  0.10566000000E+00 0.  1.
         22    1    1    0    0    0 -0.50743657233E+01  0.51161552662E+00 -0.28020088612E+02  0.28480454768E+02  0.00000000000E+00 0. -1.
</event>
<event>
 5    1  0.1258677E-009  0.9118800E+02  0.7561462E-02  0.1125453E+00
         25   -1    0    0    0    0  0.00000000000E+00  0.00000000000E+00  0.99999998245E-14  0.12509000000E+03  0.12509000000E+03 0.  0.
        -13    1    3    3    0    0 -0.40940635002E+02  0.27724465046E+02 -0.51898814829E+01  0.49716472022E+02  0.10566000000E+00 0.  1.
         23    2    1    0    0    0 -0.11856499495E+02  0.90223062874E+01  0.25241888756E+02  0.95779054280E+02  0.91183856575E+02 0.  0.
         13    1    3    3    0    0  0.29084135507E+02 -0.18702158759E+02  0.30431770239E+02  0.46062582259E+02  0.10566000000E+00 0. -1.
         22    1    1    0    0    0  0.11856499495E+02 -0.90223062874E+01 -0.25241888756E+02  0.29310945720E+02  0.00000000000E+00 0.  1.
</event>
<event>
 5    1  0.1258677E-009  0.9118800E+02  0.7561462E-02  0.1125453E+00
         25   -1    0    0    0    0  0.00000000000E+00  0.00000000000E+00  0.99999998245E-14  0.12509000000E+03  0.12509000000E+03 0.  0.
        -13    1    3    3    0    0 -0.45859394538E+02  0.28765868705E+02  0.18729211238E+02  0.57283102111E+02  0.10566000000E+00 0.  1.
         23    2    1    0    0    0 -0.11272212514E+02  0.13051212454E+02  0.23894235496E+02  0.95622536392E+02  0.90968885091E+02 0.  0.
         13    1    3    3    0    0  0.34587182024E+02 -0.15714656251E+02  0.51650242581E+01  0.38339434282E+02  0.10566000000E+00 0. -1.
         22    1    1    0    0    0  0.11272212514E+02 -0.13051212454E+02 -0.23894235496E+02  0.29467463608E+02  0.00000000000E+00 0.  1.
</event>
<event>
 5    1  0.1258677E-009  0.9118800E+02  0.7561462E-02  0.1125453E+00
         25   -1    0    0    0    0  0.00000000000E+00  0.00000000000E+00  0.99999998245E-14  0.12509000000E+03  0.12509000000E+03 0.  0.
        -13    1    3    3    0    0  0.12274582838E+01 -0.32894851514E+01  0.30176708455E+02  0.30380458582E+02  0.10566000000E+00 0. -1.
         23    2    1    0    0    0 -0.12722437651E+02 -0.39367508257E+02 -0.59301687572E+01  0.83294928190E+02  0.72050100864E+02 0.  0.
         13    1    3    3    0    0 -0.13949895935E+02 -0.36078023105E+02 -0.36106877213E+02  0.52914469608E+02  0.10566000000E+00 0.  1.
         22    1    1    0    0    0  0.12722437651E+02  0.39367508257E+02  0.59301687572E+01  0.41795071810E+02  0.00000000000E+00 0.  1.
</event>
<event>
 5    1  0.1258677E-009  0.9118800E+02  0.7561462E-02  0.1125453E+00
         25   -1    0    0    0    0  0.00000000000E+00  0.00000000000E+00  0.99999998245E-14  0.12509000000E+03  0.12509000000E+03 0.  0.
        -13    1    3    3    0    0  0.29529276789E+02 -0.57341078915E+01 -0.27286118224E+02  0.40612825471E+02  0.10566000000E+00 0.  1.
         23    2    1    0    0    0  0.65007333174E+01 -0.17865572358E+02  0.21794812049E+02  0.96168519374E+02  0.91716585615E+02 0.  0.
         13    1    3    3    0    0 -0.23028543472E+02 -0.12131464467E+02  0.49080930273E+02  0.55555693903E+02  0.10566000000E+00 0. -1.
         22    1    1    0    0    0 -0.65007333174E+01  0.17865572358E+02 -0.21794812049E+02  0.28921480626E+02  0.00000000000E+00 0. -1.
</event>
<event>
 5    1  0.1258677E-009  0.9118800E+02  0.7561462E-02  0.1125453E+00
         25   -1    0    0    0    0  0.00000000000E+00  0.00000000000E+00  0.99999998245E-14  0.12509000000E+03  0.12509000000E+03 0.  0.
        -13    1    3    3    0    0 -0.38057528038E+02  0.16103583994E+02 -0.45006366408E+02  0.61100614065E+02  0.10566000000E+00 0.  1.
         23    2    1    0    0    0 -0.14472857386E+02  0.16254246573E+02 -0.19118213837E+02  0.96121564887E+02  0.91652523170E+02 0.  0.
         13    1    3    3    0    0  0.23584670651E+02  0.15066257835E+00  0.25888152571E+02  0.35020950823E+02  0.10566000000E+00 0. -1.
         22    1    1    0    0    0  0.14472857386E+02 -0.16254246573E+02  0.19118213837E+02  0.28968435113E+02  0.00000000000E+00 0.  1.
</event>
<event>
 5    1  0.1258677E-009  0.9118800E+02  0.7561462E-02  0.1125453E+00
         25   -1    0    0    0    0  0.00000000000E+00  0.00000000000E+00  0.99999998245E-14  0.12509000000E+03  0.12509000000E+03 0.  0.
        -13    1    3    3    0    0 -0.80263221422E+00 -0.37511189870E+02 -0.20652829436E+02  0.42828543189E+02  0.10566000000E+00 0.  1.
         23    2    1    0    0    0  0.27878109562E+02 -0.40921731652E+01  0.85195890426E+01  0.95653317588E+02  0.91011202026E+02 0.  0.
         13    1    3    3    0    0  0.28680741776E+02  0.33419016705E+02  0.29172418479E+02  0.52824774399E+02  0.10566000000E+00 0. -1.
         22    1    1    0    0    0 -0.27878109562E+02  0.40921731652E+01 -0.85195890426E+01  0.29436682412E+02  0.00000000000E+00 0.  1.
</event>
<event>
 5    1  0.1258677E-009  0.9118800E+02  0.7561462E-02  0.1125453E+00
         25   -1    0    0    0    0  0.00000000000E+00  0.00000000000E+00  0.99999998245E-14  0.12509000000E+03  0.12509000000E+03 0.  0.
        -13    1    3    3    0    0 -0.18624795257E+02 -0.23411293357E+01 -0.43907806396E+02  0.47752178081E+02  0.10566000000E+00 0. -1.
         23    2    1    0    0    0  0.22440289027E+02 -0.17022065678E+01 -0.17528545667E+02  0.96564327493E+02  0.92254839180E+02 0.  0.
         13    1    3    3    0    0  0.41065084284E+02  0.63892276792E+00  0.26379260729E+02  0.48812149412E+02  0.10566000000E+00 0.  1.
         22    1    1    0    0    0 -0.22440289027E+02  0.17022065678E+01  0.17528545667E+02  0.28525672507E+02  0.00000000000E+00 0.  1.
</event>
<event>
 5    1  0.1258677E-009  0.9118800E+02  0.7561462E-02  0.1125453E+00
         25   -1    0    0    0    0  0.00000000000E+00  0.00000000000E+00  0.99999998245E-14  0.12509000000E+03  0.12509000000E+03 0.  0.
        -13    1    3    3    0    0 -0.91596979435E+01  0.44368768226E+02 -0.39296317653E+02  0.59972488737E+02  0.10566000000E+00 0.  1.
         23    2    1    0    0    0  0.72772338345E+01  0.17618404131E+02 -0.22571508527E+02  0.95546146264E+02  0.90863781411E+02 0.  0.
         13    1    3    3    0    0  0.16436931778E+02 -0.26750364095E+02  0.16724809125E+02  0.35573657526E+02  0.10566000000E+00 0. -1.
         22    1    1    0    0    0 -0.72772338345E+01 -0.17618404131E+02  0.22571508527E+02  0.29543853736E+02  0.00000000000E+00 0.  1.
</event>
<event>
 5    1  0.1258677E-009  0.9118800E+02  0.7561462E-02  0.1125453E+00
         25   -1    0    0    0    0  0.00000000000E+00  0.00000000000E+00  0.99999998245E-14  0.12509000000E+03  0.12509000000E+03 0.  0.
        -13    1    3    3    0    0 -0.14704587244E+02 -0.21797344299E+02 -0.90996793250E+01  0.27823810529E+02  0.10566000000E+00 0. -1.
         23    2    1    0    0    0  0.52046430946E+01  0.22145911547E+02  0.28238243140E+02  0.88828062881E+02  0.81089436251E+02 0.  0.
         13    1    3    3    0    0  0.19909230339E+02  0.43943255846E+02  0.37337922465E+02  0.61004252352E+02  0.10566000000E+00 0.  1.
         22    1    1    0    0    0 -0.52046430946E+01 -0.22145911547E+02 -0.28238243140E+02  0.36261937119E+02  0.00000000000E+00 0.  1.
</event>
<event>
 5    1  0.1258677E-009  0.9118800E+02  0.7561462E-02  0.1125453E+00
         25   -1    0    0    0    0  0.00000000000E+00  0.00000000000E+00  0.99999998245E-14  0.12509000000E+03  0.12509000000E+03 0.  0.
        -13    1    3    3    0    0  0.40029878870E+02  0.16915503096E+02 -0.38821128032E+02  0.58271919421E+02  0.10566000000E+00 0.  1.
         23    2    1    0    0    0  0.12454629931E+02 -0.41196308917E+01 -0.27272158595E+02  0.94826824360E+02  0.89868052267E+02 0.  0.
         13    1    3    3    0    0 -0.27575248940E+02 -0.21035133988E+02  0.11548969436E+02  0.36554904938E+02  0.10566000000E+00 0. -1.
         22    1    1    0    0    0 -0.12454629931E+02  0.41196308917E+01  0.27272158595E+02  0.30263175640E+02  0.00000000000E+00 0.  1.
</event>
<event>
 5    1  0.1258677E-009  0.9118800E+02  0.7561462E-02  0.1125453E+00
         25   -1    0    0    0    0  0.00000000000E+00  0.00000000000E+00  0.99999998245E-14  0.12509000000E+03  0.12509000000E+03 0.  0.
        -13    1    3    3    0    0 -0.34126284352E+02 -0.52146436791E+01 -0.15090980204E+02  0.37676844877E+02  0.10566000000E+00 0.  1.
         23    2    1    0    0    0  0.20864164315E+02 -0.20158309578E+02 -0.30636862171E+01  0.95917119257E+02  0.91373063841E+02 0.  0.
         13    1    3    3    0    0  0.54990448667E+02 -0.14943665899E+02  0.12027293987E+02  0.58240274379E+02  0.10566000000E+00 0. -1.
         22    1    1    0    0    0 -0.20864164315E+02  0.20158309578E+02  0.30636862171E+01  0.29172880743E+02  0.00000000000E+00 0. -1.
</event>
<event>
 5    1  0.1258677E-009  0.9118800E+02  0.7561462E-02  0.1125453E+00
         25   -1    0    0    0    0  0.00000000000E+00  0.00000000000E+00  0.99999998245E-14  0.12509000000E+03  0.12509000000E+03 0.  0.
        -13    1    3    3    0    0  0.97198858451E+01 -0.79153012635E+01  0.55380357628E+02  0.56781364460E+02  0.10566000000E+00 0.  1.
         23    2    1    0    0    0 -0.40940211591E+00  0.14774672736E+02  0.25204717720E+02  0.95871232745E+02  0.91310223460E+02 0.  0.
         13    1    3    3    0    0 -0.10129287961E+02  0.22689973999E+02 -0.30175639908E+02  0.39089868285E+02  0.10566000000E+00 0. -1.
         22    1    1    0    0    0  0.40940211591E+00 -0.14774672736E+02 -0.25204717720E+02  0.29218767255E+02  0.00000000000E+00 0.  1.
</event>
<event>
 5    1  0.1258677E-009  0.9118800E+02  0.7561462E-02  0.1125453E+00
         25   -1    0    0    0    0  0.00000000000E+00  0.00000000000E+00  0.99999998245E-14  0.12509000000E+03  0.12509000000E+03 0.  0.
        -13    1    3    3    0    0  0.11779194737E+01 -0.14660878229E+02  0.32016563178E+02  0.35233511414E+02  0.10566000000E+00 0. -1.
         23    2    1    0    0    0  0.40946922557E+01  0.25309252593E+02 -0.13693059020E+02  0.96024132787E+02  0.91519448429E+02 0.  0.
         13    1    3    3    0    0  0.29167727820E+01  0.39970130823E+02 -0.45709622198E+02  0.60790621374E+02  0.10566000000E+00 0.  1.
         22    1    1    0    0    0 -0.40946922557E+01 -0.25309252593E+02  0.13693059020E+02  0.29065867213E+02  0.00000000000E+00 0.  1.
</event>
<event>
 5    1  0.1258677E-009  0.9118800E+02  0.7561462E-02  0.1125453E+00
         25   -1    0    0    0    0  0.00000000000E+00  0.00000000000E+00  0.99999998245E-14  0.12509000000E+03  0.12509000000E+03 0.  0.
        -13    1    3    3    0    0  0.48039097124E+02 -0.38702993964E+00 -0.13466373315E+02  0.49892474572E+02  0.10566000000E+00 0. -1.
         23    2    1    0    0    0  0.11252021230E+02 -0.26504233607E+02 -0.36246116551E+01  0.96068969857E+02  0.91580711828E+02 0.  0.
         13    1    3    3    0    0 -0.36787075893E+02 -0.26117203668E+02  0.98417616603E+01  0.46176495285E+02  0.10566000000E+00 0.  1.
         22    1    1    0    0    0 -0.11252021230E+02  0.26504233607E+02  0.36246116551E+01  0.29021030143E+02  0.00000000000E+00 0. -1.
</event>
<event>
 5    1  0.1258677E-009  0.9118800E+02  0.7561462E-02  0.1125453E+00
         25   -1    0    0    0    0  0.00000000000E+00  0.00000000000E+00  0.99999998245E-14  0.12509000000E+03  0.12509000000E+03 0.  0.
        -13    1    3    3    0    0  0.29021147676E+02 -0.41732207587E+02 -0.13204985626E+02  0.52518444112E+02  0.10566000000E+00 0. -1.
         23    2    1    0    0    0 -0.54719461642E+01 -0.17593414670E+02 -0.22877245922E+02  0.95715881876E+02  0.91097152688E+02 0.  0.
         13    1    3    3    0    0 -0.34493093840E+02  0.24138792917E+02 -0.96722602959E+01  0.43197437765E+02  0.10566000000E+00 0.  1.
         22    1    1    0    0    0  0.54719461642E+01  0.17593414670E+02  0.22877245922E+02  0.29374118124E+02  0.00000000000E+00 0. -1.
</event>
<event>
 5    1  0.1258677E-009  0.9118800E+02  0.7561462E-02  0.1125453E+00
         25   -1    0    0    0    0  0.00000000000E+00  0.00000000000E+00  0.99999998245E-14  0.12509000000E+03  0.12509000000E+03 0.  0.
        -13    1    3    3    0    0  0.59849224077E+01 -0.30146118700E+02 -0.23444608479E+02  0.38655770587E+02  0.10566000000E+00 0.  1.
         23    2    1    0    0    0  0.18825905034E+02  0.22283779412E+02 -0.95505103771E+01  0.94394824912E+02  0.89264714173E+02 0.  0.
         13    1    3    3    0    0  0.12840982626E+02  0.52429898112E+02  0.13894098102E+02  0.55739054324E+02  0.10566000000E+00 0. -1.
         22    1    1    0    0    0 -0.18825905034E+02 -0.22283779412E+02  0.95505103771E+01  0.30695175088E+02  0.00000000000E+00 0. -1.
</event>
<event>
 5    1  0.1258677E-009  0.9118800E+02  0.7561462E-02  0.1125453E+00
         25   -1    0    0    0    0  0.00000000000E+00  0.00000000000E+00  0.99999998245E-14  0.12509000000E+03  0.12509000000E+03 0.  0.
        -13    1    3    3    0    0 -0.58879821219E+02 -0.16290412407E+02  0.51806868798E+01  0.61311186286E+02  0.10566000000E+00 0.  1.
         23    2    1    0    0    0 -0.27592184289E+02 -0.10160415763E+02 -0.59682369141E+01  0.95086957918E+02  0.90229413341E+02 0.  0.
         13    1    3    3    0    0  0.31287636930E+02  0.61299966440E+01 -0.11148923794E+02  0.33775771632E+02  0.10566000000E+00 0. -1.
         22    1    1    0    0    0  0.27592184289E+02  0.10160415763E+02  0.59682369141E+01  0.30003042082E+02  0.00000000000E+00 0.  1.
</event>
<event>
 5    1  0.1258677E-009  0.9118800E+02  0.7561462E-02  0.1125453E+00
         25   -1    0    0    0    0  0.00000000000E+00  0.00000000000E+00  0.99999998245E-14  0.12509000000E+03  0.12509000000E+03 0.  0.
        -13    1    3    3    0    0  0.39725372986E+02  0.31645494933E+01  0.47419286411E+02  0.61941258626E+02  0.10566000000E+00 0. -1.
         23    2    1    0    0    0  0.22032821508E+02  0.42647242770E+01  0.17859363292E+02  0.96409170968E+02  0.92044219225E+02 0.  0.
         13    1    3    3    0    0 -0.17692551478E+02  0.11001747837E+01 -0.29559923119E+02  0.34467912342E+02  0.10566000000E+00 0.  1.
         22    1    1    0    0    0 -0.22032821508E+02 -0.42647242770E+01 -0.17859363292E+02  0.28680829032E+02  0.00000000000E+00 0. -1.
</event>
<event>
 5    1  0.1258677E-009  0.9118800E+02  0.7561462E-02  0.1125453E+00
         25   -1    0    0    0    0  0.00000000000E+00  0.00000000000E+00  0.99999998245E-14  0.12509000000E+03  0.12509000000E+03 0.  0.
        -13    1    3    3    0    0 -0.10552217986E+02 -0.51371905643E+02 -0.19234778147E+02  0.55860628785E+02  0.10566000000E+00 0.  1.
         23    2    1    0    0    0  0.12234386689E+01 -0.29210989888E+02  0.98157464940E+01  0.94249643133E+02  0.89061033113E+02 0.  0.
         13    1    3    3    0    0  0.11775656655E+02  0.22160915755E+02  0.29050524641E+02  0.38389014349E+02  0.10566000000E+00 0. -1.
         22    1    1    0    0    0 -0.12234386689E+01  0.29210989888E+02 -0.98157464940E+01  0.30840356867E+02  0.00000000000E+00 0.  1.
</event>
<event>
 5    1  0.1258677E-009  0.9118800E+02  0.7561462E-02  0.1125453E+00
         25   -1    0    0    0    0  0.00000000000E+00  0.00000000000E+00  0.99999998245E-14  0.12509000000E+03  0.12509000000E+03 0.  0.
        -13    1    3    3    0    0 -0.26234478586E+02  0.41770195054E+02 -0.35877817616E+02  0.60993655592E+02  0.10566000000E+00 0.  1.
         23    2    1    0    0    0 -0.43709347242E+01  0.17956062394E+02 -0.22480917836E+02  0.95988163051E+02  0.91470271303E+02 0.  0.
         13    1    3    3    0    0  0.21863543861E+02 -0.23814132661E+02  0.13396899780E+02  0.34994507459E+02  0.10566000000E+00 0. -1.
         22    1    1    0    0    0  0.43709347242E+01 -0.17956062394E+02  0.22480917836E+02  0.29101836949E+02  0.00000000000E+00 0.  1.
</event>
<event>
 5    1  0.1258677E-009  0.9118800E+02  0.7561462E-02  0.1125453E+00
         25   -1    0    0    0    0  0.00000000000E+00  0.00000000000E+00  0.99999998245E-14  0.12509000000E+03  0.12509000000E+03 0.  0.
        -13    1    3    3    0    0 -0.48333406001E+02  0.43831997751E+01  0.12940895992E+02  0.50227567421E+02  0.10566000000E+00 0.  1.
         23    2    1    0    0    0 -0.22362332022E+02 -0.12122192598E+02 -0.18049101737E+02  0.93900394034E+02  0.88569139543E+02 0.  0.
         13    1    3    3    0    0  0.25971073979E+02 -0.16505392373E+02 -0.30989997729E+02  0.43672826612E+02  0.10566000000E+00 0. -1.
         22    1    1    0    0    0  0.22362332022E+02  0.12122192598E+02  0.18049101737E+02  0.31189605966E+02  0.00000000000E+00 0. -1.
</event>
<event>
 5    1  0.1258677E-009  0.9118800E+02  0.7561462E-02  0.1125453E+00
         25   -1    0    0    0    0  0.00000000000E+00  0.00000000000E+00  0.99999998245E-14  0.12509000000E+03  0.12509000000E+03 0.  0.
        -13    1    3    3    0    0 -0.47974326107E+02 -0.11113201555E+02  0.17414510304E+02  0.52233280075E+02  0.10566000000E+00 0.  1.
         23    2    1    0    0    0 -0.60049205864E+01 -0.18255222692E+02  0.22941026270E+02  0.95163374512E+02  0.90335291749E+02 0.  0.
         13    1    3    3    0    0  0.41969405520E+02 -0.71420211376E+01  0.55265159657E+01  0.42930094437E+02  0.10566000000E+00 0. -1.
         22    1    1    0    0    0  0.60049205864E+01  0.18255222692E+02 -0.22941026270E+02  0.29926625488E+02  0.00000000000E+00 0.  1.
</event>
<event>
 5    1  0.1258677E-009  0.9118800E+02  0.7561462E-02  0.1125453E+00
         25   -1    0    0    0    0  0.00000000000E+00  0.00000000000E+00  0.99999998245E-14  0.12509000000E+03  0.12509000000E+03 0.  0.
        -13    1    3    3    0    0 -0.32679135541E+02 -0.13684952984E+02  0.26169663490E+02  0.44046183593E+02  0.10566000000E+00 0.  1.
         23    2    1    0    0    0  0.49045997461E+01 -0.27325478446E+02 -0.75170404438E+01  0.96328171686E+02  0.91934073620E+02 0.  0.
         13    1    3    3    0    0  0.37583735287E+02 -0.13640525461E+02 -0.33686703934E+02  0.52281988093E+02  0.10566000000E+00 0. -1.
         22    1    1    0    0    0 -0.49045997461E+01  0.27325478446E+02  0.75170404438E+01  0.28761828314E+02  0.00000000000E+00 0.  1.
</event>
<event>
 5    1  0.1258677E-009  0.9118800E+02  0.7561462E-02  0.1125453E+00
         25   -1    0    0    0    0  0.00000000000E+00  0.00000000000E+00  0.99999998245E-14  0.12509000000E+03  0.12509000000E+03 0.  0.
        -13    1    3    3    0    0 -0.60345756841E+01  0.54601389794E+02 -0.19230884860E+02  0.58202800342E+02  0.10566000000E+00 0.  1.
         23    2    1    0    0    0 -0.34940747861E+01  0.28379307834E+02  0.72867056870E+01  0.95582547526E+02  0.90913880348E+02 0.  0.
         13    1    3    3    0    0  0.25405008980E+01 -0.26222081959E+02  0.26517590547E+02  0.37379747184E+02  0.10566000000E+00 0. -1.
         22    1    1    0    0    0  0.34940747861E+01 -0.28379307834E+02 -0.72867056870E+01  0.29507452474E+02  0.00000000000E+00 0.  1.
</event>
<event>
 5    1  0.1258677E-009  0.9118800E+02  0.7561462E-02  0.1125453E+00
         25   -1    0    0    0    0  0.00000000000E+00  0.00000000000E+00  0.99999998245E-14  0.12509000000E+03  0.12509000000E+03 0.  0.
        -13    1    3    3    0    0 -0.41434521518E+02 -0.10966632338E+01  0.81603763529E+01  0.42244823942E+02  0.10566000000E+00 0.  1.
         23    2    1    0    0    0  0.17708254475E+01  0.27051631156E+02 -0.88957031032E+01  0.96558261450E+02  0.92246613757E+02 0.  0.
         13    1    3    3    0    0  0.43205346965E+02  0.28148294390E+02 -0.17056079456E+02  0.54313437508E+02  0.10566000000E+00 0. -1.
         22    1    1    0    0    0 -0.17708254475E+01 -0.27051631156E+02  0.88957031032E+01  0.28531738550E+02  0.00000000000E+00 0. -1.
</event>
<event>
 5    1  0.1258677E-009  0.9118800E+02  0.7561462E-02  0.1125453E+00
         25   -1    0    0    0    0  0.00000000000E+00  0.00000000000E+00  0.99999998245E-14  0.12509000000E+03  0.12509000000E+03 0.  0.
        -13    1    3    3    0    0 -0.30490991344E+01 -0.27441083742E+02 -0.16335382837E+02  0.32080616873E+02  0.10566000000E+00 0.  1.
         23    2    1    0    0    0  0.60044144992E+01  0.30433044226E+02  0.33781136979E+01  0.93886877937E+02  0.88550048121E+02 0.  0.
         13    1    3    3    0    0  0.90535136336E+01  0.57874127967E+02  0.19713496535E+02  0.61806261065E+02  0.10566000000E+00 0. -1.
         22    1    1    0    0    0 -0.60044144992E+01 -0.30433044226E+02 -0.33781136979E+01  0.31203122063E+02  0.00000000000E+00 0. -1.
</event>
<event>
 5    1  0.1258677E-009  0.9118800E+02  0.7561462E-02  0.1125453E+00
         25   -1    0    0    0    0  0.00000000000E+00  0.00000000000E+00  0.99999998245E-14  0.12509000000E+03  0.12509000000E+03 0.  0.
        -13    1    3    3    0    0 -0.21508784238E+02 -0.14524634282E+02 -0.37513719071E+02  0.45616697415E+02  0.10566000000E+00 0.  1.
         23    2    1    0    0    0  0.44125274127E+01 -0.30515561936E+02  0.40710029340E+00  0.94254376947E+02  0.89067681706E+02 0.  0.
         13    1    3    3    0    0  0.25921311650E+02 -0.15990927654E+02  0.37920819365E+02  0.48637679532E+02  0.10566000000E+00 0. -1.
         22    1    1    0    0    0 -0.44125274127E+01  0.30515561936E+02 -0.40710029340E+00  0.30835623053E+02  0.00000000000E+00 0. -1.
</event>
<event>
 5    1  0.1258677E-009  0.9118800E+02  0.7561462E-02  0.1125453E+00
         25   -1    0    0    0    0  0.00000000000E+00  0.00000000000E+00  0.99999998245E-14  0.12509000000E+03  0.12509000000E+03 0.  0.
        -13    1    3    3    0    0  0.32307230394E+01  0.34430854912E+02 -0.72395247158E+01  0.35331900932E+02  0.10566000000E+00 0.  1.
         23    2    1    0    0    0 -0.85581731879E+00 -0.18396568949E+02 -0.27444570897E+02  0.92038969091E+02  0.85899948703E+02 0.  0.
         13    1    3    3    0    0 -0.40865403582E+01 -0.52827423861E+02 -0.20205046182E+02  0.56707068159E+02  0.10566000000E+00 0. -1.
         22    1    1    0    0    0  0.85581731879E+00  0.18396568949E+02  0.27444570897E+02  0.33051030909E+02  0.00000000000E+00 0. -1.
</event>
<event>
 5    1  0.1258677E-009  0.9118800E+02  0.7561462E-02  0.1125453E+00
         25   -1    0    0    0    0  0.00000000000E+00  0.00000000000E+00  0.99999998245E-14  0.12509000000E+03  0.12509000000E+03 0.  0.
        -13    1    3    3    0    0 -0.21129081994E+02 -0.44516869385E+02 -0.12571935458E+02  0.50855230714E+02  0.10566000000E+00 0.  1.
         23    2    1    0    0    0 -0.27556115202E+02 -0.68269814379E+01  0.96832492768E+01  0.95094792431E+02  0.90240274104E+02 0.  0.
         13    1    3    3    0    0 -0.64270332073E+01  0.37689887947E+02  0.22255184735E+02  0.44239561717E+02  0.10566000000E+00 0. -1.
         22    1    1    0    0    0  0.27556115202E+02  0.68269814379E+01 -0.96832492768E+01  0.29995207569E+02  0.00000000000E+00 0.  1.
</event>
<event>
 5    1  0.1258677E-009  0.9118800E+02  0.7561462E-02  0.1125453E+00
         25   -1    0    0    0    0  0.00000000000E+00  0.00000000000E+00  0.99999998245E-14  0.12509000000E+03  0.12509000000E+03 0.  0.
        -13    1    3    3    0    0  0.54445849526E+00 -0.87223253503E+01 -0.37195935589E+02  0.38208954225E+02  0.10566000000E+00 0.  1.
         23    2    1    0    0    0  0.29864707830E+02  0.17212426781E+01  0.89455999175E+01  0.93866816178E+02  0.88521703391E+02 0.  0.
         13    1    3    3    0    0  0.29320249335E+02  0.10443568028E+02  0.46141535507E+02  0.55657861953E+02  0.10566000000E+00 0. -1.
         22    1    1    0    0    0 -0.29864707830E+02 -0.17212426781E+01 -0.89455999175E+01  0.31223183822E+02  0.00000000000E+00 0. -1.
</event>
<event>
 5    1  0.1258677E-009  0.9118800E+02  0.7561462E-02  0.1125453E+00
         25   -1    0    0    0    0  0.00000000000E+00  0.00000000000E+00  0.99999998245E-14  0.12509000000E+03  0.12509000000E+03 0.  0.
        -13    1    3    3    0    0  0.69117175318E+01 -0.25671384710E+02  0.46096846016E+02  0.53213928711E+02  0.10566000000E+00 0.  1.
         23    2    1    0    0    0 -0.19979341409E+02 -0.17751250959E+02  0.18250719731E+02  0.92726907372E+02  0.86895969909E+02 0.  0.
         13    1    3    3    0    0 -0.26891058941E+02  0.79201337512E+01 -0.27846126285E+02  0.39512978662E+02  0.10566000000E+00 0. -1.
         22    1    1    0    0    0  0.19979341409E+02  0.17751250959E+02 -0.18250719731E+02  0.32363092628E+02  0.00000000000E+00 0.  1.
</event>
<event>
 5    1  0.1258677E-009  0.9118800E+02  0.7561462E-02  0.1125453E+00
         25   -1    0    0    0    0  0.00000000000E+00  0.00000000000E+00  0.99999998245E-14  0.12509000000E+03  0.12509000000E+03 0.  0.
        -13    1    3    3    0    0  0.41673216622E+02  0.20634406200E+02  0.41814163279E+02  0.62536958013E+02  0.10566000000E+00 0.  1.
         23    2    1    0    0    0  0.19734001897E+02  0.99699506888E+01  0.18961523365E+02  0.95963206220E+02  0.91436135264E+02 0.  0.
         13    1    3    3    0    0 -0.21939214725E+02 -0.10664455511E+02 -0.22852639914E+02  0.33426248206E+02  0.10566000000E+00 0. -1.
         22    1    1    0    0    0 -0.19734001897E+02 -0.99699506888E+01 -0.18961523365E+02  0.29126793780E+02  0.00000000000E+00 0.  1.
</event>
<event>
 5    1  0.1258677E-009  0.9118800E+02  0.7561462E-02  0.1125453E+00
         25   -1    0    0    0    0  0.00000000000E+00  0.00000000000E+00  0.99999998245E-14  0.12509000000E+03  0.12509000000E+03 0.  0.
        -13    1    3    3    0    0 -0.17385939849E+02  0.34061746323E+02 -0.52454606907E+00  0.38246042666E+02  0.10566000000E+00 0.  1.
         23    2    1    0    0    0 -0.30916112783E+02 -0.15930836136E+02  0.31554393922E+01  0.90167881402E+02  0.83130574815E+02 0.  0.
         13    1    3    3    0    0 -0.13530172934E+02 -0.49992582460E+02  0.36799854612E+01  0.51921838735E+02  0.10566000000E+00 0. -1.
         22    1    1    0    0    0  0.30916112783E+02  0.15930836136E+02 -0.31554393922E+01  0.34922118598E+02  0.00000000000E+00 0. -1.
</event>
<event>
 5    1  0.1258677E-009  0.9118800E+02  0.7561462E-02  0.1125453E+00
         25   -1    0    0    0    0  0.00000000000E+00  0.00000000000E+00  0.99999998245E-14  0.12509000000E+03  0.12509000000E+03 0.  0.
        -13    1    3    3    0    0  0.42833936053E+02  0.16111806787E+02 -0.36193784180E+02  0.58346701475E+02  0.10566000000E+00 0.  1.
         23    2    1    0    0    0  0.79086973423E+01  0.16938053739E+02 -0.22420281092E+02  0.95899005458E+02  0.91348262629E+02 0.  0.
         13    1    3    3    0    0 -0.34925238711E+02  0.82624695174E+00  0.13773503087E+02  0.37552303982E+02  0.10566000000E+00 0. -1.
         22    1    1    0    0    0 -0.79086973423E+01 -0.16938053739E+02  0.22420281092E+02  0.29190994542E+02  0.00000000000E+00 0.  1.
</event>
<event>
 5    1  0.1258677E-009  0.9118800E+02  0.7561462E-02  0.1125453E+00
         25   -1    0    0    0    0  0.00000000000E+00  0.00000000000E+00  0.99999998245E-14  0.12509000000E+03  0.12509000000E+03 0.  0.
        -13    1    3    3    0    0  0.24128218578E+02  0.21923659720E+02  0.16250544542E+02  0.36426764188E+02  0.10566000000E+00 0. -1.
         23    2    1    0    0    0 -0.12811260424E+01 -0.29479178390E+02  0.19767431323E+01  0.95516857524E+02  0.90823451351E+02 0.  0.
         13    1    3    3    0    0 -0.25409344620E+02 -0.51402838110E+02 -0.14273801409E+02  0.59090093336E+02  0.10566000000E+00 0.  1.
         22    1    1    0    0    0  0.12811260424E+01  0.29479178390E+02 -0.19767431323E+01  0.29573142476E+02  0.00000000000E+00 0.  1.
</event>
<event>
 5    1  0.1258677E-009  0.9118800E+02  0.7561462E-02  0.1125453E+00
         25   -1    0    0    0    0  0.00000000000E+00  0.00000000000E+00  0.99999998245E-14  0.12509000000E+03  0.12509000000E+03 0.  0.
        -13    1    3    3    0    0 -0.51275327764E+02 -0.31007242377E+02 -0.27801958410E+01  0.59986239840E+02  0.10566000000E+00 0.  1.
         23    2    1    0    0    0 -0.28602451549E+02 -0.34408176432E+01  0.29290962509E+01  0.96132806325E+02  0.91667864524E+02 0.  0.
         13    1    3    3    0    0  0.22672876215E+02  0.27566424734E+02  0.57092920919E+01  0.36146566486E+02  0.10566000000E+00 0. -1.
         22    1    1    0    0    0  0.28602451549E+02  0.34408176432E+01 -0.29290962509E+01  0.28957193675E+02  0.00000000000E+00 0.  1.
</event>
<event>
 5    1  0.1258677E-009  0.9118800E+02  0.7561462E-02  0.1125453E+00
         25   -1    0    0    0    0  0.00000000000E+00  0.00000000000E+00  0.99999998245E-14  0.12509000000E+03  0.12509000000E+03 0.  0.
        -13    1    3    3    0    0 -0.33630638320E+02  0.38845069635E+02  0.15694176536E+02  0.53724087800E+02  0.10566000000E+00 0. -1.
         23    2    1    0    0    0  0.12532653942E+01  0.30773349150E+02 -0.30519976132E+01  0.94140292708E+02  0.88907313140E+02 0.  0.
         13    1    3    3    0    0  0.34883903714E+02 -0.80717204858E+01 -0.18746174149E+02  0.40416204908E+02  0.10566000000E+00 0.  1.
         22    1    1    0    0    0 -0.12532653942E+01 -0.30773349150E+02  0.30519976132E+01  0.30949707292E+02  0.00000000000E+00 0. -1.
</event>
<event>
 5    1  0.1258677E-009  0.9118800E+02  0.7561462E-02  0.1125453E+00
         25   -1    0    0    0    0  0.00000000000E+00  0.00000000000E+00  0.99999998245E-14  0.12509000000E+03  0.12509000000E+03 0.  0.
        -13    1    3    3    0    0  0.12940001562E+02  0.31165579138E+02 -0.12624233316E+02  0.36029424007E+02  0.10566000000E+00 0. -1.
         23    2    1    0    0    0  0.14870420964E+02  0.32809218839E+02  0.29683763873E+02  0.78413452375E+02  0.63007693302E+02 0.  0.
         13    1    3    3    0    0  0.19304194019E+01  0.16436397019E+01  0.42307997189E+02  0.42384028369E+02  0.10566000000E+00 0.  1.
         22    1    1    0    0    0 -0.14870420964E+02 -0.32809218839E+02 -0.29683763873E+02  0.46676547625E+02  0.00000000000E+00 0.  1.
</event>
<event>
 5    1  0.1258677E-009  0.9118800E+02  0.7561462E-02  0.1125453E+00
         25   -1    0    0    0    0  0.00000000000E+00  0.00000000000E+00  0.99999998245E-14  0.12509000000E+03  0.12509000000E+03 0.  0.
        -13    1    3    3    0    0 -0.13573775404E+02 -0.29121345361E+02  0.12296013683E+02  0.34402082072E+02  0.10566000000E+00 0. -1.
         23    2    1    0    0    0 -0.29716521514E+01  0.18930732177E+02 -0.23143122443E+02  0.95043245538E+02  0.90168792100E+02 0.  0.
         13    1    3    3    0    0  0.10602123253E+02  0.48052077538E+02 -0.35439136126E+02  0.60641163466E+02  0.10566000000E+00 0.  1.
         22    1    1    0    0    0  0.29716521514E+01 -0.18930732177E+02  0.23143122443E+02  0.30046754462E+02  0.00000000000E+00 0.  1.
</event>
<event>
 5    1  0.1258677E-009  0.9118800E+02  0.7561462E-02  0.1125453E+00
         25   -1    0    0    0    0  0.00000000000E+00  0.00000000000E+00  0.99999998245E-14  0.12509000000E+03  0.12509000000E+03 0.  0.
        -13    1    3    3    0    0 -0.10169411644E+02 -0.29552908694E+02  0.50664565902E+02  0.59528990816E+02  0.10566000000E+00 0.  1.
         23    2    1    0    0    0  0.60036272203E+01 -0.21664991032E+02  0.20434280907E+02  0.94709492888E+02  0.89704586453E+02 0.  0.
         13    1    3    3    0    0  0.16173038864E+02  0.78879176629E+01 -0.30230284995E+02  0.35180502072E+02  0.10566000000E+00 0. -1.
         22    1    1    0    0    0 -0.60036272203E+01  0.21664991032E+02 -0.20434280907E+02  0.30380507112E+02  0.00000000000E+00 0.  1.
</event>
<event>
 5    1  0.1258677E-009  0.9118800E+02  0.7561462E-02  0.1125453E+00
         25   -1    0    0    0    0  0.00000000000E+00  0.00000000000E+00  0.99999998245E-14  0.12509000000E+03  0.12509000000E+03 0.  0.
        -13    1    3    3    0    0  0.56112846916E+02 -0.21255527185E+02 -0.23254161929E+01  0.60048878003E+02  0.10566000000E+00 0.  1.
         23    2    1    0    0    0  0.24319761532E+02 -0.38655248860E+01  0.10263508998E+02  0.98411681076E+02  0.94726586931E+02 0.  0.
         13    1    3    3    0    0 -0.31793085383E+02  0.17390002299E+02  0.12588925191E+02  0.38362803073E+02  0.10566000000E+00 0. -1.
         22    1    1    0    0    0 -0.24319761532E+02  0.38655248860E+01 -0.10263508998E+02  0.26678318924E+02  0.00000000000E+00 0.  1.
</event>
<event>
 5    1  0.1258677E-009  0.9118800E+02  0.7561462E-02  0.1125453E+00
         25   -1    0    0    0    0  0.00000000000E+00  0.00000000000E+00  0.99999998245E-14  0.12509000000E+03  0.12509000000E+03 0.  0.
        -13    1    3    3    0    0 -0.15011146065E+02 -0.38307643517E+02 -0.15198552635E+01  0.41171970830E+02  0.10566000000E+00 0. -1.
         23    2    1    0    0    0  0.23272134072E+02 -0.11659220684E+02 -0.20925164291E+02  0.91692512791E+02  0.85393938603E+02 0.  0.
         13    1    3    3    0    0  0.38283280138E+02  0.26648422832E+02 -0.19405309028E+02  0.50520541961E+02  0.10566000000E+00 0.  1.
         22    1    1    0    0    0 -0.23272134072E+02  0.11659220684E+02  0.20925164291E+02  0.33397487209E+02  0.00000000000E+00 0.  1.
</event>
<event>
 5    1  0.1258677E-009  0.9118800E+02  0.7561462E-02  0.1125453E+00
         25   -1    0    0    0    0  0.00000000000E+00  0.00000000000E+00  0.99999998245E-14  0.12509000000E+03  0.12509000000E+03 0.  0.
        -13    1    3    3    0    0 -0.12445225919E+01  0.43364227022E+02  0.88335658002E+01  0.44272430139E+02  0.10566000000E+00 0.  1.
         23    2    1    0    0    0 -0.17379532396E+02  0.55632474441E+01 -0.22619562839E+02  0.96027266277E+02  0.91523731224E+02 0.  0.
         13    1    3    3    0    0 -0.16135009805E+02 -0.37800979578E+02 -0.31453128639E+02  0.51754836138E+02  0.10566000000E+00 0. -1.
         22    1    1    0    0    0  0.17379532396E+02 -0.55632474441E+01  0.22619562839E+02  0.29062733723E+02  0.00000000000E+00 0.  1.
</event>
<event>
 5    1  0.1258677E-009  0.9118800E+02  0.7561462E-02  0.1125453E+00
         25   -1    0    0    0    0  0.00000000000E+00  0.00000000000E+00  0.99999998245E-14  0.12509000000E+03  0.12509000000E+03 0.  0.
        -13    1    3    3    0    0 -0.26521959844E+02 -0.55991883807E+02 -0.53039618021E+01  0.62182381597E+02  0.10566000000E+00 0. -1.
         23    2    1    0    0    0 -0.15728174248E+02 -0.24951284322E+02  0.68373500323E+00  0.95587295920E+02  0.90920413512E+02 0.  0.
         13    1    3    3    0    0  0.10793785596E+02  0.31040599485E+02  0.59876968053E+01  0.33404914323E+02  0.10566000000E+00 0.  1.
         22    1    1    0    0    0  0.15728174248E+02  0.24951284322E+02 -0.68373500323E+00  0.29502704080E+02  0.00000000000E+00 0. -1.
</event>
<event>
 5    1  0.1258677E-009  0.9118800E+02  0.7561462E-02  0.1125453E+00
         25   -1    0    0    0    0  0.00000000000E+00  0.00000000000E+00  0.99999998245E-14  0.12509000000E+03  0.12509000000E+03 0.  0.
        -13    1    3    3    0    0  0.21424525809E+02 -0.46671309875E+00  0.48372252652E+02  0.52906654760E+02  0.10566000000E+00 0.  1.
         23    2    1    0    0    0 -0.12936596190E+02 -0.92072536771E+01  0.25338824494E+02  0.95187072585E+02  0.90368101227E+02 0.  0.
         13    1    3    3    0    0 -0.34361121999E+02 -0.87405405784E+01 -0.23033428159E+02  0.42280417825E+02  0.10566000000E+00 0. -1.
         22    1    1    0    0    0  0.12936596190E+02  0.92072536771E+01 -0.25338824494E+02  0.29902927415E+02  0.00000000000E+00 0.  1.
</event>
<event>
 5    1  0.1258677E-009  0.9118800E+02  0.7561462E-02  0.1125453E+00
         25   -1    0    0    0    0  0.00000000000E+00  0.00000000000E+00  0.99999998245E-14  0.12509000000E+03  0.12509000000E+03 0.  0.
        -13    1    3    3    0    0  0.13429633267E+02 -0.34643012215E+02 -0.28993765916E+01  0.37268094849E+02  0.10566000000E+00 0. -1.
         23    2    1    0    0    0 -0.97480469835E+01  0.16134906104E+02 -0.21865778081E+02  0.96220087183E+02  0.91786890738E+02 0.  0.
         13    1    3    3    0    0 -0.23177680250E+02  0.50777918319E+02 -0.18966401489E+02  0.58951992334E+02  0.10566000000E+00 0.  1.
         22    1    1    0    0    0  0.97480469835E+01 -0.16134906104E+02  0.21865778081E+02  0.28869912817E+02  0.00000000000E+00 0.  1.
</event>
<event>
 5    1  0.1258677E-009  0.9118800E+02  0.7561462E-02  0.1125453E+00
         25   -1    0    0    0    0  0.00000000000E+00  0.00000000000E+00  0.99999998245E-14  0.12509000000E+03  0.12509000000E+03 0.  0.
        -13    1    3    3    0    0 -0.86863820850E+01  0.56194780709E+02  0.67234047942E+00  0.56866244983E+02  0.10566000000E+00 0. -1.
         23    2    1    0    0    0 -0.71116451111E+01  0.28489662331E+02 -0.18307825302E+02  0.90486346679E+02  0.83608409338E+02 0.  0.
         13    1    3    3    0    0  0.15747369739E+01 -0.27705118379E+02 -0.18980165781E+02  0.33620101696E+02  0.10566000000E+00 0.  1.
         22    1    1    0    0    0  0.71116451111E+01 -0.28489662331E+02  0.18307825302E+02  0.34603653321E+02  0.00000000000E+00 0. -1.
</event>
<event>
 5    1  0.1258677E-009  0.9118800E+02  0.7561462E-02  0.1125453E+00
         25   -1    0    0    0    0  0.00000000000E+00  0.00000000000E+00  0.99999998245E-14  0.12509000000E+03  0.12509000000E+03 0.  0.
        -13    1    3    3    0    0  0.52918734011E+02  0.25014148905E+02  0.32186333191E+01  0.58621419457E+02  0.10566000000E+00 0.  1.
         23    2    1    0    0    0  0.36138690908E+02  0.60464487538E+01 -0.98896998145E+01  0.87137784182E+02  0.78438655947E+02 0.  0.
         13    1    3    3    0    0 -0.16780043103E+02 -0.18967700151E+02 -0.13108333134E+02  0.28516364725E+02  0.10566000000E+00 0. -1.
         22    1    1    0    0    0 -0.36138690908E+02 -0.60464487538E+01  0.98896998145E+01  0.37952215818E+02  0.00000000000E+00 0.  1.
</event>
<event>
 5    1  0.1258677E-009  0.9118800E+02  0.7561462E-02  0.1125453E+00
         25   -1    0    0    0    0  0.00000000000E+00  0.00000000000E+00  0.99999998245E-14  0.12509000000E+03  0.12509000000E+03 0.  0.
        -13    1    3    3    0    0 -0.34288511743E+02 -0.26307208154E+02  0.13086260519E+02  0.45155648780E+02  0.10566000000E+00 0.  1.
         23    2    1    0    0    0  0.42746213489E+01  0.31281388983E+01  0.28533396064E+02  0.96069105258E+02  0.91580896772E+02 0.  0.
         13    1    3    3    0    0  0.38563133092E+02  0.29435347052E+02  0.15447135545E+02  0.50913456478E+02  0.10566000000E+00 0. -1.
         22    1    1    0    0    0 -0.42746213489E+01 -0.31281388983E+01 -0.28533396064E+02  0.29020894742E+02  0.00000000000E+00 0. -1.
</event>
<event>
 5    1  0.1258677E-009  0.9118800E+02  0.7561462E-02  0.1125453E+00
         25   -1    0    0    0    0  0.00000000000E+00  0.00000000000E+00  0.99999998245E-14  0.12509000000E+03  0.12509000000E+03 0.  0.
        -13    1    3    3    0    0 -0.45079420257E+02 -0.31600775518E+02  0.27623577129E+02  0.61594125706E+02  0.10566000000E+00 0.  1.
         23    2    1    0    0    0 -0.18625534970E+02 -0.14969941683E+02  0.20411956792E+02  0.93662978395E+02  0.88233190097E+02 0.  0.
         13    1    3    3    0    0  0.26453885287E+02  0.16630833835E+02 -0.72116203372E+01  0.32068852688E+02  0.10566000000E+00 0. -1.
         22    1    1    0    0    0  0.18625534970E+02  0.14969941683E+02 -0.20411956792E+02  0.31427021605E+02  0.00000000000E+00 0.  1.
</event>
<event>
 5    1  0.1258677E-009  0.9118800E+02  0.7561462E-02  0.1125453E+00
         25   -1    0    0    0    0  0.00000000000E+00  0.00000000000E+00  0.99999998245E-14  0.12509000000E+03  0.12509000000E+03 0.  0.
        -13    1    3    3    0    0 -0.28262988437E+02 -0.24165417235E+02  0.22444615682E+02  0.43434270371E+02  0.10566000000E+00 0.  1.
         23    2    1    0    0    0  0.22068239374E+02 -0.83995182224E+01  0.15994673343E+02  0.96570030315E+02  0.92262571416E+02 0.  0.
         13    1    3    3    0    0  0.50331227811E+02  0.15765899012E+02 -0.64499423390E+01  0.53135759944E+02  0.10566000000E+00 0. -1.
         22    1    1    0    0    0 -0.22068239374E+02  0.83995182224E+01 -0.15994673343E+02  0.28519969685E+02  0.00000000000E+00 0.  1.
</event>
<event>
 5    1  0.1258677E-009  0.9118800E+02  0.7561462E-02  0.1125453E+00
         25   -1    0    0    0    0  0.00000000000E+00  0.00000000000E+00  0.99999998245E-14  0.12509000000E+03  0.12509000000E+03 0.  0.
        -13    1    3    3    0    0  0.20240405729E+01  0.13937774851E+02  0.51310207522E+02  0.53208146632E+02  0.10566000000E+00 0. -1.
         23    2    1    0    0    0 -0.29537610081E+01 -0.17330221873E+02  0.25807507633E+02  0.93863588991E+02  0.88517142937E+02 0.  0.
         13    1    3    3    0    0 -0.49778015811E+01 -0.31267996724E+02 -0.25502699889E+02  0.40655442359E+02  0.10566000000E+00 0.  1.
         22    1    1    0    0    0  0.29537610081E+01  0.17330221873E+02 -0.25807507633E+02  0.31226411009E+02  0.00000000000E+00 0. -1.
</event>
<event>
 5    1  0.1258677E-009  0.9118800E+02  0.7561462E-02  0.1125453E+00
         25   -1    0    0    0    0  0.00000000000E+00  0.00000000000E+00  0.99999998245E-14  0.12509000000E+03  0.12509000000E+03 0.  0.
        -13    1    3    3    0    0 -0.11780065479E+02  0.41040096641E+02 -0.43610870450E+01  0.42919572682E+02  0.10566000000E+00 0.  1.
         23    2    1    0    0    0  0.27489525493E+02  0.55187350744E+01 -0.78133622719E+01  0.95983659133E+02  0.91464111771E+02 0.  0.
         13    1    3    3    0    0  0.39269590972E+02 -0.35521361566E+02 -0.34522752269E+01  0.53064086451E+02  0.10566000000E+00 0. -1.
         22    1    1    0    0    0 -0.27489525493E+02 -0.55187350744E+01  0.78133622719E+01  0.29106340867E+02  0.00000000000E+00 0. -1.
</event>
<event>
 5    1  0.1258677E-009  0.9118800E+02  0.7561462E-02  0.1125453E+00
         25   -1    0    0    0    0  0.00000000000E+00  0.00000000000E+00  0.99999998245E-14  0.12509000000E+03  0.12509000000E+03 0.  0.
        -13    1    3    3    0    0 -0.34089714887E+02 -0.22999453756E+02  0.22236426627E+02  0.46749902325E+02  0.10566000000E+00 0.  1.
         23    2    1    0    0    0  0.77006385962E+01  0.46263734830E+01  0.26578888073E+02  0.97033976447E+02  0.92889461876E+02 0.  0.
         13    1    3    3    0    0  0.41790353484E+02  0.27625827239E+02  0.43424614462E+01  0.50284074123E+02  0.10566000000E+00 0. -1.
         22    1    1    0    0    0 -0.77006385962E+01 -0.46263734830E+01 -0.26578888073E+02  0.28056023553E+02  0.00000000000E+00 0.  1.
</event>
<event>
 5    1  0.1258677E-009  0.9118800E+02  0.7561462E-02  0.1125453E+00
         25   -1    0    0    0    0  0.00000000000E+00  0.00000000000E+00  0.99999998245E-14  0.12509000000E+03  0.12509000000E+03 0.  0.
        -13    1    3    3    0    0 -0.16975913706E+02  0.21766627699E+02 -0.37501047147E+02  0.46565088089E+02  0.10566000000E+00 0.  1.
         23    2    1    0    0    0 -0.26718244104E+02 -0.11236078308E+02 -0.19536725649E+01  0.96039511877E+02  0.91540466360E+02 0.  0.
         13    1    3    3    0    0 -0.97423303971E+01 -0.33002706007E+02  0.35547374583E+02  0.49474423787E+02  0.10566000000E+00 0. -1.
         22    1    1    0    0    0  0.26718244104E+02  0.11236078308E+02  0.19536725649E+01  0.29050488123E+02  0.00000000000E+00 0. -1.
</event>
<event>
 5    1  0.1258677E-009  0.9118800E+02  0.7561462E-02  0.1125453E+00
         25   -1    0    0    0    0  0.00000000000E+00  0.00000000000E+00  0.99999998245E-14  0.12509000000E+03  0.12509000000E+03 0.  0.
        -13    1    3    3    0    0 -0.47765372493E+02  0.29695443101E+02 -0.43526423552E+01  0.56411938540E+02  0.10566000000E+00 0.  1.
         23    2    1    0    0    0 -0.33642364209E+01  0.19218550087E+02 -0.11276447160E+02  0.10255493810E+03  0.10004841985E+03 0.  0.
         13    1    3    3    0    0  0.44401136072E+02 -0.10476893014E+02 -0.69238048045E+01  0.46142999563E+02  0.10566000000E+00 0. -1.
         22    1    1    0    0    0  0.33642364209E+01 -0.19218550087E+02  0.11276447160E+02  0.22535061897E+02  0.00000000000E+00 0.  1.
</event>
<event>
 5    1  0.1258677E-009  0.9118800E+02  0.7561462E-02  0.1125453E+00
         25   -1    0    0    0    0  0.00000000000E+00  0.00000000000E+00  0.99999998245E-14  0.12509000000E+03  0.12509000000E+03 0.  0.
        -13    1    3    3    0    0  0.75687209397E+01 -0.45050796390E+02  0.14292790525E+02  0.47866008994E+02  0.10566000000E+00 0. -1.
         23    2    1    0    0    0  0.23116258016E+02  0.68993533053E+00  0.17206291568E+02  0.96264770340E+02  0.91847766133E+02 0.  0.
         13    1    3    3    0    0  0.15547537076E+02  0.45740731720E+02  0.29135010432E+01  0.48398761346E+02  0.10566000000E+00 0.  1.
         22    1    1    0    0    0 -0.23116258016E+02 -0.68993533053E+00 -0.17206291568E+02  0.28825229660E+02  0.00000000000E+00 0.  1.
</event>
<event>
 5    1  0.1258677E-009  0.9118800E+02  0.7561462E-02  0.1125453E+00
         25   -1    0    0    0    0  0.00000000000E+00  0.00000000000E+00  0.99999998245E-14  0.12509000000E+03  0.12509000000E+03 0.  0.
        -13    1    3    3    0    0 -0.40535498413E+02  0.95744210084E+01  0.25394192939E+02  0.48781885657E+02  0.10566000000E+00 0.  1.
         23    2    1    0    0    0  0.19467619400E+01 -0.82846716210E+01  0.28865530650E+02  0.94996071615E+02  0.90103324559E+02 0.  0.
         13    1    3    3    0    0  0.42482260353E+02 -0.17859092629E+02  0.34713377117E+01  0.46214185958E+02  0.10566000000E+00 0. -1.
         22    1    1    0    0    0 -0.19467619400E+01  0.82846716210E+01 -0.28865530650E+02  0.30093928385E+02  0.00000000000E+00 0.  1.
</event>
<event>
 5    1  0.1258677E-009  0.9118800E+02  0.7561462E-02  0.1125453E+00
         25   -1    0    0    0    0  0.00000000000E+00  0.00000000000E+00  0.99999998245E-14  0.12509000000E+03  0.12509000000E+03 0.  0.
        -13    1    3    3    0    0  0.35248851722E-01 -0.60035269257E+02 -0.13298726682E+02  0.61490666711E+02  0.10566000000E+00 0. -1.
         23    2    1    0    0    0 -0.76880896864E+01 -0.33553736836E+02 -0.98152966533E+01  0.89294748540E+02  0.81806186133E+02 0.  0.
         13    1    3    3    0    0 -0.77233385381E+01  0.26481532421E+02  0.34834300285E+01  0.27804081828E+02  0.10566000000E+00 0.  1.
         22    1    1    0    0    0  0.76880896864E+01  0.33553736836E+02  0.98152966533E+01  0.35795251460E+02  0.00000000000E+00 0. -1.
</event>
<event>
 5    1  0.1258677E-009  0.9118800E+02  0.7561462E-02  0.1125453E+00
         25   -1    0    0    0    0  0.00000000000E+00  0.00000000000E+00  0.99999998245E-14  0.12509000000E+03  0.12509000000E+03 0.  0.
        -13    1    3    3    0    0  0.33590177819E+01 -0.26354441923E+02  0.39490989672E+02  0.47596103189E+02  0.10566000000E+00 0. -1.
         23    2    1    0    0    0 -0.19713653761E+02  0.10414039649E+02  0.19840175906E+02  0.95245185603E+02  0.90448507086E+02 0.  0.
         13    1    3    3    0    0 -0.23072671543E+02  0.36768481571E+02 -0.19650813766E+02  0.47649082414E+02  0.10566000000E+00 0.  1.
         22    1    1    0    0    0  0.19713653761E+02 -0.10414039649E+02 -0.19840175906E+02  0.29844814397E+02  0.00000000000E+00 0.  1.
</event>
<event>
 5    1  0.1258677E-009  0.9118800E+02  0.7561462E-02  0.1125453E+00
         25   -1    0    0    0    0  0.00000000000E+00  0.00000000000E+00  0.99999998245E-14  0.12509000000E+03  0.12509000000E+03 0.  0.
        -13    1    3    3    0    0  0.29500908189E+01 -0.42713090980E+02 -0.39560140131E+02  0.58293456135E+02  0.10566000000E+00 0.  1.
         23    2    1    0    0    0 -0.82944832937E+01 -0.26176468671E+02 -0.65951698778E+01  0.96849918008E+02  0.92641267194E+02 0.  0.
         13    1    3    3    0    0 -0.11244574113E+02  0.16536622310E+02  0.32964970253E+02  0.38556461874E+02  0.10566000000E+00 0. -1.
         22    1    1    0    0    0  0.82944832937E+01  0.26176468671E+02  0.65951698778E+01  0.28240081992E+02  0.00000000000E+00 0. -1.
</event>
<event>
 5    1  0.1258677E-009  0.9118800E+02  0.7561462E-02  0.1125453E+00
         25   -1    0    0    0    0  0.00000000000E+00  0.00000000000E+00  0.99999998245E-14  0.12509000000E+03  0.12509000000E+03 0.  0.
        -13    1    3    3    0    0 -0.51214101615E+02 -0.99443115056E+00 -0.18344014641E+02  0.54409439758E+02  0.10566000000E+00 0. -1.
         23    2    1    0    0    0 -0.10021124140E+02 -0.76809680057E+01 -0.25391400478E+02  0.96732577395E+02  0.92482690882E+02 0.  0.
         13    1    3    3    0    0  0.41192977475E+02 -0.66865368552E+01 -0.70473858368E+01  0.42323137638E+02  0.10566000000E+00 0.  1.
         22    1    1    0    0    0  0.10021124140E+02  0.76809680057E+01  0.25391400478E+02  0.28357422605E+02  0.00000000000E+00 0. -1.
</event>
<event>
 5    1  0.1258677E-009  0.9118800E+02  0.7561462E-02  0.1125453E+00
         25   -1    0    0    0    0  0.00000000000E+00  0.00000000000E+00  0.99999998245E-14  0.12509000000E+03  0.12509000000E+03 0.  0.
        -13    1    3    3    0    0 -0.54517491692E+01  0.46304934459E+02  0.69567183774E+01  0.47141018432E+02  0.10566000000E+00 0.  1.
         23    2    1    0    0    0  0.24865795212E+02  0.53436529404E+01  0.89149936290E+01  0.98139313373E+02  0.94366229763E+02 0.  0.
         13    1    3    3    0    0  0.30317544381E+02 -0.40961281518E+02  0.19582752516E+01  0.50998294941E+02  0.10566000000E+00 0. -1.
         22    1    1    0    0    0 -0.24865795212E+02 -0.53436529404E+01 -0.89149936290E+01  0.26950686627E+02  0.00000000000E+00 0.  1.
</event>
<event>
 5    1  0.1258677E-009  0.9118800E+02  0.7561462E-02  0.1125453E+00
         25   -1    0    0    0    0  0.00000000000E+00  0.00000000000E+00  0.99999998245E-14  0.12509000000E+03  0.12509000000E+03 0.  0.
        -13    1    3    3    0    0  0.33848467115E+02 -0.78337757202E+01  0.42965299685E+02  0.55254998952E+02  0.10566000000E+00 0. -1.
         23    2    1    0    0    0 -0.42658932853E+01 -0.30332360119E+01  0.28196527193E+02  0.96411741476E+02  0.92047712533E+02 0.  0.
         13    1    3    3    0    0 -0.38114360401E+02  0.48005397082E+01 -0.14768772492E+02  0.41156742524E+02  0.10566000000E+00 0.  1.
         22    1    1    0    0    0  0.42658932853E+01  0.30332360119E+01 -0.28196527193E+02  0.28678258524E+02  0.00000000000E+00 0. -1.
</event>
<event>
 5    1  0.1258677E-009  0.9118800E+02  0.7561462E-02  0.1125453E+00
         25   -1    0    0    0    0  0.00000000000E+00  0.00000000000E+00  0.99999998245E-14  0.12509000000E+03  0.12509000000E+03 0.  0.
        -13    1    3    3    0    0 -0.15312868217E+02 -0.12866692899E+02  0.32590514428E+02  0.38238573638E+02  0.10566000000E+00 0.  1.
         23    2    1    0    0    0 -0.38409164499E+02  0.73288738526E+01 -0.37616252069E+01  0.85807355822E+02  0.76287457551E+02 0.  0.
         13    1    3    3    0    0 -0.23096296282E+02  0.20195566752E+02 -0.36352139635E+02  0.47568782184E+02  0.10566000000E+00 0. -1.
         22    1    1    0    0    0  0.38409164499E+02 -0.73288738526E+01  0.37616252069E+01  0.39282644178E+02  0.00000000000E+00 0. -1.
</event>
<event>
 5    1  0.1258677E-009  0.9118800E+02  0.7561462E-02  0.1125453E+00
         25   -1    0    0    0    0  0.00000000000E+00  0.00000000000E+00  0.99999998245E-14  0.12509000000E+03  0.12509000000E+03 0.  0.
        -13    1    3    3    0    0 -0.24315409083E+02  0.92294906618E+00 -0.52025842106E+02  0.57435096977E+02  0.10566000000E+00 0. -1.
         23    2    1    0    0    0 -0.91862803025E+01  0.18132557755E+02 -0.23806225767E+02  0.93786425415E+02  0.88408030236E+02 0.  0.
         13    1    3    3    0    0  0.15129128781E+02  0.17209608689E+02  0.28219616339E+02  0.36351328438E+02  0.10566000000E+00 0.  1.
         22    1    1    0    0    0  0.91862803025E+01 -0.18132557755E+02  0.23806225767E+02  0.31303574585E+02  0.00000000000E+00 0. -1.
</event>
<event>
 5    1  0.1258677E-009  0.9118800E+02  0.7561462E-02  0.1125453E+00
         25   -1    0    0    0    0  0.00000000000E+00  0.00000000000E+00  0.99999998245E-14  0.12509000000E+03  0.12509000000E+03 0.  0.
        -13    1    3    3    0    0 -0.21117020532E+02 -0.20498775121E+02  0.45916613867E+02  0.54538747058E+02  0.10566000000E+00 0. -1.
         23    2    1    0    0    0  0.12307968019E+02 -0.81528624440E+01  0.25551234063E+02  0.95580326926E+02  0.90910824935E+02 0.  0.
         13    1    3    3    0    0  0.33424988551E+02  0.12345912677E+02 -0.20365379804E+02  0.41041579868E+02  0.10566000000E+00 0.  1.
         22    1    1    0    0    0 -0.12307968019E+02  0.81528624440E+01 -0.25551234063E+02  0.29509673074E+02  0.00000000000E+00 0. -1.
</event>
<event>
 5    1  0.1258677E-009  0.9118800E+02  0.7561462E-02  0.1125453E+00
         25   -1    0    0    0    0  0.00000000000E+00  0.00000000000E+00  0.99999998245E-14  0.12509000000E+03  0.12509000000E+03 0.  0.
        -13    1    3    3    0    0 -0.30588959128E+02  0.33354512010E+02 -0.73120394334E+01  0.45844137866E+02  0.10566000000E+00 0.  1.
         23    2    1    0    0    0 -0.96096649162E+00 -0.15169289918E+01 -0.28685528734E+02  0.96348321397E+02  0.91961486216E+02 0.  0.
         13    1    3    3    0    0  0.29627992636E+02 -0.34871441002E+02 -0.21373489301E+02  0.50504183531E+02  0.10566000000E+00 0. -1.
         22    1    1    0    0    0  0.96096649162E+00  0.15169289918E+01  0.28685528734E+02  0.28741678603E+02  0.00000000000E+00 0. -1.
</event>
<event>
 5    1  0.1258677E-009  0.9118800E+02  0.7561462E-02  0.1125453E+00
         25   -1    0    0    0    0  0.00000000000E+00  0.00000000000E+00  0.99999998245E-14  0.12509000000E+03  0.12509000000E+03 0.  0.
        -13    1    3    3    0    0 -0.51011327693E+01  0.20801983077E+02  0.24575247307E+02  0.32599049062E+02  0.10566000000E+00 0. -1.
         23    2    1    0    0    0  0.27958070474E+02  0.57978855150E+01 -0.20104506505E+02  0.90169227344E+02  0.83132600085E+02 0.  0.
         13    1    3    3    0    0  0.33059203244E+02 -0.15004097562E+02 -0.44679753812E+02  0.57570178282E+02  0.10566000000E+00 0.  1.
         22    1    1    0    0    0 -0.27958070474E+02 -0.57978855150E+01  0.20104506505E+02  0.34920772656E+02  0.00000000000E+00 0.  1.
</event>
<event>
 5    1  0.1258677E-009  0.9118800E+02  0.7561462E-02  0.1125453E+00
         25   -1    0    0    0    0  0.00000000000E+00  0.00000000000E+00  0.99999998245E-14  0.12509000000E+03  0.12509000000E+03 0.  0.
        -13    1    3    3    0    0  0.27652587867E+02 -0.26026721014E+02  0.68123845753E+00  0.37980667087E+02  0.10566000000E+00 0.  1.
         23    2    1    0    0    0 -0.15778877366E+02  0.58939925071E+01 -0.22774611749E+02  0.96763421334E+02  0.92524400292E+02 0.  0.
         13    1    3    3    0    0 -0.43431465233E+02  0.31920713521E+02 -0.23455850206E+02  0.58782754247E+02  0.10566000000E+00 0. -1.
         22    1    1    0    0    0  0.15778877366E+02 -0.58939925071E+01  0.22774611749E+02  0.28326578666E+02  0.00000000000E+00 0. -1.
</event>
<event>
 5    1  0.1258677E-009  0.9118800E+02  0.7561462E-02  0.1125453E+00
         25   -1    0    0    0    0  0.00000000000E+00  0.00000000000E+00  0.99999998245E-14  0.12509000000E+03  0.12509000000E+03 0.  0.
        -13    1    3    3    0    0  0.33881978935E+02  0.58024628987E+01  0.11217887695E+02  0.36159497240E+02  0.10566000000E+00 0. -1.
         23    2    1    0    0    0 -0.25687960643E+02  0.11263687436E+02  0.72956517985E+01  0.96107789736E+02  0.91633720519E+02 0.  0.
         13    1    3    3    0    0 -0.59569939578E+02  0.54612245372E+01 -0.39222358969E+01  0.59948292496E+02  0.10566000000E+00 0.  1.
         22    1    1    0    0    0  0.25687960643E+02 -0.11263687436E+02 -0.72956517985E+01  0.28982210264E+02  0.00000000000E+00 0.  1.
</event>
<event>
 5    1  0.1258677E-009  0.9118800E+02  0.7561462E-02  0.1125453E+00
         25   -1    0    0    0    0  0.00000000000E+00  0.00000000000E+00  0.99999998245E-14  0.12509000000E+03  0.12509000000E+03 0.  0.
        -13    1    3    3    0    0  0.47707269656E+02  0.71810247899E+01  0.28526941431E+02  0.56047731859E+02  0.10566000000E+00 0. -1.
         23    2    1    0    0    0  0.29930545652E+02 -0.14561167464E+02  0.79350606931E+01  0.90872601660E+02  0.84184317918E+02 0.  0.
         13    1    3    3    0    0 -0.17776724004E+02 -0.21742192254E+02 -0.20591880738E+02  0.34824869802E+02  0.10566000000E+00 0.  1.
         22    1    1    0    0    0 -0.29930545652E+02  0.14561167464E+02 -0.79350606931E+01  0.34217398340E+02  0.00000000000E+00 0. -1.
</event>
<event>
 5    1  0.1258677E-009  0.9118800E+02  0.7561462E-02  0.1125453E+00
         25   -1    0    0    0    0  0.00000000000E+00  0.00000000000E+00  0.99999998245E-14  0.12509000000E+03  0.12509000000E+03 0.  0.
        -13    1    3    3    0    0  0.40694448455E+02 -0.13099341988E+01 -0.21707805525E+00  0.40716241840E+02  0.10566000000E+00 0. -1.
         23    2    1    0    0    0 -0.33465141602E+01 -0.27327688106E+02  0.14540127222E+02  0.93954538001E+02  0.88645576410E+02 0.  0.
         13    1    3    3    0    0 -0.44040962615E+02 -0.26017753907E+02  0.14757205277E+02  0.53238296161E+02  0.10566000000E+00 0.  1.
         22    1    1    0    0    0  0.33465141602E+01  0.27327688106E+02 -0.14540127222E+02  0.31135461999E+02  0.00000000000E+00 0.  1.
</event>
<event>
 5    1  0.1258677E-009  0.9118800E+02  0.7561462E-02  0.1125453E+00
         25   -1    0    0    0    0  0.00000000000E+00  0.00000000000E+00  0.99999998245E-14  0.12509000000E+03  0.12509000000E+03 0.  0.
        -13    1    3    3    0    0  0.29898750503E+02  0.28055174375E+02  0.97203431976E+01  0.42136971020E+02  0.10566000000E+00 0. -1.
         23    2    1    0    0    0 -0.45734670326E+01 -0.91481075254E+01  0.27395437404E+02  0.95847659763E+02  0.91277924053E+02 0.  0.
         13    1    3    3    0    0 -0.34472217536E+02 -0.37203281900E+02  0.17675094206E+02  0.53710688743E+02  0.10566000000E+00 0.  1.
         22    1    1    0    0    0  0.45734670326E+01  0.91481075254E+01 -0.27395437404E+02  0.29242340237E+02  0.00000000000E+00 0.  1.
</event>
<event>
 5    1  0.1258677E-009  0.9118800E+02  0.7561462E-02  0.1125453E+00
         25   -1    0    0    0    0  0.00000000000E+00  0.00000000000E+00  0.99999998245E-14  0.12509000000E+03  0.12509000000E+03 0.  0.
        -13    1    3    3    0    0 -0.43597925714E+02  0.53069644467E+01 -0.61310579091E+01  0.44345732978E+02  0.10566000000E+00 0.  1.
         23    2    1    0    0    0 -0.33717010958E+01 -0.19696220147E+02  0.18611324964E+02  0.97782658985E+02  0.93892265523E+02 0.  0.
         13    1    3    3    0    0  0.40226224618E+02 -0.25003184594E+02  0.24742382873E+02  0.53436926008E+02  0.10566000000E+00 0. -1.
         22    1    1    0    0    0  0.33717010958E+01  0.19696220147E+02 -0.18611324964E+02  0.27307341015E+02  0.00000000000E+00 0. -1.
</event>
<event>
 5    1  0.1258677E-009  0.9118800E+02  0.7561462E-02  0.1125453E+00
         25   -1    0    0    0    0  0.00000000000E+00  0.00000000000E+00  0.99999998245E-14  0.12509000000E+03  0.12509000000E+03 0.  0.
        -13    1    3    3    0    0 -0.27929189974E+02 -0.35923958247E+02 -0.35624627079E+02  0.57790099907E+02  0.10566000000E+00 0. -1.
         23    2    1    0    0    0 -0.11344516357E+02 -0.25469518873E+01 -0.26485643656E+02  0.96164676576E+02  0.91711344368E+02 0.  0.
         13    1    3    3    0    0  0.16584673617E+02  0.33377006359E+02  0.91389834234E+01  0.38374576669E+02  0.10566000000E+00 0.  1.
         22    1    1    0    0    0  0.11344516357E+02  0.25469518873E+01  0.26485643656E+02  0.28925323424E+02  0.00000000000E+00 0. -1.
</event>
<event>
 5    1  0.1258677E-009  0.9118800E+02  0.7561462E-02  0.1125453E+00
         25   -1    0    0    0    0  0.00000000000E+00  0.00000000000E+00  0.99999998245E-14  0.12509000000E+03  0.12509000000E+03 0.  0.
        -13    1    3    3    0    0  0.50770600716E+02 -0.20218266021E+02 -0.48613296811E+00  0.54650523028E+02  0.10566000000E+00 0. -1.
         23    2    1    0    0    0  0.23555367721E+02  0.89537554664E+01  0.12962010593E+02  0.96752060695E+02  0.92509039800E+02 0.  0.
         13    1    3    3    0    0 -0.27215232996E+02  0.29172021487E+02  0.13448143561E+02  0.42101537667E+02  0.10566000000E+00 0.  1.
         22    1    1    0    0    0 -0.23555367721E+02 -0.89537554664E+01 -0.12962010593E+02  0.28337939305E+02  0.00000000000E+00 0. -1.
</event>
<event>
 5    1  0.1258677E-009  0.9118800E+02  0.7561462E-02  0.1125453E+00
         25   -1    0    0    0    0  0.00000000000E+00  0.00000000000E+00  0.99999998245E-14  0.12509000000E+03  0.12509000000E+03 0.  0.
        -13    1    3    3    0    0  0.34377888768E+02 -0.23440998457E+02  0.10692575571E+02  0.42961168293E+02  0.10566000000E+00 0.  1.
         23    2    1    0    0    0  0.56674380717E+01 -0.79726832299E+01 -0.29088139868E+02  0.94401184234E+02  0.89273625285E+02 0.  0.
         13    1    3    3    0    0 -0.28710450696E+02  0.15468315227E+02 -0.39780715438E+02  0.51440015940E+02  0.10566000000E+00 0. -1.
         22    1    1    0    0    0 -0.56674380717E+01  0.79726832299E+01  0.29088139868E+02  0.30688815766E+02  0.00000000000E+00 0.  1.
</event>
<event>
 5    1  0.1258677E-009  0.9118800E+02  0.7561462E-02  0.1125453E+00
         25   -1    0    0    0    0  0.00000000000E+00  0.00000000000E+00  0.99999998245E-14  0.12509000000E+03  0.12509000000E+03 0.  0.
        -13    1    3    3    0    0 -0.11647096010E+02 -0.20212971297E+02 -0.57847324238E+02  0.62374218549E+02  0.10566000000E+00 0.  1.
         23    2    1    0    0    0 -0.71423303097E+01 -0.10781630820E+02 -0.23630002060E+02  0.98152415796E+02  0.94383596477E+02 0.  0.
         13    1    3    3    0    0  0.45047657001E+01  0.94313404764E+01  0.34217322178E+02  0.35778197247E+02  0.10566000000E+00 0. -1.
         22    1    1    0    0    0  0.71423303097E+01  0.10781630820E+02  0.23630002060E+02  0.26937584204E+02  0.00000000000E+00 0.  1.
</event>
<event>
 5    1  0.1258677E-009  0.9118800E+02  0.7561462E-02  0.1125453E+00
         25   -1    0    0    0    0  0.00000000000E+00  0.00000000000E+00  0.99999998245E-14  0.12509000000E+03  0.12509000000E+03 0.  0.
        -13    1    3    3    0    0  0.13308826371E+02 -0.18126872717E+02  0.35121612653E+02  0.41704282913E+02  0.10566000000E+00 0.  1.
         23    2    1    0    0    0  0.83582920738E+01  0.27574536453E+02  0.75652144416E+01  0.95299924866E+02  0.90524179659E+02 0.  0.
         13    1    3    3    0    0 -0.49505342969E+01  0.45701409169E+02 -0.27556398212E+02  0.53595641953E+02  0.10566000000E+00 0. -1.
         22    1    1    0    0    0 -0.83582920738E+01 -0.27574536453E+02 -0.75652144416E+01  0.29790075134E+02  0.00000000000E+00 0. -1.
</event>
<event>
 5    1  0.1258677E-009  0.9118800E+02  0.7561462E-02  0.1125453E+00
         25   -1    0    0    0    0  0.00000000000E+00  0.00000000000E+00  0.99999998245E-14  0.12509000000E+03  0.12509000000E+03 0.  0.
        -13    1    3    3    0    0 -0.31725686829E+02 -0.13500800086E+02  0.15463296364E+02  0.37787769268E+02  0.10566000000E+00 0. -1.
         23    2    1    0    0    0  0.87124329669E+01 -0.15338716857E+02 -0.24651168225E+02  0.94777249912E+02  0.89799021615E+02 0.  0.
         13    1    3    3    0    0  0.40438119796E+02 -0.18379167710E+01 -0.40114464590E+02  0.56989480644E+02  0.10566000000E+00 0.  1.
         22    1    1    0    0    0 -0.87124329669E+01  0.15338716857E+02  0.24651168225E+02  0.30312750088E+02  0.00000000000E+00 0.  1.
</event>
<event>
 5    1  0.1258677E-009  0.9118800E+02  0.7561462E-02  0.1125453E+00
         25   -1    0    0    0    0  0.00000000000E+00  0.00000000000E+00  0.99999998245E-14  0.12509000000E+03  0.12509000000E+03 0.  0.
        -13    1    3    3    0    0  0.63178118929E+01 -0.84076192593E+01  0.13392060022E+02  0.17028248424E+02  0.10566000000E+00 0.  1.
         23    2    1    0    0    0  0.10990414997E+02  0.48666654230E+02  0.81995412320E+01  0.74528503462E+02  0.54754295687E+02 0.  0.
         13    1    3    3    0    0  0.46726031045E+01  0.57074273489E+02 -0.51925187900E+01  0.57500255038E+02  0.10566000000E+00 0. -1.
         22    1    1    0    0    0 -0.10990414997E+02 -0.48666654230E+02 -0.81995412320E+01  0.50561496538E+02  0.00000000000E+00 0. -1.
</event>
<event>
 5    1  0.1258677E-009  0.9118800E+02  0.7561462E-02  0.1125453E+00
         25   -1    0    0    0    0  0.00000000000E+00  0.00000000000E+00  0.99999998245E-14  0.12509000000E+03  0.12509000000E+03 0.  0.
        -13    1    3    3    0    0  0.28456527261E+02  0.63291012038E+00 -0.91983405689E+00  0.28478619659E+02  0.10566000000E+00 0. -1.
         23    2    1    0    0    0 -0.30305179251E+02 -0.17605121343E+02  0.86604240287E+00  0.90031559984E+02  0.82925192654E+02 0.  0.
         13    1    3    3    0    0 -0.58761706512E+02 -0.18238031463E+02  0.17858764598E+01  0.61552940325E+02  0.10566000000E+00 0.  1.
         22    1    1    0    0    0  0.30305179251E+02  0.17605121343E+02 -0.86604240287E+00  0.35058440016E+02  0.00000000000E+00 0.  1.
</event>
<event>
 5    1  0.1258677E-009  0.9118800E+02  0.7561462E-02  0.1125453E+00
         25   -1    0    0    0    0  0.00000000000E+00  0.00000000000E+00  0.99999998245E-14  0.12509000000E+03  0.12509000000E+03 0.  0.
        -13    1    3    3    0    0  0.13623121531E+02 -0.35269540678E+02 -0.17813031931E+02  0.41795277371E+02  0.10566000000E+00 0.  1.
         23    2    1    0    0    0  0.24392778770E+02  0.15051223020E+02  0.51671441080E+00  0.96422702180E+02  0.92062606586E+02 0.  0.
         13    1    3    3    0    0  0.10769657239E+02  0.50320763699E+02  0.18329746342E+02  0.54627424809E+02  0.10566000000E+00 0. -1.
         22    1    1    0    0    0 -0.24392778770E+02 -0.15051223020E+02 -0.51671441080E+00  0.28667297820E+02  0.00000000000E+00 0.  1.
</event>
<event>
 5    1  0.1258677E-009  0.9118800E+02  0.7561462E-02  0.1125453E+00
         25   -1    0    0    0    0  0.00000000000E+00  0.00000000000E+00  0.99999998245E-14  0.12509000000E+03  0.12509000000E+03 0.  0.
        -13    1    3    3    0    0 -0.18442108277E+02  0.11410354021E+02 -0.37643279175E+02  0.43443470944E+02  0.10566000000E+00 0. -1.
         23    2    1    0    0    0  0.17799757760E+02 -0.18341778252E+02 -0.13579500901E+02  0.96147729003E+02  0.91688225754E+02 0.  0.
         13    1    3    3    0    0  0.36241866037E+02 -0.29752132273E+02  0.24063778273E+02  0.52704258059E+02  0.10566000000E+00 0.  1.
         22    1    1    0    0    0 -0.17799757760E+02  0.18341778252E+02  0.13579500901E+02  0.28942270997E+02  0.00000000000E+00 0.  1.
</event>
<event>
 5    1  0.1258677E-009  0.9118800E+02  0.7561462E-02  0.1125453E+00
         25   -1    0    0    0    0  0.00000000000E+00  0.00000000000E+00  0.99999998245E-14  0.12509000000E+03  0.12509000000E+03 0.  0.
        -13    1    3    3    0    0  0.26219933615E+02  0.31147835522E+00  0.26868888445E+02  0.37543711429E+02  0.10566000000E+00 0.  1.
         23    2    1    0    0    0 -0.61709671271E+01 -0.13072000606E+02 -0.22656106676E+02  0.98215156655E+02  0.94466712613E+02 0.  0.
         13    1    3    3    0    0 -0.32390900742E+02 -0.13383478962E+02 -0.49524995121E+02  0.60671445226E+02  0.10566000000E+00 0. -1.
         22    1    1    0    0    0  0.61709671271E+01  0.13072000606E+02  0.22656106676E+02  0.26874843345E+02  0.00000000000E+00 0. -1.
</event>
<event>
 5    1  0.1258677E-009  0.9118800E+02  0.7561462E-02  0.1125453E+00
         25   -1    0    0    0    0  0.00000000000E+00  0.00000000000E+00  0.99999998245E-14  0.12509000000E+03  0.12509000000E+03 0.  0.
        -13    1    3    3    0    0  0.47656639151E+02  0.21190681523E+02  0.32384967878E+02  0.61392161935E+02  0.10566000000E+00 0. -1.
         23    2    1    0    0    0  0.24077860856E+02  0.16081261968E+01  0.15856985264E+02  0.96214864764E+02  0.91779773189E+02 0.  0.
         13    1    3    3    0    0 -0.23578778295E+02 -0.19582555326E+02 -0.16527982614E+02  0.34822702829E+02  0.10566000000E+00 0.  1.
         22    1    1    0    0    0 -0.24077860856E+02 -0.16081261968E+01 -0.15856985264E+02  0.28875135236E+02  0.00000000000E+00 0. -1.
</event>
<event>
 5    1  0.1258677E-009  0.9118800E+02  0.7561462E-02  0.1125453E+00
         25   -1    0    0    0    0  0.00000000000E+00  0.00000000000E+00  0.99999998245E-14  0.12509000000E+03  0.12509000000E+03 0.  0.
        -13    1    3    3    0    0 -0.33773845175E+02 -0.37849820783E+01  0.38478958605E+01  0.34202575544E+02  0.10566000000E+00 0.  1.
         23    2    1    0    0    0  0.24248730273E+02  0.16496577769E+02  0.19515497520E+01  0.95697032400E+02  0.91071265863E+02 0.  0.
         13    1    3    3    0    0  0.58022575448E+02  0.20281559847E+02 -0.18963461085E+01  0.61494456856E+02  0.10566000000E+00 0. -1.
         22    1    1    0    0    0 -0.24248730273E+02 -0.16496577769E+02 -0.19515497520E+01  0.29392967600E+02  0.00000000000E+00 0. -1.
</event>
<event>
 5    1  0.1258677E-009  0.9118800E+02  0.7561462E-02  0.1125453E+00
         25   -1    0    0    0    0  0.00000000000E+00  0.00000000000E+00  0.99999998245E-14  0.12509000000E+03  0.12509000000E+03 0.  0.
        -13    1    3    3    0    0 -0.28349159518E+02 -0.75434146796E+01  0.91423663371E+01  0.30727381547E+02  0.10566000000E+00 0.  1.
         23    2    1    0    0    0  0.31178664862E+02 -0.24184558178E+01  0.14311062981E+02  0.90698655235E+02  0.83925451841E+02 0.  0.
         13    1    3    3    0    0  0.59527824380E+02  0.51249588617E+01  0.51686966436E+01  0.59971273688E+02  0.10566000000E+00 0. -1.
         22    1    1    0    0    0 -0.31178664862E+02  0.24184558178E+01 -0.14311062981E+02  0.34391344765E+02  0.00000000000E+00 0. -1.
</event>
<event>
 5    1  0.1258677E-009  0.9118800E+02  0.7561462E-02  0.1125453E+00
         25   -1    0    0    0    0  0.00000000000E+00  0.00000000000E+00  0.99999998245E-14  0.12509000000E+03  0.12509000000E+03 0.  0.
        -13    1    3    3    0    0 -0.46709564000E+01  0.19480109244E+02 -0.41102977725E+02  0.45724811992E+02  0.10566000000E+00 0. -1.
         23    2    1    0    0    0  0.12736061533E+02  0.25499787640E+02  0.57005075889E+01  0.96022110159E+02  0.91516683832E+02 0.  0.
         13    1    3    3    0    0  0.17407017933E+02  0.60196783963E+01  0.46803485314E+02  0.50297298167E+02  0.10566000000E+00 0.  1.
         22    1    1    0    0    0 -0.12736061533E+02 -0.25499787640E+02 -0.57005075889E+01  0.29067889841E+02  0.00000000000E+00 0. -1.
</event>
<event>
 5    1  0.1258677E-009  0.9118800E+02  0.7561462E-02  0.1125453E+00
         25   -1    0    0    0    0  0.00000000000E+00  0.00000000000E+00  0.99999998245E-14  0.12509000000E+03  0.12509000000E+03 0.  0.
        -13    1    3    3    0    0  0.25794563112E+02 -0.44086717867E+02 -0.29648909616E+02  0.59059861022E+02  0.10566000000E+00 0.  1.
         23    2    1    0    0    0  0.27251785709E+02 -0.17531877397E+02 -0.16194907258E+02  0.88864296825E+02  0.81145312124E+02 0.  0.
         13    1    3    3    0    0  0.14572225970E+01  0.26554840470E+02  0.13454002357E+02  0.29804435804E+02  0.10566000000E+00 0. -1.
         22    1    1    0    0    0 -0.27251785709E+02  0.17531877397E+02  0.16194907258E+02  0.36225703175E+02  0.00000000000E+00 0.  1.
</event>
<event>
 5    1  0.1258677E-009  0.9118800E+02  0.7561462E-02  0.1125453E+00
         25   -1    0    0    0    0  0.00000000000E+00  0.00000000000E+00  0.99999998245E-14  0.12509000000E+03  0.12509000000E+03 0.  0.
        -13    1    3    3    0    0  0.25443720954E+02 -0.35573809793E+02 -0.33698673221E+02  0.55213138112E+02  0.10566000000E+00 0.  1.
         23    2    1    0    0    0  0.22393916558E+02 -0.21392531818E+02  0.23103542025E+01  0.94034152677E+02  0.88757851578E+02 0.  0.
         13    1    3    3    0    0 -0.30498043960E+01  0.14181277976E+02  0.36009027424E+02  0.38821014566E+02  0.10566000000E+00 0. -1.
         22    1    1    0    0    0 -0.22393916558E+02  0.21392531818E+02 -0.23103542025E+01  0.31055847323E+02  0.00000000000E+00 0.  1.
</event>
<event>
 5    1  0.1258677E-009  0.9118800E+02  0.7561462E-02  0.1125453E+00
         25   -1    0    0    0    0  0.00000000000E+00  0.00000000000E+00  0.99999998245E-14  0.12509000000E+03  0.12509000000E+03 0.  0.
        -13    1    3    3    0    0  0.30680280949E+01 -0.17552550356E+02  0.28972427062E+02  0.34013490181E+02  0.10566000000E+00 0.  1.
         23    2    1    0    0    0 -0.11644442745E+02  0.12641404429E+02 -0.23293914422E+02  0.96141690863E+02  0.91679987566E+02 0.  0.
         13    1    3    3    0    0 -0.14712470840E+02  0.30193954785E+02 -0.52266341484E+02  0.62128200682E+02  0.10566000000E+00 0. -1.
         22    1    1    0    0    0  0.11644442745E+02 -0.12641404429E+02  0.23293914422E+02  0.28948309137E+02  0.00000000000E+00 0. -1.
</event>
<event>
 5    1  0.1258677E-009  0.9118800E+02  0.7561462E-02  0.1125453E+00
         25   -1    0    0    0    0  0.00000000000E+00  0.00000000000E+00  0.99999998245E-14  0.12509000000E+03  0.12509000000E+03 0.  0.
        -13    1    3    3    0    0 -0.22017248468E+02  0.44151595444E+02 -0.12940948873E+02  0.51005900954E+02  0.10566000000E+00 0.  1.
         23    2    1    0    0    0  0.13864064754E+02  0.17691194683E+02 -0.18559367332E+02  0.95941401808E+02  0.91406300682E+02 0.  0.
         13    1    3    3    0    0  0.35881313222E+02 -0.26460400761E+02 -0.56184184588E+01  0.44935500854E+02  0.10566000000E+00 0. -1.
         22    1    1    0    0    0 -0.13864064754E+02 -0.17691194683E+02  0.18559367332E+02  0.29148598192E+02  0.00000000000E+00 0. -1.
</event>
<event>
 5    1  0.1258677E-009  0.9118800E+02  0.7561462E-02  0.1125453E+00
         25   -1    0    0    0    0  0.00000000000E+00  0.00000000000E+00  0.99999998245E-14  0.12509000000E+03  0.12509000000E+03 0.  0.
        -13    1    3    3    0    0 -0.33594680738E+02 -0.16495369025E+02 -0.15593023034E+02  0.40544460837E+02  0.10566000000E+00 0. -1.
         23    2    1    0    0    0  0.19972767195E+02 -0.16906212577E+02 -0.16560947692E+02  0.94122332320E+02  0.88882039804E+02 0.  0.
         13    1    3    3    0    0  0.53567447933E+02 -0.41084355148E+00 -0.96792465813E+00  0.53577871483E+02  0.10566000000E+00 0.  1.
         22    1    1    0    0    0 -0.19972767195E+02  0.16906212577E+02  0.16560947692E+02  0.30967667680E+02  0.00000000000E+00 0.  1.
</event>
<event>
 5    1  0.1258677E-009  0.9118800E+02  0.7561462E-02  0.1125453E+00
         25   -1    0    0    0    0  0.00000000000E+00  0.00000000000E+00  0.99999998245E-14  0.12509000000E+03  0.12509000000E+03 0.  0.
        -13    1    3    3    0    0 -0.11422524768E+02 -0.84230546711E+01 -0.54730432951E+02  0.56540723175E+02  0.10566000000E+00 0. -1.
         23    2    1    0    0    0  0.14116957438E+01  0.14544859552E+02 -0.23950487264E+02  0.97033420300E+02  0.92888712935E+02 0.  0.
         13    1    3    3    0    0  0.12834220511E+02  0.22967914224E+02  0.30779945687E+02  0.40492697125E+02  0.10566000000E+00 0.  1.
         22    1    1    0    0    0 -0.14116957438E+01 -0.14544859552E+02  0.23950487264E+02  0.28056579700E+02  0.00000000000E+00 0. -1.
</event>
<event>
 5    1  0.1258677E-009  0.9118800E+02  0.7561462E-02  0.1125453E+00
         25   -1    0    0    0    0  0.00000000000E+00  0.00000000000E+00  0.99999998245E-14  0.12509000000E+03  0.12509000000E+03 0.  0.
        -13    1    3    3    0    0 -0.27828792156E+02 -0.20970313176E+02  0.57367268454E+01  0.35314542422E+02  0.10566000000E+00 0.  1.
         23    2    1    0    0    0  0.21621864151E+02  0.23017758055E+00 -0.20605917563E+02  0.95220921848E+02  0.90414944162E+02 0.  0.
         13    1    3    3    0    0  0.49450656306E+02  0.21200490756E+02 -0.26342644408E+02  0.59906379426E+02  0.10566000000E+00 0. -1.
         22    1    1    0    0    0 -0.21621864151E+02 -0.23017758055E+00  0.20605917563E+02  0.29869078152E+02  0.00000000000E+00 0. -1.
</event>
<event>
 5    1  0.1258677E-009  0.9118800E+02  0.7561462E-02  0.1125453E+00
         25   -1    0    0    0    0  0.00000000000E+00  0.00000000000E+00  0.99999998245E-14  0.12509000000E+03  0.12509000000E+03 0.  0.
        -13    1    3    3    0    0  0.41434739876E+02  0.60935030865E+01 -0.92910068222E+01  0.42898746138E+02  0.10566000000E+00 0.  1.
         23    2    1    0    0    0  0.32423409095E+01 -0.28626886100E+02  0.34794372747E+01  0.96070732847E+02  0.91583119862E+02 0.  0.
         13    1    3    3    0    0 -0.38192398966E+02 -0.34720389186E+02  0.12770444097E+02  0.53171986709E+02  0.10566000000E+00 0. -1.
         22    1    1    0    0    0 -0.32423409095E+01  0.28626886100E+02 -0.34794372747E+01  0.29019267153E+02  0.00000000000E+00 0. -1.
</event>
<event>
 5    1  0.1258677E-009  0.9118800E+02  0.7561462E-02  0.1125453E+00
         25   -1    0    0    0    0  0.00000000000E+00  0.00000000000E+00  0.99999998245E-14  0.12509000000E+03  0.12509000000E+03 0.  0.
        -13    1    3    3    0    0  0.40129460072E+01 -0.57653415906E+02  0.37594090995E+01  0.57915148469E+02  0.10566000000E+00 0.  1.
         23    2    1    0    0    0  0.13633687093E+02 -0.21196578358E+02  0.12994336385E+02  0.96734663008E+02  0.92485511791E+02 0.  0.
         13    1    3    3    0    0  0.96207410857E+01  0.36456837548E+02  0.92349272856E+01  0.38819514539E+02  0.10566000000E+00 0. -1.
         22    1    1    0    0    0 -0.13633687093E+02  0.21196578358E+02 -0.12994336385E+02  0.28355336992E+02  0.00000000000E+00 0.  1.
</event>
<event>
 5    1  0.1258677E-009  0.9118800E+02  0.7561462E-02  0.1125453E+00
         25   -1    0    0    0    0  0.00000000000E+00  0.00000000000E+00  0.99999998245E-14  0.12509000000E+03  0.12509000000E+03 0.  0.
        -13    1    3    3    0    0 -0.25646346842E+01 -0.22350165254E+02  0.38825097109E+02  0.44872113473E+02  0.10566000000E+00 0. -1.
         23    2    1    0    0    0 -0.10810450556E+01  0.23894490509E+02  0.12630449589E+02  0.98041088896E+02  0.94235935396E+02 0.  0.
         13    1    3    3    0    0  0.14835896287E+01  0.46244655763E+02 -0.26194647520E+02  0.53168975423E+02  0.10566000000E+00 0.  1.
         22    1    1    0    0    0  0.10810450556E+01 -0.23894490509E+02 -0.12630449589E+02  0.27048911104E+02  0.00000000000E+00 0.  1.
</event>
<event>
 5    1  0.1258677E-009  0.9118800E+02  0.7561462E-02  0.1125453E+00
         25   -1    0    0    0    0  0.00000000000E+00  0.00000000000E+00  0.99999998245E-14  0.12509000000E+03  0.12509000000E+03 0.  0.
        -13    1    3    3    0    0  0.18622930123E+02  0.97801508479E+01  0.29368014436E+02  0.36124179062E+02  0.10566000000E+00 0.  1.
         23    2    1    0    0    0 -0.16532328674E+02 -0.26003888216E+02 -0.46206462155E-01  0.94275681432E+02  0.89097597503E+02 0.  0.
         13    1    3    3    0    0 -0.35155258797E+02 -0.35784039064E+02 -0.29414220898E+02  0.58151502370E+02  0.10566000000E+00 0. -1.
         22    1    1    0    0    0  0.16532328674E+02  0.26003888216E+02  0.46206462155E-01  0.30814318568E+02  0.00000000000E+00 0. -1.
</event>
<event>
 5    1  0.1258677E-009  0.9118800E+02  0.7561462E-02  0.1125453E+00
         25   -1    0    0    0    0  0.00000000000E+00  0.00000000000E+00  0.99999998245E-14  0.12509000000E+03  0.12509000000E+03 0.  0.
        -13    1    3    3    0    0  0.32589366892E+02  0.47118107851E+02  0.10943591664E+02  0.58326291537E+02  0.10566000000E+00 0. -1.
         23    2    1    0    0    0  0.10911428767E+02  0.18442323002E+02  0.20407188322E+02  0.95498922110E+02  0.90798745771E+02 0.  0.
         13    1    3    3    0    0 -0.21677938125E+02 -0.28675784848E+02  0.94635966580E+01  0.37172630574E+02  0.10566000000E+00 0.  1.
         22    1    1    0    0    0 -0.10911428767E+02 -0.18442323002E+02 -0.20407188322E+02  0.29591077890E+02  0.00000000000E+00 0. -1.
</event>
<event>
 5    1  0.1258677E-009  0.9118800E+02  0.7561462E-02  0.1125453E+00
         25   -1    0    0    0    0  0.00000000000E+00  0.00000000000E+00  0.99999998245E-14  0.12509000000E+03  0.12509000000E+03 0.  0.
        -13    1    3    3    0    0 -0.18980835161E+02 -0.27880946407E+02  0.51293541280E+02  0.61389394988E+02  0.10566000000E+00 0.  1.
         23    2    1    0    0    0 -0.14615083658E+02 -0.70323850347E+01  0.25860288733E+02  0.94564442790E+02  0.89502090463E+02 0.  0.
         13    1    3    3    0    0  0.43657515030E+01  0.20848561373E+02 -0.25433252547E+02  0.33175047802E+02  0.10566000000E+00 0. -1.
         22    1    1    0    0    0  0.14615083658E+02  0.70323850347E+01 -0.25860288733E+02  0.30525557210E+02  0.00000000000E+00 0.  1.
</event>
<event>
 5    1  0.1258677E-009  0.9118800E+02  0.7561462E-02  0.1125453E+00
         25   -1    0    0    0    0  0.00000000000E+00  0.00000000000E+00  0.99999998245E-14  0.12509000000E+03  0.12509000000E+03 0.  0.
        -13    1    3    3    0    0 -0.10293792668E+02 -0.58694015444E+02  0.10634079393E+01  0.59599426314E+02  0.10566000000E+00 0.  1.
         23    2    1    0    0    0  0.68141142620E+01 -0.28547137112E+02 -0.63865989015E+01  0.95054024304E+02  0.90183744103E+02 0.  0.
         13    1    3    3    0    0  0.17107906930E+02  0.30146878332E+02 -0.74500068408E+01  0.35454597990E+02  0.10566000000E+00 0. -1.
         22    1    1    0    0    0 -0.68141142620E+01  0.28547137112E+02  0.63865989015E+01  0.30035975696E+02  0.00000000000E+00 0.  1.
</event>
<event>
 5    1  0.1258677E-009  0.9118800E+02  0.7561462E-02  0.1125453E+00
         25   -1    0    0    0    0  0.00000000000E+00  0.00000000000E+00  0.99999998245E-14  0.12509000000E+03  0.12509000000E+03 0.  0.
        -13    1    3    3    0    0  0.38044315810E+02  0.28046674641E+02 -0.25186458136E+02  0.53557023455E+02  0.10566000000E+00 0. -1.
         23    2    1    0    0    0  0.17983915173E+02 -0.97045856555E+01 -0.19783330501E+02  0.96647420064E+02  0.92367437182E+02 0.  0.
         13    1    3    3    0    0 -0.20060400637E+02 -0.37751260297E+02  0.54031276349E+01  0.43090396609E+02  0.10566000000E+00 0.  1.
         22    1    1    0    0    0 -0.17983915173E+02  0.97045856555E+01  0.19783330501E+02  0.28442579936E+02  0.00000000000E+00 0. -1.
</event>
<event>
 5    1  0.1258677E-009  0.9118800E+02  0.7561462E-02  0.1125453E+00
         25   -1    0    0    0    0  0.00000000000E+00  0.00000000000E+00  0.99999998245E-14  0.12509000000E+03  0.12509000000E+03 0.  0.
        -13    1    3    3    0    0 -0.42288831895E+02  0.35645385309E+02  0.86628582121E+01  0.55982096007E+02  0.10566000000E+00 0.  1.
         23    2    1    0    0    0 -0.15809155831E+02  0.17294924471E+02 -0.16137473891E+02  0.96638956361E+02  0.92355974374E+02 0.  0.
         13    1    3    3    0    0  0.26479676064E+02 -0.18350460838E+02 -0.24800332103E+02  0.40656860355E+02  0.10566000000E+00 0. -1.
         22    1    1    0    0    0  0.15809155831E+02 -0.17294924471E+02  0.16137473891E+02  0.28451043639E+02  0.00000000000E+00 0. -1.
</event>
<event>
 5    1  0.1258677E-009  0.9118800E+02  0.7561462E-02  0.1125453E+00
         25   -1    0    0    0    0  0.00000000000E+00  0.00000000000E+00  0.99999998245E-14  0.12509000000E+03  0.12509000000E+03 0.  0.
        -13    1    3    3    0    0  0.34209953454E+02  0.10127211052E+00 -0.26716842529E+02  0.43406589477E+02  0.10566000000E+00 0.  1.
         23    2    1    0    0    0  0.10316431517E+02  0.16172150335E+02  0.19420788423E+02  0.97792853104E+02  0.93905845876E+02 0.  0.
         13    1    3    3    0    0 -0.23893521937E+02  0.16070878224E+02  0.46137630951E+02  0.54386263627E+02  0.10566000000E+00 0. -1.
         22    1    1    0    0    0 -0.10316431517E+02 -0.16172150335E+02 -0.19420788423E+02  0.27297146896E+02  0.00000000000E+00 0. -1.
</event>
<event>
 5    1  0.1258677E-009  0.9118800E+02  0.7561462E-02  0.1125453E+00
         25   -1    0    0    0    0  0.00000000000E+00  0.00000000000E+00  0.99999998245E-14  0.12509000000E+03  0.12509000000E+03 0.  0.
        -13    1    3    3    0    0  0.88427869646E+01  0.75688625139E+01 -0.39068417334E+02  0.40765609992E+02  0.10566000000E+00 0. -1.
         23    2    1    0    0    0 -0.10009280264E+02 -0.28143617803E+02 -0.27235363732E+01  0.95095557767E+02  0.90241334998E+02 0.  0.
         13    1    3    3    0    0 -0.18852067229E+02 -0.35712480317E+02  0.36344880960E+02  0.54329947775E+02  0.10566000000E+00 0.  1.
         22    1    1    0    0    0  0.10009280264E+02  0.28143617803E+02  0.27235363732E+01  0.29994442233E+02  0.00000000000E+00 0.  1.
</event>
<event>
 5    1  0.1258677E-009  0.9118800E+02  0.7561462E-02  0.1125453E+00
         25   -1    0    0    0    0  0.00000000000E+00  0.00000000000E+00  0.99999998245E-14  0.12509000000E+03  0.12509000000E+03 0.  0.
        -13    1    3    3    0    0  0.38716408942E+02  0.42868328859E+01 -0.42417411475E+01  0.39183424934E+02  0.10566000000E+00 0. -1.
         23    2    1    0    0    0 -0.10555015926E+02 -0.18461085366E+02 -0.20209731264E+02  0.95753107325E+02  0.91148254457E+02 0.  0.
         13    1    3    3    0    0 -0.49271424869E+02 -0.22747918252E+02 -0.15967990116E+02  0.56569682390E+02  0.10566000000E+00 0.  1.
         22    1    1    0    0    0  0.10555015926E+02  0.18461085366E+02  0.20209731264E+02  0.29336892675E+02  0.00000000000E+00 0.  1.
</event>
<event>
 5    1  0.1258677E-009  0.9118800E+02  0.7561462E-02  0.1125453E+00
         25   -1    0    0    0    0  0.00000000000E+00  0.00000000000E+00  0.99999998245E-14  0.12509000000E+03  0.12509000000E+03 0.  0.
        -13    1    3    3    0    0  0.44412916093E+02  0.15259060261E+02  0.61075271603E+01  0.47356721677E+02  0.10566000000E+00 0.  1.
         23    2    1    0    0    0  0.12715162246E+02 -0.19177750295E+02  0.18262254936E+02  0.95713624923E+02  0.91094053501E+02 0.  0.
         13    1    3    3    0    0 -0.31697753847E+02 -0.34436810556E+02  0.12154727775E+02  0.48356903246E+02  0.10566000000E+00 0. -1.
         22    1    1    0    0    0 -0.12715162246E+02  0.19177750295E+02 -0.18262254936E+02  0.29376375077E+02  0.00000000000E+00 0. -1.
</event>
<event>
 5    1  0.1258677E-009  0.9118800E+02  0.7561462E-02  0.1125453E+00
         25   -1    0    0    0    0  0.00000000000E+00  0.00000000000E+00  0.99999998245E-14  0.12509000000E+03  0.12509000000E+03 0.  0.
        -13    1    3    3    0    0  0.11618937928E+02  0.13861195907E+01 -0.37142974761E+02  0.38942685888E+02  0.10566000000E+00 0. -1.
         23    2    1    0    0    0  0.98970476699E+01  0.21620910970E+02  0.16397884682E+02  0.96205644965E+02  0.91767206328E+02 0.  0.
         13    1    3    3    0    0 -0.17218902582E+01  0.20234791379E+02  0.53540859443E+02  0.57262959076E+02  0.10566000000E+00 0.  1.
         22    1    1    0    0    0 -0.98970476699E+01 -0.21620910970E+02 -0.16397884682E+02  0.28884355035E+02  0.00000000000E+00 0.  1.
</event>
<event>
 5    1  0.1258677E-009  0.9118800E+02  0.7561462E-02  0.1125453E+00
         25   -1    0    0    0    0  0.00000000000E+00  0.00000000000E+00  0.99999998245E-14  0.12509000000E+03  0.12509000000E+03 0.  0.
        -13    1    3    3    0    0  0.22004177392E+02 -0.13864705150E+02  0.44614451910E+02  0.51641788842E+02  0.10566000000E+00 0.  1.
         23    2    1    0    0    0 -0.10374541597E+01 -0.28007785165E+02  0.10522683178E+02  0.95152745579E+02  0.90320572347E+02 0.  0.
         13    1    3    3    0    0 -0.23041631551E+02 -0.14143080015E+02 -0.34091768732E+02  0.43510956737E+02  0.10566000000E+00 0. -1.
         22    1    1    0    0    0  0.10374541597E+01  0.28007785165E+02 -0.10522683178E+02  0.29937254421E+02  0.00000000000E+00 0.  1.
</event>
<event>
 5    1  0.1258677E-009  0.9118800E+02  0.7561462E-02  0.1125453E+00
         25   -1    0    0    0    0  0.00000000000E+00  0.00000000000E+00  0.99999998245E-14  0.12509000000E+03  0.12509000000E+03 0.  0.
        -13    1    3    3    0    0  0.30241782329E+02 -0.39735889610E+02  0.33382051278E+02  0.60065621058E+02  0.10566000000E+00 0. -1.
         23    2    1    0    0    0  0.23588117492E+02 -0.14377744100E+02  0.85585318402E+01  0.96169984794E+02  0.91718584245E+02 0.  0.
         13    1    3    3    0    0 -0.66536648366E+01  0.25358145510E+02 -0.24823519438E+02  0.36104363736E+02  0.10566000000E+00 0.  1.
         22    1    1    0    0    0 -0.23588117492E+02  0.14377744100E+02 -0.85585318402E+01  0.28920015206E+02  0.00000000000E+00 0. -1.
</event>
<event>
 5    1  0.1258677E-009  0.9118800E+02  0.7561462E-02  0.1125453E+00
         25   -1    0    0    0    0  0.00000000000E+00  0.00000000000E+00  0.99999998245E-14  0.12509000000E+03  0.12509000000E+03 0.  0.
        -13    1    3    3    0    0 -0.35395734230E+01  0.16591426479E+02 -0.32235786835E+02  0.36427477671E+02  0.10566000000E+00 0. -1.
         23    2    1    0    0    0 -0.11814038654E+02 -0.21015464108E+02  0.14479599389E+02  0.96967410513E+02  0.92799777274E+02 0.  0.
         13    1    3    3    0    0 -0.82744652313E+01 -0.37606890586E+02  0.46715386224E+02  0.60539932842E+02  0.10566000000E+00 0.  1.
         22    1    1    0    0    0  0.11814038654E+02  0.21015464108E+02 -0.14479599389E+02  0.28122589487E+02  0.00000000000E+00 0.  1.
</event>
<event>
 5    1  0.1258677E-009  0.9118800E+02  0.7561462E-02  0.1125453E+00
         25   -1    0    0    0    0  0.00000000000E+00  0.00000000000E+00  0.99999998245E-14  0.12509000000E+03  0.12509000000E+03 0.  0.
        -13    1    3    3    0    0  0.20969753085E+02  0.63850234616E+01  0.14827889649E+02  0.26464628177E+02  0.10566000000E+00 0. -1.
         23    2    1    0    0    0 -0.14150544442E+02  0.43893776634E+02  0.67280722215E+01  0.78483471584E+02  0.63146550347E+02 0.  0.
         13    1    3    3    0    0 -0.35120297527E+02  0.37508753173E+02 -0.80998174276E+01  0.52018843407E+02  0.10566000000E+00 0.  1.
         22    1    1    0    0    0  0.14150544442E+02 -0.43893776634E+02 -0.67280722215E+01  0.46606528416E+02  0.00000000000E+00 0.  1.
</event>
<event>
 5    1  0.1258677E-009  0.9118800E+02  0.7561462E-02  0.1125453E+00
         25   -1    0    0    0    0  0.00000000000E+00  0.00000000000E+00  0.99999998245E-14  0.12509000000E+03  0.12509000000E+03 0.  0.
        -13    1    3    3    0    0  0.21791447075E+02 -0.45615193610E+02  0.26320190113E+02  0.56994531538E+02  0.10566000000E+00 0.  1.
         23    2    1    0    0    0  0.22312846642E+02 -0.19212040291E+02 -0.18248105966E+01  0.95589227957E+02  0.90923071606E+02 0.  0.
         13    1    3    3    0    0  0.52139956751E+00  0.26403153318E+02 -0.28145000710E+02  0.38594696418E+02  0.10566000000E+00 0. -1.
         22    1    1    0    0    0 -0.22312846642E+02  0.19212040291E+02  0.18248105966E+01  0.29500772043E+02  0.00000000000E+00 0.  1.
</event>
<event>
 5    1  0.1258677E-009  0.9118800E+02  0.7561462E-02  0.1125453E+00
         25   -1    0    0    0    0  0.00000000000E+00  0.00000000000E+00  0.99999998245E-14  0.12509000000E+03  0.12509000000E+03 0.  0.
        -13    1    3    3    0    0 -0.51747641015E+01 -0.12460984233E+02  0.60864091710E+02  0.62341824927E+02  0.10566000000E+00 0. -1.
         23    2    1    0    0    0 -0.52584067494E+01 -0.36934114807E+01  0.28670063357E+02  0.95708634089E+02  0.91087199849E+02 0.  0.
         13    1    3    3    0    0 -0.83642647946E-01  0.87675727520E+01 -0.32194028353E+02  0.33366809162E+02  0.10566000000E+00 0.  1.
         22    1    1    0    0    0  0.52584067494E+01  0.36934114807E+01 -0.28670063357E+02  0.29381365911E+02  0.00000000000E+00 0. -1.
</event>
<event>
 5    1  0.1258677E-009  0.9118800E+02  0.7561462E-02  0.1125453E+00
         25   -1    0    0    0    0  0.00000000000E+00  0.00000000000E+00  0.99999998245E-14  0.12509000000E+03  0.12509000000E+03 0.  0.
        -13    1    3    3    0    0 -0.33144124856E+02  0.22683390754E+01 -0.28107862319E+02  0.43517139874E+02  0.10566000000E+00 0.  1.
         23    2    1    0    0    0 -0.14928458472E+02  0.16641779018E+02  0.18818988466E+02  0.95867371642E+02  0.91304933807E+02 0.  0.
         13    1    3    3    0    0  0.18215666384E+02  0.14373439943E+02  0.46926850784E+02  0.52350231768E+02  0.10566000000E+00 0. -1.
         22    1    1    0    0    0  0.14928458472E+02 -0.16641779018E+02 -0.18818988466E+02  0.29222628358E+02  0.00000000000E+00 0. -1.
</event>
<event>
 5    1  0.1258677E-009  0.9118800E+02  0.7561462E-02  0.1125453E+00
         25   -1    0    0    0    0  0.00000000000E+00  0.00000000000E+00  0.99999998245E-14  0.12509000000E+03  0.12509000000E+03 0.  0.
        -13    1    3    3    0    0 -0.22424094706E+02 -0.12024478265E+02  0.27820679744E+02  0.37701849907E+02  0.10566000000E+00 0.  1.
         23    2    1    0    0    0  0.15548644550E+02  0.25234340484E+02  0.96551059414E+01  0.93917041242E+02  0.88592647990E+02 0.  0.
         13    1    3    3    0    0  0.37972739255E+02  0.37258818750E+02 -0.18165573803E+02  0.56215191335E+02  0.10566000000E+00 0. -1.
         22    1    1    0    0    0 -0.15548644550E+02 -0.25234340484E+02 -0.96551059414E+01  0.31172958758E+02  0.00000000000E+00 0. -1.
</event>
<event>
 5    1  0.1258677E-009  0.9118800E+02  0.7561462E-02  0.1125453E+00
         25   -1    0    0    0    0  0.00000000000E+00  0.00000000000E+00  0.99999998245E-14  0.12509000000E+03  0.12509000000E+03 0.  0.
        -13    1    3    3    0    0  0.27497826931E+02 -0.62469020732E+01 -0.47131743231E+02  0.54923279722E+02  0.10566000000E+00 0.  1.
         23    2    1    0    0    0  0.23402017544E+02  0.13361304978E+02 -0.11518282700E+02  0.95783861868E+02  0.91190451596E+02 0.  0.
         13    1    3    3    0    0 -0.40958093873E+01  0.19608207051E+02  0.35613460531E+02  0.40860582146E+02  0.10566000000E+00 0. -1.
         22    1    1    0    0    0 -0.23402017544E+02 -0.13361304978E+02  0.11518282700E+02  0.29306138132E+02  0.00000000000E+00 0.  1.
</event>
<event>
 5    1  0.1258677E-009  0.9118800E+02  0.7561462E-02  0.1125453E+00
         25   -1    0    0    0    0  0.00000000000E+00  0.00000000000E+00  0.99999998245E-14  0.12509000000E+03  0.12509000000E+03 0.  0.
        -13    1    3    3    0    0  0.51993917948E+01 -0.55374647501E+02  0.20255667764E+01  0.55655182559E+02  0.10566000000E+00 0.  1.
         23    2    1    0    0    0  0.19370735475E+02 -0.20912537858E+02 -0.10111574938E+02  0.94844279968E+02  0.89892345962E+02 0.  0.
         13    1    3    3    0    0  0.14171343681E+02  0.34462109643E+02 -0.12137141714E+02  0.39189097409E+02  0.10566000000E+00 0. -1.
         22    1    1    0    0    0 -0.19370735475E+02  0.20912537858E+02  0.10111574938E+02  0.30245720032E+02  0.00000000000E+00 0.  1.
</event>
<event>
 5    1  0.1258677E-009  0.9118800E+02  0.7561462E-02  0.1125453E+00
         25   -1    0    0    0    0  0.00000000000E+00  0.00000000000E+00  0.99999998245E-14  0.12509000000E+03  0.12509000000E+03 0.  0.
        -13    1    3    3    0    0 -0.18000520514E+02 -0.16015208021E+02  0.14064868826E+02  0.27898697566E+02  0.10566000000E+00 0.  1.
         23    2    1    0    0    0 -0.19009212647E+02  0.35756831846E+02  0.19828445339E+02  0.80000439859E+02  0.66083295499E+02 0.  0.
         13    1    3    3    0    0 -0.10086921328E+01  0.51772039867E+02  0.57635765127E+01  0.52101742294E+02  0.10566000000E+00 0. -1.
         22    1    1    0    0    0  0.19009212647E+02 -0.35756831846E+02 -0.19828445339E+02  0.45089560141E+02  0.00000000000E+00 0. -1.
</event>
<event>
 5    1  0.1258677E-009  0.9118800E+02  0.7561462E-02  0.1125453E+00
         25   -1    0    0    0    0  0.00000000000E+00  0.00000000000E+00  0.99999998245E-14  0.12509000000E+03  0.12509000000E+03 0.  0.
        -13    1    3    3    0    0 -0.33767159111E+02  0.32472616032E+02 -0.24046975412E+02  0.52658902541E+02  0.10566000000E+00 0. -1.
         23    2    1    0    0    0 -0.63474320193E+01 -0.30994148564E+01 -0.26524855287E+02  0.97640697392E+02  0.93702943249E+02 0.  0.
         13    1    3    3    0    0  0.27419727091E+02 -0.35572030888E+02 -0.24778798746E+01  0.44981794850E+02  0.10566000000E+00 0.  1.
         22    1    1    0    0    0  0.63474320193E+01  0.30994148564E+01  0.26524855287E+02  0.27449302608E+02  0.00000000000E+00 0. -1.
</event>
<event>
 5    1  0.1258677E-009  0.9118800E+02  0.7561462E-02  0.1125453E+00
         25   -1    0    0    0    0  0.00000000000E+00  0.00000000000E+00  0.99999998245E-14  0.12509000000E+03  0.12509000000E+03 0.  0.
        -13    1    3    3    0    0 -0.32420919424E+02 -0.47960671228E+02 -0.38397003849E+01  0.58018070150E+02  0.10566000000E+00 0. -1.
         23    2    1    0    0    0 -0.24582154719E+02 -0.12288644260E+02 -0.11436044963E+02  0.95322967350E+02  0.90556015105E+02 0.  0.
         13    1    3    3    0    0  0.78387647050E+01  0.35672026968E+02 -0.75963445783E+01  0.37304897200E+02  0.10566000000E+00 0.  1.
         22    1    1    0    0    0  0.24582154719E+02  0.12288644260E+02  0.11436044963E+02  0.29767032650E+02  0.00000000000E+00 0. -1.
</event>
<event>
 5    1  0.1258677E-009  0.9118800E+02  0.7561462E-02  0.1125453E+00
         25   -1    0    0    0    0  0.00000000000E+00  0.00000000000E+00  0.99999998245E-14  0.12509000000E+03  0.12509000000E+03 0.  0.
        -13    1    3    3    0    0  0.40613810978E+02 -0.24042349425E+02  0.13658725299E+02  0.49133371031E+02  0.10566000000E+00 0.  1.
         23    2    1    0    0    0  0.12832503924E+02 -0.83598671879E+01  0.34570732081E+02  0.87278678244E+02  0.78663025768E+02 0.  0.
         13    1    3    3    0    0 -0.27781307053E+02  0.15682482237E+02  0.20912006781E+02  0.38145307213E+02  0.10566000000E+00 0. -1.
         22    1    1    0    0    0 -0.12832503924E+02  0.83598671879E+01 -0.34570732081E+02  0.37811321756E+02  0.00000000000E+00 0. -1.
</event>
<event>
 5    1  0.1258677E-009  0.9118800E+02  0.7561462E-02  0.1125453E+00
         25   -1    0    0    0    0  0.00000000000E+00  0.00000000000E+00  0.99999998245E-14  0.12509000000E+03  0.12509000000E+03 0.  0.
        -13    1    3    3    0    0 -0.36228944089E+02  0.57897248888E+00 -0.25371077359E+02  0.44233181316E+02  0.10566000000E+00 0.  1.
         23    2    1    0    0    0 -0.38636870062E+01  0.28491217912E+02  0.39568978450E+01  0.96066998503E+02  0.91578019117E+02 0.  0.
         13    1    3    3    0    0  0.32365257082E+02  0.27912245423E+02  0.29327975204E+02  0.51833817187E+02  0.10566000000E+00 0. -1.
         22    1    1    0    0    0  0.38636870062E+01 -0.28491217912E+02 -0.39568978450E+01  0.29023001497E+02  0.00000000000E+00 0.  1.
</event>
<event>
 5    1  0.1258677E-009  0.9118800E+02  0.7561462E-02  0.1125453E+00
         25   -1    0    0    0    0  0.00000000000E+00  0.00000000000E+00  0.99999998245E-14  0.12509000000E+03  0.12509000000E+03 0.  0.
        -13    1    3    3    0    0 -0.53670260043E+01  0.45741805945E+02 -0.35752740273E+02  0.58304265542E+02  0.10566000000E+00 0.  1.
         23    2    1    0    0    0  0.10197378627E+02  0.12913069184E+02 -0.23002821494E+02  0.96808138617E+02  0.92584836875E+02 0.  0.
         13    1    3    3    0    0  0.15564404631E+02 -0.32828736762E+02  0.12749918779E+02  0.38503873075E+02  0.10566000000E+00 0. -1.
         22    1    1    0    0    0 -0.10197378627E+02 -0.12913069184E+02  0.23002821494E+02  0.28281861383E+02  0.00000000000E+00 0.  1.
</event>
<event>
 5    1  0.1258677E-009  0.9118800E+02  0.7561462E-02  0.1125453E+00
         25   -1    0    0    0    0  0.00000000000E+00  0.00000000000E+00  0.99999998245E-14  0.12509000000E+03  0.12509000000E+03 0.  0.
        -13    1    3    3    0    0  0.16259303458E+02 -0.36373239935E+02  0.10111562132E+02  0.41105138184E+02  0.10566000000E+00 0. -1.
         23    2    1    0    0    0  0.11992847400E+02 -0.94364745511E+00 -0.28785424895E+02  0.93891930418E+02  0.88557185208E+02 0.  0.
         13    1    3    3    0    0 -0.42664560575E+01  0.35429592480E+02 -0.38896987026E+02  0.52786792234E+02  0.10566000000E+00 0.  1.
         22    1    1    0    0    0 -0.11992847400E+02  0.94364745511E+00  0.28785424895E+02  0.31198069582E+02  0.00000000000E+00 0. -1.
</event>
<event>
 5    1  0.1258677E-009  0.9118800E+02  0.7561462E-02  0.1125453E+00
         25   -1    0    0    0    0  0.00000000000E+00  0.00000000000E+00  0.99999998245E-14  0.12509000000E+03  0.12509000000E+03 0.  0.
        -13    1    3    3    0    0  0.23587083560E+02  0.18924238733E+02  0.45367031034E+02  0.54522068847E+02  0.10566000000E+00 0.  1.
         23    2    1    0    0    0  0.24407314026E+02 -0.84343387510E+01  0.15785816524E+02  0.94823730797E+02  0.89863746143E+02 0.  0.
         13    1    3    3    0    0  0.82023046608E+00 -0.27358577484E+02 -0.29581214510E+02  0.40301661950E+02  0.10566000000E+00 0. -1.
         22    1    1    0    0    0 -0.24407314026E+02  0.84343387510E+01 -0.15785816524E+02  0.30266269203E+02  0.00000000000E+00 0. -1.
</event>
<event>
 5    1  0.1258677E-009  0.9118800E+02  0.7561462E-02  0.1125453E+00
         25   -1    0    0    0    0  0.00000000000E+00  0.00000000000E+00  0.99999998245E-14  0.12509000000E+03  0.12509000000E+03 0.  0.
        -13    1    3    3    0    0 -0.82300389291E+01  0.25330927835E+02 -0.16151902634E+02  0.31149391142E+02  0.10566000000E+00 0.  1.
         23    2    1    0    0    0  0.27561483714E+02 -0.19390153084E+02 -0.14364163313E+02  0.88457465160E+02  0.80515716066E+02 0.  0.
         13    1    3    3    0    0  0.35791522643E+02 -0.44721080920E+02  0.17877393210E+01  0.57308074018E+02  0.10566000000E+00 0. -1.
         22    1    1    0    0    0 -0.27561483714E+02  0.19390153084E+02  0.14364163313E+02  0.36632534840E+02  0.00000000000E+00 0. -1.
</event>
<event>
 5    1  0.1258677E-009  0.9118800E+02  0.7561462E-02  0.1125453E+00
         25   -1    0    0    0    0  0.00000000000E+00  0.00000000000E+00  0.99999998245E-14  0.12509000000E+03  0.12509000000E+03 0.  0.
        -13    1    3    3    0    0  0.32151411393E+02 -0.35468818079E+02 -0.33288972224E+01  0.47987946729E+02  0.10566000000E+00 0. -1.
         23    2    1    0    0    0 -0.11168267048E+02 -0.24593213795E+02  0.12438209349E+02  0.95353399565E+02  0.90598043043E+02 0.  0.
         13    1    3    3    0    0 -0.43319678441E+02  0.10875604285E+02  0.15767106571E+02  0.47365452837E+02  0.10566000000E+00 0.  1.
         22    1    1    0    0    0  0.11168267048E+02  0.24593213795E+02 -0.12438209349E+02  0.29736600435E+02  0.00000000000E+00 0. -1.
</event>
<event>
 5    1  0.1258677E-009  0.9118800E+02  0.7561462E-02  0.1125453E+00
         25   -1    0    0    0    0  0.00000000000E+00  0.00000000000E+00  0.99999998245E-14  0.12509000000E+03  0.12509000000E+03 0.  0.
        -13    1    3    3    0    0  0.38508827371E+02  0.16734099608E+02  0.50285991513E+01  0.42287797869E+02  0.10566000000E+00 0.  1.
         23    2    1    0    0    0  0.66757134069E+01 -0.26221427729E+02  0.10572937220E+02  0.96039777573E+02  0.91540829432E+02 0.  0.
         13    1    3    3    0    0 -0.31833113964E+02 -0.42955527336E+02  0.55443380688E+01  0.53751979704E+02  0.10566000000E+00 0. -1.
         22    1    1    0    0    0 -0.66757134069E+01  0.26221427729E+02 -0.10572937220E+02  0.29050222427E+02  0.00000000000E+00 0. -1.
</event>
<event>
 5    1  0.1258677E-009  0.9118800E+02  0.7561462E-02  0.1125453E+00
         25   -1    0    0    0    0  0.00000000000E+00  0.00000000000E+00  0.99999998245E-14  0.12509000000E+03  0.12509000000E+03 0.  0.
        -13    1    3    3    0    0  0.13816413439E+02  0.22937424513E+02 -0.31845571320E+02  0.41607334694E+02  0.10566000000E+00 0.  1.
         23    2    1    0    0    0 -0.19876239441E+02  0.18220883826E+02  0.10697924786E+02  0.96081189331E+02  0.91597400873E+02 0.  0.
         13    1    3    3    0    0 -0.33692652880E+02 -0.47165406865E+01  0.42543496105E+02  0.54473854637E+02  0.10566000000E+00 0. -1.
         22    1    1    0    0    0  0.19876239441E+02 -0.18220883826E+02 -0.10697924786E+02  0.29008810669E+02  0.00000000000E+00 0. -1.
</event>
<event>
 5    1  0.1258677E-009  0.9118800E+02  0.7561462E-02  0.1125453E+00
         25   -1    0    0    0    0  0.00000000000E+00  0.00000000000E+00  0.99999998245E-14  0.12509000000E+03  0.12509000000E+03 0.  0.
        -13    1    3    3    0    0 -0.21216388843E+02  0.35413012605E+02  0.15715307912E+02  0.44172374671E+02  0.10566000000E+00 0.  1.
         23    2    1    0    0    0  0.24830846604E+02  0.13390586285E+02  0.34449279109E+01  0.96669122596E+02  0.92396823490E+02 0.  0.
         13    1    3    3    0    0  0.46047235447E+02 -0.22022426320E+02 -0.12270380001E+02  0.52496747925E+02  0.10566000000E+00 0. -1.
         22    1    1    0    0    0 -0.24830846604E+02 -0.13390586285E+02 -0.34449279109E+01  0.28420877404E+02  0.00000000000E+00 0. -1.
</event>
<event>
 5    1  0.1258677E-009  0.9118800E+02  0.7561462E-02  0.1125453E+00
         25   -1    0    0    0    0  0.00000000000E+00  0.00000000000E+00  0.99999998245E-14  0.12509000000E+03  0.12509000000E+03 0.  0.
        -13    1    3    3    0    0  0.35307822515E+02 -0.33813125060E+02 -0.94937490163E+01  0.49800724809E+02  0.10566000000E+00 0. -1.
         23    2    1    0    0    0  0.10530888440E+02  0.33312065387E+01 -0.25553991303E+02  0.97251123948E+02  0.93181425666E+02 0.  0.
         13    1    3    3    0    0 -0.24776934075E+02  0.37144331598E+02 -0.16060242287E+02  0.47450399139E+02  0.10566000000E+00 0.  1.
         22    1    1    0    0    0 -0.10530888440E+02 -0.33312065387E+01  0.25553991303E+02  0.27838876052E+02  0.00000000000E+00 0.  1.
</event>
<event>
 5    1  0.1258677E-009  0.9118800E+02  0.7561462E-02  0.1125453E+00
         25   -1    0    0    0    0  0.00000000000E+00  0.00000000000E+00  0.99999998245E-14  0.12509000000E+03  0.12509000000E+03 0.  0.
        -13    1    3    3    0    0 -0.10552399763E+02  0.29085393958E+01  0.22798539439E+02  0.25290261105E+02  0.10566000000E+00 0.  1.
         23    2    1    0    0    0  0.38214456083E+02 -0.87507428355E+01 -0.92645176741E+01  0.84806610848E+02  0.74628478491E+02 0.  0.
         13    1    3    3    0    0  0.48766855846E+02 -0.11659282231E+02 -0.32063057113E+02  0.59516349743E+02  0.10566000000E+00 0. -1.
         22    1    1    0    0    0 -0.38214456083E+02  0.87507428355E+01  0.92645176741E+01  0.40283389152E+02  0.00000000000E+00 0. -1.
</event>
<event>
 5    1  0.1258677E-009  0.9118800E+02  0.7561462E-02  0.1125453E+00
         25   -1    0    0    0    0  0.00000000000E+00  0.00000000000E+00  0.99999998245E-14  0.12509000000E+03  0.12509000000E+03 0.  0.
        -13    1    3    3    0    0  0.71507390710E+01  0.14519274150E+02 -0.36650328886E+02  0.40064949302E+02  0.10566000000E+00 0. -1.
         23    2    1    0    0    0 -0.23779038412E+02  0.13714222222E+02  0.98565329270E+01  0.95923687235E+02  0.91382054981E+02 0.  0.
         13    1    3    3    0    0 -0.30929777483E+02 -0.80505192838E+00  0.46506861813E+02  0.55858737933E+02  0.10566000000E+00 0.  1.
         22    1    1    0    0    0  0.23779038412E+02 -0.13714222222E+02 -0.98565329270E+01  0.29166312765E+02  0.00000000000E+00 0.  1.
</event>
<event>
 5    1  0.1258677E-009  0.9118800E+02  0.7561462E-02  0.1125453E+00
         25   -1    0    0    0    0  0.00000000000E+00  0.00000000000E+00  0.99999998245E-14  0.12509000000E+03  0.12509000000E+03 0.  0.
        -13    1    3    3    0    0  0.38649242339E+02 -0.48734995316E+02  0.26821849502E+01  0.62258083668E+02  0.10566000000E+00 0. -1.
         23    2    1    0    0    0  0.26075591279E+02 -0.26839607162E+02  0.33822464494E+01  0.87516863796E+02  0.79040881096E+02 0.  0.
         13    1    3    3    0    0 -0.12573651060E+02  0.21895388154E+02  0.70006149923E+00  0.25258780128E+02  0.10566000000E+00 0.  1.
         22    1    1    0    0    0 -0.26075591279E+02  0.26839607162E+02 -0.33822464494E+01  0.37573136204E+02  0.00000000000E+00 0. -1.
</event>
<event>
 5    1  0.1258677E-009  0.9118800E+02  0.7561462E-02  0.1125453E+00
         25   -1    0    0    0    0  0.00000000000E+00  0.00000000000E+00  0.99999998245E-14  0.12509000000E+03  0.12509000000E+03 0.  0.
        -13    1    3    3    0    0  0.71923233817E+01 -0.22838086966E+02  0.50249551271E+02  0.55662701146E+02  0.10566000000E+00 0.  1.
         23    2    1    0    0    0  0.21937292601E+02 -0.20183486852E+01  0.19046052933E+02  0.95968347052E+02  0.91443167954E+02 0.  0.
         13    1    3    3    0    0  0.14744969220E+02  0.20819738281E+02 -0.31203498338E+02  0.40305645907E+02  0.10566000000E+00 0. -1.
         22    1    1    0    0    0 -0.21937292601E+02  0.20183486852E+01 -0.19046052933E+02  0.29121652948E+02  0.00000000000E+00 0.  1.
</event>
<event>
 5    1  0.1258677E-009  0.9118800E+02  0.7561462E-02  0.1125453E+00
         25   -1    0    0    0    0  0.00000000000E+00  0.00000000000E+00  0.99999998245E-14  0.12509000000E+03  0.12509000000E+03 0.  0.
        -13    1    3    3    0    0 -0.10312103925E+02 -0.50647013005E+02  0.15364760298E+02  0.53921669454E+02  0.10566000000E+00 0. -1.
         23    2    1    0    0    0 -0.23912859958E+02 -0.19198530246E+02 -0.53504881396E+01  0.93960654387E+02  0.88654206975E+02 0.  0.
         13    1    3    3    0    0 -0.13600756033E+02  0.31448482759E+02 -0.20715248438E+02  0.40038984932E+02  0.10566000000E+00 0.  1.
         22    1    1    0    0    0  0.23912859958E+02  0.19198530246E+02  0.53504881396E+01  0.31129345613E+02  0.00000000000E+00 0. -1.
</event>
<event>
 5    1  0.1258677E-009  0.9118800E+02  0.7561462E-02  0.1125453E+00
         25   -1    0    0    0    0  0.00000000000E+00  0.00000000000E+00  0.99999998245E-14  0.12509000000E+03  0.12509000000E+03 0.  0.
        -13    1    3    3    0    0 -0.12899367841E+02 -0.37030544202E+01 -0.35978766747E+02  0.38400379209E+02  0.10566000000E+00 0.  1.
         23    2    1    0    0    0  0.12752776239E+02  0.24176215866E+02  0.81561195195E+01  0.96565536798E+02  0.92256478884E+02 0.  0.
         13    1    3    3    0    0  0.25652144080E+02  0.27879270286E+02  0.44134886266E+02  0.58165157589E+02  0.10566000000E+00 0. -1.
         22    1    1    0    0    0 -0.12752776239E+02 -0.24176215866E+02 -0.81561195195E+01  0.28524463202E+02  0.00000000000E+00 0. -1.
</event>
<event>
 5    1  0.1258677E-009  0.9118800E+02  0.7561462E-02  0.1125453E+00
         25   -1    0    0    0    0  0.00000000000E+00  0.00000000000E+00  0.99999998245E-14  0.12509000000E+03  0.12509000000E+03 0.  0.
        -13    1    3    3    0    0  0.52297049097E+01 -0.21950315424E+02 -0.39636830417E+02  0.45609819669E+02  0.10566000000E+00 0.  1.
         23    2    1    0    0    0  0.22146197435E+02  0.14760281338E+02 -0.69766518681E+01  0.97576482644E+02  0.93617179662E+02 0.  0.
         13    1    3    3    0    0  0.16916492525E+02  0.36710596761E+02  0.32660178549E+02  0.51966662976E+02  0.10566000000E+00 0. -1.
         22    1    1    0    0    0 -0.22146197435E+02 -0.14760281338E+02  0.69766518681E+01  0.27513517356E+02  0.00000000000E+00 0.  1.
</event>
<event>
 5    1  0.1258677E-009  0.9118800E+02  0.7561462E-02  0.1125453E+00
         25   -1    0    0    0    0  0.00000000000E+00  0.00000000000E+00  0.99999998245E-14  0.12509000000E+03  0.12509000000E+03 0.  0.
        -13    1    3    3    0    0 -0.35067465529E+02 -0.37686251858E+02  0.19341222681E+02  0.54991588235E+02  0.10566000000E+00 0.  1.
         23    2    1    0    0    0 -0.20357308508E+02 -0.15100033913E+02 -0.12598850959E+02  0.96785193353E+02  0.92553830677E+02 0.  0.
         13    1    3    3    0    0  0.14710157022E+02  0.22586217945E+02 -0.31940073639E+02  0.41793605118E+02  0.10566000000E+00 0. -1.
         22    1    1    0    0    0  0.20357308508E+02  0.15100033913E+02  0.12598850959E+02  0.28304806647E+02  0.00000000000E+00 0.  1.
</event>
<event>
 5    1  0.1258677E-009  0.9118800E+02  0.7561462E-02  0.1125453E+00
         25   -1    0    0    0    0  0.00000000000E+00  0.00000000000E+00  0.99999998245E-14  0.12509000000E+03  0.12509000000E+03 0.  0.
        -13    1    3    3    0    0 -0.28480592183E+02 -0.10327603557E+02  0.33286742421E+02  0.45009131422E+02  0.10566000000E+00 0. -1.
         23    2    1    0    0    0 -0.26442854389E+02  0.12844575295E+02 -0.99067682129E+01  0.94068205739E+02  0.88805830957E+02 0.  0.
         13    1    3    3    0    0  0.20377377941E+01  0.23172178851E+02 -0.43193510634E+02  0.49059074318E+02  0.10566000000E+00 0.  1.
         22    1    1    0    0    0  0.26442854389E+02 -0.12844575295E+02  0.99067682129E+01  0.31021794261E+02  0.00000000000E+00 0.  1.
</event>
<event>
 5    1  0.1258677E-009  0.9118800E+02  0.7561462E-02  0.1125453E+00
         25   -1    0    0    0    0  0.00000000000E+00  0.00000000000E+00  0.99999998245E-14  0.12509000000E+03  0.12509000000E+03 0.  0.
        -13    1    3    3    0    0 -0.94671939659E+01 -0.62153674279E+01  0.50158903648E+02  0.51421642652E+02  0.10566000000E+00 0.  1.
         23    2    1    0    0    0 -0.21547228587E+02  0.15075385330E+02  0.13426828036E+02  0.95563232250E+02  0.90887300237E+02 0.  0.
         13    1    3    3    0    0 -0.12080034621E+02  0.21290752758E+02 -0.36732075612E+02  0.44141589598E+02  0.10566000000E+00 0. -1.
         22    1    1    0    0    0  0.21547228587E+02 -0.15075385330E+02 -0.13426828036E+02  0.29526767750E+02  0.00000000000E+00 0. -1.
</event>
<event>
 5    1  0.1258677E-009  0.9118800E+02  0.7561462E-02  0.1125453E+00
         25   -1    0    0    0    0  0.00000000000E+00  0.00000000000E+00  0.99999998245E-14  0.12509000000E+03  0.12509000000E+03 0.  0.
        -13    1    3    3    0    0 -0.38032225773E+02 -0.14539062738E+01  0.18486216524E+01  0.38105020755E+02  0.10566000000E+00 0.  1.
         23    2    1    0    0    0  0.14037262485E+02  0.11133405417E+02  0.23203889629E+02  0.95774168984E+02  0.91177154466E+02 0.  0.
         13    1    3    3    0    0  0.52069488258E+02  0.12587311691E+02  0.21355267976E+02  0.57669148229E+02  0.10566000000E+00 0. -1.
         22    1    1    0    0    0 -0.14037262485E+02 -0.11133405417E+02 -0.23203889629E+02  0.29315831016E+02  0.00000000000E+00 0. -1.
</event>
<event>
 5    1  0.1258677E-009  0.9118800E+02  0.7561462E-02  0.1125453E+00
         25   -1    0    0    0    0  0.00000000000E+00  0.00000000000E+00  0.99999998245E-14  0.12509000000E+03  0.12509000000E+03 0.  0.
        -13    1    3    3    0    0 -0.21988220455E+02  0.31973644284E+02 -0.46535355415E+02  0.60591635027E+02  0.10566000000E+00 0.  1.
         23    2    1    0    0    0 -0.13810342128E+02  0.53056626227E+01 -0.25803332232E+02  0.95346302183E+02  0.90588243056E+02 0.  0.
         13    1    3    3    0    0  0.81778783270E+01 -0.26667981661E+02  0.20732023183E+02  0.34754667156E+02  0.10566000000E+00 0. -1.
         22    1    1    0    0    0  0.13810342128E+02 -0.53056626227E+01  0.25803332232E+02  0.29743697817E+02  0.00000000000E+00 0.  1.
</event>
<event>
 5    1  0.1258677E-009  0.9118800E+02  0.7561462E-02  0.1125453E+00
         25   -1    0    0    0    0  0.00000000000E+00  0.00000000000E+00  0.99999998245E-14  0.12509000000E+03  0.12509000000E+03 0.  0.
        -13    1    3    3    0    0 -0.40890551018E+02  0.33002711334E+02  0.16453688190E+02  0.55063155894E+02  0.10566000000E+00 0.  1.
         23    2    1    0    0    0 -0.32215562449E+01  0.28608294890E+02  0.26180257348E+00  0.96299697784E+02  0.91895322468E+02 0.  0.
         13    1    3    3    0    0  0.37668994773E+02 -0.43944164447E+01 -0.16191885617E+02  0.41236541889E+02  0.10566000000E+00 0. -1.
         22    1    1    0    0    0  0.32215562449E+01 -0.28608294890E+02 -0.26180257348E+00  0.28790302216E+02  0.00000000000E+00 0.  1.
</event>
<event>
 5    1  0.1258677E-009  0.9118800E+02  0.7561462E-02  0.1125453E+00
         25   -1    0    0    0    0  0.00000000000E+00  0.00000000000E+00  0.99999998245E-14  0.12509000000E+03  0.12509000000E+03 0.  0.
        -13    1    3    3    0    0  0.49343421248E+02  0.24975347359E+02  0.12557661492E+02  0.56711967188E+02  0.10566000000E+00 0.  1.
         23    2    1    0    0    0  0.11319404499E+02  0.16409975788E+02  0.20505720408E+02  0.96491035106E+02  0.92155407127E+02 0.  0.
         13    1    3    3    0    0 -0.38024016749E+02 -0.85653715715E+01  0.79480589161E+01  0.39779067918E+02  0.10566000000E+00 0. -1.
         22    1    1    0    0    0 -0.11319404499E+02 -0.16409975788E+02 -0.20505720408E+02  0.28598964894E+02  0.00000000000E+00 0.  1.
</event>
<event>
 5    1  0.1258677E-009  0.9118800E+02  0.7561462E-02  0.1125453E+00
         25   -1    0    0    0    0  0.00000000000E+00  0.00000000000E+00  0.99999998245E-14  0.12509000000E+03  0.12509000000E+03 0.  0.
        -13    1    3    3    0    0 -0.92754274899E+01 -0.26826419128E+02  0.47259213584E+02  0.55128347980E+02  0.10566000000E+00 0.  1.
         23    2    1    0    0    0  0.17143782361E+02 -0.14288460167E+02  0.21554409445E+02  0.94063206190E+02  0.88798788419E+02 0.  0.
         13    1    3    3    0    0  0.26419209851E+02  0.12537958961E+02 -0.25704804139E+02  0.38934858211E+02  0.10566000000E+00 0. -1.
         22    1    1    0    0    0 -0.17143782361E+02  0.14288460167E+02 -0.21554409445E+02  0.31026793810E+02  0.00000000000E+00 0.  1.
</event>
<event>
 5    1  0.1258677E-009  0.9118800E+02  0.7561462E-02  0.1125453E+00
         25   -1    0    0    0    0  0.00000000000E+00  0.00000000000E+00  0.99999998245E-14  0.12509000000E+03  0.12509000000E+03 0.  0.
        -13    1    3    3    0    0 -0.35951296403E+02 -0.15366653009E+02  0.82382872969E+01  0.39956354681E+02  0.10566000000E+00 0.  1.
         23    2    1    0    0    0 -0.60989601062E+01  0.93655451174E+01 -0.29184407929E+02  0.93838753371E+02  0.88482038958E+02 0.  0.
         13    1    3    3    0    0  0.29852336297E+02  0.24732198126E+02 -0.37422695226E+02  0.53882398690E+02  0.10566000000E+00 0. -1.
         22    1    1    0    0    0  0.60989601062E+01 -0.93655451174E+01  0.29184407929E+02  0.31251246629E+02  0.00000000000E+00 0. -1.
</event>
<event>
 5    1  0.1258677E-009  0.9118800E+02  0.7561462E-02  0.1125453E+00
         25   -1    0    0    0    0  0.00000000000E+00  0.00000000000E+00  0.99999998245E-14  0.12509000000E+03  0.12509000000E+03 0.  0.
        -13    1    3    3    0    0 -0.33055082796E+02  0.21165417599E+02  0.16033692057E+02  0.42399337799E+02  0.10566000000E+00 0.  1.
         23    2    1    0    0    0 -0.13586679156E+01 -0.18570367626E+02  0.24901998252E+02  0.93996366420E+02  0.88704581906E+02 0.  0.
         13    1    3    3    0    0  0.31696414881E+02 -0.39735785225E+02  0.88683061948E+01  0.51597028621E+02  0.10566000000E+00 0. -1.
         22    1    1    0    0    0  0.13586679156E+01  0.18570367626E+02 -0.24901998252E+02  0.31093633580E+02  0.00000000000E+00 0. -1.
</event>
<event>
 5    1  0.1258677E-009  0.9118800E+02  0.7561462E-02  0.1125453E+00
         25   -1    0    0    0    0  0.00000000000E+00  0.00000000000E+00  0.99999998245E-14  0.12509000000E+03  0.12509000000E+03 0.  0.
        -13    1    3    3    0    0  0.48110140193E+02  0.30088006471E+02  0.15115290418E+02  0.58722711886E+02  0.10566000000E+00 0.  1.
         23    2    1    0    0    0  0.22392770805E+02  0.23496882940E+01  0.17424973591E+02  0.96619191721E+02  0.92329200608E+02 0.  0.
         13    1    3    3    0    0 -0.25717369388E+02 -0.27738318177E+02  0.23096831729E+01  0.37896479835E+02  0.10566000000E+00 0. -1.
         22    1    1    0    0    0 -0.22392770805E+02 -0.23496882940E+01 -0.17424973591E+02  0.28470808279E+02  0.00000000000E+00 0.  1.
</event>
<event>
 5    1  0.1258677E-009  0.9118800E+02  0.7561462E-02  0.1125453E+00
         25   -1    0    0    0    0  0.00000000000E+00  0.00000000000E+00  0.99999998245E-14  0.12509000000E+03  0.12509000000E+03 0.  0.
        -13    1    3    3    0    0  0.21139073319E+02 -0.43368965318E+02 -0.17514354516E+02  0.51327296361E+02  0.10566000000E+00 0.  1.
         23    2    1    0    0    0  0.33202572580E+01 -0.26090876947E+02  0.16950783365E+02  0.93799633674E+02  0.88426716849E+02 0.  0.
         13    1    3    3    0    0 -0.17818816061E+02  0.17278088372E+02  0.34465137882E+02  0.42472337313E+02  0.10566000000E+00 0. -1.
         22    1    1    0    0    0 -0.33202572580E+01  0.26090876947E+02 -0.16950783365E+02  0.31290366326E+02  0.00000000000E+00 0.  1.
</event>
<event>
 5    1  0.1258677E-009  0.9118800E+02  0.7561462E-02  0.1125453E+00
         25   -1    0    0    0    0  0.00000000000E+00  0.00000000000E+00  0.99999998245E-14  0.12509000000E+03  0.12509000000E+03 0.  0.
        -13    1    3    3    0    0  0.25143320187E+02  0.25877710919E+02 -0.32647860432E+02  0.48659391974E+02  0.10566000000E+00 0. -1.
         23    2    1    0    0    0 -0.16409665853E+02  0.52130340870E+01 -0.23495457467E+02  0.95961158976E+02  0.91433334472E+02 0.  0.
         13    1    3    3    0    0 -0.41552986040E+02 -0.20664676832E+02  0.91524029648E+01  0.47301767002E+02  0.10566000000E+00 0.  1.
         22    1    1    0    0    0  0.16409665853E+02 -0.52130340870E+01  0.23495457467E+02  0.29128841024E+02  0.00000000000E+00 0. -1.
</event>
<event>
 5    1  0.1258677E-009  0.9118800E+02  0.7561462E-02  0.1125453E+00
         25   -1    0    0    0    0  0.00000000000E+00  0.00000000000E+00  0.99999998245E-14  0.12509000000E+03  0.12509000000E+03 0.  0.
        -13    1    3    3    0    0  0.39722451220E+02 -0.33397720620E+02 -0.13282780709E+02  0.53569807736E+02  0.10566000000E+00 0.  1.
         23    2    1    0    0    0  0.17804620955E+02 -0.11246912628E+01 -0.25066813769E+02  0.94322897271E+02  0.89163862294E+02 0.  0.
         13    1    3    3    0    0 -0.21917830265E+02  0.32273029357E+02 -0.11784033060E+02  0.40753089534E+02  0.10566000000E+00 0. -1.
         22    1    1    0    0    0 -0.17804620955E+02  0.11246912628E+01  0.25066813769E+02  0.30767102729E+02  0.00000000000E+00 0.  1.
</event>
<event>
 5    1  0.1258677E-009  0.9118800E+02  0.7561462E-02  0.1125453E+00
         25   -1    0    0    0    0  0.00000000000E+00  0.00000000000E+00  0.99999998245E-14  0.12509000000E+03  0.12509000000E+03 0.  0.
        -13    1    3    3    0    0 -0.12139878994E+02  0.26452533083E+02 -0.20279537752E+02  0.35473708348E+02  0.10566000000E+00 0.  1.
         23    2    1    0    0    0  0.22080118637E+02 -0.18231016413E+02  0.28328113000E+01  0.96316289458E+02  0.91917904657E+02 0.  0.
         13    1    3    3    0    0  0.34219997631E+02 -0.44683549496E+02  0.23112349052E+02  0.60842581110E+02  0.10566000000E+00 0. -1.
         22    1    1    0    0    0 -0.22080118637E+02  0.18231016413E+02 -0.28328113000E+01  0.28773710542E+02  0.00000000000E+00 0. -1.
</event>
<event>
 5    1  0.1258677E-009  0.9118800E+02  0.7561462E-02  0.1125453E+00
         25   -1    0    0    0    0  0.00000000000E+00  0.00000000000E+00  0.99999998245E-14  0.12509000000E+03  0.12509000000E+03 0.  0.
        -13    1    3    3    0    0 -0.29200772220E+02 -0.74568389359E+01 -0.24013843676E+02  0.38535248764E+02  0.10566000000E+00 0.  1.
         23    2    1    0    0    0  0.17648274452E+02  0.16415373970E+02  0.75136843229E+01  0.99843583506E+02  0.96598962838E+02 0.  0.
         13    1    3    3    0    0  0.46849046671E+02  0.23872212906E+02  0.31527527999E+02  0.61308334742E+02  0.10566000000E+00 0. -1.
         22    1    1    0    0    0 -0.17648274452E+02 -0.16415373970E+02 -0.75136843229E+01  0.25246416494E+02  0.00000000000E+00 0. -1.
</event>
<event>
 5    1  0.1258677E-009  0.9118800E+02  0.7561462E-02  0.1125453E+00
         25   -1    0    0    0    0  0.00000000000E+00  0.00000000000E+00  0.99999998245E-14  0.12509000000E+03  0.12509000000E+03 0.  0.
        -13    1    3    3    0    0 -0.31870235596E+02 -0.51389180207E+00 -0.44927852230E+02  0.55086287511E+02  0.10566000000E+00 0. -1.
         23    2    1    0    0    0 -0.51027301710E+01 -0.19957106182E+02 -0.17008442715E+02  0.98376500305E+02  0.94680118010E+02 0.  0.
         13    1    3    3    0    0  0.26767505425E+02 -0.19443214380E+02  0.27919409515E+02  0.43290212794E+02  0.10566000000E+00 0.  1.
         22    1    1    0    0    0  0.51027301710E+01  0.19957106182E+02  0.17008442715E+02  0.26713499695E+02  0.00000000000E+00 0. -1.
</event>
<event>
 5    1  0.1258677E-009  0.9118800E+02  0.7561462E-02  0.1125453E+00
         25   -1    0    0    0    0  0.00000000000E+00  0.00000000000E+00  0.99999998245E-14  0.12509000000E+03  0.12509000000E+03 0.  0.
        -13    1    3    3    0    0 -0.39191484499E+02 -0.23040547865E+01  0.18080114119E+02  0.43222480451E+02  0.10566000000E+00 0.  1.
         23    2    1    0    0    0 -0.43391943379E+01 -0.27993596804E+02 -0.10250195895E+02  0.94964652111E+02  0.90059694454E+02 0.  0.
         13    1    3    3    0    0  0.34852290161E+02 -0.25689542018E+02 -0.28330310014E+02  0.51742171660E+02  0.10566000000E+00 0. -1.
         22    1    1    0    0    0  0.43391943379E+01  0.27993596804E+02  0.10250195895E+02  0.30125347889E+02  0.00000000000E+00 0. -1.
</event>
<event>
 5    1  0.1258677E-009  0.9118800E+02  0.7561462E-02  0.1125453E+00
         25   -1    0    0    0    0  0.00000000000E+00  0.00000000000E+00  0.99999998245E-14  0.12509000000E+03  0.12509000000E+03 0.  0.
        -13    1    3    3    0    0 -0.20678688654E+02  0.44428939423E+02  0.19044506121E+02  0.52576070604E+02  0.10566000000E+00 0.  1.
         23    2    1    0    0    0 -0.46581188341E+01  0.57509271871E+01  0.28625593314E+02  0.95523197211E+02  0.90832182503E+02 0.  0.
         13    1    3    3    0    0  0.16020569820E+02 -0.38678012236E+02  0.95810871932E+01  0.42947126607E+02  0.10566000000E+00 0. -1.
         22    1    1    0    0    0  0.46581188341E+01 -0.57509271871E+01 -0.28625593314E+02  0.29566802789E+02  0.00000000000E+00 0.  1.
</event>
<event>
 5    1  0.1258677E-009  0.9118800E+02  0.7561462E-02  0.1125453E+00
         25   -1    0    0    0    0  0.00000000000E+00  0.00000000000E+00  0.99999998245E-14  0.12509000000E+03  0.12509000000E+03 0.  0.
        -13    1    3    3    0    0 -0.57637613617E+02  0.39795258155E+01 -0.12941735320E+02  0.59206678731E+02  0.10566000000E+00 0. -1.
         23    2    1    0    0    0 -0.22520631786E+02  0.14645940497E+02 -0.11303840766E+02  0.95944515871E+02  0.91410562194E+02 0.  0.
         13    1    3    3    0    0  0.35116981832E+02  0.10666414681E+02  0.16378945540E+01  0.36737837140E+02  0.10566000000E+00 0.  1.
         22    1    1    0    0    0  0.22520631786E+02 -0.14645940497E+02  0.11303840766E+02  0.29145484129E+02  0.00000000000E+00 0. -1.
</event>
<event>
 5    1  0.1258677E-009  0.9118800E+02  0.7561462E-02  0.1125453E+00
         25   -1    0    0    0    0  0.00000000000E+00  0.00000000000E+00  0.99999998245E-14  0.12509000000E+03  0.12509000000E+03 0.  0.
        -13    1    3    3    0    0  0.36328559956E+02  0.47316625993E+02  0.18151039254E+02  0.62354620951E+02  0.10566000000E+00 0. -1.
         23    2    1    0    0    0  0.14094937145E+02  0.23624976895E+02  0.96175673616E+01  0.95947172609E+02  0.91414197712E+02 0.  0.
         13    1    3    3    0    0 -0.22233622811E+02 -0.23691649098E+02 -0.85334718926E+01  0.33592551658E+02  0.10566000000E+00 0.  1.
         22    1    1    0    0    0 -0.14094937145E+02 -0.23624976895E+02 -0.96175673616E+01  0.29142827391E+02  0.00000000000E+00 0. -1.
</event>
<event>
 5    1  0.1258677E-009  0.9118800E+02  0.7561462E-02  0.1125453E+00
         25   -1    0    0    0    0  0.00000000000E+00  0.00000000000E+00  0.99999998245E-14  0.12509000000E+03  0.12509000000E+03 0.  0.
        -13    1    3    3    0    0 -0.22670518523E+02 -0.67284579287E+01 -0.50127632270E+02  0.55425763299E+02  0.10566000000E+00 0.  1.
         23    2    1    0    0    0  0.35200267530E+01  0.13736579632E+02 -0.21726750363E+02  0.99145137509E+02  0.95690241938E+02 0.  0.
         13    1    3    3    0    0  0.26190545276E+02  0.20465037561E+02  0.28400881907E+02  0.43719374211E+02  0.10566000000E+00 0. -1.
         22    1    1    0    0    0 -0.35200267530E+01 -0.13736579632E+02  0.21726750363E+02  0.25944862491E+02  0.00000000000E+00 0. -1.
</event>
<event>
 5    1  0.1258677E-009  0.9118800E+02  0.7561462E-02  0.1125453E+00
         25   -1    0    0    0    0  0.00000000000E+00  0.00000000000E+00  0.99999998245E-14  0.12509000000E+03  0.12509000000E+03 0.  0.
        -13    1    3    3    0    0  0.37505078636E+02 -0.28190803631E+02  0.38211810243E+02  0.60510378771E+02  0.10566000000E+00 0. -1.
         23    2    1    0    0    0  0.85532541962E+01 -0.18677017797E+02  0.92182686784E+01  0.10257410276E+03  0.10007237845E+03 0.  0.
         13    1    3    3    0    0 -0.28951824440E+02  0.95137858340E+01 -0.28993541565E+02  0.42063723989E+02  0.10566000000E+00 0.  1.
         22    1    1    0    0    0 -0.85532541962E+01  0.18677017797E+02 -0.92182686784E+01  0.22515897241E+02  0.00000000000E+00 0. -1.
</event>
<event>
 5    1  0.1258677E-009  0.9118800E+02  0.7561462E-02  0.1125453E+00
         25   -1    0    0    0    0  0.00000000000E+00  0.00000000000E+00  0.99999998245E-14  0.12509000000E+03  0.12509000000E+03 0.  0.
        -13    1    3    3    0    0 -0.36572100006E+02  0.24093876629E+02 -0.20956668841E+02  0.48551277252E+02  0.10566000000E+00 0.  1.
         23    2    1    0    0    0  0.10534420746E+02  0.23169660999E+02 -0.13582416763E+02  0.96240576152E+02  0.91814809490E+02 0.  0.
         13    1    3    3    0    0  0.47106520751E+02 -0.92421563052E+00  0.73742520777E+01  0.47689298900E+02  0.10566000000E+00 0. -1.
         22    1    1    0    0    0 -0.10534420746E+02 -0.23169660999E+02  0.13582416763E+02  0.28849423848E+02  0.00000000000E+00 0.  1.
</event>
<event>
 5    1  0.1258677E-009  0.9118800E+02  0.7561462E-02  0.1125453E+00
         25   -1    0    0    0    0  0.00000000000E+00  0.00000000000E+00  0.99999998245E-14  0.12509000000E+03  0.12509000000E+03 0.  0.
        -13    1    3    3    0    0 -0.23534029851E+02  0.55438484256E+02 -0.10402632563E+02  0.61118753471E+02  0.10566000000E+00 0. -1.
         23    2    1    0    0    0 -0.43277137559E+01  0.29840972243E+02  0.51695087571E+00  0.94932414405E+02  0.90014906186E+02 0.  0.
         13    1    3    3    0    0  0.19206316095E+02 -0.25597512013E+02  0.10919583439E+02  0.33813660933E+02  0.10566000000E+00 0.  1.
         22    1    1    0    0    0  0.43277137559E+01 -0.29840972243E+02 -0.51695087571E+00  0.30157585595E+02  0.00000000000E+00 0. -1.
</event>
<event>
 5    1  0.1258677E-009  0.9118800E+02  0.7561462E-02  0.1125453E+00
         25   -1    0    0    0    0  0.00000000000E+00  0.00000000000E+00  0.99999998245E-14  0.12509000000E+03  0.12509000000E+03 0.  0.
        -13    1    3    3    0    0  0.14680995686E+02 -0.25645823986E+02 -0.29128604467E+02  0.41493694515E+02  0.10566000000E+00 0. -1.
         23    2    1    0    0    0  0.39254700982E+01  0.25647425491E+02 -0.99495639562E+01  0.97301628822E+02  0.93249200525E+02 0.  0.
         13    1    3    3    0    0 -0.10755525588E+02  0.51293249477E+02  0.19179040511E+02  0.55807934307E+02  0.10566000000E+00 0.  1.
         22    1    1    0    0    0 -0.39254700982E+01 -0.25647425491E+02  0.99495639562E+01  0.27788371178E+02  0.00000000000E+00 0.  1.
</event>
<event>
 5    1  0.1258677E-009  0.9118800E+02  0.7561462E-02  0.1125453E+00
         25   -1    0    0    0    0  0.00000000000E+00  0.00000000000E+00  0.99999998245E-14  0.12509000000E+03  0.12509000000E+03 0.  0.
        -13    1    3    3    0    0 -0.17185398281E+01  0.31775622382E+02 -0.32842967798E+02  0.45730900436E+02  0.10566000000E+00 0.  1.
         23    2    1    0    0    0 -0.27583917346E+02 -0.39570137135E+01 -0.94277063124E+01  0.95672112585E+02  0.91037031072E+02 0.  0.
         13    1    3    3    0    0 -0.25865377518E+02 -0.35732636095E+02  0.23415261485E+02  0.49941212149E+02  0.10566000000E+00 0. -1.
         22    1    1    0    0    0  0.27583917346E+02  0.39570137135E+01  0.94277063124E+01  0.29417887415E+02  0.00000000000E+00 0. -1.
</event>
<event>
 5    1  0.1258677E-009  0.9118800E+02  0.7561462E-02  0.1125453E+00
         25   -1    0    0    0    0  0.00000000000E+00  0.00000000000E+00  0.99999998245E-14  0.12509000000E+03  0.12509000000E+03 0.  0.
        -13    1    3    3    0    0  0.51903918760E+02 -0.26720542162E+02 -0.14969017345E+02  0.60266796832E+02  0.10566000000E+00 0.  1.
         23    2    1    0    0    0  0.28484877461E+02 -0.42508807358E+01  0.64445927600E+00  0.96282473921E+02  0.91871873964E+02 0.  0.
         13    1    3    3    0    0 -0.23419041299E+02  0.22469661427E+02  0.15613476621E+02  0.36015677089E+02  0.10566000000E+00 0. -1.
         22    1    1    0    0    0 -0.28484877461E+02  0.42508807358E+01 -0.64445927600E+00  0.28807526079E+02  0.00000000000E+00 0.  1.
</event>
<event>
 5    1  0.1258677E-009  0.9118800E+02  0.7561462E-02  0.1125453E+00
         25   -1    0    0    0    0  0.00000000000E+00  0.00000000000E+00  0.99999998245E-14  0.12509000000E+03  0.12509000000E+03 0.  0.
        -13    1    3    3    0    0 -0.10093985476E+02  0.45581722662E+02  0.15018951285E+02  0.49042451462E+02  0.10566000000E+00 0.  1.
         23    2    1    0    0    0  0.18855010218E+02  0.77401961683E+01  0.19480534381E+02  0.96895793737E+02  0.92703190760E+02 0.  0.
         13    1    3    3    0    0  0.28948995694E+02 -0.37841526494E+02  0.44615830956E+01  0.47853342275E+02  0.10566000000E+00 0. -1.
         22    1    1    0    0    0 -0.18855010218E+02 -0.77401961683E+01 -0.19480534381E+02  0.28194206263E+02  0.00000000000E+00 0.  1.
</event>
<event>
 5    1  0.1258677E-009  0.9118800E+02  0.7561462E-02  0.1125453E+00
         25   -1    0    0    0    0  0.00000000000E+00  0.00000000000E+00  0.99999998245E-14  0.12509000000E+03  0.12509000000E+03 0.  0.
        -13    1    3    3    0    0 -0.28715351365E+02 -0.28762854832E+02  0.10940642713E+02  0.42090165705E+02  0.10566000000E+00 0. -1.
         23    2    1    0    0    0 -0.68258534753E+01  0.80737370524E-01 -0.28589109653E+02  0.95697212025E+02  0.91071512585E+02 0.  0.
         13    1    3    3    0    0  0.21889497890E+02  0.28843592202E+02 -0.39529752366E+02  0.53607046320E+02  0.10566000000E+00 0.  1.
         22    1    1    0    0    0  0.68258534753E+01 -0.80737370524E-01  0.28589109653E+02  0.29392787975E+02  0.00000000000E+00 0.  1.
</event>
<event>
 5    1  0.1258677E-009  0.9118800E+02  0.7561462E-02  0.1125453E+00
         25   -1    0    0    0    0  0.00000000000E+00  0.00000000000E+00  0.99999998245E-14  0.12509000000E+03  0.12509000000E+03 0.  0.
        -13    1    3    3    0    0  0.12842978355E+02 -0.44325471381E+02  0.35715146187E+02  0.58354711355E+02  0.10566000000E+00 0.  1.
         23    2    1    0    0    0 -0.10390191608E+02 -0.19008705053E+02  0.17472875890E+02  0.97258572776E+02  0.93191424697E+02 0.  0.
         13    1    3    3    0    0 -0.23233169963E+02  0.25316766327E+02 -0.18242270297E+02  0.38903861421E+02  0.10566000000E+00 0. -1.
         22    1    1    0    0    0  0.10390191608E+02  0.19008705053E+02 -0.17472875890E+02  0.27831427224E+02  0.00000000000E+00 0.  1.
</event>
<event>
 5    1  0.1258677E-009  0.9118800E+02  0.7561462E-02  0.1125453E+00
         25   -1    0    0    0    0  0.00000000000E+00  0.00000000000E+00  0.99999998245E-14  0.12509000000E+03  0.12509000000E+03 0.  0.
        -13    1    3    3    0    0  0.26526617405E+02 -0.19307135693E+02  0.10591080292E+02  0.34476210137E+02  0.10566000000E+00 0.  1.
         23    2    1    0    0    0 -0.36065187375E+01  0.30427541641E+02 -0.33258682838E+01  0.94269492744E+02  0.89088908370E+02 0.  0.
         13    1    3    3    0    0 -0.30133136142E+02  0.49734677334E+02 -0.13916948576E+02  0.59793282607E+02  0.10566000000E+00 0. -1.
         22    1    1    0    0    0  0.36065187375E+01 -0.30427541641E+02  0.33258682838E+01  0.30820507256E+02  0.00000000000E+00 0. -1.
</event>
<event>
 5    1  0.1258677E-009  0.9118800E+02  0.7561462E-02  0.1125453E+00
         25   -1    0    0    0    0  0.00000000000E+00  0.00000000000E+00  0.99999998245E-14  0.12509000000E+03  0.12509000000E+03 0.  0.
        -13    1    3    3    0    0 -0.28476623849E+01 -0.46937765382E+02 -0.33335361744E+02  0.57641309031E+02  0.10566000000E+00 0.  1.
         23    2    1    0    0    0  0.15161575546E+02 -0.21313770805E+02 -0.85826080296E+01  0.97561626282E+02  0.93597326688E+02 0.  0.
         13    1    3    3    0    0  0.18009237931E+02  0.25623994577E+02  0.24752753714E+02  0.39920317251E+02  0.10566000000E+00 0. -1.
         22    1    1    0    0    0 -0.15161575546E+02  0.21313770805E+02  0.85826080296E+01  0.27528373718E+02  0.00000000000E+00 0.  1.
</event>
<event>
 5    1  0.1258677E-009  0.9118800E+02  0.7561462E-02  0.1125453E+00
         25   -1    0    0    0    0  0.00000000000E+00  0.00000000000E+00  0.99999998245E-14  0.12509000000E+03  0.12509000000E+03 0.  0.
        -13    1    3    3    0    0  0.52091236427E+02  0.18829233868E+02  0.25001107998E+02  0.60770910193E+02  0.10566000000E+00 0.  1.
         23    2    1    0    0    0  0.26980533884E+02 -0.12531613912E+01  0.13257767852E+02  0.95001995238E+02  0.90111547921E+02 0.  0.
         13    1    3    3    0    0 -0.25110702543E+02 -0.20082395259E+02 -0.11743340145E+02  0.34231085045E+02  0.10566000000E+00 0. -1.
         22    1    1    0    0    0 -0.26980533884E+02  0.12531613912E+01 -0.13257767852E+02  0.30088004762E+02  0.00000000000E+00 0.  1.
</event>
<event>
 5    1  0.1258677E-009  0.9118800E+02  0.7561462E-02  0.1125453E+00
         25   -1    0    0    0    0  0.00000000000E+00  0.00000000000E+00  0.99999998245E-14  0.12509000000E+03  0.12509000000E+03 0.  0.
        -13    1    3    3    0    0  0.42802078832E+02  0.21470266794E+01 -0.73661627418E+01  0.43484470716E+02  0.10566000000E+00 0.  1.
         23    2    1    0    0    0  0.57219587999E+01 -0.30879173796E+02  0.11659826831E-01  0.93685154469E+02  0.88264623973E+02 0.  0.
         13    1    3    3    0    0 -0.37080120032E+02 -0.33026200476E+02  0.73778225686E+01  0.50200683753E+02  0.10566000000E+00 0. -1.
         22    1    1    0    0    0 -0.57219587999E+01  0.30879173796E+02 -0.11659826831E-01  0.31404845531E+02  0.00000000000E+00 0. -1.
</event>
<event>
 5    1  0.1258677E-009  0.9118800E+02  0.7561462E-02  0.1125453E+00
         25   -1    0    0    0    0  0.00000000000E+00  0.00000000000E+00  0.99999998245E-14  0.12509000000E+03  0.12509000000E+03 0.  0.
        -13    1    3    3    0    0 -0.33318246527E+02  0.29005410988E+02  0.23827257577E+02  0.50191321819E+02  0.10566000000E+00 0.  1.
         23    2    1    0    0    0 -0.51341597773E+01 -0.67324783255E+01  0.27944074646E+02  0.95891418377E+02  0.91337872481E+02 0.  0.
         13    1    3    3    0    0  0.28184086750E+02 -0.35737889314E+02  0.41168170684E+01  0.45700096557E+02  0.10566000000E+00 0. -1.
         22    1    1    0    0    0  0.51341597773E+01  0.67324783255E+01 -0.27944074646E+02  0.29198581623E+02  0.00000000000E+00 0.  1.
</event>
<event>
 5    1  0.1258677E-009  0.9118800E+02  0.7561462E-02  0.1125453E+00
         25   -1    0    0    0    0  0.00000000000E+00  0.00000000000E+00  0.99999998245E-14  0.12509000000E+03  0.12509000000E+03 0.  0.
        -13    1    3    3    0    0  0.11717436045E+01 -0.22154797898E+02 -0.65882675327E+00  0.22195793964E+02  0.10566000000E+00 0. -1.
         23    2    1    0    0    0 -0.26546972731E+02  0.57766442603E+01 -0.39278021388E+02  0.77331499769E+02  0.60821760188E+02 0.  0.
         13    1    3    3    0    0 -0.27718716335E+02  0.27931442158E+02 -0.38619194635E+02  0.55135705805E+02  0.10566000000E+00 0.  1.
         22    1    1    0    0    0  0.26546972731E+02 -0.57766442603E+01  0.39278021388E+02  0.47758500231E+02  0.00000000000E+00 0.  1.
</event>
<event>
 5    1  0.1258677E-009  0.9118800E+02  0.7561462E-02  0.1125453E+00
         25   -1    0    0    0    0  0.00000000000E+00  0.00000000000E+00  0.99999998245E-14  0.12509000000E+03  0.12509000000E+03 0.  0.
        -13    1    3    3    0    0  0.34124200528E+02  0.20085354852E+02  0.44572936987E+02  0.59620805235E+02  0.10566000000E+00 0.  1.
         23    2    1    0    0    0  0.26050561263E+02  0.10009456375E+02  0.11902144521E+02  0.94750553676E+02  0.89761826066E+02 0.  0.
         13    1    3    3    0    0 -0.80736392643E+01 -0.10075898477E+02 -0.32670792466E+02  0.35129748441E+02  0.10566000000E+00 0. -1.
         22    1    1    0    0    0 -0.26050561263E+02 -0.10009456375E+02 -0.11902144521E+02  0.30339446324E+02  0.00000000000E+00 0.  1.
</event>
<event>
 5    1  0.1258677E-009  0.9118800E+02  0.7561462E-02  0.1125453E+00
         25   -1    0    0    0    0  0.00000000000E+00  0.00000000000E+00  0.99999998245E-14  0.12509000000E+03  0.12509000000E+03 0.  0.
        -13    1    3    3    0    0 -0.56067620215E+01 -0.13366292249E+02  0.33294310818E+02  0.36312750457E+02  0.10566000000E+00 0.  1.
         23    2    1    0    0    0  0.16746236310E+02 -0.54318975980E+01 -0.22254512778E+02  0.96713860710E+02  0.92457371650E+02 0.  0.
         13    1    3    3    0    0  0.22352998331E+02  0.79343946511E+01 -0.55548823596E+02  0.60401110253E+02  0.10566000000E+00 0. -1.
         22    1    1    0    0    0 -0.16746236310E+02  0.54318975980E+01  0.22254512778E+02  0.28376139290E+02  0.00000000000E+00 0. -1.
</event>
<event>
 5    1  0.1258677E-009  0.9118800E+02  0.7561462E-02  0.1125453E+00
         25   -1    0    0    0    0  0.00000000000E+00  0.00000000000E+00  0.99999998245E-14  0.12509000000E+03  0.12509000000E+03 0.  0.
        -13    1    3    3    0    0 -0.47638120823E+02  0.17464059128E+02 -0.10796453596E+02  0.51874449309E+02  0.10566000000E+00 0. -1.
         23    2    1    0    0    0 -0.22093698573E+02 -0.16206712238E+02  0.54485075911E+01  0.97153012454E+02  0.93049624156E+02 0.  0.
         13    1    3    3    0    0  0.25544422250E+02 -0.33670771366E+02  0.16244961187E+02  0.45278563145E+02  0.10566000000E+00 0.  1.
         22    1    1    0    0    0  0.22093698573E+02  0.16206712238E+02 -0.54485075911E+01  0.27936987546E+02  0.00000000000E+00 0. -1.
</event>
<event>
 5    1  0.1258677E-009  0.9118800E+02  0.7561462E-02  0.1125453E+00
         25   -1    0    0    0    0  0.00000000000E+00  0.00000000000E+00  0.99999998245E-14  0.12509000000E+03  0.12509000000E+03 0.  0.
        -13    1    3    3    0    0 -0.29157391185E+02 -0.72142159814E+01 -0.36303269866E+02  0.47118329129E+02  0.10566000000E+00 0.  1.
         23    2    1    0    0    0 -0.18362243847E+02 -0.20669973728E+02  0.93351780251E+01  0.95908407141E+02  0.91361136150E+02 0.  0.
         13    1    3    3    0    0  0.10795147338E+02 -0.13455757747E+02  0.45638447891E+02  0.48790078013E+02  0.10566000000E+00 0. -1.
         22    1    1    0    0    0  0.18362243847E+02  0.20669973728E+02 -0.93351780251E+01  0.29181592859E+02  0.00000000000E+00 0.  1.
</event>
<event>
 5    1  0.1258677E-009  0.9118800E+02  0.7561462E-02  0.1125453E+00
         25   -1    0    0    0    0  0.00000000000E+00  0.00000000000E+00  0.99999998245E-14  0.12509000000E+03  0.12509000000E+03 0.  0.
        -13    1    3    3    0    0  0.52205521643E+01 -0.36454913361E+02  0.34848628148E+02  0.50701606689E+02  0.10566000000E+00 0. -1.
         23    2    1    0    0    0  0.25718800450E+02 -0.12832623576E+02  0.16683828480E+01  0.96299091265E+02  0.91894496858E+02 0.  0.
         13    1    3    3    0    0  0.20498248286E+02  0.23622289785E+02 -0.33180245300E+02  0.45597484576E+02  0.10566000000E+00 0.  1.
         22    1    1    0    0    0 -0.25718800450E+02  0.12832623576E+02 -0.16683828480E+01  0.28790908735E+02  0.00000000000E+00 0. -1.
</event>
<event>
 5    1  0.1258677E-009  0.9118800E+02  0.7561462E-02  0.1125453E+00
         25   -1    0    0    0    0  0.00000000000E+00  0.00000000000E+00  0.99999998245E-14  0.12509000000E+03  0.12509000000E+03 0.  0.
        -13    1    3    3    0    0 -0.10857667208E+01 -0.17968709384E+02 -0.56635986676E+02  0.59428104101E+02  0.10566000000E+00 0. -1.
         23    2    1    0    0    0 -0.29597367662E+01  0.42966470088E+01 -0.31917593060E+02  0.92748788459E+02  0.86927462845E+02 0.  0.
         13    1    3    3    0    0 -0.18739700454E+01  0.22265356393E+02  0.24718393616E+02  0.33320684357E+02  0.10566000000E+00 0.  1.
         22    1    1    0    0    0  0.29597367662E+01 -0.42966470088E+01  0.31917593060E+02  0.32341211541E+02  0.00000000000E+00 0. -1.
</event>
<event>
 5    1  0.1258677E-009  0.9118800E+02  0.7561462E-02  0.1125453E+00
         25   -1    0    0    0    0  0.00000000000E+00  0.00000000000E+00  0.99999998245E-14  0.12509000000E+03  0.12509000000E+03 0.  0.
        -13    1    3    3    0    0 -0.32048276242E+02  0.20900839103E+02  0.18239110060E+02  0.42386476442E+02  0.10566000000E+00 0.  1.
         23    2    1    0    0    0  0.18349168926E+02  0.72405244430E+01  0.22965163970E+02  0.94815985554E+02  0.89852964146E+02 0.  0.
         13    1    3    3    0    0  0.50397445169E+02 -0.13660314660E+02  0.47260539102E+01  0.52429509112E+02  0.10566000000E+00 0. -1.
         22    1    1    0    0    0 -0.18349168926E+02 -0.72405244430E+01 -0.22965163970E+02  0.30274014446E+02  0.00000000000E+00 0. -1.
</event>
<event>
 5    1  0.1258677E-009  0.9118800E+02  0.7561462E-02  0.1125453E+00
         25   -1    0    0    0    0  0.00000000000E+00  0.00000000000E+00  0.99999998245E-14  0.12509000000E+03  0.12509000000E+03 0.  0.
        -13    1    3    3    0    0 -0.79245753199E+00 -0.31579232890E+02 -0.16767004117E+02  0.35763382530E+02  0.10566000000E+00 0.  1.
         23    2    1    0    0    0  0.17918869873E+02  0.23504559743E+02 -0.50846115743E+01  0.95099943296E+02  0.90247413890E+02 0.  0.
         13    1    3    3    0    0  0.18711327405E+02  0.55083792633E+02  0.11682392542E+02  0.59336560767E+02  0.10566000000E+00 0. -1.
         22    1    1    0    0    0 -0.17918869873E+02 -0.23504559743E+02  0.50846115743E+01  0.29990056704E+02  0.00000000000E+00 0. -1.
</event>
<event>
 5    1  0.1258677E-009  0.9118800E+02  0.7561462E-02  0.1125453E+00
         25   -1    0    0    0    0  0.00000000000E+00  0.00000000000E+00  0.99999998245E-14  0.12509000000E+03  0.12509000000E+03 0.  0.
        -13    1    3    3    0    0  0.22967950558E+02 -0.24280517650E+02  0.15200918597E+00  0.33423114173E+02  0.10566000000E+00 0. -1.
         23    2    1    0    0    0 -0.95306453217E+01  0.27673110337E+02 -0.66360007238E+01  0.95078823056E+02  0.90218134829E+02 0.  0.
         13    1    3    3    0    0 -0.32498595880E+02  0.51953627987E+02 -0.67880099098E+01  0.61655708882E+02  0.10566000000E+00 0.  1.
         22    1    1    0    0    0  0.95306453217E+01 -0.27673110337E+02  0.66360007238E+01  0.30011176944E+02  0.00000000000E+00 0.  1.
</event>
<event>
 5    1  0.1258677E-009  0.9118800E+02  0.7561462E-02  0.1125453E+00
         25   -1    0    0    0    0  0.00000000000E+00  0.00000000000E+00  0.99999998245E-14  0.12509000000E+03  0.12509000000E+03 0.  0.
        -13    1    3    3    0    0 -0.49615818317E+02 -0.23869757344E+02  0.26034642431E+02  0.60904092748E+02  0.10566000000E+00 0.  1.
         23    2    1    0    0    0 -0.19573801549E+02 -0.17037509302E+02  0.38813485763E+01  0.98851187202E+02  0.95305204025E+02 0.  0.
         13    1    3    3    0    0  0.30042016769E+02  0.68322480423E+01 -0.22153293855E+02  0.37947094454E+02  0.10566000000E+00 0. -1.
         22    1    1    0    0    0  0.19573801549E+02  0.17037509302E+02 -0.38813485763E+01  0.26238812798E+02  0.00000000000E+00 0.  1.
</event>
<event>
 5    1  0.1258677E-009  0.9118800E+02  0.7561462E-02  0.1125453E+00
         25   -1    0    0    0    0  0.00000000000E+00  0.00000000000E+00  0.99999998245E-14  0.12509000000E+03  0.12509000000E+03 0.  0.
        -13    1    3    3    0    0  0.14684977279E+02 -0.13559974373E+02  0.47099079696E+02  0.51164987393E+02  0.10566000000E+00 0.  1.
         23    2    1    0    0    0  0.46728846522E+01  0.20612371884E+02  0.20831362218E+02  0.95414229116E+02  0.90681992370E+02 0.  0.
         13    1    3    3    0    0 -0.10012092627E+02  0.34172346258E+02 -0.26267717478E+02  0.44249241723E+02  0.10566000000E+00 0. -1.
         22    1    1    0    0    0 -0.46728846522E+01 -0.20612371884E+02 -0.20831362218E+02  0.29675770884E+02  0.00000000000E+00 0.  1.
</event>
<event>
 5    1  0.1258677E-009  0.9118800E+02  0.7561462E-02  0.1125453E+00
         25   -1    0    0    0    0  0.00000000000E+00  0.00000000000E+00  0.99999998245E-14  0.12509000000E+03  0.12509000000E+03 0.  0.
        -13    1    3    3    0    0  0.45264827694E+01  0.16064748289E+02 -0.25237434467E+02  0.30257304017E+02  0.10566000000E+00 0.  1.
         23    2    1    0    0    0  0.30518644314E+02 -0.16379609027E+02  0.14290006856E+02  0.87621566105E+02  0.79206409514E+02 0.  0.
         13    1    3    3    0    0  0.25992161544E+02 -0.32444357316E+02  0.39527441323E+02  0.57364262088E+02  0.10566000000E+00 0. -1.
         22    1    1    0    0    0 -0.30518644314E+02  0.16379609027E+02 -0.14290006856E+02  0.37468433895E+02  0.00000000000E+00 0. -1.
</event>
<event>
 5    1  0.1258677E-009  0.9118800E+02  0.7561462E-02  0.1125453E+00
         25   -1    0    0    0    0  0.00000000000E+00  0.00000000000E+00  0.99999998245E-14  0.12509000000E+03  0.12509000000E+03 0.  0.
        -13    1    3    3    0    0 -0.34007098558E+02 -0.42095289576E+02  0.13882015474E+02  0.55867859047E+02  0.10566000000E+00 0. -1.
         23    2    1    0    0    0 -0.13473570390E+02 -0.19008889333E+02 -0.14354231367E+02  0.97723616774E+02  0.93813572283E+02 0.  0.
         13    1    3    3    0    0  0.20533528168E+02  0.23086400242E+02 -0.28236246841E+02  0.41855757727E+02  0.10566000000E+00 0.  1.
         22    1    1    0    0    0  0.13473570390E+02  0.19008889333E+02  0.14354231367E+02  0.27366383226E+02  0.00000000000E+00 0. -1.
</event>
<event>
 5    1  0.1258677E-009  0.9118800E+02  0.7561462E-02  0.1125453E+00
         25   -1    0    0    0    0  0.00000000000E+00  0.00000000000E+00  0.99999998245E-14  0.12509000000E+03  0.12509000000E+03 0.  0.
        -13    1    3    3    0    0  0.73594568393E+01  0.52486870036E+02 -0.16590311223E+02  0.55536318942E+02  0.10566000000E+00 0.  1.
         23    2    1    0    0    0 -0.16528501434E+02  0.16759682276E+02 -0.11737325254E+02  0.98787089253E+02  0.95221037010E+02 0.  0.
         13    1    3    3    0    0 -0.23887958273E+02 -0.35727187759E+02  0.48529859694E+01  0.43250770311E+02  0.10566000000E+00 0. -1.
         22    1    1    0    0    0  0.16528501434E+02 -0.16759682276E+02  0.11737325254E+02  0.26302910747E+02  0.00000000000E+00 0.  1.
</event>
<event>
 5    1  0.1258677E-009  0.9118800E+02  0.7561462E-02  0.1125453E+00
         25   -1    0    0    0    0  0.00000000000E+00  0.00000000000E+00  0.99999998245E-14  0.12509000000E+03  0.12509000000E+03 0.  0.
        -13    1    3    3    0    0  0.72047905973E+01  0.30860829877E+02 -0.49935013398E+02  0.59142341476E+02  0.10566000000E+00 0. -1.
         23    2    1    0    0    0  0.93365595068E+01  0.20887563541E+02 -0.10424932001E+02  0.99947588395E+02  0.96733549323E+02 0.  0.
         13    1    3    3    0    0  0.21317689095E+01 -0.99732663366E+01  0.39510081397E+02  0.40805246919E+02  0.10566000000E+00 0.  1.
         22    1    1    0    0    0 -0.93365595068E+01 -0.20887563541E+02  0.10424932001E+02  0.25142411605E+02  0.00000000000E+00 0. -1.
</event>
<event>
 5    1  0.1258677E-009  0.9118800E+02  0.7561462E-02  0.1125453E+00
         25   -1    0    0    0    0  0.00000000000E+00  0.00000000000E+00  0.99999998245E-14  0.12509000000E+03  0.12509000000E+03 0.  0.
        -13    1    3    3    0    0  0.28040330268E+01 -0.94001938059E+01  0.46055341872E+02  0.47088554063E+02  0.10566000000E+00 0.  1.
         23    2    1    0    0    0 -0.16135447604E+02  0.20812573430E+02  0.12958105748E+02  0.95739899715E+02  0.91130126801E+02 0.  0.
         13    1    3    3    0    0 -0.18939480631E+02  0.30212767236E+02 -0.33097236124E+02  0.48651345652E+02  0.10566000000E+00 0. -1.
         22    1    1    0    0    0  0.16135447604E+02 -0.20812573430E+02 -0.12958105748E+02  0.29350100285E+02  0.00000000000E+00 0. -1.
</event>
<event>
 5    1  0.1258677E-009  0.9118800E+02  0.7561462E-02  0.1125453E+00
         25   -1    0    0    0    0  0.00000000000E+00  0.00000000000E+00  0.99999998245E-14  0.12509000000E+03  0.12509000000E+03 0.  0.
        -13    1    3    3    0    0 -0.13397467803E+02 -0.71100451102E+00 -0.58053157502E+02  0.59583369584E+02  0.10566000000E+00 0.  1.
         23    2    1    0    0    0  0.39346588724E+01  0.86836358114E+01 -0.27868858313E+02  0.95635622821E+02  0.90986878270E+02 0.  0.
         13    1    3    3    0    0  0.17332126675E+02  0.93946403224E+01  0.30184299189E+02  0.36052253237E+02  0.10566000000E+00 0. -1.
         22    1    1    0    0    0 -0.39346588724E+01 -0.86836358114E+01  0.27868858313E+02  0.29454377179E+02  0.00000000000E+00 0.  1.
</event>
<event>
 5    1  0.1258677E-009  0.9118800E+02  0.7561462E-02  0.1125453E+00
         25   -1    0    0    0    0  0.00000000000E+00  0.00000000000E+00  0.99999998245E-14  0.12509000000E+03  0.12509000000E+03 0.  0.
        -13    1    3    3    0    0 -0.15439478177E+02 -0.10666841999E+02  0.28130199530E+02  0.33815355894E+02  0.10566000000E+00 0. -1.
         23    2    1    0    0    0  0.19390013825E+02  0.14762074653E+02 -0.16330236562E+02  0.95754558801E+02  0.91150246411E+02 0.  0.
         13    1    3    3    0    0  0.34829492001E+02  0.25428916652E+02 -0.44460436093E+02  0.61939202907E+02  0.10566000000E+00 0.  1.
         22    1    1    0    0    0 -0.19390013825E+02 -0.14762074653E+02  0.16330236562E+02  0.29335441199E+02  0.00000000000E+00 0.  1.
</event>
<event>
 5    1  0.1258677E-009  0.9118800E+02  0.7561462E-02  0.1125453E+00
         25   -1    0    0    0    0  0.00000000000E+00  0.00000000000E+00  0.99999998245E-14  0.12509000000E+03  0.12509000000E+03 0.  0.
        -13    1    3    3    0    0 -0.48319940271E+02 -0.43233460694E+01  0.89934183927E+01  0.49339646203E+02  0.10566000000E+00 0.  1.
         23    2    1    0    0    0 -0.16009909338E+02  0.26245715067E+01 -0.24053658336E+02  0.96076485012E+02  0.91590976195E+02 0.  0.
         13    1    3    3    0    0  0.32310030933E+02  0.69479175762E+01 -0.33047076729E+02  0.46736838809E+02  0.10566000000E+00 0. -1.
         22    1    1    0    0    0  0.16009909338E+02 -0.26245715067E+01  0.24053658336E+02  0.29013514988E+02  0.00000000000E+00 0.  1.
</event>
<event>
 5    1  0.1258677E-009  0.9118800E+02  0.7561462E-02  0.1125453E+00
         25   -1    0    0    0    0  0.00000000000E+00  0.00000000000E+00  0.99999998245E-14  0.12509000000E+03  0.12509000000E+03 0.  0.
        -13    1    3    3    0    0 -0.35596658693E+02 -0.29716045475E+02  0.17977902742E+02  0.49733103862E+02  0.10566000000E+00 0.  1.
         23    2    1    0    0    0 -0.28696797195E+02  0.41770211815E+01 -0.10202874544E+02  0.94348296661E+02  0.89199488557E+02 0.  0.
         13    1    3    3    0    0  0.68998614977E+01  0.33893066656E+02 -0.28180777286E+02  0.44615192799E+02  0.10566000000E+00 0. -1.
         22    1    1    0    0    0  0.28696797195E+02 -0.41770211815E+01  0.10202874544E+02  0.30741703339E+02  0.00000000000E+00 0. -1.
</event>
<event>
 5    1  0.1258677E-009  0.9118800E+02  0.7561462E-02  0.1125453E+00
         25   -1    0    0    0    0  0.00000000000E+00  0.00000000000E+00  0.99999998245E-14  0.12509000000E+03  0.12509000000E+03 0.  0.
        -13    1    3    3    0    0  0.18454490971E+02 -0.11200145685E+02 -0.30876401195E+02  0.37674591108E+02  0.10566000000E+00 0.  1.
         23    2    1    0    0    0  0.60542381392E+01  0.28846806562E+02  0.76786410316E+01  0.94630952471E+02  0.89594997568E+02 0.  0.
         13    1    3    3    0    0 -0.12400252832E+02  0.40046952247E+02  0.38555042227E+02  0.56956361363E+02  0.10566000000E+00 0. -1.
         22    1    1    0    0    0 -0.60542381392E+01 -0.28846806562E+02 -0.76786410316E+01  0.30459047529E+02  0.00000000000E+00 0. -1.
</event>
<event>
 5    1  0.1258677E-009  0.9118800E+02  0.7561462E-02  0.1125453E+00
         25   -1    0    0    0    0  0.00000000000E+00  0.00000000000E+00  0.99999998245E-14  0.12509000000E+03  0.12509000000E+03 0.  0.
        -13    1    3    3    0    0  0.16726145674E+02 -0.36687346794E+01 -0.30538880729E+02  0.35012254475E+02  0.10566000000E+00 0. -1.
         23    2    1    0    0    0 -0.16103302826E+02 -0.12253084892E+02  0.20489207432E+02  0.96293089185E+02  0.91886326254E+02 0.  0.
         13    1    3    3    0    0 -0.32829448500E+02 -0.85843502130E+01  0.51028088161E+02  0.61280834710E+02  0.10566000000E+00 0.  1.
         22    1    1    0    0    0  0.16103302826E+02  0.12253084892E+02 -0.20489207432E+02  0.28796910815E+02  0.00000000000E+00 0.  1.
</event>
<event>
 5    1  0.1258677E-009  0.9118800E+02  0.7561462E-02  0.1125453E+00
         25   -1    0    0    0    0  0.00000000000E+00  0.00000000000E+00  0.99999998245E-14  0.12509000000E+03  0.12509000000E+03 0.  0.
        -13    1    3    3    0    0  0.20469130897E+02 -0.12385449660E+02 -0.30652769472E+02  0.38884291472E+02  0.10566000000E+00 0.  1.
         23    2    1    0    0    0  0.18175713463E+02  0.68653690598E+01  0.22440939143E+02  0.95406913877E+02  0.90671900905E+02 0.  0.
         13    1    3    3    0    0 -0.22934174340E+01  0.19250818720E+02  0.53093708615E+02  0.56522622404E+02  0.10566000000E+00 0. -1.
         22    1    1    0    0    0 -0.18175713463E+02 -0.68653690598E+01 -0.22440939143E+02  0.29683086123E+02  0.00000000000E+00 0. -1.
</event>
<event>
 5    1  0.1258677E-009  0.9118800E+02  0.7561462E-02  0.1125453E+00
         25   -1    0    0    0    0  0.00000000000E+00  0.00000000000E+00  0.99999998245E-14  0.12509000000E+03  0.12509000000E+03 0.  0.
        -13    1    3    3    0    0  0.58960888092E+00 -0.37190573369E+02 -0.10544508271E+02  0.38661145933E+02  0.10566000000E+00 0.  1.
         23    2    1    0    0    0 -0.71340009493E+01  0.67884467971E+01  0.26588816675E+02  0.96736126338E+02  0.92487490978E+02 0.  0.
         13    1    3    3    0    0 -0.77236098302E+01  0.43979020166E+02  0.37133324945E+02  0.58074980405E+02  0.10566000000E+00 0. -1.
         22    1    1    0    0    0  0.71340009493E+01 -0.67884467971E+01 -0.26588816675E+02  0.28353873662E+02  0.00000000000E+00 0. -1.
</event>
<event>
 5    1  0.1258677E-009  0.9118800E+02  0.7561462E-02  0.1125453E+00
         25   -1    0    0    0    0  0.00000000000E+00  0.00000000000E+00  0.99999998245E-14  0.12509000000E+03  0.12509000000E+03 0.  0.
        -13    1    3    3    0    0 -0.23599886996E+02  0.17104833135E+02 -0.29643745690E+02  0.41572741134E+02  0.10566000000E+00 0. -1.
         23    2    1    0    0    0 -0.21858015002E+02 -0.18682930364E+02  0.96589777831E+01  0.94756510939E+02  0.89770127585E+02 0.  0.
         13    1    3    3    0    0  0.17418719948E+01 -0.35787763499E+02  0.39302723473E+02  0.53183769805E+02  0.10566000000E+00 0.  1.
         22    1    1    0    0    0  0.21858015002E+02  0.18682930364E+02 -0.96589777831E+01  0.30333489061E+02  0.00000000000E+00 0.  1.
</event>
<event>
 5    1  0.1258677E-009  0.9118800E+02  0.7561462E-02  0.1125453E+00
         25   -1    0    0    0    0  0.00000000000E+00  0.00000000000E+00  0.99999998245E-14  0.12509000000E+03  0.12509000000E+03 0.  0.
        -13    1    3    3    0    0 -0.10028851013E+02  0.16443331116E+02  0.37871457283E+02  0.42487873936E+02  0.10566000000E+00 0.  1.
         23    2    1    0    0    0  0.65753159874E+01  0.28211484651E+02 -0.99510269470E+01  0.94460837689E+02  0.89357172477E+02 0.  0.
         13    1    3    3    0    0  0.16604167001E+02  0.11768153535E+02 -0.47822484230E+02  0.51972963754E+02  0.10566000000E+00 0. -1.
         22    1    1    0    0    0 -0.65753159874E+01 -0.28211484651E+02  0.99510269470E+01  0.30629162311E+02  0.00000000000E+00 0. -1.
</event>
<event>
 5    1  0.1258677E-009  0.9118800E+02  0.7561462E-02  0.1125453E+00
         25   -1    0    0    0    0  0.00000000000E+00  0.00000000000E+00  0.99999998245E-14  0.12509000000E+03  0.12509000000E+03 0.  0.
        -13    1    3    3    0    0  0.24606814447E+02  0.53872999802E+02  0.16620730983E+02  0.61514675382E+02  0.10566000000E+00 0. -1.
         23    2    1    0    0    0  0.98953836930E+00  0.19948780232E+02  0.41555118198E+01  0.10468898783E+03  0.10268195010E+03 0.  0.
         13    1    3    3    0    0 -0.23617276078E+02 -0.33924219570E+02 -0.12465219163E+02  0.43174312451E+02  0.10566000000E+00 0.  1.
         22    1    1    0    0    0 -0.98953836930E+00 -0.19948780232E+02 -0.41555118198E+01  0.20401012167E+02  0.00000000000E+00 0. -1.
</event>
<event>
 5    1  0.1258677E-009  0.9118800E+02  0.7561462E-02  0.1125453E+00
         25   -1    0    0    0    0  0.00000000000E+00  0.00000000000E+00  0.99999998245E-14  0.12509000000E+03  0.12509000000E+03 0.  0.
        -13    1    3    3    0    0  0.21330598119E+02  0.13196593600E+02  0.47478171150E+02  0.53696670274E+02  0.10566000000E+00 0.  1.
         23    2    1    0    0    0 -0.10258342892E+02  0.18551318076E+02  0.17008562299E+02  0.97911401936E+02  0.94063629721E+02 0.  0.
         13    1    3    3    0    0 -0.31588941011E+02  0.53547244758E+01 -0.30469608851E+02  0.44214731662E+02  0.10566000000E+00 0. -1.
         22    1    1    0    0    0  0.10258342892E+02 -0.18551318076E+02 -0.17008562299E+02  0.27178598064E+02  0.00000000000E+00 0.  1.
</event>
<event>
 5    1  0.1258677E-009  0.9118800E+02  0.7561462E-02  0.1125453E+00
         25   -1    0    0    0    0  0.00000000000E+00  0.00000000000E+00  0.99999998245E-14  0.12509000000E+03  0.12509000000E+03 0.  0.
        -13    1    3    3    0    0  0.19766623045E+02 -0.18534121498E+02  0.33019262063E+02  0.42714352126E+02  0.10566000000E+00 0.  1.
         23    2    1    0    0    0  0.20061258941E+02 -0.10757732943E+02 -0.19077518315E+02  0.95389248605E+02  0.90647526806E+02 0.  0.
         13    1    3    3    0    0  0.29463589591E+00  0.77763885548E+01 -0.52096780378E+02  0.52674896479E+02  0.10566000000E+00 0. -1.
         22    1    1    0    0    0 -0.20061258941E+02  0.10757732943E+02  0.19077518315E+02  0.29700751395E+02  0.00000000000E+00 0. -1.
</event>
<event>
 5    1  0.1258677E-009  0.9118800E+02  0.7561462E-02  0.1125453E+00
         25   -1    0    0    0    0  0.00000000000E+00  0.00000000000E+00  0.99999998245E-14  0.12509000000E+03  0.12509000000E+03 0.  0.
        -13    1    3    3    0    0  0.76706292150E+01 -0.52670414616E+02  0.10311611133E+02  0.54215787521E+02  0.10566000000E+00 0.  1.
         23    2    1    0    0    0  0.47133812594E+01 -0.23244774112E+02 -0.18122010301E+02  0.95241335981E+02  0.90443182914E+02 0.  0.
         13    1    3    3    0    0 -0.29572479556E+01  0.29425640504E+02 -0.28433621433E+02  0.41025548460E+02  0.10566000000E+00 0. -1.
         22    1    1    0    0    0 -0.47133812594E+01  0.23244774112E+02  0.18122010301E+02  0.29848664019E+02  0.00000000000E+00 0.  1.
</event>
<event>
 5    1  0.1258677E-009  0.9118800E+02  0.7561462E-02  0.1125453E+00
         25   -1    0    0    0    0  0.00000000000E+00  0.00000000000E+00  0.99999998245E-14  0.12509000000E+03  0.12509000000E+03 0.  0.
        -13    1    3    3    0    0  0.33626113977E+01  0.24842426738E+01 -0.58468425969E+02  0.58617801191E+02  0.10566000000E+00 0. -1.
         23    2    1    0    0    0  0.10569998366E+02  0.13553400774E+02 -0.23678815465E+02  0.95830713614E+02  0.91254697589E+02 0.  0.
         13    1    3    3    0    0  0.72073869684E+01  0.11069158100E+02  0.34789610504E+02  0.37212912423E+02  0.10566000000E+00 0.  1.
         22    1    1    0    0    0 -0.10569998366E+02 -0.13553400774E+02  0.23678815465E+02  0.29259286386E+02  0.00000000000E+00 0. -1.
</event>
<event>
 5    1  0.1258677E-009  0.9118800E+02  0.7561462E-02  0.1125453E+00
         25   -1    0    0    0    0  0.00000000000E+00  0.00000000000E+00  0.99999998245E-14  0.12509000000E+03  0.12509000000E+03 0.  0.
        -13    1    3    3    0    0 -0.80373940610E+01 -0.36555246447E+02 -0.49417754133E+02  0.61992026372E+02  0.10566000000E+00 0. -1.
         23    2    1    0    0    0  0.21472026623E+01 -0.16790372281E+02 -0.23254698149E+02  0.96327036547E+02  0.91932529082E+02 0.  0.
         13    1    3    3    0    0  0.10184596723E+02  0.19764874167E+02  0.26163055985E+02  0.34335010175E+02  0.10566000000E+00 0.  1.
         22    1    1    0    0    0 -0.21472026623E+01  0.16790372281E+02  0.23254698149E+02  0.28762963453E+02  0.00000000000E+00 0. -1.
</event>
<event>
 5    1  0.1258677E-009  0.9118800E+02  0.7561462E-02  0.1125453E+00
         25   -1    0    0    0    0  0.00000000000E+00  0.00000000000E+00  0.99999998245E-14  0.12509000000E+03  0.12509000000E+03 0.  0.
        -13    1    3    3    0    0 -0.17548858135E+02 -0.55329977455E+02 -0.21162834404E+02  0.61783861575E+02  0.10566000000E+00 0. -1.
         23    2    1    0    0    0 -0.14842745201E+02 -0.24622633173E+02 -0.85039334941E+01  0.95108371720E+02  0.90259095591E+02 0.  0.
         13    1    3    3    0    0  0.27061129346E+01  0.30707344283E+02  0.12658900910E+02  0.33324510145E+02  0.10566000000E+00 0.  1.
         22    1    1    0    0    0  0.14842745201E+02  0.24622633173E+02  0.85039334941E+01  0.29981628280E+02  0.00000000000E+00 0. -1.
</event>
<event>
 5    1  0.1258677E-009  0.9118800E+02  0.7561462E-02  0.1125453E+00
         25   -1    0    0    0    0  0.00000000000E+00  0.00000000000E+00  0.99999998245E-14  0.12509000000E+03  0.12509000000E+03 0.  0.
        -13    1    3    3    0    0  0.27616607868E+02 -0.20697582196E+02  0.15115612261E+02  0.37677046553E+02  0.10566000000E+00 0.  1.
         23    2    1    0    0    0 -0.26447507206E+02  0.11486671102E+01  0.11868971141E+02  0.96078578982E+02  0.91593835981E+02 0.  0.
         13    1    3    3    0    0 -0.54064115074E+02  0.21846249306E+02 -0.32466411198E+01  0.58401532429E+02  0.10566000000E+00 0. -1.
         22    1    1    0    0    0  0.26447507206E+02 -0.11486671102E+01 -0.11868971141E+02  0.29011421018E+02  0.00000000000E+00 0. -1.
</event>
<event>
 5    1  0.1258677E-009  0.9118800E+02  0.7561462E-02  0.1125453E+00
         25   -1    0    0    0    0  0.00000000000E+00  0.00000000000E+00  0.99999998245E-14  0.12509000000E+03  0.12509000000E+03 0.  0.
        -13    1    3    3    0    0  0.22996642296E+02  0.83818002192E+01  0.77188309566E+01  0.25664988743E+02  0.10566000000E+00 0.  1.
         23    2    1    0    0    0 -0.25560060748E+02 -0.25681747439E+02  0.15865235692E+02  0.85535296607E+02  0.75840044865E+02 0.  0.
         13    1    3    3    0    0 -0.48556703044E+02 -0.34063547658E+02  0.81464047350E+01  0.59870307864E+02  0.10566000000E+00 0. -1.
         22    1    1    0    0    0  0.25560060748E+02  0.25681747439E+02 -0.15865235692E+02  0.39554703393E+02  0.00000000000E+00 0. -1.
</event>
<event>
 5    1  0.1258677E-009  0.9118800E+02  0.7561462E-02  0.1125453E+00
         25   -1    0    0    0    0  0.00000000000E+00  0.00000000000E+00  0.99999998245E-14  0.12509000000E+03  0.12509000000E+03 0.  0.
        -13    1    3    3    0    0  0.24604258372E+02  0.46683380023E+02 -0.13955473286E+01  0.52788883459E+02  0.10566000000E+00 0.  1.
         23    2    1    0    0    0  0.10483129550E+02  0.16252718816E+02  0.23565763406E+02  0.94604067523E+02  0.89557453698E+02 0.  0.
         13    1    3    3    0    0 -0.14121128822E+02 -0.30430661207E+02  0.24961310735E+02  0.41815184064E+02  0.10566000000E+00 0. -1.
         22    1    1    0    0    0 -0.10483129550E+02 -0.16252718816E+02 -0.23565763406E+02  0.30485932477E+02  0.00000000000E+00 0.  1.
</event>
<event>
 5    1  0.1258677E-009  0.9118800E+02  0.7561462E-02  0.1125453E+00
         25   -1    0    0    0    0  0.00000000000E+00  0.00000000000E+00  0.99999998245E-14  0.12509000000E+03  0.12509000000E+03 0.  0.
        -13    1    3    3    0    0 -0.35701076013E+02  0.47452661526E+02 -0.85418736530E+01  0.59994138746E+02  0.10566000000E+00 0.  1.
         23    2    1    0    0    0 -0.10366915127E+02  0.25298727737E+02  0.67020561328E+01  0.96940113486E+02  0.92762974790E+02 0.  0.
         13    1    3    3    0    0  0.25334160886E+02 -0.22153933789E+02  0.15243929786E+02  0.36945974740E+02  0.10566000000E+00 0. -1.
         22    1    1    0    0    0  0.10366915127E+02 -0.25298727737E+02 -0.67020561328E+01  0.28149886514E+02  0.00000000000E+00 0.  1.
</event>
<event>
 5    1  0.1258677E-009  0.9118800E+02  0.7561462E-02  0.1125453E+00
         25   -1    0    0    0    0  0.00000000000E+00  0.00000000000E+00  0.99999998245E-14  0.12509000000E+03  0.12509000000E+03 0.  0.
        -13    1    3    3    0    0  0.46501024569E+02 -0.30099204135E+02  0.79670052976E+01  0.55962413395E+02  0.10566000000E+00 0. -1.
         23    2    1    0    0    0  0.23162461167E+02  0.35937708906E+00  0.18148261421E+02  0.95662323371E+02  0.91023579148E+02 0.  0.
         13    1    3    3    0    0 -0.23338563402E+02  0.30458581224E+02  0.10181256123E+02  0.39699909976E+02  0.10566000000E+00 0.  1.
         22    1    1    0    0    0 -0.23162461167E+02 -0.35937708906E+00 -0.18148261421E+02  0.29427676629E+02  0.00000000000E+00 0. -1.
</event>
<event>
 5    1  0.1258677E-009  0.9118800E+02  0.7561462E-02  0.1125453E+00
         25   -1    0    0    0    0  0.00000000000E+00  0.00000000000E+00  0.99999998245E-14  0.12509000000E+03  0.12509000000E+03 0.  0.
        -13    1    3    3    0    0  0.16981434238E+02  0.36664970257E+01 -0.28898986243E+02  0.33719058099E+02  0.10566000000E+00 0. -1.
         23    2    1    0    0    0 -0.12250506992E+02 -0.71261409105E+01  0.25215825270E+02  0.96164325420E+02  0.91710865407E+02 0.  0.
         13    1    3    3    0    0 -0.29231941230E+02 -0.10792637936E+02  0.54114811513E+02  0.62445267321E+02  0.10566000000E+00 0.  1.
         22    1    1    0    0    0  0.12250506992E+02  0.71261409105E+01 -0.25215825270E+02  0.28925674580E+02  0.00000000000E+00 0.  1.
</event>
<event>
 5    1  0.1258677E-009  0.9118800E+02  0.7561462E-02  0.1125453E+00
         25   -1    0    0    0    0  0.00000000000E+00  0.00000000000E+00  0.99999998245E-14  0.12509000000E+03  0.12509000000E+03 0.  0.
        -13    1    3    3    0    0 -0.34200669687E+02  0.35930822672E+02  0.11883995362E+02  0.51009316156E+02  0.10566000000E+00 0. -1.
         23    2    1    0    0    0 -0.18274510373E+02 -0.60089774823E+01  0.20809892517E+02  0.96750678090E+02  0.92507170233E+02 0.  0.
         13    1    3    3    0    0  0.15926159314E+02 -0.41939800154E+02  0.89258971547E+01  0.45741361933E+02  0.10566000000E+00 0.  1.
         22    1    1    0    0    0  0.18274510373E+02  0.60089774823E+01 -0.20809892517E+02  0.28339321910E+02  0.00000000000E+00 0.  1.
</event>
<event>
 5    1  0.1258677E-009  0.9118800E+02  0.7561462E-02  0.1125453E+00
         25   -1    0    0    0    0  0.00000000000E+00  0.00000000000E+00  0.99999998245E-14  0.12509000000E+03  0.12509000000E+03 0.  0.
        -13    1    3    3    0    0 -0.16402980812E+02 -0.26903420048E+02  0.16522358454E+02  0.35578803841E+02  0.10566000000E+00 0.  1.
         23    2    1    0    0    0  0.12051832042E+01  0.29109349423E+02  0.77197699297E+01  0.94950299634E+02  0.90039757121E+02 0.  0.
         13    1    3    3    0    0  0.17608164016E+02  0.56012769472E+02 -0.88025885245E+01  0.59371495793E+02  0.10566000000E+00 0. -1.
         22    1    1    0    0    0 -0.12051832042E+01 -0.29109349423E+02 -0.77197699297E+01  0.30139700366E+02  0.00000000000E+00 0. -1.
</event>
<event>
 5    1  0.1258677E-009  0.9118800E+02  0.7561462E-02  0.1125453E+00
         25   -1    0    0    0    0  0.00000000000E+00  0.00000000000E+00  0.99999998245E-14  0.12509000000E+03  0.12509000000E+03 0.  0.
        -13    1    3    3    0    0  0.34141654380E+02 -0.17734602961E+02 -0.27813510274E+02  0.47473900449E+02  0.10566000000E+00 0.  1.
         23    2    1    0    0    0  0.17828396737E+02 -0.55363348748E+01  0.18954803819E+02  0.98485727376E+02  0.94824317424E+02 0.  0.
         13    1    3    3    0    0 -0.16313257643E+02  0.12198268087E+02  0.46768314093E+02  0.51011826927E+02  0.10566000000E+00 0. -1.
         22    1    1    0    0    0 -0.17828396737E+02  0.55363348748E+01 -0.18954803819E+02  0.26604272624E+02  0.00000000000E+00 0. -1.
</event>
<event>
 5    1  0.1258677E-009  0.9118800E+02  0.7561462E-02  0.1125453E+00
         25   -1    0    0    0    0  0.00000000000E+00  0.00000000000E+00  0.99999998245E-14  0.12509000000E+03  0.12509000000E+03 0.  0.
        -13    1    3    3    0    0  0.11040216981E+02 -0.24889017875E+01  0.54080298901E+02  0.55251886089E+02  0.10566000000E+00 0.  1.
         23    2    1    0    0    0  0.21830229433E+02 -0.10921422797E+02  0.15538956334E+02  0.96153940196E+02  0.91696699277E+02 0.  0.
         13    1    3    3    0    0  0.10790012451E+02 -0.84325210097E+01 -0.38541342567E+02  0.40902054107E+02  0.10566000000E+00 0. -1.
         22    1    1    0    0    0 -0.21830229433E+02  0.10921422797E+02 -0.15538956334E+02  0.28936059804E+02  0.00000000000E+00 0.  1.
</event>
<event>
 5    1  0.1258677E-009  0.9118800E+02  0.7561462E-02  0.1125453E+00
         25   -1    0    0    0    0  0.00000000000E+00  0.00000000000E+00  0.99999998245E-14  0.12509000000E+03  0.12509000000E+03 0.  0.
        -13    1    3    3    0    0  0.22206087763E+02 -0.86807118491E+01  0.22937593855E+02  0.33084882769E+02  0.10566000000E+00 0. -1.
         23    2    1    0    0    0 -0.11976667988E+02 -0.16218663186E+02 -0.25334121829E+02  0.92712487117E+02  0.86875208932E+02 0.  0.
         13    1    3    3    0    0 -0.34182755752E+02 -0.75379513370E+01 -0.48271715684E+02  0.59627604348E+02  0.10566000000E+00 0.  1.
         22    1    1    0    0    0  0.11976667988E+02  0.16218663186E+02  0.25334121829E+02  0.32377512883E+02  0.00000000000E+00 0.  1.
</event>
<event>
 5    1  0.1258677E-009  0.9118800E+02  0.7561462E-02  0.1125453E+00
         25   -1    0    0    0    0  0.00000000000E+00  0.00000000000E+00  0.99999998245E-14  0.12509000000E+03  0.12509000000E+03 0.  0.
        -13    1    3    3    0    0 -0.34999374527E+02  0.94153570018E+01  0.32319255587E+01  0.36387658231E+02  0.10566000000E+00 0. -1.
         23    2    1    0    0    0  0.24282788570E+02 -0.31234343924E+01 -0.10389994021E+02  0.98493728854E+02  0.94834872197E+02 0.  0.
         13    1    3    3    0    0  0.59282163097E+02 -0.12538791394E+02 -0.13621919580E+02  0.62106070622E+02  0.10566000000E+00 0.  1.
         22    1    1    0    0    0 -0.24282788570E+02  0.31234343924E+01  0.10389994021E+02  0.26596271146E+02  0.00000000000E+00 0.  1.
</event>
<event>
 5    1  0.1258677E-009  0.9118800E+02  0.7561462E-02  0.1125453E+00
         25   -1    0    0    0    0  0.00000000000E+00  0.00000000000E+00  0.99999998245E-14  0.12509000000E+03  0.12509000000E+03 0.  0.
        -13    1    3    3    0    0  0.44983617805E+01  0.44491815008E+02 -0.24988699471E+02  0.51226976552E+02  0.10566000000E+00 0. -1.
         23    2    1    0    0    0  0.17200231295E+02  0.38740666911E+02  0.31033738816E+01  0.82589198139E+02  0.70814246381E+02 0.  0.
         13    1    3    3    0    0  0.12701869515E+02 -0.57511480967E+01  0.28092073352E+02  0.31362221587E+02  0.10566000000E+00 0.  1.
         22    1    1    0    0    0 -0.17200231295E+02 -0.38740666911E+02 -0.31033738816E+01  0.42500801861E+02  0.00000000000E+00 0. -1.
</event>
<event>
 5    1  0.1258677E-009  0.9118800E+02  0.7561462E-02  0.1125453E+00
         25   -1    0    0    0    0  0.00000000000E+00  0.00000000000E+00  0.99999998245E-14  0.12509000000E+03  0.12509000000E+03 0.  0.
        -13    1    3    3    0    0  0.43954110941E+02 -0.21617133546E+02  0.16436676862E+02  0.51666622124E+02  0.10566000000E+00 0. -1.
         23    2    1    0    0    0  0.24395214323E+02  0.10733804666E+02 -0.86871764244E+01  0.97057731474E+02  0.92921446180E+02 0.  0.
         13    1    3    3    0    0 -0.19558896618E+02  0.32350938212E+02 -0.25123853286E+02  0.45391109351E+02  0.10566000000E+00 0.  1.
         22    1    1    0    0    0 -0.24395214323E+02 -0.10733804666E+02  0.86871764244E+01  0.28032268526E+02  0.00000000000E+00 0. -1.
</event>
<event>
 5    1  0.1258677E-009  0.9118800E+02  0.7561462E-02  0.1125453E+00
         25   -1    0    0    0    0  0.00000000000E+00  0.00000000000E+00  0.99999998245E-14  0.12509000000E+03  0.12509000000E+03 0.  0.
        -13    1    3    3    0    0 -0.37561375663E+02  0.10140392666E+02  0.22768957801E+02  0.45079053989E+02  0.10566000000E+00 0. -1.
         23    2    1    0    0    0  0.80032173442E+01 -0.12275627131E+02  0.25223703052E+02  0.95918477843E+02  0.91374923730E+02 0.  0.
         13    1    3    3    0    0  0.45564593008E+02 -0.22416019797E+02  0.24547452508E+01  0.50839423854E+02  0.10566000000E+00 0.  1.
         22    1    1    0    0    0 -0.80032173442E+01  0.12275627131E+02 -0.25223703052E+02  0.29171522157E+02  0.00000000000E+00 0.  1.
</event>
<event>
 5    1  0.1258677E-009  0.9118800E+02  0.7561462E-02  0.1125453E+00
         25   -1    0    0    0    0  0.00000000000E+00  0.00000000000E+00  0.99999998245E-14  0.12509000000E+03  0.12509000000E+03 0.  0.
        -13    1    3    3    0    0 -0.16461168917E+02  0.34071773608E+02 -0.46356614557E+02  0.59839808791E+02  0.10566000000E+00 0. -1.
         23    2    1    0    0    0 -0.17822372280E+02  0.19371428881E+02 -0.14297736117E+02  0.95134792296E+02  0.90295704419E+02 0.  0.
         13    1    3    3    0    0 -0.13612033627E+01 -0.14700344728E+02  0.32058878440E+02  0.35294983504E+02  0.10566000000E+00 0.  1.
         22    1    1    0    0    0  0.17822372280E+02 -0.19371428881E+02  0.14297736117E+02  0.29955207704E+02  0.00000000000E+00 0. -1.
</event>
<event>
 5    1  0.1258677E-009  0.9118800E+02  0.7561462E-02  0.1125453E+00
         25   -1    0    0    0    0  0.00000000000E+00  0.00000000000E+00  0.99999998245E-14  0.12509000000E+03  0.12509000000E+03 0.  0.
        -13    1    3    3    0    0  0.28135133687E+02  0.26259119814E+02  0.43963595153E+02  0.58428896822E+02  0.10566000000E+00 0.  1.
         23    2    1    0    0    0  0.20512706562E+02  0.28617520874E+02  0.18090321485E+02  0.85504733007E+02  0.75789616727E+02 0.  0.
         13    1    3    3    0    0 -0.76224271247E+01  0.23584010592E+01 -0.25873273667E+02  0.27075836185E+02  0.10566000000E+00 0. -1.
         22    1    1    0    0    0 -0.20512706562E+02 -0.28617520874E+02 -0.18090321485E+02  0.39585266993E+02  0.00000000000E+00 0.  1.
</event>
<event>
 5    1  0.1258677E-009  0.9118800E+02  0.7561462E-02  0.1125453E+00
         25   -1    0    0    0    0  0.00000000000E+00  0.00000000000E+00  0.99999998245E-14  0.12509000000E+03  0.12509000000E+03 0.  0.
        -13    1    3    3    0    0  0.14766774712E+02 -0.11853229379E+02  0.17949966404E+02  0.26091553040E+02  0.10566000000E+00 0.  1.
         23    2    1    0    0    0 -0.18628332563E+02  0.35081391193E+02  0.86139546041E+01  0.84446193632E+02  0.74021892862E+02 0.  0.
         13    1    3    3    0    0 -0.33395107276E+02  0.46934620572E+02 -0.93360117998E+01  0.58354640592E+02  0.10566000000E+00 0. -1.
         22    1    1    0    0    0  0.18628332563E+02 -0.35081391193E+02 -0.86139546041E+01  0.40643806368E+02  0.00000000000E+00 0. -1.
</event>
<event>
 5    1  0.1258677E-009  0.9118800E+02  0.7561462E-02  0.1125453E+00
         25   -1    0    0    0    0  0.00000000000E+00  0.00000000000E+00  0.99999998245E-14  0.12509000000E+03  0.12509000000E+03 0.  0.
        -13    1    3    3    0    0 -0.34372869996E+02 -0.41957445110E+02 -0.13035262027E+02  0.55783963754E+02  0.10566000000E+00 0.  1.
         23    2    1    0    0    0 -0.26206818520E+01 -0.28215192574E+02  0.71833092721E+01  0.95857056298E+02  0.91290800438E+02 0.  0.
         13    1    3    3    0    0  0.31752188144E+02  0.13742252536E+02  0.20218571299E+02  0.40073092544E+02  0.10566000000E+00 0. -1.
         22    1    1    0    0    0  0.26206818520E+01  0.28215192574E+02 -0.71833092721E+01  0.29232943702E+02  0.00000000000E+00 0.  1.
</event>
<event>
 5    1  0.1258677E-009  0.9118800E+02  0.7561462E-02  0.1125453E+00
         25   -1    0    0    0    0  0.00000000000E+00  0.00000000000E+00  0.99999998245E-14  0.12509000000E+03  0.12509000000E+03 0.  0.
        -13    1    3    3    0    0 -0.31734948674E+02 -0.29306905704E+02  0.41398269605E+02  0.59831677058E+02  0.10566000000E+00 0.  1.
         23    2    1    0    0    0 -0.88891727295E+01 -0.23779631787E+02  0.13415556431E+02  0.96376493873E+02  0.91999799658E+02 0.  0.
         13    1    3    3    0    0  0.22845775944E+02  0.55272739162E+01 -0.27982713174E+02  0.36544816815E+02  0.10566000000E+00 0. -1.
         22    1    1    0    0    0  0.88891727295E+01  0.23779631787E+02 -0.13415556431E+02  0.28713506127E+02  0.00000000000E+00 0.  1.
</event>
<event>
 5    1  0.1258677E-009  0.9118800E+02  0.7561462E-02  0.1125453E+00
         25   -1    0    0    0    0  0.00000000000E+00  0.00000000000E+00  0.99999998245E-14  0.12509000000E+03  0.12509000000E+03 0.  0.
        -13    1    3    3    0    0  0.47943214602E+02 -0.24929681879E+02  0.15436275310E+02  0.56199026899E+02  0.10566000000E+00 0. -1.
         23    2    1    0    0    0  0.21993148659E+02 -0.13533026868E+02 -0.12853935647E+02  0.96244461944E+02  0.91820103404E+02 0.  0.
         13    1    3    3    0    0 -0.25950065943E+02  0.11396655010E+02 -0.28290210957E+02  0.40045435045E+02  0.10566000000E+00 0.  1.
         22    1    1    0    0    0 -0.21993148659E+02  0.13533026868E+02  0.12853935647E+02  0.28845538056E+02  0.00000000000E+00 0. -1.
</event>
<event>
 5    1  0.1258677E-009  0.9118800E+02  0.7561462E-02  0.1125453E+00
         25   -1    0    0    0    0  0.00000000000E+00  0.00000000000E+00  0.99999998245E-14  0.12509000000E+03  0.12509000000E+03 0.  0.
        -13    1    3    3    0    0 -0.39771638820E+02  0.32373773517E+02 -0.50175167811E+01  0.51526993944E+02  0.10566000000E+00 0.  1.
         23    2    1    0    0    0  0.65443416806E+00  0.22628642207E+02 -0.19141231058E+02  0.95444250581E+02  0.90723395606E+02 0.  0.
         13    1    3    3    0    0  0.40426072988E+02 -0.97451313096E+01 -0.14123714277E+02  0.43917256637E+02  0.10566000000E+00 0. -1.
         22    1    1    0    0    0 -0.65443416806E+00 -0.22628642207E+02  0.19141231058E+02  0.29645749419E+02  0.00000000000E+00 0.  1.
</event>
<event>
 5    1  0.1258677E-009  0.9118800E+02  0.7561462E-02  0.1125453E+00
         25   -1    0    0    0    0  0.00000000000E+00  0.00000000000E+00  0.99999998245E-14  0.12509000000E+03  0.12509000000E+03 0.  0.
        -13    1    3    3    0    0  0.56027811942E+00  0.31026380762E+02 -0.24119209720E+02  0.39302641849E+02  0.10566000000E+00 0.  1.
         23    2    1    0    0    0  0.19466524151E+02  0.10569205457E+02  0.22440195942E+02  0.93558808135E+02  0.88085381984E+02 0.  0.
         13    1    3    3    0    0  0.18906246031E+02 -0.20457175305E+02  0.46559405662E+02  0.54256166286E+02  0.10566000000E+00 0. -1.
         22    1    1    0    0    0 -0.19466524151E+02 -0.10569205457E+02 -0.22440195942E+02  0.31531191865E+02  0.00000000000E+00 0. -1.
</event>
<event>
 5    1  0.1258677E-009  0.9118800E+02  0.7561462E-02  0.1125453E+00
         25   -1    0    0    0    0  0.00000000000E+00  0.00000000000E+00  0.99999998245E-14  0.12509000000E+03  0.12509000000E+03 0.  0.
        -13    1    3    3    0    0 -0.38104429483E+02 -0.10932478213E+02 -0.31675542461E+02  0.50742662330E+02  0.10566000000E+00 0.  1.
         23    2    1    0    0    0 -0.16923007131E+02  0.22170023282E+02 -0.11460970430E+02  0.94936195167E+02  0.90020160003E+02 0.  0.
         13    1    3    3    0    0  0.21181422353E+02  0.33102501496E+02  0.20214572031E+02  0.44193532837E+02  0.10566000000E+00 0. -1.
         22    1    1    0    0    0  0.16923007131E+02 -0.22170023282E+02  0.11460970430E+02  0.30153804833E+02  0.00000000000E+00 0.  1.
</event>
<event>
 5    1  0.1258677E-009  0.9118800E+02  0.7561462E-02  0.1125453E+00
         25   -1    0    0    0    0  0.00000000000E+00  0.00000000000E+00  0.99999998245E-14  0.12509000000E+03  0.12509000000E+03 0.  0.
        -13    1    3    3    0    0 -0.17863802980E+02 -0.51887165451E+02  0.11891149015E+02  0.56149835124E+02  0.10566000000E+00 0. -1.
         23    2    1    0    0    0  0.79956526549E+01 -0.24154106332E+02  0.17113851604E+02  0.94426744615E+02  0.89309433252E+02 0.  0.
         13    1    3    3    0    0  0.25859455635E+02  0.27733059119E+02  0.52227025889E+01  0.38276909492E+02  0.10566000000E+00 0.  1.
         22    1    1    0    0    0 -0.79956526549E+01  0.24154106332E+02 -0.17113851604E+02  0.30663255385E+02  0.00000000000E+00 0. -1.
</event>
<event>
 5    1  0.1258677E-009  0.9118800E+02  0.7561462E-02  0.1125453E+00
         25   -1    0    0    0    0  0.00000000000E+00  0.00000000000E+00  0.99999998245E-14  0.12509000000E+03  0.12509000000E+03 0.  0.
        -13    1    3    3    0    0 -0.14795953535E+02 -0.26956020642E+02 -0.46699439124E+02  0.55914184858E+02  0.10566000000E+00 0.  1.
         23    2    1    0    0    0  0.21666816542E+01 -0.28487748894E+02 -0.12941156381E+02  0.93725691066E+02  0.88322054386E+02 0.  0.
         13    1    3    3    0    0  0.16962635189E+02 -0.15317282519E+01  0.33758282742E+02  0.37811506208E+02  0.10566000000E+00 0. -1.
         22    1    1    0    0    0 -0.21666816542E+01  0.28487748894E+02  0.12941156381E+02  0.31364308934E+02  0.00000000000E+00 0.  1.
</event>
<event>
 5    1  0.1258677E-009  0.9118800E+02  0.7561462E-02  0.1125453E+00
         25   -1    0    0    0    0  0.00000000000E+00  0.00000000000E+00  0.99999998245E-14  0.12509000000E+03  0.12509000000E+03 0.  0.
        -13    1    3    3    0    0  0.53089264712E+01 -0.19170918938E+02 -0.59197295290E+02  0.62450298373E+02  0.10566000000E+00 0.  1.
         23    2    1    0    0    0  0.78304534795E+00 -0.10768023762E+02 -0.27768570430E+02  0.95296426876E+02  0.90519345866E+02 0.  0.
         13    1    3    3    0    0 -0.45258811233E+01  0.84028951756E+01  0.31428724860E+02  0.32846128503E+02  0.10566000000E+00 0. -1.
         22    1    1    0    0    0 -0.78304534795E+00  0.10768023762E+02  0.27768570430E+02  0.29793573124E+02  0.00000000000E+00 0.  1.
</event>
<event>
 5    1  0.1258677E-009  0.9118800E+02  0.7561462E-02  0.1125453E+00
         25   -1    0    0    0    0  0.00000000000E+00  0.00000000000E+00  0.99999998245E-14  0.12509000000E+03  0.12509000000E+03 0.  0.
        -13    1    3    3    0    0  0.13392614270E+02  0.12770043605E+02  0.57275880822E+02  0.60191144021E+02  0.10566000000E+00 0.  1.
         23    2    1    0    0    0 -0.47696561160E+01  0.10261803615E+02  0.29711225775E+02  0.93296743326E+02  0.87712434382E+02 0.  0.
         13    1    3    3    0    0 -0.18162270386E+02 -0.25082399906E+01 -0.27564655047E+02  0.33105599305E+02  0.10566000000E+00 0. -1.
         22    1    1    0    0    0  0.47696561160E+01 -0.10261803615E+02 -0.29711225775E+02  0.31793256674E+02  0.00000000000E+00 0.  1.
</event>
<event>
 5    1  0.1258677E-009  0.9118800E+02  0.7561462E-02  0.1125453E+00
         25   -1    0    0    0    0  0.00000000000E+00  0.00000000000E+00  0.99999998245E-14  0.12509000000E+03  0.12509000000E+03 0.  0.
        -13    1    3    3    0    0  0.73022554099E+01  0.44251338016E+01 -0.37521501682E+02  0.38480891307E+02  0.10566000000E+00 0.  1.
         23    2    1    0    0    0  0.17732328602E+02 -0.16914324804E+02  0.15163282789E+02  0.96272383753E+02  0.91858134465E+02 0.  0.
         13    1    3    3    0    0  0.10430073192E+02 -0.21339458606E+02  0.52684784471E+02  0.57791492446E+02  0.10566000000E+00 0. -1.
         22    1    1    0    0    0 -0.17732328602E+02  0.16914324804E+02 -0.15163282789E+02  0.28817616247E+02  0.00000000000E+00 0. -1.
</event>
<event>
 5    1  0.1258677E-009  0.9118800E+02  0.7561462E-02  0.1125453E+00
         25   -1    0    0    0    0  0.00000000000E+00  0.00000000000E+00  0.99999998245E-14  0.12509000000E+03  0.12509000000E+03 0.  0.
        -13    1    3    3    0    0  0.17520847749E+02  0.57107511694E+02 -0.17616028117E+02  0.62278275574E+02  0.10566000000E+00 0. -1.
         23    2    1    0    0    0  0.83722174607E+01  0.28094651151E+02 -0.44009921898E+01  0.95445908164E+02  0.90725681064E+02 0.  0.
         13    1    3    3    0    0 -0.91486302883E+01 -0.29012860543E+02  0.13215035927E+02  0.33167632590E+02  0.10566000000E+00 0.  1.
         22    1    1    0    0    0 -0.83722174607E+01 -0.28094651151E+02  0.44009921898E+01  0.29644091836E+02  0.00000000000E+00 0. -1.
</event>
<event>
 5    1  0.1258677E-009  0.9118800E+02  0.7561462E-02  0.1125453E+00
         25   -1    0    0    0    0  0.00000000000E+00  0.00000000000E+00  0.99999998245E-14  0.12509000000E+03  0.12509000000E+03 0.  0.
        -13    1    3    3    0    0 -0.43623744881E+02 -0.10529304632E+02  0.27255928274E+02  0.52505182255E+02  0.10566000000E+00 0.  1.
         23    2    1    0    0    0 -0.51750598307E+01 -0.25086779571E+02  0.15003037064E+02  0.95404669032E+02  0.90668803888E+02 0.  0.
         13    1    3    3    0    0  0.38448685051E+02 -0.14557474940E+02 -0.12252891210E+02  0.42899486778E+02  0.10566000000E+00 0. -1.
         22    1    1    0    0    0  0.51750598307E+01  0.25086779571E+02 -0.15003037064E+02  0.29685330968E+02  0.00000000000E+00 0.  1.
</event>
<event>
 5    1  0.1258677E-009  0.9118800E+02  0.7561462E-02  0.1125453E+00
         25   -1    0    0    0    0  0.00000000000E+00  0.00000000000E+00  0.99999998245E-14  0.12509000000E+03  0.12509000000E+03 0.  0.
        -13    1    3    3    0    0 -0.98149610065E+01 -0.42821238905E+01 -0.35065229793E+02  0.36664036180E+02  0.10566000000E+00 0.  1.
         23    2    1    0    0    0 -0.22991224138E+01 -0.21232134895E+02  0.20649564000E+02  0.95383199273E+02  0.90639178582E+02 0.  0.
         13    1    3    3    0    0  0.75158385927E+01 -0.16950011004E+02  0.55714793793E+02  0.58719163092E+02  0.10566000000E+00 0. -1.
         22    1    1    0    0    0  0.22991224138E+01  0.21232134895E+02 -0.20649564000E+02  0.29706800727E+02  0.00000000000E+00 0. -1.
</event>
<event>
 5    1  0.1258677E-009  0.9118800E+02  0.7561462E-02  0.1125453E+00
         25   -1    0    0    0    0  0.00000000000E+00  0.00000000000E+00  0.99999998245E-14  0.12509000000E+03  0.12509000000E+03 0.  0.
        -13    1    3    3    0    0  0.31174970992E+02  0.19727865943E+02 -0.26422555220E+02  0.45378740611E+02  0.10566000000E+00 0.  1.
         23    2    1    0    0    0 -0.18271042495E+02  0.14887308110E+02 -0.17207186792E+02  0.95908666687E+02  0.91361491514E+02 0.  0.
         13    1    3    3    0    0 -0.49446013488E+02 -0.48405578333E+01  0.92153684277E+01  0.50529926076E+02  0.10566000000E+00 0. -1.
         22    1    1    0    0    0  0.18271042495E+02 -0.14887308110E+02  0.17207186792E+02  0.29181333313E+02  0.00000000000E+00 0. -1.
</event>
<event>
 5    1  0.1258677E-009  0.9118800E+02  0.7561462E-02  0.1125453E+00
         25   -1    0    0    0    0  0.00000000000E+00  0.00000000000E+00  0.99999998245E-14  0.12509000000E+03  0.12509000000E+03 0.  0.
        -13    1    3    3    0    0 -0.81194663341E+01 -0.39383054693E+02 -0.13086329977E+02  0.42287278546E+02  0.10566000000E+00 0.  1.
         23    2    1    0    0    0  0.13620363092E+02 -0.77806551513E+01  0.24505090130E+02  0.95994427697E+02  0.91478838107E+02 0.  0.
         13    1    3    3    0    0  0.21739829426E+02  0.31602399542E+02  0.37591420107E+02  0.53707149151E+02  0.10566000000E+00 0. -1.
         22    1    1    0    0    0 -0.13620363092E+02  0.77806551513E+01 -0.24505090130E+02  0.29095572303E+02  0.00000000000E+00 0. -1.
</event>
<event>
 5    1  0.1258677E-009  0.9118800E+02  0.7561462E-02  0.1125453E+00
         25   -1    0    0    0    0  0.00000000000E+00  0.00000000000E+00  0.99999998245E-14  0.12509000000E+03  0.12509000000E+03 0.  0.
        -13    1    3    3    0    0  0.82444443305E+01 -0.23880939993E+02 -0.51914695804E+02  0.57735751157E+02  0.10566000000E+00 0. -1.
         23    2    1    0    0    0 -0.36733190598E+01  0.32619310766E+01 -0.30227156991E+02  0.94466243094E+02  0.89364739116E+02 0.  0.
         13    1    3    3    0    0 -0.11917763390E+02  0.27142871069E+02  0.21687538813E+02  0.36730491937E+02  0.10566000000E+00 0.  1.
         22    1    1    0    0    0  0.36733190598E+01 -0.32619310766E+01  0.30227156991E+02  0.30623756906E+02  0.00000000000E+00 0. -1.
</event>
<event>
 5    1  0.1258677E-009  0.9118800E+02  0.7561462E-02  0.1125453E+00
         25   -1    0    0    0    0  0.00000000000E+00  0.00000000000E+00  0.99999998245E-14  0.12509000000E+03  0.12509000000E+03 0.  0.
        -13    1    3    3    0    0 -0.43360272557E+02  0.21113849296E+02  0.37300895054E+02  0.60969466163E+02  0.10566000000E+00 0.  1.
         23    2    1    0    0    0 -0.31177596072E+02  0.14309891862E+02  0.14190346256E+02  0.87966133973E+02  0.79748725992E+02 0.  0.
         13    1    3    3    0    0  0.12182676485E+02 -0.68039574336E+01 -0.23110548798E+02  0.26996667810E+02  0.10566000000E+00 0. -1.
         22    1    1    0    0    0  0.31177596072E+02 -0.14309891862E+02 -0.14190346256E+02  0.37123866027E+02  0.00000000000E+00 0.  1.
</event>
<event>
 5    1  0.1258677E-009  0.9118800E+02  0.7561462E-02  0.1125453E+00
         25   -1    0    0    0    0  0.00000000000E+00  0.00000000000E+00  0.99999998245E-14  0.12509000000E+03  0.12509000000E+03 0.  0.
        -13    1    3    3    0    0  0.50396852649E+02 -0.24316373590E+02  0.89830997517E+01  0.56673062620E+02  0.10566000000E+00 0. -1.
         23    2    1    0    0    0  0.26261966492E+02 -0.82673707331E+00 -0.11841261654E+02  0.96270044140E+02  0.91854948386E+02 0.  0.
         13    1    3    3    0    0 -0.24134886157E+02  0.23489636517E+02 -0.20824361405E+02  0.39596981520E+02  0.10566000000E+00 0.  1.
         22    1    1    0    0    0 -0.26261966492E+02  0.82673707331E+00  0.11841261654E+02  0.28819955860E+02  0.00000000000E+00 0. -1.
</event>
<event>
 5    1  0.1258677E-009  0.9118800E+02  0.7561462E-02  0.1125453E+00
         25   -1    0    0    0    0  0.00000000000E+00  0.00000000000E+00  0.99999998245E-14  0.12509000000E+03  0.12509000000E+03 0.  0.
        -13    1    3    3    0    0  0.23619819253E+02  0.43073024809E+02 -0.24592606031E+02  0.54936224508E+02  0.10566000000E+00 0.  1.
         23    2    1    0    0    0 -0.98738277548E+01  0.26421001958E+02 -0.87453712619E+01  0.95559620092E+02  0.90882328616E+02 0.  0.
         13    1    3    3    0    0 -0.33493647008E+02 -0.16652022851E+02  0.15847234769E+02  0.40623395584E+02  0.10566000000E+00 0. -1.
         22    1    1    0    0    0  0.98738277548E+01 -0.26421001958E+02  0.87453712619E+01  0.29530379908E+02  0.00000000000E+00 0.  1.
</event>
<event>
 5    1  0.1258677E-009  0.9118800E+02  0.7561462E-02  0.1125453E+00
         25   -1    0    0    0    0  0.00000000000E+00  0.00000000000E+00  0.99999998245E-14  0.12509000000E+03  0.12509000000E+03 0.  0.
        -13    1    3    3    0    0  0.19044600707E+02 -0.13495709569E+02  0.47688889688E+02  0.53094937203E+02  0.10566000000E+00 0.  1.
         23    2    1    0    0    0  0.25785530455E+02 -0.11751727172E+02  0.50406254527E+01  0.96307981701E+02  0.91906598033E+02 0.  0.
         13    1    3    3    0    0  0.67409297480E+01  0.17439823967E+01 -0.42648264235E+02  0.43213044498E+02  0.10566000000E+00 0. -1.
         22    1    1    0    0    0 -0.25785530455E+02  0.11751727172E+02 -0.50406254527E+01  0.28782018299E+02  0.00000000000E+00 0. -1.
</event>
<event>
 5    1  0.1258677E-009  0.9118800E+02  0.7561462E-02  0.1125453E+00
         25   -1    0    0    0    0  0.00000000000E+00  0.00000000000E+00  0.99999998245E-14  0.12509000000E+03  0.12509000000E+03 0.  0.
        -13    1    3    3    0    0  0.19096831751E+02 -0.11321365468E+01  0.35425070678E+02  0.40260619874E+02  0.10566000000E+00 0.  1.
         23    2    1    0    0    0 -0.57352281870E+01  0.28878454796E+02 -0.36353497956E+01  0.95423962821E+02  0.90695418399E+02 0.  0.
         13    1    3    3    0    0 -0.24832059938E+02  0.30010591343E+02 -0.39060420473E+02  0.55163342947E+02  0.10566000000E+00 0. -1.
         22    1    1    0    0    0  0.57352281870E+01 -0.28878454796E+02  0.36353497956E+01  0.29666037179E+02  0.00000000000E+00 0. -1.
</event>
<event>
 5    1  0.1258677E-009  0.9118800E+02  0.7561462E-02  0.1125453E+00
         25   -1    0    0    0    0  0.00000000000E+00  0.00000000000E+00  0.99999998245E-14  0.12509000000E+03  0.12509000000E+03 0.  0.
        -13    1    3    3    0    0  0.49451393017E+02 -0.56905763974E+01 -0.22566302173E+02  0.54654113192E+02  0.10566000000E+00 0.  1.
         23    2    1    0    0    0  0.24816987390E+02  0.16006143684E+02  0.17514861217E+01  0.95507113015E+02  0.90810029369E+02 0.  0.
         13    1    3    3    0    0 -0.24634405627E+02  0.21696720082E+02  0.24317788295E+02  0.40852999822E+02  0.10566000000E+00 0. -1.
         22    1    1    0    0    0 -0.24816987390E+02 -0.16006143684E+02 -0.17514861217E+01  0.29582886985E+02  0.00000000000E+00 0.  1.
</event>
<event>
 5    1  0.1258677E-009  0.9118800E+02  0.7561462E-02  0.1125453E+00
         25   -1    0    0    0    0  0.00000000000E+00  0.00000000000E+00  0.99999998245E-14  0.12509000000E+03  0.12509000000E+03 0.  0.
        -13    1    3    3    0    0  0.31261251557E+02 -0.27273755520E+02 -0.10274426974E+02  0.42739894744E+02  0.10566000000E+00 0.  1.
         23    2    1    0    0    0  0.17108160702E+02  0.22853408585E+02  0.26895643276E+01  0.96415948963E+02  0.92053430200E+02 0.  0.
         13    1    3    3    0    0 -0.14153090855E+02  0.50127164106E+02  0.12963991301E+02  0.53676054219E+02  0.10566000000E+00 0. -1.
         22    1    1    0    0    0 -0.17108160702E+02 -0.22853408585E+02 -0.26895643276E+01  0.28674051037E+02  0.00000000000E+00 0.  1.
</event>
<event>
 5    1  0.1258677E-009  0.9118800E+02  0.7561462E-02  0.1125453E+00
         25   -1    0    0    0    0  0.00000000000E+00  0.00000000000E+00  0.99999998245E-14  0.12509000000E+03  0.12509000000E+03 0.  0.
        -13    1    3    3    0    0 -0.14979970575E+02 -0.13237804426E+02  0.18618748990E+02  0.27318637639E+02  0.10566000000E+00 0.  1.
         23    2    1    0    0    0  0.35025709170E+02  0.14565006561E+02  0.11573946357E+01  0.87138988402E+02  0.78440576352E+02 0.  0.
         13    1    3    3    0    0  0.50005679745E+02  0.27802810987E+02 -0.17461354354E+02  0.59820350763E+02  0.10566000000E+00 0. -1.
         22    1    1    0    0    0 -0.35025709170E+02 -0.14565006561E+02 -0.11573946357E+01  0.37951011598E+02  0.00000000000E+00 0. -1.
</event>
<event>
 5    1  0.1258677E-009  0.9118800E+02  0.7561462E-02  0.1125453E+00
         25   -1    0    0    0    0  0.00000000000E+00  0.00000000000E+00  0.99999998245E-14  0.12509000000E+03  0.12509000000E+03 0.  0.
        -13    1    3    3    0    0  0.76280757449E+01  0.30657132273E+02  0.23003440350E+02  0.39079620402E+02  0.10566000000E+00 0.  1.
         23    2    1    0    0    0  0.24312213307E+02  0.50282708972E+00 -0.19586104505E+02  0.93865777982E+02  0.88520236305E+02 0.  0.
         13    1    3    3    0    0  0.16684137562E+02 -0.30154305184E+02 -0.42589544855E+02  0.54786157579E+02  0.10566000000E+00 0. -1.
         22    1    1    0    0    0 -0.24312213307E+02 -0.50282708972E+00  0.19586104505E+02  0.31224222018E+02  0.00000000000E+00 0. -1.
</event>
<event>
 5    1  0.1258677E-009  0.9118800E+02  0.7561462E-02  0.1125453E+00
         25   -1    0    0    0    0  0.00000000000E+00  0.00000000000E+00  0.99999998245E-14  0.12509000000E+03  0.12509000000E+03 0.  0.
        -13    1    3    3    0    0  0.77252237470E+01 -0.31131058045E+02 -0.26254432906E+02  0.41450310833E+02  0.10566000000E+00 0.  1.
         23    2    1    0    0    0 -0.27020326363E+02  0.64738033323E+01 -0.51358210561E+01  0.96834295722E+02  0.92620170609E+02 0.  0.
         13    1    3    3    0    0 -0.34745550110E+02  0.37604861377E+02  0.21118611850E+02  0.55383984888E+02  0.10566000000E+00 0. -1.
         22    1    1    0    0    0  0.27020326363E+02 -0.64738033323E+01  0.51358210561E+01  0.28255704278E+02  0.00000000000E+00 0. -1.
</event>
<event>
 5    1  0.1258677E-009  0.9118800E+02  0.7561462E-02  0.1125453E+00
         25   -1    0    0    0    0  0.00000000000E+00  0.00000000000E+00  0.99999998245E-14  0.12509000000E+03  0.12509000000E+03 0.  0.
        -13    1    3    3    0    0 -0.39719529483E+02  0.49281390768E+01  0.14272332513E+02  0.42492801938E+02  0.10566000000E+00 0.  1.
         23    2    1    0    0    0  0.27045212326E+01  0.30833655750E+02  0.26526504749E+00  0.94136823627E+02  0.88902432110E+02 0.  0.
         13    1    3    3    0    0  0.42424050716E+02  0.25905516673E+02 -0.14007067466E+02  0.51644021689E+02  0.10566000000E+00 0. -1.
         22    1    1    0    0    0 -0.27045212326E+01 -0.30833655750E+02 -0.26526504749E+00  0.30953176373E+02  0.00000000000E+00 0.  1.
</event>
<event>
 5    1  0.1258677E-009  0.9118800E+02  0.7561462E-02  0.1125453E+00
         25   -1    0    0    0    0  0.00000000000E+00  0.00000000000E+00  0.99999998245E-14  0.12509000000E+03  0.12509000000E+03 0.  0.
        -13    1    3    3    0    0 -0.31542176578E+02  0.29659863898E+02  0.37227593755E+02  0.57100974865E+02  0.10566000000E+00 0.  1.
         23    2    1    0    0    0 -0.23040259429E+01  0.26715543939E+02  0.12508415043E+02  0.95501332062E+02  0.90802065809E+02 0.  0.
         13    1    3    3    0    0  0.29238150635E+02 -0.29443199588E+01 -0.24719178712E+02  0.38400357197E+02  0.10566000000E+00 0. -1.
         22    1    1    0    0    0  0.23040259429E+01 -0.26715543939E+02 -0.12508415043E+02  0.29588667938E+02  0.00000000000E+00 0.  1.
</event>
<event>
 5    1  0.1258677E-009  0.9118800E+02  0.7561462E-02  0.1125453E+00
         25   -1    0    0    0    0  0.00000000000E+00  0.00000000000E+00  0.99999998245E-14  0.12509000000E+03  0.12509000000E+03 0.  0.
        -13    1    3    3    0    0  0.43531346612E+02  0.35475073436E+02  0.24155478585E+02  0.61130657471E+02  0.10566000000E+00 0.  1.
         23    2    1    0    0    0  0.23938122102E+02  0.26715999638E+02  0.22693679907E+02  0.82642603918E+02  0.70908522395E+02 0.  0.
         13    1    3    3    0    0 -0.19593224510E+02 -0.87590737985E+01 -0.14617986772E+01  0.21511946447E+02  0.10566000000E+00 0. -1.
         22    1    1    0    0    0 -0.23938122102E+02 -0.26715999638E+02 -0.22693679907E+02  0.42447396082E+02  0.00000000000E+00 0.  1.
</event>
<event>
 5    1  0.1258677E-009  0.9118800E+02  0.7561462E-02  0.1125453E+00
         25   -1    0    0    0    0  0.00000000000E+00  0.00000000000E+00  0.99999998245E-14  0.12509000000E+03  0.12509000000E+03 0.  0.
        -13    1    3    3    0    0  0.28092924567E+02  0.17451592460E+02  0.37025875964E+02  0.49645716281E+02  0.10566000000E+00 0. -1.
         23    2    1    0    0    0 -0.14773837543E+02  0.89531893376E+01  0.24510128511E+02  0.95103798596E+02  0.90252757479E+02 0.  0.
         13    1    3    3    0    0 -0.42866762109E+02 -0.84984031222E+01 -0.12515747453E+02  0.45458082315E+02  0.10566000000E+00 0.  1.
         22    1    1    0    0    0  0.14773837543E+02 -0.89531893376E+01 -0.24510128511E+02  0.29986201404E+02  0.00000000000E+00 0. -1.
</event>
<event>
 5    1  0.1258677E-009  0.9118800E+02  0.7561462E-02  0.1125453E+00
         25   -1    0    0    0    0  0.00000000000E+00  0.00000000000E+00  0.99999998245E-14  0.12509000000E+03  0.12509000000E+03 0.  0.
        -13    1    3    3    0    0 -0.18377931768E+02 -0.35346556883E+02  0.53793025489E+01  0.40200441783E+02  0.10566000000E+00 0. -1.
         23    2    1    0    0    0 -0.94983096600E+01  0.90176050980E+01 -0.26488023137E+02  0.95540880591E+02  0.90856531996E+02 0.  0.
         13    1    3    3    0    0  0.88796221077E+01  0.44364161981E+02 -0.31867325686E+02  0.55340438809E+02  0.10566000000E+00 0.  1.
         22    1    1    0    0    0  0.94983096600E+01 -0.90176050980E+01  0.26488023137E+02  0.29549119409E+02  0.00000000000E+00 0. -1.
</event>
<event>
 5    1  0.1258677E-009  0.9118800E+02  0.7561462E-02  0.1125453E+00
         25   -1    0    0    0    0  0.00000000000E+00  0.00000000000E+00  0.99999998245E-14  0.12509000000E+03  0.12509000000E+03 0.  0.
        -13    1    3    3    0    0 -0.29532482830E+02 -0.14931186335E+02 -0.47321962686E+01  0.33429219450E+02  0.10566000000E+00 0. -1.
         23    2    1    0    0    0  0.23386356347E+02  0.15516503016E+02  0.82287255059E+01  0.95842855652E+02  0.91271340118E+02 0.  0.
         13    1    3    3    0    0  0.52918839177E+02  0.30447689351E+02  0.12960921775E+02  0.62413636202E+02  0.10566000000E+00 0.  1.
         22    1    1    0    0    0 -0.23386356347E+02 -0.15516503016E+02 -0.82287255059E+01  0.29247144348E+02  0.00000000000E+00 0.  1.
</event>
<event>
 5    1  0.1258677E-009  0.9118800E+02  0.7561462E-02  0.1125453E+00
         25   -1    0    0    0    0  0.00000000000E+00  0.00000000000E+00  0.99999998245E-14  0.12509000000E+03  0.12509000000E+03 0.  0.
        -13    1    3    3    0    0  0.94963809643E+01  0.50060126463E+02  0.13730101733E+02  0.52770487685E+02  0.10566000000E+00 0.  1.
         23    2    1    0    0    0  0.24931392058E+02  0.95890779034E+01 -0.53228319259E+00  0.98372813577E+02  0.94675247032E+02 0.  0.
         13    1    3    3    0    0  0.15435011094E+02 -0.40471048559E+02 -0.14262384925E+02  0.45602325892E+02  0.10566000000E+00 0. -1.
         22    1    1    0    0    0 -0.24931392058E+02 -0.95890779034E+01  0.53228319259E+00  0.26717186423E+02  0.00000000000E+00 0.  1.
</event>
<event>
 5    1  0.1258677E-009  0.9118800E+02  0.7561462E-02  0.1125453E+00
         25   -1    0    0    0    0  0.00000000000E+00  0.00000000000E+00  0.99999998245E-14  0.12509000000E+03  0.12509000000E+03 0.  0.
        -13    1    3    3    0    0  0.30668058267E+02  0.28765830019E+02 -0.35410793334E+02  0.54972158618E+02  0.10566000000E+00 0.  1.
         23    2    1    0    0    0  0.32209120779E+01  0.28608237756E+02 -0.51194655356E+01  0.95849369544E+02  0.91280267158E+02 0.  0.
         13    1    3    3    0    0 -0.27447146189E+02 -0.15759226271E+00  0.30291327798E+02  0.40877210926E+02  0.10566000000E+00 0. -1.
         22    1    1    0    0    0 -0.32209120779E+01 -0.28608237756E+02  0.51194655356E+01  0.29240630456E+02  0.00000000000E+00 0.  1.
</event>
<event>
 5    1  0.1258677E-009  0.9118800E+02  0.7561462E-02  0.1125453E+00
         25   -1    0    0    0    0  0.00000000000E+00  0.00000000000E+00  0.99999998245E-14  0.12509000000E+03  0.12509000000E+03 0.  0.
        -13    1    3    3    0    0  0.43260320694E+02 -0.18957031262E+02  0.38308147961E+02  0.60814058778E+02  0.10566000000E+00 0.  1.
         23    2    1    0    0    0  0.24296931688E+02 -0.11827877983E+02  0.86787661828E+01  0.96707601062E+02  0.92448902285E+02 0.  0.
         13    1    3    3    0    0 -0.18963389007E+02  0.71291532790E+01 -0.29629381778E+02  0.35893542284E+02  0.10566000000E+00 0. -1.
         22    1    1    0    0    0 -0.24296931688E+02  0.11827877983E+02 -0.86787661828E+01  0.28382398938E+02  0.00000000000E+00 0.  1.
</event>
<event>
 5    1  0.1258677E-009  0.9118800E+02  0.7561462E-02  0.1125453E+00
         25   -1    0    0    0    0  0.00000000000E+00  0.00000000000E+00  0.99999998245E-14  0.12509000000E+03  0.12509000000E+03 0.  0.
        -13    1    3    3    0    0 -0.11472440934E+02 -0.19176686028E+02  0.43767659992E+02  0.49142460390E+02  0.10566000000E+00 0. -1.
         23    2    1    0    0    0 -0.11509430493E+02  0.19725471217E+02  0.20014701529E+02  0.94723085730E+02  0.89723539207E+02 0.  0.
         13    1    3    3    0    0 -0.36989558979E-01  0.38902157245E+02 -0.23752958464E+02  0.45580625339E+02  0.10566000000E+00 0.  1.
         22    1    1    0    0    0  0.11509430493E+02 -0.19725471217E+02 -0.20014701529E+02  0.30366914270E+02  0.00000000000E+00 0.  1.
</event>
<event>
 5    1  0.1258677E-009  0.9118800E+02  0.7561462E-02  0.1125453E+00
         25   -1    0    0    0    0  0.00000000000E+00  0.00000000000E+00  0.99999998245E-14  0.12509000000E+03  0.12509000000E+03 0.  0.
        -13    1    3    3    0    0  0.12150336967E+02  0.48142876897E+02  0.74592382434E+01  0.50209746898E+02  0.10566000000E+00 0.  1.
         23    2    1    0    0    0  0.10880969314E+02  0.85613872595E+01  0.27282022301E+02  0.94495857001E+02  0.89406182138E+02 0.  0.
         13    1    3    3    0    0 -0.12693676535E+01 -0.39581489638E+02  0.19822784058E+02  0.44286110103E+02  0.10566000000E+00 0. -1.
         22    1    1    0    0    0 -0.10880969314E+02 -0.85613872595E+01 -0.27282022301E+02  0.30594142999E+02  0.00000000000E+00 0. -1.
</event>
<event>
 5    1  0.1258677E-009  0.9118800E+02  0.7561462E-02  0.1125453E+00
         25   -1    0    0    0    0  0.00000000000E+00  0.00000000000E+00  0.99999998245E-14  0.12509000000E+03  0.12509000000E+03 0.  0.
        -13    1    3    3    0    0 -0.17386482615E+02  0.10014410812E+02  0.34873420236E+02  0.40233627783E+02  0.10566000000E+00 0.  1.
         23    2    1    0    0    0 -0.20524429473E+02 -0.19544542487E+02 -0.10827055737E+02  0.94750809468E+02  0.89762182530E+02 0.  0.
         13    1    3    3    0    0 -0.31379468583E+01 -0.29558953300E+02 -0.45700475973E+02  0.54517181684E+02  0.10566000000E+00 0. -1.
         22    1    1    0    0    0  0.20524429473E+02  0.19544542487E+02  0.10827055737E+02  0.30339190532E+02  0.00000000000E+00 0. -1.
</event>
<event>
 5    1  0.1258677E-009  0.9118800E+02  0.7561462E-02  0.1125453E+00
         25   -1    0    0    0    0  0.00000000000E+00  0.00000000000E+00  0.99999998245E-14  0.12509000000E+03  0.12509000000E+03 0.  0.
        -13    1    3    3    0    0  0.29403096609E+02 -0.51787410052E+02  0.50445230921E+01  0.59765678339E+02  0.10566000000E+00 0.  1.
         23    2    1    0    0    0  0.24458859072E+02 -0.16615746866E+02  0.11139644908E+01  0.95500141131E+02  0.90800425154E+02 0.  0.
         13    1    3    3    0    0 -0.49442375376E+01  0.35171663185E+02 -0.39305586013E+01  0.35734462792E+02  0.10566000000E+00 0. -1.
         22    1    1    0    0    0 -0.24458859072E+02  0.16615746866E+02 -0.11139644908E+01  0.29589858869E+02  0.00000000000E+00 0.  1.
</event>
<event>
 5    1  0.1258677E-009  0.9118800E+02  0.7561462E-02  0.1125453E+00
         25   -1    0    0    0    0  0.00000000000E+00  0.00000000000E+00  0.99999998245E-14  0.12509000000E+03  0.12509000000E+03 0.  0.
        -13    1    3    3    0    0 -0.16996008015E+02 -0.20286039306E+02  0.31546573128E+02  0.41177483159E+02  0.10566000000E+00 0.  1.
         23    2    1    0    0    0 -0.29008341972E+02  0.66527712138E+01 -0.11351209579E+02  0.93237319929E+02  0.87627647463E+02 0.  0.
         13    1    3    3    0    0 -0.12012333958E+02  0.26938810519E+02 -0.42897782707E+02  0.52059836770E+02  0.10566000000E+00 0. -1.
         22    1    1    0    0    0  0.29008341972E+02 -0.66527712138E+01  0.11351209579E+02  0.31852680071E+02  0.00000000000E+00 0.  1.
</event>
<event>
 5    1  0.1258677E-009  0.9118800E+02  0.7561462E-02  0.1125453E+00
         25   -1    0    0    0    0  0.00000000000E+00  0.00000000000E+00  0.99999998245E-14  0.12509000000E+03  0.12509000000E+03 0.  0.
        -13    1    3    3    0    0 -0.24571620307E+02  0.45982827753E+01  0.29793997277E+02  0.38892186449E+02  0.10566000000E+00 0.  1.
         23    2    1    0    0    0  0.26768006677E+02  0.10895449390E+02  0.73941276926E+01  0.95258638596E+02  0.90467110621E+02 0.  0.
         13    1    3    3    0    0  0.51339626984E+02  0.62971666149E+01 -0.22399869585E+02  0.56366452147E+02  0.10566000000E+00 0. -1.
         22    1    1    0    0    0 -0.26768006677E+02 -0.10895449390E+02 -0.73941276926E+01  0.29831361404E+02  0.00000000000E+00 0. -1.
</event>
<event>
 5    1  0.1258677E-009  0.9118800E+02  0.7561462E-02  0.1125453E+00
         25   -1    0    0    0    0  0.00000000000E+00  0.00000000000E+00  0.99999998245E-14  0.12509000000E+03  0.12509000000E+03 0.  0.
        -13    1    3    3    0    0  0.22947040339E+02 -0.34513220908E+02  0.22010374599E+02  0.46927570061E+02  0.10566000000E+00 0.  1.
         23    2    1    0    0    0 -0.26924201009E+00 -0.22432761295E+02 -0.19076302596E+02  0.95641628376E+02  0.90995134415E+02 0.  0.
         13    1    3    3    0    0 -0.23216282349E+02  0.12080459614E+02 -0.41086677195E+02  0.48714058316E+02  0.10566000000E+00 0. -1.
         22    1    1    0    0    0  0.26924201009E+00  0.22432761295E+02  0.19076302596E+02  0.29448371624E+02  0.00000000000E+00 0.  1.
</event>
<event>
 5    1  0.1258677E-009  0.9118800E+02  0.7561462E-02  0.1125453E+00
         25   -1    0    0    0    0  0.00000000000E+00  0.00000000000E+00  0.99999998245E-14  0.12509000000E+03  0.12509000000E+03 0.  0.
        -13    1    3    3    0    0 -0.32867673956E+02  0.11185727057E+02  0.18816669117E+02  0.39490285916E+02  0.10566000000E+00 0.  1.
         23    2    1    0    0    0  0.18946406064E+02  0.22214099391E+02 -0.53385991354E+00  0.95888672617E+02  0.91334112003E+02 0.  0.
         13    1    3    3    0    0  0.51814080020E+02  0.11028372334E+02 -0.19350529030E+02  0.56398386701E+02  0.10566000000E+00 0. -1.
         22    1    1    0    0    0 -0.18946406064E+02 -0.22214099391E+02  0.53385991354E+00  0.29201327383E+02  0.00000000000E+00 0. -1.
</event>
<event>
 5    1  0.1258677E-009  0.9118800E+02  0.7561462E-02  0.1125453E+00
         25   -1    0    0    0    0  0.00000000000E+00  0.00000000000E+00  0.99999998245E-14  0.12509000000E+03  0.12509000000E+03 0.  0.
        -13    1    3    3    0    0  0.23172981603E+02  0.38598476871E+02  0.17746230587E+02  0.48391831513E+02  0.10566000000E+00 0.  1.
         23    2    1    0    0    0  0.19291846035E+01 -0.23598138390E+01  0.29037271232E+02  0.95893192038E+02  0.91340301532E+02 0.  0.
         13    1    3    3    0    0 -0.21243796999E+02 -0.40958290710E+02  0.11291040645E+02  0.47501360525E+02  0.10566000000E+00 0. -1.
         22    1    1    0    0    0 -0.19291846035E+01  0.23598138390E+01 -0.29037271232E+02  0.29196807962E+02  0.00000000000E+00 0. -1.
</event>
<event>
 5    1  0.1258677E-009  0.9118800E+02  0.7561462E-02  0.1125453E+00
         25   -1    0    0    0    0  0.00000000000E+00  0.00000000000E+00  0.99999998245E-14  0.12509000000E+03  0.12509000000E+03 0.  0.
        -13    1    3    3    0    0  0.19082799329E+02  0.13648347813E+02  0.62550400772E+01  0.24281007365E+02  0.10566000000E+00 0. -1.
         23    2    1    0    0    0 -0.17583506114E+02 -0.34947977074E+02  0.78902014545E+01  0.85180150742E+02  0.75251990091E+02 0.  0.
         13    1    3    3    0    0 -0.36666305443E+02 -0.48596324887E+02  0.16351613772E+01  0.60899143377E+02  0.10566000000E+00 0.  1.
         22    1    1    0    0    0  0.17583506114E+02  0.34947977074E+02 -0.78902014545E+01  0.39909849258E+02  0.00000000000E+00 0.  1.
</event>
<event>
 5    1  0.1258677E-009  0.9118800E+02  0.7561462E-02  0.1125453E+00
         25   -1    0    0    0    0  0.00000000000E+00  0.00000000000E+00  0.99999998245E-14  0.12509000000E+03  0.12509000000E+03 0.  0.
        -13    1    3    3    0    0  0.28913060237E+02  0.27941267894E+02 -0.13314446814E+02  0.42355225909E+02  0.10566000000E+00 0. -1.
         23    2    1    0    0    0 -0.20085515321E+02  0.11848848139E+02 -0.20010174541E+02  0.94361670838E+02  0.89218242027E+02 0.  0.
         13    1    3    3    0    0 -0.48998575558E+02 -0.16092419756E+02 -0.66957277272E+01  0.52006444929E+02  0.10566000000E+00 0.  1.
         22    1    1    0    0    0  0.20085515321E+02 -0.11848848139E+02  0.20010174541E+02  0.30728329162E+02  0.00000000000E+00 0.  1.
</event>
<event>
 5    1  0.1258677E-009  0.9118800E+02  0.7561462E-02  0.1125453E+00
         25   -1    0    0    0    0  0.00000000000E+00  0.00000000000E+00  0.99999998245E-14  0.12509000000E+03  0.12509000000E+03 0.  0.
        -13    1    3    3    0    0 -0.22504198842E+02  0.21577698860E+02 -0.20736011111E+02  0.37443682704E+02  0.10566000000E+00 0.  1.
         23    2    1    0    0    0  0.27709278995E+02  0.73212824534E+01  0.55664726497E+01  0.95894265090E+02  0.91341771059E+02 0.  0.
         13    1    3    3    0    0  0.50213477837E+02 -0.14256416406E+02  0.26302483761E+02  0.58450582386E+02  0.10566000000E+00 0. -1.
         22    1    1    0    0    0 -0.27709278995E+02 -0.73212824534E+01 -0.55664726497E+01  0.29195734910E+02  0.00000000000E+00 0. -1.
</event>
<event>
 5    1  0.1258677E-009  0.9118800E+02  0.7561462E-02  0.1125453E+00
         25   -1    0    0    0    0  0.00000000000E+00  0.00000000000E+00  0.99999998245E-14  0.12509000000E+03  0.12509000000E+03 0.  0.
        -13    1    3    3    0    0  0.30102230221E+01  0.57411499855E+02  0.10833352842E+02  0.58502260265E+02  0.10566000000E+00 0.  1.
         23    2    1    0    0    0  0.41078880031E+01  0.23164190289E+02  0.20262782999E+02  0.94041089706E+02  0.88767627673E+02 0.  0.
         13    1    3    3    0    0  0.10976649811E+01 -0.34247309566E+02  0.94294301568E+01  0.35538829441E+02  0.10566000000E+00 0. -1.
         22    1    1    0    0    0 -0.41078880031E+01 -0.23164190289E+02 -0.20262782999E+02  0.31048910294E+02  0.00000000000E+00 0.  1.
</event>
<event>
 5    1  0.1258677E-009  0.9118800E+02  0.7561462E-02  0.1125453E+00
         25   -1    0    0    0    0  0.00000000000E+00  0.00000000000E+00  0.99999998245E-14  0.12509000000E+03  0.12509000000E+03 0.  0.
        -13    1    3    3    0    0 -0.56469680550E+02 -0.14440391657E+02 -0.63842141267E+01  0.58635476349E+02  0.10566000000E+00 0.  1.
         23    2    1    0    0    0 -0.28923619377E+02  0.78325027163E+01  0.20653968881E+01  0.95053526822E+02  0.90183054064E+02 0.  0.
         13    1    3    3    0    0  0.27546061173E+02  0.22272894374E+02  0.84496110148E+01  0.36418050473E+02  0.10566000000E+00 0. -1.
         22    1    1    0    0    0  0.28923619377E+02 -0.78325027163E+01 -0.20653968881E+01  0.30036473178E+02  0.00000000000E+00 0.  1.
</event>
<event>
 5    1  0.1258677E-009  0.9118800E+02  0.7561462E-02  0.1125453E+00
         25   -1    0    0    0    0  0.00000000000E+00  0.00000000000E+00  0.99999998245E-14  0.12509000000E+03  0.12509000000E+03 0.  0.
        -13    1    3    3    0    0  0.38077933069E+02  0.13588378025E+02 -0.23560349014E+02  0.46793954886E+02  0.10566000000E+00 0.  1.
         23    2    1    0    0    0 -0.10301978182E+02  0.75700192570E+01 -0.26533323380E+02  0.95637441612E+02  0.90989378735E+02 0.  0.
         13    1    3    3    0    0 -0.48379911251E+02 -0.60183587683E+01 -0.29729743658E+01  0.48843486726E+02  0.10566000000E+00 0. -1.
         22    1    1    0    0    0  0.10301978182E+02 -0.75700192570E+01  0.26533323380E+02  0.29452558388E+02  0.00000000000E+00 0. -1.
</event>
<event>
 5    1  0.1258677E-009  0.9118800E+02  0.7561462E-02  0.1125453E+00
         25   -1    0    0    0    0  0.00000000000E+00  0.00000000000E+00  0.99999998245E-14  0.12509000000E+03  0.12509000000E+03 0.  0.
        -13    1    3    3    0    0  0.15077065191E+02  0.39162334776E+02  0.20332031750E+02  0.46630559068E+02  0.10566000000E+00 0.  1.
         23    2    1    0    0    0 -0.54923986566E+01 -0.43469169299E+01  0.28759818864E+02  0.95489504888E+02  0.90785771093E+02 0.  0.
         13    1    3    3    0    0 -0.20569463847E+02 -0.43509251706E+02  0.84277871134E+01  0.48858945820E+02  0.10566000000E+00 0. -1.
         22    1    1    0    0    0  0.54923986566E+01  0.43469169299E+01 -0.28759818864E+02  0.29600495112E+02  0.00000000000E+00 0. -1.
</event>
<event>
 5    1  0.1258677E-009  0.9118800E+02  0.7561462E-02  0.1125453E+00
         25   -1    0    0    0    0  0.00000000000E+00  0.00000000000E+00  0.99999998245E-14  0.12509000000E+03  0.12509000000E+03 0.  0.
        -13    1    3    3    0    0  0.58632214825E+02 -0.94086719405E+00 -0.12979875387E+02  0.60059222234E+02  0.10566000000E+00 0. -1.
         23    2    1    0    0    0  0.21641017376E+02  0.31793544944E+01 -0.16848684612E+02  0.97479855103E+02  0.93487978102E+02 0.  0.
         13    1    3    3    0    0 -0.36991197448E+02  0.41202216885E+01 -0.38688092251E+01  0.37420632868E+02  0.10566000000E+00 0.  1.
         22    1    1    0    0    0 -0.21641017376E+02 -0.31793544944E+01  0.16848684612E+02  0.27610144897E+02  0.00000000000E+00 0. -1.
</event>
<event>
 5    1  0.1258677E-009  0.9118800E+02  0.7561462E-02  0.1125453E+00
         25   -1    0    0    0    0  0.00000000000E+00  0.00000000000E+00  0.99999998245E-14  0.12509000000E+03  0.12509000000E+03 0.  0.
        -13    1    3    3    0    0  0.42481327279E+02 -0.41860350094E+02 -0.17616954527E+02  0.62187782788E+02  0.10566000000E+00 0.  1.
         23    2    1    0    0    0  0.20394376677E+02 -0.17154026848E+02 -0.12252141216E+02  0.95759023175E+02  0.91156372887E+02 0.  0.
         13    1    3    3    0    0 -0.22086950602E+02  0.24706323246E+02  0.53648133107E+01  0.33571240387E+02  0.10566000000E+00 0. -1.
         22    1    1    0    0    0 -0.20394376677E+02  0.17154026848E+02  0.12252141216E+02  0.29330976825E+02  0.00000000000E+00 0.  1.
</event>
<event>
 5    1  0.1258677E-009  0.9118800E+02  0.7561462E-02  0.1125453E+00
         25   -1    0    0    0    0  0.00000000000E+00  0.00000000000E+00  0.99999998245E-14  0.12509000000E+03  0.12509000000E+03 0.  0.
        -13    1    3    3    0    0 -0.42194024903E+02  0.83409629582E+01 -0.52983510821E+01  0.43335794544E+02  0.10566000000E+00 0. -1.
         23    2    1    0    0    0  0.64937478894E+01  0.12084989334E+02 -0.25462412927E+02  0.96166822427E+02  0.91714271162E+02 0.  0.
         13    1    3    3    0    0  0.48687772792E+02  0.37440263755E+01 -0.20164061845E+02  0.52831027882E+02  0.10566000000E+00 0.  1.
         22    1    1    0    0    0 -0.64937478894E+01 -0.12084989334E+02  0.25462412927E+02  0.28923177573E+02  0.00000000000E+00 0.  1.
</event>
<event>
 5    1  0.1258677E-009  0.9118800E+02  0.7561462E-02  0.1125453E+00
         25   -1    0    0    0    0  0.00000000000E+00  0.00000000000E+00  0.99999998245E-14  0.12509000000E+03  0.12509000000E+03 0.  0.
        -13    1    3    3    0    0 -0.39720666250E+02 -0.57265302912E+01  0.43034834285E+01  0.40361561047E+02  0.10566000000E+00 0.  1.
         23    2    1    0    0    0  0.10180706001E+02 -0.28109555473E+02  0.42141870260E+00  0.95190644200E+02  0.90373045019E+02 0.  0.
         13    1    3    3    0    0  0.49901372251E+02 -0.22383025181E+02 -0.38820647259E+01  0.54829083153E+02  0.10566000000E+00 0. -1.
         22    1    1    0    0    0 -0.10180706001E+02  0.28109555473E+02 -0.42141870260E+00  0.29899355800E+02  0.00000000000E+00 0. -1.
</event>
<event>
 5    1  0.1258677E-009  0.9118800E+02  0.7561462E-02  0.1125453E+00
         25   -1    0    0    0    0  0.00000000000E+00  0.00000000000E+00  0.99999998245E-14  0.12509000000E+03  0.12509000000E+03 0.  0.
        -13    1    3    3    0    0 -0.48355331941E+02 -0.19483113072E+02 -0.25832407258E+02  0.58182078434E+02  0.10566000000E+00 0.  1.
         23    2    1    0    0    0 -0.12506068491E+02 -0.99918100271E+01 -0.25156036294E+02  0.95272820745E+02  0.90486718330E+02 0.  0.
         13    1    3    3    0    0  0.35849263451E+02  0.94913030453E+01  0.67637096490E+00  0.37090742311E+02  0.10566000000E+00 0. -1.
         22    1    1    0    0    0  0.12506068491E+02  0.99918100271E+01  0.25156036294E+02  0.29817179255E+02  0.00000000000E+00 0.  1.
</event>
<event>
 5    1  0.1258677E-009  0.9118800E+02  0.7561462E-02  0.1125453E+00
         25   -1    0    0    0    0  0.00000000000E+00  0.00000000000E+00  0.99999998245E-14  0.12509000000E+03  0.12509000000E+03 0.  0.
        -13    1    3    3    0    0 -0.25676337946E+02  0.45392159038E+02  0.30860259352E+02  0.60597765666E+02  0.10566000000E+00 0. -1.
         23    2    1    0    0    0 -0.15290749755E+02  0.14316001623E+02  0.22366606904E+02  0.94446566202E+02  0.89337191765E+02 0.  0.
         13    1    3    3    0    0  0.10385588191E+02 -0.31076157415E+02 -0.84936524484E+01  0.33848800536E+02  0.10566000000E+00 0.  1.
         22    1    1    0    0    0  0.15290749755E+02 -0.14316001623E+02 -0.22366606904E+02  0.30643433798E+02  0.00000000000E+00 0. -1.
</event>
<event>
 5    1  0.1258677E-009  0.9118800E+02  0.7561462E-02  0.1125453E+00
         25   -1    0    0    0    0  0.00000000000E+00  0.00000000000E+00  0.99999998245E-14  0.12509000000E+03  0.12509000000E+03 0.  0.
        -13    1    3    3    0    0  0.19084026348E+02 -0.47210393881E+02 -0.10572632240E+02  0.52007817379E+02  0.10566000000E+00 0. -1.
         23    2    1    0    0    0 -0.36875414608E+01 -0.22173435260E+02  0.17994574665E+02  0.96296530070E+02  0.91891010403E+02 0.  0.
         13    1    3    3    0    0 -0.22771567809E+02  0.25036958621E+02  0.28567206904E+02  0.44288712691E+02  0.10566000000E+00 0.  1.
         22    1    1    0    0    0  0.36875414608E+01  0.22173435260E+02 -0.17994574665E+02  0.28793469930E+02  0.00000000000E+00 0.  1.
</event>
<event>
 5    1  0.1258677E-009  0.9118800E+02  0.7561462E-02  0.1125453E+00
         25   -1    0    0    0    0  0.00000000000E+00  0.00000000000E+00  0.99999998245E-14  0.12509000000E+03  0.12509000000E+03 0.  0.
        -13    1    3    3    0    0 -0.13498319536E+02  0.12527291927E+01  0.36670698194E+02  0.39096358280E+02  0.10566000000E+00 0.  1.
         23    2    1    0    0    0  0.26412944133E+02  0.14040635948E+02 -0.58457696948E+00  0.95171363571E+02  0.90346353762E+02 0.  0.
         13    1    3    3    0    0  0.39911263669E+02  0.12787906755E+02 -0.37255275163E+02  0.56075005290E+02  0.10566000000E+00 0. -1.
         22    1    1    0    0    0 -0.26412944133E+02 -0.14040635948E+02  0.58457696948E+00  0.29918636429E+02  0.00000000000E+00 0.  1.
</event>
<event>
 5    1  0.1258677E-009  0.9118800E+02  0.7561462E-02  0.1125453E+00
         25   -1    0    0    0    0  0.00000000000E+00  0.00000000000E+00  0.99999998245E-14  0.12509000000E+03  0.12509000000E+03 0.  0.
        -13    1    3    3    0    0  0.31723108289E+01 -0.17327269752E+02  0.51627307654E+02  0.54549866111E+02  0.10566000000E+00 0.  1.
         23    2    1    0    0    0 -0.19076592221E+02 -0.15348541301E+02  0.18965133911E+02  0.94119523816E+02  0.88878087109E+02 0.  0.
         13    1    3    3    0    0 -0.22248903049E+02  0.19787284509E+01 -0.32662173743E+02  0.39569657704E+02  0.10566000000E+00 0. -1.
         22    1    1    0    0    0  0.19076592221E+02  0.15348541301E+02 -0.18965133911E+02  0.30970476184E+02  0.00000000000E+00 0.  1.
</event>
<event>
 5    1  0.1258677E-009  0.9118800E+02  0.7561462E-02  0.1125453E+00
         25   -1    0    0    0    0  0.00000000000E+00  0.00000000000E+00  0.99999998245E-14  0.12509000000E+03  0.12509000000E+03 0.  0.
        -13    1    3    3    0    0  0.31518110784E+02 -0.50739875179E+02 -0.67929821608E+01  0.60117235559E+02  0.10566000000E+00 0.  1.
         23    2    1    0    0    0  0.19107201394E+02 -0.22940577300E+02  0.83069264050E+01  0.94100320133E+02  0.88851055091E+02 0.  0.
         13    1    3    3    0    0 -0.12410909389E+02  0.27799297879E+02  0.15099908566E+02  0.33983084574E+02  0.10566000000E+00 0. -1.
         22    1    1    0    0    0 -0.19107201394E+02  0.22940577300E+02 -0.83069264050E+01  0.30989679867E+02  0.00000000000E+00 0.  1.
</event>
<event>
 5    1  0.1258677E-009  0.9118800E+02  0.7561462E-02  0.1125453E+00
         25   -1    0    0    0    0  0.00000000000E+00  0.00000000000E+00  0.99999998245E-14  0.12509000000E+03  0.12509000000E+03 0.  0.
        -13    1    3    3    0    0 -0.85892565546E+01  0.87974659049E+01 -0.46428994130E+02  0.48029505458E+02  0.10566000000E+00 0. -1.
         23    2    1    0    0    0 -0.31678968945E+01  0.29010216735E+02 -0.36152479046E+01  0.95684247788E+02  0.91053703997E+02 0.  0.
         13    1    3    3    0    0  0.54213596601E+01  0.20212750830E+02  0.42813746226E+02  0.47654742331E+02  0.10566000000E+00 0.  1.
         22    1    1    0    0    0  0.31678968945E+01 -0.29010216735E+02  0.36152479046E+01  0.29405752212E+02  0.00000000000E+00 0.  1.
</event>
<event>
 5    1  0.1258677E-009  0.9118800E+02  0.7561462E-02  0.1125453E+00
         25   -1    0    0    0    0  0.00000000000E+00  0.00000000000E+00  0.99999998245E-14  0.12509000000E+03  0.12509000000E+03 0.  0.
        -13    1    3    3    0    0 -0.20798108877E+02  0.87182240483E+01  0.56977344965E+02  0.61278036577E+02  0.10566000000E+00 0.  1.
         23    2    1    0    0    0 -0.56054202770E+01 -0.37022067574E+01  0.28141226880E+02  0.96158084721E+02  0.91702352945E+02 0.  0.
         13    1    3    3    0    0  0.15192688600E+02 -0.12420430806E+02 -0.28836118085E+02  0.34880048144E+02  0.10566000000E+00 0. -1.
         22    1    1    0    0    0  0.56054202770E+01  0.37022067574E+01 -0.28141226880E+02  0.28931915279E+02  0.00000000000E+00 0.  1.
</event>
<event>
 5    1  0.1258677E-009  0.9118800E+02  0.7561462E-02  0.1125453E+00
         25   -1    0    0    0    0  0.00000000000E+00  0.00000000000E+00  0.99999998245E-14  0.12509000000E+03  0.12509000000E+03 0.  0.
        -13    1    3    3    0    0  0.92350623964E+01 -0.38355716166E+02  0.21981510708E+01  0.39513167074E+02  0.10566000000E+00 0.  1.
         23    2    1    0    0    0 -0.13362404993E+02  0.85592987355E+01  0.24287225089E+02  0.96078196117E+02  0.91593313099E+02 0.  0.
         13    1    3    3    0    0 -0.22597467389E+02  0.46915014901E+02  0.22089074018E+02  0.56565029043E+02  0.10566000000E+00 0. -1.
         22    1    1    0    0    0  0.13362404993E+02 -0.85592987355E+01 -0.24287225089E+02  0.29011803883E+02  0.00000000000E+00 0. -1.
</event>
<event>
 5    1  0.1258677E-009  0.9118800E+02  0.7561462E-02  0.1125453E+00
         25   -1    0    0    0    0  0.00000000000E+00  0.00000000000E+00  0.99999998245E-14  0.12509000000E+03  0.12509000000E+03 0.  0.
        -13    1    3    3    0    0 -0.63674761088E+01  0.23552956924E+02  0.27043780792E+02  0.36423395990E+02  0.10566000000E+00 0.  1.
         23    2    1    0    0    0  0.16393190608E+01 -0.28306724570E+02 -0.24705856368E+01  0.96628415078E+02  0.92341695805E+02 0.  0.
         13    1    3    3    0    0  0.80067951696E+01 -0.51859681495E+02 -0.29514366429E+02  0.60205019088E+02  0.10566000000E+00 0. -1.
         22    1    1    0    0    0 -0.16393190608E+01  0.28306724570E+02  0.24705856368E+01  0.28461584922E+02  0.00000000000E+00 0. -1.
</event>
<event>
 5    1  0.1258677E-009  0.9118800E+02  0.7561462E-02  0.1125453E+00
         25   -1    0    0    0    0  0.00000000000E+00  0.00000000000E+00  0.99999998245E-14  0.12509000000E+03  0.12509000000E+03 0.  0.
        -13    1    3    3    0    0 -0.46303314364E+01 -0.34768486331E+02  0.69143766707E+01  0.35750627683E+02  0.10566000000E+00 0. -1.
         23    2    1    0    0    0  0.42882704836E+01  0.12052029107E+02 -0.27648247490E+02  0.94625820073E+02  0.89587831573E+02 0.  0.
         13    1    3    3    0    0  0.89186019200E+01  0.46820515438E+02 -0.34562624161E+02  0.58875192390E+02  0.10566000000E+00 0.  1.
         22    1    1    0    0    0 -0.42882704836E+01 -0.12052029107E+02  0.27648247490E+02  0.30464179927E+02  0.00000000000E+00 0.  1.
</event>
<event>
 5    1  0.1258677E-009  0.9118800E+02  0.7561462E-02  0.1125453E+00
         25   -1    0    0    0    0  0.00000000000E+00  0.00000000000E+00  0.99999998245E-14  0.12509000000E+03  0.12509000000E+03 0.  0.
        -13    1    3    3    0    0  0.49821080124E+02 -0.32023629460E+02  0.29463001147E+01  0.59298775003E+02  0.10566000000E+00 0.  1.
         23    2    1    0    0    0  0.36554497351E+02 -0.67404364472E+01  0.14229934915E+01  0.87892020612E+02  0.79632390500E+02 0.  0.
         13    1    3    3    0    0 -0.13266582773E+02  0.25283193012E+02 -0.15233066232E+01  0.28593245609E+02  0.10566000000E+00 0. -1.
         22    1    1    0    0    0 -0.36554497351E+02  0.67404364472E+01 -0.14229934915E+01  0.37197979388E+02  0.00000000000E+00 0.  1.
</event>
<event>
 5    1  0.1258677E-009  0.9118800E+02  0.7561462E-02  0.1125453E+00
         25   -1    0    0    0    0  0.00000000000E+00  0.00000000000E+00  0.99999998245E-14  0.12509000000E+03  0.12509000000E+03 0.  0.
        -13    1    3    3    0    0 -0.73515921956E+01  0.39559724005E+02 -0.45514792540E+02  0.60750515842E+02  0.10566000000E+00 0. -1.
         23    2    1    0    0    0  0.86556668018E+00  0.25784557810E+02 -0.14940233309E+02  0.95277197407E+02  0.90492768480E+02 0.  0.
         13    1    3    3    0    0  0.82171588757E+01 -0.13775166195E+02  0.30574559230E+02  0.34526681564E+02  0.10566000000E+00 0.  1.
         22    1    1    0    0    0 -0.86556668018E+00 -0.25784557810E+02  0.14940233309E+02  0.29812802593E+02  0.00000000000E+00 0. -1.
</event>
<event>
 5    1  0.1258677E-009  0.9118800E+02  0.7561462E-02  0.1125453E+00
         25   -1    0    0    0    0  0.00000000000E+00  0.00000000000E+00  0.99999998245E-14  0.12509000000E+03  0.12509000000E+03 0.  0.
        -13    1    3    3    0    0 -0.41756871487E+02 -0.60782000890E+01  0.25349320149E+02  0.49225806532E+02  0.10566000000E+00 0. -1.
         23    2    1    0    0    0 -0.17547841986E+02  0.25953439495E+02  0.12078306676E+02  0.91513322497E+02  0.85131045584E+02 0.  0.
         13    1    3    3    0    0  0.24209029501E+02  0.32031639584E+02 -0.13271013473E+02  0.42287515965E+02  0.10566000000E+00 0.  1.
         22    1    1    0    0    0  0.17547841986E+02 -0.25953439495E+02 -0.12078306676E+02  0.33576677503E+02  0.00000000000E+00 0.  1.
</event>
<event>
 5    1  0.1258677E-009  0.9118800E+02  0.7561462E-02  0.1125453E+00
         25   -1    0    0    0    0  0.00000000000E+00  0.00000000000E+00  0.99999998245E-14  0.12509000000E+03  0.12509000000E+03 0.  0.
        -13    1    3    3    0    0  0.19873602310E+01  0.29125885239E+02  0.20976204033E+02  0.35948283566E+02  0.10566000000E+00 0.  1.
         23    2    1    0    0    0  0.20170761305E+02 -0.98170763764E+01 -0.19782341445E+02  0.95180542745E+02  0.90359061992E+02 0.  0.
         13    1    3    3    0    0  0.18183401074E+02 -0.38942961615E+02 -0.40758545478E+02  0.59232259180E+02  0.10566000000E+00 0. -1.
         22    1    1    0    0    0 -0.20170761305E+02  0.98170763764E+01  0.19782341445E+02  0.29909457255E+02  0.00000000000E+00 0. -1.
</event>
<event>
 5    1  0.1258677E-009  0.9118800E+02  0.7561462E-02  0.1125453E+00
         25   -1    0    0    0    0  0.00000000000E+00  0.00000000000E+00  0.99999998245E-14  0.12509000000E+03  0.12509000000E+03 0.  0.
        -13    1    3    3    0    0  0.30385692636E+02  0.23261735648E+02  0.43874223729E+02  0.58218187315E+02  0.10566000000E+00 0.  1.
         23    2    1    0    0    0  0.27454893479E+02  0.11461664624E+02  0.10829379782E+02  0.93429039839E+02  0.87900904926E+02 0.  0.
         13    1    3    3    0    0 -0.29307991577E+01 -0.11800071024E+02 -0.33044843948E+02  0.35210852524E+02  0.10566000000E+00 0. -1.
         22    1    1    0    0    0 -0.27454893479E+02 -0.11461664624E+02 -0.10829379782E+02  0.31660960161E+02  0.00000000000E+00 0.  1.
</event>
<event>
 5    1  0.1258677E-009  0.9118800E+02  0.7561462E-02  0.1125453E+00
         25   -1    0    0    0    0  0.00000000000E+00  0.00000000000E+00  0.99999998245E-14  0.12509000000E+03  0.12509000000E+03 0.  0.
        -13    1    3    3    0    0 -0.60854714126E+02  0.30115580813E+01 -0.34343701185E+01  0.61025992623E+02  0.10566000000E+00 0.  1.
         23    2    1    0    0    0 -0.26755763573E+02 -0.62601938722E+01  0.45068993388E+01  0.97244478756E+02  0.93172504502E+02 0.  0.
         13    1    3    3    0    0  0.34098950553E+02 -0.92717519535E+01  0.79412694573E+01  0.36218486133E+02  0.10566000000E+00 0. -1.
         22    1    1    0    0    0  0.26755763573E+02  0.62601938722E+01 -0.45068993388E+01  0.27845521244E+02  0.00000000000E+00 0.  1.
</event>
<event>
 5    1  0.1258677E-009  0.9118800E+02  0.7561462E-02  0.1125453E+00
         25   -1    0    0    0    0  0.00000000000E+00  0.00000000000E+00  0.99999998245E-14  0.12509000000E+03  0.12509000000E+03 0.  0.
        -13    1    3    3    0    0  0.20737733184E+02  0.27336422215E+02  0.56966590768E+01  0.34782131128E+02  0.10566000000E+00 0. -1.
         23    2    1    0    0    0 -0.25454705110E+02 -0.53741281992E+01  0.18937264964E+02  0.92911695656E+02  0.87161573639E+02 0.  0.
         13    1    3    3    0    0 -0.46192438294E+02 -0.32710550414E+02  0.13240605887E+02  0.58129564528E+02  0.10566000000E+00 0.  1.
         22    1    1    0    0    0  0.25454705110E+02  0.53741281992E+01 -0.18937264964E+02  0.32178304344E+02  0.00000000000E+00 0.  1.
</event>
<event>
 5    1  0.1258677E-009  0.9118800E+02  0.7561462E-02  0.1125453E+00
         25   -1    0    0    0    0  0.00000000000E+00  0.00000000000E+00  0.99999998245E-14  0.12509000000E+03  0.12509000000E+03 0.  0.
        -13    1    3    3    0    0 -0.87028971604E+01 -0.59221276577E+02  0.16776108708E+02  0.62163888277E+02  0.10566000000E+00 0.  1.
         23    2    1    0    0    0 -0.51050835174E-01 -0.28815933454E+02  0.53271188793E+01  0.95785754188E+02  0.91193047338E+02 0.  0.
         13    1    3    3    0    0  0.86518463252E+01  0.30405343122E+02 -0.11448989828E+02  0.33621865911E+02  0.10566000000E+00 0. -1.
         22    1    1    0    0    0  0.51050835174E-01  0.28815933454E+02 -0.53271188793E+01  0.29304245812E+02  0.00000000000E+00 0.  1.
</event>
<event>
 5    1  0.1258677E-009  0.9118800E+02  0.7561462E-02  0.1125453E+00
         25   -1    0    0    0    0  0.00000000000E+00  0.00000000000E+00  0.99999998245E-14  0.12509000000E+03  0.12509000000E+03 0.  0.
        -13    1    3    3    0    0 -0.28177207440E+01 -0.18586781090E+02  0.57481177136E+02  0.60477308724E+02  0.10566000000E+00 0.  1.
         23    2    1    0    0    0  0.22447546461E+01  0.21617676591E+01  0.28191213323E+02  0.96727054605E+02  0.92475220579E+02 0.  0.
         13    1    3    3    0    0  0.50624753900E+01  0.20748548749E+02 -0.29289963813E+02  0.36249745882E+02  0.10566000000E+00 0. -1.
         22    1    1    0    0    0 -0.22447546461E+01 -0.21617676591E+01 -0.28191213323E+02  0.28362945395E+02  0.00000000000E+00 0.  1.
</event>
<event>
 5    1  0.1258677E-009  0.9118800E+02  0.7561462E-02  0.1125453E+00
         25   -1    0    0    0    0  0.00000000000E+00  0.00000000000E+00  0.99999998245E-14  0.12509000000E+03  0.12509000000E+03 0.  0.
        -13    1    3    3    0    0 -0.37148689816E+02  0.89291062845E+01  0.22744877045E+02  0.44464532943E+02  0.10566000000E+00 0.  1.
         23    2    1    0    0    0  0.19879195105E+01 -0.23432415060E+02  0.18012029614E+02  0.95467996180E+02  0.90756130285E+02 0.  0.
         13    1    3    3    0    0  0.39136609326E+02 -0.32361521344E+02 -0.47328474307E+01  0.51003463236E+02  0.10566000000E+00 0. -1.
         22    1    1    0    0    0 -0.19879195105E+01  0.23432415060E+02 -0.18012029614E+02  0.29622003820E+02  0.00000000000E+00 0. -1.
</event>
<event>
 5    1  0.1258677E-009  0.9118800E+02  0.7561462E-02  0.1125453E+00
         25   -1    0    0    0    0  0.00000000000E+00  0.00000000000E+00  0.99999998245E-14  0.12509000000E+03  0.12509000000E+03 0.  0.
        -13    1    3    3    0    0 -0.32185045961E+02  0.41478648880E+02 -0.20543000616E+02  0.56377136631E+02  0.10566000000E+00 0.  1.
         23    2    1    0    0    0 -0.20355576811E+02  0.40387529517E+01 -0.20891617040E+02  0.95643086830E+02  0.90997139312E+02 0.  0.
         13    1    3    3    0    0  0.11829469150E+02 -0.37439895929E+02 -0.34861642446E+00  0.39265950198E+02  0.10566000000E+00 0. -1.
         22    1    1    0    0    0  0.20355576811E+02 -0.40387529517E+01  0.20891617040E+02  0.29446913170E+02  0.00000000000E+00 0.  1.
</event>
<event>
 5    1  0.1258677E-009  0.9118800E+02  0.7561462E-02  0.1125453E+00
         25   -1    0    0    0    0  0.00000000000E+00  0.00000000000E+00  0.99999998245E-14  0.12509000000E+03  0.12509000000E+03 0.  0.
        -13    1    3    3    0    0 -0.29439239400E+02 -0.16147734205E+01  0.33608367642E+02  0.44708051281E+02  0.10566000000E+00 0.  1.
         23    2    1    0    0    0 -0.22095606404E+02  0.12754627473E+02 -0.14703336469E+02  0.95643702310E+02  0.90997985384E+02 0.  0.
         13    1    3    3    0    0  0.73436329960E+01  0.14369400893E+02 -0.48311704111E+02  0.50935651029E+02  0.10566000000E+00 0. -1.
         22    1    1    0    0    0  0.22095606404E+02 -0.12754627473E+02  0.14703336469E+02  0.29446297690E+02  0.00000000000E+00 0. -1.
</event>
<event>
 5    1  0.1258677E-009  0.9118800E+02  0.7561462E-02  0.1125453E+00
         25   -1    0    0    0    0  0.00000000000E+00  0.00000000000E+00  0.99999998245E-14  0.12509000000E+03  0.12509000000E+03 0.  0.
        -13    1    3    3    0    0 -0.31989956496E+02 -0.24746337495E+02  0.13572960860E+02  0.42661164618E+02  0.10566000000E+00 0.  1.
         23    2    1    0    0    0 -0.15060626405E+02  0.10354222724E+02 -0.22731976848E+02  0.95921949545E+02  0.91379676281E+02 0.  0.
         13    1    3    3    0    0  0.16929330091E+02  0.35100560219E+02 -0.36304937708E+02  0.53260784927E+02  0.10566000000E+00 0. -1.
         22    1    1    0    0    0  0.15060626405E+02 -0.10354222724E+02  0.22731976848E+02  0.29168050455E+02  0.00000000000E+00 0.  1.
</event>
<event>
 5    1  0.1258677E-009  0.9118800E+02  0.7561462E-02  0.1125453E+00
         25   -1    0    0    0    0  0.00000000000E+00  0.00000000000E+00  0.99999998245E-14  0.12509000000E+03  0.12509000000E+03 0.  0.
        -13    1    3    3    0    0 -0.42791899839E+02  0.67255879185E+00  0.33728068331E+02  0.54490299913E+02  0.10566000000E+00 0.  1.
         23    2    1    0    0    0 -0.33499764926E+02 -0.29400943249E+00 -0.21064915137E+01  0.91522783878E+02  0.85144946830E+02 0.  0.
         13    1    3    3    0    0  0.92921349131E+01 -0.96656822433E+00 -0.35834559845E+02  0.37032483966E+02  0.10566000000E+00 0. -1.
         22    1    1    0    0    0  0.33499764926E+02  0.29400943249E+00  0.21064915137E+01  0.33567216122E+02  0.00000000000E+00 0.  1.
</event>
<event>
 5    1  0.1258677E-009  0.9118800E+02  0.7561462E-02  0.1125453E+00
         25   -1    0    0    0    0  0.00000000000E+00  0.00000000000E+00  0.99999998245E-14  0.12509000000E+03  0.12509000000E+03 0.  0.
        -13    1    3    3    0    0  0.10927761127E+02 -0.18005347197E+02  0.43733213320E+02  0.48540844680E+02  0.10566000000E+00 0.  1.
         23    2    1    0    0    0  0.28138022856E+02  0.28861252302E+01  0.41386814798E+01  0.96503172028E+02  0.92171880083E+02 0.  0.
         13    1    3    3    0    0  0.17210261729E+02  0.20891472427E+02 -0.39594531840E+02  0.47962327348E+02  0.10566000000E+00 0. -1.
         22    1    1    0    0    0 -0.28138022856E+02 -0.28861252302E+01 -0.41386814798E+01  0.28586827972E+02  0.00000000000E+00 0. -1.
</event>
<event>
 5    1  0.1258677E-009  0.9118800E+02  0.7561462E-02  0.1125453E+00
         25   -1    0    0    0    0  0.00000000000E+00  0.00000000000E+00  0.99999998245E-14  0.12509000000E+03  0.12509000000E+03 0.  0.
        -13    1    3    3    0    0  0.25491672875E+02 -0.42455326561E+01 -0.23986418857E+02  0.35259174510E+02  0.10566000000E+00 0.  1.
         23    2    1    0    0    0 -0.21913431469E+02  0.20130289233E+02  0.33162145576E+01  0.95149654271E+02  0.90316290920E+02 0.  0.
         13    1    3    3    0    0 -0.47405104344E+02  0.24375821889E+02  0.27302633415E+02  0.59890479761E+02  0.10566000000E+00 0. -1.
         22    1    1    0    0    0  0.21913431469E+02 -0.20130289233E+02 -0.33162145576E+01  0.29940345729E+02  0.00000000000E+00 0. -1.
</event>
<event>
 5    1  0.1258677E-009  0.9118800E+02  0.7561462E-02  0.1125453E+00
         25   -1    0    0    0    0  0.00000000000E+00  0.00000000000E+00  0.99999998245E-14  0.12509000000E+03  0.12509000000E+03 0.  0.
        -13    1    3    3    0    0 -0.26031070644E+02 -0.16025566955E+00 -0.20010420489E+02  0.32833982593E+02  0.10566000000E+00 0.  1.
         23    2    1    0    0    0  0.27583825440E+02  0.47459424957E+01  0.11059718962E+02  0.94995004078E+02  0.90101842490E+02 0.  0.
         13    1    3    3    0    0  0.53614896083E+02  0.49061981653E+01  0.31070139451E+02  0.62161021484E+02  0.10566000000E+00 0. -1.
         22    1    1    0    0    0 -0.27583825440E+02 -0.47459424957E+01 -0.11059718962E+02  0.30094995922E+02  0.00000000000E+00 0. -1.
</event>
<event>
 5    1  0.1258677E-009  0.9118800E+02  0.7561462E-02  0.1125453E+00
         25   -1    0    0    0    0  0.00000000000E+00  0.00000000000E+00  0.99999998245E-14  0.12509000000E+03  0.12509000000E+03 0.  0.
        -13    1    3    3    0    0 -0.25267194739E+02 -0.20841854916E+02 -0.94296200965E+01  0.34084350449E+02  0.10566000000E+00 0.  1.
         23    2    1    0    0    0  0.15479598852E+02  0.13543007615E+02  0.21183366611E+02  0.95564315303E+02  0.90888790851E+02 0.  0.
         13    1    3    3    0    0  0.40746793590E+02  0.34384862532E+02  0.30612986708E+02  0.61479964854E+02  0.10566000000E+00 0. -1.
         22    1    1    0    0    0 -0.15479598852E+02 -0.13543007615E+02 -0.21183366611E+02  0.29525684697E+02  0.00000000000E+00 0. -1.
</event>
<event>
 5    1  0.1258677E-009  0.9118800E+02  0.7561462E-02  0.1125453E+00
         25   -1    0    0    0    0  0.00000000000E+00  0.00000000000E+00  0.99999998245E-14  0.12509000000E+03  0.12509000000E+03 0.  0.
        -13    1    3    3    0    0 -0.25461580379E+02  0.30983154679E+02 -0.10712203806E+02  0.41509160720E+02  0.10566000000E+00 0.  1.
         23    2    1    0    0    0  0.12763814048E+02 -0.26710484124E+01 -0.27104642105E+02  0.95011584611E+02  0.90124858602E+02 0.  0.
         13    1    3    3    0    0  0.38225394427E+02 -0.33654203091E+02 -0.16392438299E+02  0.53502423891E+02  0.10566000000E+00 0. -1.
         22    1    1    0    0    0 -0.12763814048E+02  0.26710484124E+01  0.27104642105E+02  0.30078415389E+02  0.00000000000E+00 0. -1.
</event>
<event>
 5    1  0.1258677E-009  0.9118800E+02  0.7561462E-02  0.1125453E+00
         25   -1    0    0    0    0  0.00000000000E+00  0.00000000000E+00  0.99999998245E-14  0.12509000000E+03  0.12509000000E+03 0.  0.
        -13    1    3    3    0    0  0.21932267330E+01  0.10617837243E+02 -0.29543308333E+02  0.31470096004E+02  0.10566000000E+00 0. -1.
         23    2    1    0    0    0  0.93635335395E+00 -0.51347942205E+01  0.30801274373E+02  0.93849619524E+02  0.88497399468E+02 0.  0.
         13    1    3    3    0    0 -0.12568733791E+01 -0.15752631463E+02  0.60344582705E+02  0.62379523520E+02  0.10566000000E+00 0.  1.
         22    1    1    0    0    0 -0.93635335395E+00  0.51347942205E+01 -0.30801274373E+02  0.31240380476E+02  0.00000000000E+00 0.  1.
</event>
<event>
 5    1  0.1258677E-009  0.9118800E+02  0.7561462E-02  0.1125453E+00
         25   -1    0    0    0    0  0.00000000000E+00  0.00000000000E+00  0.99999998245E-14  0.12509000000E+03  0.12509000000E+03 0.  0.
        -13    1    3    3    0    0  0.23450259249E+02 -0.17213160757E+02  0.30849262969E+02  0.42401600817E+02  0.10566000000E+00 0.  1.
         23    2    1    0    0    0  0.21264728809E+02 -0.18914250478E+02 -0.18056462049E+02  0.91385795749E+02  0.84943453429E+02 0.  0.
         13    1    3    3    0    0 -0.21855304400E+01 -0.17010897211E+01 -0.48905725018E+02  0.48984194931E+02  0.10566000000E+00 0. -1.
         22    1    1    0    0    0 -0.21264728809E+02  0.18914250478E+02  0.18056462049E+02  0.33704204251E+02  0.00000000000E+00 0. -1.
</event>
<event>
 5    1  0.1258677E-009  0.9118800E+02  0.7561462E-02  0.1125453E+00
         25   -1    0    0    0    0  0.00000000000E+00  0.00000000000E+00  0.99999998245E-14  0.12509000000E+03  0.12509000000E+03 0.  0.
        -13    1    3    3    0    0  0.10105320728E+01  0.52839914494E+02 -0.23445882104E+02  0.57816937747E+02  0.10566000000E+00 0.  1.
         23    2    1    0    0    0  0.91876718558E+01  0.13706365630E+02 -0.21693310823E+02  0.97834220662E+02  0.93960934569E+02 0.  0.
         13    1    3    3    0    0  0.81771397830E+01 -0.39133548864E+02  0.17525712814E+01  0.40017282915E+02  0.10566000000E+00 0. -1.
         22    1    1    0    0    0 -0.91876718558E+01 -0.13706365630E+02  0.21693310823E+02  0.27255779338E+02  0.00000000000E+00 0.  1.
</event>
<event>
 5    1  0.1258677E-009  0.9118800E+02  0.7561462E-02  0.1125453E+00
         25   -1    0    0    0    0  0.00000000000E+00  0.00000000000E+00  0.99999998245E-14  0.12509000000E+03  0.12509000000E+03 0.  0.
        -13    1    3    3    0    0 -0.22669153652E+02 -0.38599981886E+02  0.33747451059E+02  0.56060242114E+02  0.10566000000E+00 0.  1.
         23    2    1    0    0    0 -0.19996560742E+02  0.27487686584E+00  0.18316545203E+02  0.97971116782E+02  0.94143007688E+02 0.  0.
         13    1    3    3    0    0  0.26725929096E+01  0.38874858752E+02 -0.15430905856E+02  0.41910874668E+02  0.10566000000E+00 0. -1.
         22    1    1    0    0    0  0.19996560742E+02 -0.27487686584E+00 -0.18316545203E+02  0.27118883218E+02  0.00000000000E+00 0.  1.
</event>
<event>
 5    1  0.1258677E-009  0.9118800E+02  0.7561462E-02  0.1125453E+00
         25   -1    0    0    0    0  0.00000000000E+00  0.00000000000E+00  0.99999998245E-14  0.12509000000E+03  0.12509000000E+03 0.  0.
        -13    1    3    3    0    0  0.24948480749E+02  0.29810223385E+02  0.37500324818E+01  0.39053169111E+02  0.10566000000E+00 0. -1.
         23    2    1    0    0    0  0.10966120649E+02 -0.23470944491E+02  0.14826211616E+02  0.95241087318E+02  0.90442838994E+02 0.  0.
         13    1    3    3    0    0 -0.13982360099E+02 -0.53281167876E+02  0.11076179134E+02  0.56187918207E+02  0.10566000000E+00 0.  1.
         22    1    1    0    0    0 -0.10966120649E+02  0.23470944491E+02 -0.14826211616E+02  0.29848912682E+02  0.00000000000E+00 0.  1.
</event>
<event>
 5    1  0.1258677E-009  0.9118800E+02  0.7561462E-02  0.1125453E+00
         25   -1    0    0    0    0  0.00000000000E+00  0.00000000000E+00  0.99999998245E-14  0.12509000000E+03  0.12509000000E+03 0.  0.
        -13    1    3    3    0    0  0.27780639835E+02 -0.14893761547E+02 -0.21357148649E+02  0.38075281288E+02  0.10566000000E+00 0.  1.
         23    2    1    0    0    0  0.20563762943E+01  0.17501081854E+02  0.21266288830E+02  0.97471680171E+02  0.93477039134E+02 0.  0.
         13    1    3    3    0    0 -0.25724263541E+02  0.32394843401E+02  0.42623437480E+02  0.59396398884E+02  0.10566000000E+00 0. -1.
         22    1    1    0    0    0 -0.20563762943E+01 -0.17501081854E+02 -0.21266288830E+02  0.27618319829E+02  0.00000000000E+00 0. -1.
</event>
<event>
 5    1  0.1258677E-009  0.9118800E+02  0.7561462E-02  0.1125453E+00
         25   -1    0    0    0    0  0.00000000000E+00  0.00000000000E+00  0.99999998245E-14  0.12509000000E+03  0.12509000000E+03 0.  0.
        -13    1    3    3    0    0 -0.17448517508E+01 -0.10082611637E+02 -0.37056266537E+02  0.38443225915E+02  0.10566000000E+00 0. -1.
         23    2    1    0    0    0  0.98344198467E+01 -0.19757079458E+02  0.18674054073E+02  0.96180169528E+02  0.91732473598E+02 0.  0.
         13    1    3    3    0    0  0.11579271597E+02 -0.96744678214E+01  0.55730320610E+02  0.57736943612E+02  0.10566000000E+00 0.  1.
         22    1    1    0    0    0 -0.98344198467E+01  0.19757079458E+02 -0.18674054073E+02  0.28909830472E+02  0.00000000000E+00 0.  1.
</event>
<event>
 5    1  0.1258677E-009  0.9118800E+02  0.7561462E-02  0.1125453E+00
         25   -1    0    0    0    0  0.00000000000E+00  0.00000000000E+00  0.99999998245E-14  0.12509000000E+03  0.12509000000E+03 0.  0.
        -13    1    3    3    0    0  0.23106305241E+02  0.24874936425E+02 -0.58656010467E+01  0.34454030878E+02  0.10566000000E+00 0. -1.
         23    2    1    0    0    0 -0.55799361993E+01 -0.25014127616E+02  0.14673296943E+02  0.95557849527E+02  0.90879891586E+02 0.  0.
         13    1    3    3    0    0 -0.28686241440E+02 -0.49889064041E+02  0.20538897989E+02  0.61103818649E+02  0.10566000000E+00 0.  1.
         22    1    1    0    0    0  0.55799361993E+01  0.25014127616E+02 -0.14673296943E+02  0.29532150473E+02  0.00000000000E+00 0.  1.
</event>
<event>
 5    1  0.1258677E-009  0.9118800E+02  0.7561462E-02  0.1125453E+00
         25   -1    0    0    0    0  0.00000000000E+00  0.00000000000E+00  0.99999998245E-14  0.12509000000E+03  0.12509000000E+03 0.  0.
        -13    1    3    3    0    0  0.14888204821E+00  0.11551984312E+02  0.28474381850E+02  0.30729010611E+02  0.10566000000E+00 0. -1.
         23    2    1    0    0    0 -0.12109813713E+02 -0.18659166972E+01 -0.30383394798E+02  0.92329048965E+02  0.86321337861E+02 0.  0.
         13    1    3    3    0    0 -0.12258695761E+02 -0.13417901009E+02 -0.58857776647E+02  0.61600038354E+02  0.10566000000E+00 0.  1.
         22    1    1    0    0    0  0.12109813713E+02  0.18659166972E+01  0.30383394798E+02  0.32760951035E+02  0.00000000000E+00 0.  1.
</event>
<event>
 5    1  0.1258677E-009  0.9118800E+02  0.7561462E-02  0.1125453E+00
         25   -1    0    0    0    0  0.00000000000E+00  0.00000000000E+00  0.99999998245E-14  0.12509000000E+03  0.12509000000E+03 0.  0.
        -13    1    3    3    0    0 -0.26787264433E+02  0.27600349110E+02 -0.36255364547E+02  0.52856403863E+02  0.10566000000E+00 0.  1.
         23    2    1    0    0    0 -0.16121732813E+02  0.22701241341E+02  0.59111315585E+01  0.96626020946E+02  0.92338452554E+02 0.  0.
         13    1    3    3    0    0  0.10665531620E+02 -0.48991077691E+01  0.42166496106E+02  0.43769617083E+02  0.10566000000E+00 0. -1.
         22    1    1    0    0    0  0.16121732813E+02 -0.22701241341E+02 -0.59111315585E+01  0.28463979054E+02  0.00000000000E+00 0. -1.
</event>
<event>
 5    1  0.1258677E-009  0.9118800E+02  0.7561462E-02  0.1125453E+00
         25   -1    0    0    0    0  0.00000000000E+00  0.00000000000E+00  0.99999998245E-14  0.12509000000E+03  0.12509000000E+03 0.  0.
        -13    1    3    3    0    0  0.55418602063E+02 -0.14751184575E+02  0.16083585247E+02  0.59560992095E+02  0.10566000000E+00 0.  1.
         23    2    1    0    0    0  0.28528478029E+02  0.47817588435E+01  0.77467973359E+00  0.96153182535E+02  0.91695665692E+02 0.  0.
         13    1    3    3    0    0 -0.26890124034E+02  0.19532943419E+02 -0.15308905513E+02  0.36592190440E+02  0.10566000000E+00 0. -1.
         22    1    1    0    0    0 -0.28528478029E+02 -0.47817588435E+01 -0.77467973359E+00  0.28936817465E+02  0.00000000000E+00 0.  1.
</event>
<event>
 5    1  0.1258677E-009  0.9118800E+02  0.7561462E-02  0.1125453E+00
         25   -1    0    0    0    0  0.00000000000E+00  0.00000000000E+00  0.99999998245E-14  0.12509000000E+03  0.12509000000E+03 0.  0.
        -13    1    3    3    0    0 -0.28621929861E+02  0.69063042169E+01 -0.18058238090E+02  0.34540165516E+02  0.10566000000E+00 0. -1.
         23    2    1    0    0    0  0.22867394063E+02 -0.18519819914E+02  0.25554071744E+01  0.95553047775E+02  0.90873282060E+02 0.  0.
         13    1    3    3    0    0  0.51489323924E+02 -0.25426124131E+02  0.20613645264E+02  0.61012882260E+02  0.10566000000E+00 0.  1.
         22    1    1    0    0    0 -0.22867394063E+02  0.18519819914E+02 -0.25554071744E+01  0.29536952225E+02  0.00000000000E+00 0.  1.
</event>
<event>
 5    1  0.1258677E-009  0.9118800E+02  0.7561462E-02  0.1125453E+00
         25   -1    0    0    0    0  0.00000000000E+00  0.00000000000E+00  0.99999998245E-14  0.12509000000E+03  0.12509000000E+03 0.  0.
        -13    1    3    3    0    0 -0.44045812885E+01  0.35578599381E+02 -0.95780042226E+01  0.37107767370E+02  0.10566000000E+00 0.  1.
         23    2    1    0    0    0 -0.15320464666E+02 -0.23028409123E+02 -0.37902054143E+00  0.97428331198E+02  0.93419011979E+02 0.  0.
         13    1    3    3    0    0 -0.10915883378E+02 -0.58607008504E+02  0.91989836811E+01  0.60320563828E+02  0.10566000000E+00 0. -1.
         22    1    1    0    0    0  0.15320464666E+02  0.23028409123E+02  0.37902054143E+00  0.27661668802E+02  0.00000000000E+00 0. -1.
</event>
<event>
 5    1  0.1258677E-009  0.9118800E+02  0.7561462E-02  0.1125453E+00
         25   -1    0    0    0    0  0.00000000000E+00  0.00000000000E+00  0.99999998245E-14  0.12509000000E+03  0.12509000000E+03 0.  0.
        -13    1    3    3    0    0 -0.15563307994E+02 -0.14782375971E+02  0.38601379381E+02  0.44168007077E+02  0.10566000000E+00 0. -1.
         23    2    1    0    0    0 -0.48216682376E+01  0.27246730468E+02  0.13272672055E+02  0.94401294761E+02  0.89273780155E+02 0.  0.
         13    1    3    3    0    0  0.10741639756E+02  0.42029106439E+02 -0.25328707325E+02  0.50233287683E+02  0.10566000000E+00 0.  1.
         22    1    1    0    0    0  0.48216682376E+01 -0.27246730468E+02 -0.13272672055E+02  0.30688705239E+02  0.00000000000E+00 0.  1.
</event>
<event>
 5    1  0.1258677E-009  0.9118800E+02  0.7561462E-02  0.1125453E+00
         25   -1    0    0    0    0  0.00000000000E+00  0.00000000000E+00  0.99999998245E-14  0.12509000000E+03  0.12509000000E+03 0.  0.
        -13    1    3    3    0    0  0.19554830365E+02  0.24218856856E+02 -0.24291325949E+02  0.39484479209E+02  0.10566000000E+00 0.  1.
         23    2    1    0    0    0 -0.16785949085E+02 -0.18955206031E+02 -0.11133628129E+02  0.97430903889E+02  0.93422456802E+02 0.  0.
         13    1    3    3    0    0 -0.36340779450E+02 -0.43174062887E+02  0.13157697820E+02  0.57946424680E+02  0.10566000000E+00 0. -1.
         22    1    1    0    0    0  0.16785949085E+02  0.18955206031E+02  0.11133628129E+02  0.27659096111E+02  0.00000000000E+00 0. -1.
</event>
<event>
 5    1  0.1258677E-009  0.9118800E+02  0.7561462E-02  0.1125453E+00
         25   -1    0    0    0    0  0.00000000000E+00  0.00000000000E+00  0.99999998245E-14  0.12509000000E+03  0.12509000000E+03 0.  0.
        -13    1    3    3    0    0  0.20588165053E+02 -0.25152377064E+02 -0.38522323949E+02  0.50403325473E+02  0.10566000000E+00 0.  1.
         23    2    1    0    0    0  0.28850185531E+02 -0.37720184973E+01  0.87247631797E+00  0.95981194741E+02  0.91460741306E+02 0.  0.
         13    1    3    3    0    0  0.82620204780E+01  0.21380358567E+02  0.39394800267E+02  0.45577869268E+02  0.10566000000E+00 0. -1.
         22    1    1    0    0    0 -0.28850185531E+02  0.37720184973E+01 -0.87247631797E+00  0.29108805259E+02  0.00000000000E+00 0.  1.
</event>
<event>
 5    1  0.1258677E-009  0.9118800E+02  0.7561462E-02  0.1125453E+00
         25   -1    0    0    0    0  0.00000000000E+00  0.00000000000E+00  0.99999998245E-14  0.12509000000E+03  0.12509000000E+03 0.  0.
        -13    1    3    3    0    0  0.17779046238E+02 -0.19631695750E+01 -0.28950511848E+02  0.34030748158E+02  0.10566000000E+00 0.  1.
         23    2    1    0    0    0 -0.15805922823E+02  0.54770561413E+01  0.23189951729E+02  0.96496308363E+02  0.92162564668E+02 0.  0.
         13    1    3    3    0    0 -0.33584969061E+02  0.74402257163E+01  0.52140463577E+02  0.62465560204E+02  0.10566000000E+00 0. -1.
         22    1    1    0    0    0  0.15805922823E+02 -0.54770561413E+01 -0.23189951729E+02  0.28593691637E+02  0.00000000000E+00 0. -1.
</event>
<event>
 5    1  0.1258677E-009  0.9118800E+02  0.7561462E-02  0.1125453E+00
         25   -1    0    0    0    0  0.00000000000E+00  0.00000000000E+00  0.99999998245E-14  0.12509000000E+03  0.12509000000E+03 0.  0.
        -13    1    3    3    0    0 -0.24188436346E+02  0.23133633969E+02 -0.22786181414E+02  0.40490328487E+02  0.10566000000E+00 0. -1.
         23    2    1    0    0    0  0.25678516613E+02  0.11249733037E+02  0.10742657651E+01  0.97034755289E+02  0.92890510701E+02 0.  0.
         13    1    3    3    0    0  0.49866952959E+02 -0.11883900933E+02  0.23860447179E+02  0.56544426803E+02  0.10566000000E+00 0.  1.
         22    1    1    0    0    0 -0.25678516613E+02 -0.11249733037E+02 -0.10742657651E+01  0.28055244711E+02  0.00000000000E+00 0.  1.
</event>
<event>
 5    1  0.1258677E-009  0.9118800E+02  0.7561462E-02  0.1125453E+00
         25   -1    0    0    0    0  0.00000000000E+00  0.00000000000E+00  0.99999998245E-14  0.12509000000E+03  0.12509000000E+03 0.  0.
        -13    1    3    3    0    0  0.11092336767E+02  0.31437595204E+02 -0.22013278172E+02  0.39949441886E+02  0.10566000000E+00 0.  1.
         23    2    1    0    0    0 -0.97917648466E+01  0.93495970357E+01  0.25421272890E+02  0.96288355274E+02  0.91879881490E+02 0.  0.
         13    1    3    3    0    0 -0.20884101613E+02 -0.22087998168E+02  0.47434551062E+02  0.56338913388E+02  0.10566000000E+00 0. -1.
         22    1    1    0    0    0  0.97917648466E+01 -0.93495970357E+01 -0.25421272890E+02  0.28801644726E+02  0.00000000000E+00 0. -1.
</event>
<event>
 5    1  0.1258677E-009  0.9118800E+02  0.7561462E-02  0.1125453E+00
         25   -1    0    0    0    0  0.00000000000E+00  0.00000000000E+00  0.99999998245E-14  0.12509000000E+03  0.12509000000E+03 0.  0.
        -13    1    3    3    0    0  0.77039875854E+01  0.32453686518E+02 -0.18707303737E+02  0.38243529785E+02  0.10566000000E+00 0. -1.
         23    2    1    0    0    0  0.68155736198E+01 -0.23079167543E+02  0.78109599689E+01  0.99789582733E+02  0.96529009672E+02 0.  0.
         13    1    3    3    0    0 -0.88841396567E+00 -0.55532854061E+02  0.26518263705E+02  0.61546052948E+02  0.10566000000E+00 0.  1.
         22    1    1    0    0    0 -0.68155736198E+01  0.23079167543E+02 -0.78109599689E+01  0.25300417267E+02  0.00000000000E+00 0.  1.
</event>
<event>
 5    1  0.1258677E-009  0.9118800E+02  0.7561462E-02  0.1125453E+00
         25   -1    0    0    0    0  0.00000000000E+00  0.00000000000E+00  0.99999998245E-14  0.12509000000E+03  0.12509000000E+03 0.  0.
        -13    1    3    3    0    0 -0.19228222075E+02 -0.11799757326E+02 -0.37587541661E+02  0.43838262389E+02  0.10566000000E+00 0. -1.
         23    2    1    0    0    0  0.16837193051E+02  0.18299419786E+02 -0.15867001621E+02  0.95592176779E+02  0.90927128441E+02 0.  0.
         13    1    3    3    0    0  0.36065415126E+02  0.30099177112E+02  0.21720540040E+02  0.51753914390E+02  0.10566000000E+00 0.  1.
         22    1    1    0    0    0 -0.16837193051E+02 -0.18299419786E+02  0.15867001621E+02  0.29497823221E+02  0.00000000000E+00 0. -1.
</event>
<event>
 5    1  0.1258677E-009  0.9118800E+02  0.7561462E-02  0.1125453E+00
         25   -1    0    0    0    0  0.00000000000E+00  0.00000000000E+00  0.99999998245E-14  0.12509000000E+03  0.12509000000E+03 0.  0.
        -13    1    3    3    0    0  0.16191620879E+01 -0.15314637438E+02  0.26596164411E+02  0.30733156869E+02  0.10566000000E+00 0.  1.
         23    2    1    0    0    0 -0.26439801373E+02 -0.23780510543E+02 -0.18874218176E+02  0.84830691883E+02  0.74668831484E+02 0.  0.
         13    1    3    3    0    0 -0.28058963461E+02 -0.84658731047E+01 -0.45470382587E+02  0.54097535014E+02  0.10566000000E+00 0. -1.
         22    1    1    0    0    0  0.26439801373E+02  0.23780510543E+02  0.18874218176E+02  0.40259308117E+02  0.00000000000E+00 0.  1.
</event>
<event>
 5    1  0.1258677E-009  0.9118800E+02  0.7561462E-02  0.1125453E+00
         25   -1    0    0    0    0  0.00000000000E+00  0.00000000000E+00  0.99999998245E-14  0.12509000000E+03  0.12509000000E+03 0.  0.
        -13    1    3    3    0    0 -0.20838459769E+02  0.77316991272E+00 -0.35422222657E+02  0.41104552294E+02  0.10566000000E+00 0.  1.
         23    2    1    0    0    0  0.26669234187E+01  0.15816133783E+02  0.17757005181E+02  0.10116148560E+03  0.98290754232E+02 0.  0.
         13    1    3    3    0    0  0.23505383188E+02  0.15042963871E+02  0.53179227838E+02  0.60056933307E+02  0.10566000000E+00 0. -1.
         22    1    1    0    0    0 -0.26669234187E+01 -0.15816133783E+02 -0.17757005181E+02  0.23928514399E+02  0.00000000000E+00 0. -1.
</event>
<event>
 5    1  0.1258677E-009  0.9118800E+02  0.7561462E-02  0.1125453E+00
         25   -1    0    0    0    0  0.00000000000E+00  0.00000000000E+00  0.99999998245E-14  0.12509000000E+03  0.12509000000E+03 0.  0.
        -13    1    3    3    0    0  0.52449384268E+02 -0.26328883905E+02 -0.67191638941E+01  0.59070350983E+02  0.10566000000E+00 0. -1.
         23    2    1    0    0    0  0.29092212225E+02  0.17526046426E+01 -0.34261035137E+01  0.95744359430E+02  0.91136248234E+02 0.  0.
         13    1    3    3    0    0 -0.23357172043E+02  0.28081488548E+02  0.32930603803E+01  0.36674008447E+02  0.10566000000E+00 0.  1.
         22    1    1    0    0    0 -0.29092212225E+02 -0.17526046426E+01  0.34261035137E+01  0.29345640570E+02  0.00000000000E+00 0. -1.
</event>
<event>
 5    1  0.1258677E-009  0.9118800E+02  0.7561462E-02  0.1125453E+00
         25   -1    0    0    0    0  0.00000000000E+00  0.00000000000E+00  0.99999998245E-14  0.12509000000E+03  0.12509000000E+03 0.  0.
        -13    1    3    3    0    0 -0.47173652326E+02 -0.23503113674E+02 -0.81012602694E+01  0.53323460204E+02  0.10566000000E+00 0.  1.
         23    2    1    0    0    0 -0.14225239892E+02 -0.20108294004E+02  0.17236804642E+02  0.95026594139E+02  0.90145688869E+02 0.  0.
         13    1    3    3    0    0  0.32948412434E+02  0.33948196699E+01  0.25338064911E+02  0.41703133935E+02  0.10566000000E+00 0. -1.
         22    1    1    0    0    0  0.14225239892E+02  0.20108294004E+02 -0.17236804642E+02  0.30063405861E+02  0.00000000000E+00 0. -1.
</event>
<event>
 5    1  0.1258677E-009  0.9118800E+02  0.7561462E-02  0.1125453E+00
         25   -1    0    0    0    0  0.00000000000E+00  0.00000000000E+00  0.99999998245E-14  0.12509000000E+03  0.12509000000E+03 0.  0.
        -13    1    3    3    0    0 -0.40413825288E+02  0.93739445273E+01 -0.74981237728E+01  0.42158998263E+02  0.10566000000E+00 0.  1.
         23    2    1    0    0    0 -0.52316934065E+01 -0.28983549011E+02  0.37227732169E+01  0.95403710748E+02  0.90667481794E+02 0.  0.
         13    1    3    3    0    0  0.35182131882E+02 -0.38357493538E+02  0.11220896990E+02  0.53244712484E+02  0.10566000000E+00 0. -1.
         22    1    1    0    0    0  0.52316934065E+01  0.28983549011E+02 -0.37227732169E+01  0.29686289252E+02  0.00000000000E+00 0. -1.
</event>
<event>
 5    1  0.1258677E-009  0.9118800E+02  0.7561462E-02  0.1125453E+00
         25   -1    0    0    0    0  0.00000000000E+00  0.00000000000E+00  0.99999998245E-14  0.12509000000E+03  0.12509000000E+03 0.  0.
        -13    1    3    3    0    0  0.14618381941E+02  0.15424827429E+02  0.26893380634E+02  0.34276631657E+02  0.10566000000E+00 0.  1.
         23    2    1    0    0    0  0.50091528660E+01 -0.18345509481E+02 -0.22975022197E+02  0.95265497062E+02  0.90476593409E+02 0.  0.
         13    1    3    3    0    0 -0.96092290748E+01 -0.33770336910E+02 -0.49868402831E+02  0.60988865405E+02  0.10566000000E+00 0. -1.
         22    1    1    0    0    0 -0.50091528660E+01  0.18345509481E+02  0.22975022197E+02  0.29824502938E+02  0.00000000000E+00 0. -1.
</event>
<event>
 5    1  0.1258677E-009  0.9118800E+02  0.7561462E-02  0.1125453E+00
         25   -1    0    0    0    0  0.00000000000E+00  0.00000000000E+00  0.99999998245E-14  0.12509000000E+03  0.12509000000E+03 0.  0.
        -13    1    3    3    0    0  0.49874274713E+02  0.21468037094E+01  0.24975102819E+02  0.55819521399E+02  0.10566000000E+00 0. -1.
         23    2    1    0    0    0  0.26887968135E+02 -0.10288163116E+02 -0.53029241716E+01  0.95816630951E+02  0.91235391330E+02 0.  0.
         13    1    3    3    0    0 -0.22986306578E+02 -0.12434966826E+02 -0.30278026991E+02  0.39997109552E+02  0.10566000000E+00 0.  1.
         22    1    1    0    0    0 -0.26887968135E+02  0.10288163116E+02  0.53029241716E+01  0.29273369049E+02  0.00000000000E+00 0. -1.
</event>
<event>
 5    1  0.1258677E-009  0.9118800E+02  0.7561462E-02  0.1125453E+00
         25   -1    0    0    0    0  0.00000000000E+00  0.00000000000E+00  0.99999998245E-14  0.12509000000E+03  0.12509000000E+03 0.  0.
        -13    1    3    3    0    0 -0.34456968599E+02 -0.81685609848E+00 -0.25294264990E+02  0.42752320923E+02  0.10566000000E+00 0. -1.
         23    2    1    0    0    0  0.17485812579E+02  0.46759231275E+01 -0.24037336351E+02  0.94999944541E+02  0.90108701164E+02 0.  0.
         13    1    3    3    0    0  0.51942781178E+02  0.54927792260E+01  0.12569286387E+01  0.52247623618E+02  0.10566000000E+00 0.  1.
         22    1    1    0    0    0 -0.17485812579E+02 -0.46759231275E+01  0.24037336351E+02  0.30090055459E+02  0.00000000000E+00 0. -1.
</event>
<event>
 5    1  0.1258677E-009  0.9118800E+02  0.7561462E-02  0.1125453E+00
         25   -1    0    0    0    0  0.00000000000E+00  0.00000000000E+00  0.99999998245E-14  0.12509000000E+03  0.12509000000E+03 0.  0.
        -13    1    3    3    0    0  0.32341224920E+02  0.22935122237E+02 -0.32102069015E+02  0.51014984666E+02  0.10566000000E+00 0.  1.
         23    2    1    0    0    0  0.24751495789E+02  0.13889620047E+02  0.10197089520E+02  0.94931440294E+02  0.90013552495E+02 0.  0.
         13    1    3    3    0    0 -0.75897291308E+01 -0.90455021901E+01  0.42299158536E+02  0.43916455629E+02  0.10566000000E+00 0. -1.
         22    1    1    0    0    0 -0.24751495789E+02 -0.13889620047E+02 -0.10197089520E+02  0.30158559706E+02  0.00000000000E+00 0.  1.
</event>
<event>
 5    1  0.1258677E-009  0.9118800E+02  0.7561462E-02  0.1125453E+00
         25   -1    0    0    0    0  0.00000000000E+00  0.00000000000E+00  0.99999998245E-14  0.12509000000E+03  0.12509000000E+03 0.  0.
        -13    1    3    3    0    0 -0.36454886337E+02 -0.79399280783E+01 -0.74062422915E+01  0.38037675857E+02  0.10566000000E+00 0. -1.
         23    2    1    0    0    0  0.18395008026E+02  0.59251631167E+01 -0.21336103215E+02  0.96302621192E+02  0.91899301792E+02 0.  0.
         13    1    3    3    0    0  0.54849894363E+02  0.13865091195E+02 -0.13929860924E+02  0.58264945334E+02  0.10566000000E+00 0.  1.
         22    1    1    0    0    0 -0.18395008026E+02 -0.59251631167E+01  0.21336103215E+02  0.28787378808E+02  0.00000000000E+00 0.  1.
</event>
<event>
 5    1  0.1258677E-009  0.9118800E+02  0.7561462E-02  0.1125453E+00
         25   -1    0    0    0    0  0.00000000000E+00  0.00000000000E+00  0.99999998245E-14  0.12509000000E+03  0.12509000000E+03 0.  0.
        -13    1    3    3    0    0 -0.21469497289E+02  0.25877391495E+02 -0.33558578938E+02  0.47505453254E+02  0.10566000000E+00 0.  1.
         23    2    1    0    0    0 -0.29564538640E+01 -0.14935076431E+02 -0.28723833921E+02  0.92580681911E+02  0.86685217313E+02 0.  0.
         13    1    3    3    0    0  0.18513043425E+02 -0.40812467927E+02  0.48347450170E+01  0.45075228658E+02  0.10566000000E+00 0. -1.
         22    1    1    0    0    0  0.29564538640E+01  0.14935076431E+02  0.28723833921E+02  0.32509318089E+02  0.00000000000E+00 0.  1.
</event>
<event>
 5    1  0.1258677E-009  0.9118800E+02  0.7561462E-02  0.1125453E+00
         25   -1    0    0    0    0  0.00000000000E+00  0.00000000000E+00  0.99999998245E-14  0.12509000000E+03  0.12509000000E+03 0.  0.
        -13    1    3    3    0    0 -0.39122795731E+02  0.32063759874E+02 -0.32868706512E+02  0.60324463320E+02  0.10566000000E+00 0. -1.
         23    2    1    0    0    0 -0.18975927369E+02  0.22023066664E+02 -0.59468206104E+01  0.95417353334E+02  0.90686301926E+02 0.  0.
         13    1    3    3    0    0  0.20146868361E+02 -0.10040693210E+02  0.26921885902E+02  0.35092890013E+02  0.10566000000E+00 0.  1.
         22    1    1    0    0    0  0.18975927369E+02 -0.22023066664E+02  0.59468206104E+01  0.29672646666E+02  0.00000000000E+00 0. -1.
</event>
<event>
 5    1  0.1258677E-009  0.9118800E+02  0.7561462E-02  0.1125453E+00
         25   -1    0    0    0    0  0.00000000000E+00  0.00000000000E+00  0.99999998245E-14  0.12509000000E+03  0.12509000000E+03 0.  0.
        -13    1    3    3    0    0  0.91350801215E+01  0.25104524102E+02  0.28578268908E+02  0.39120524499E+02  0.10566000000E+00 0.  1.
         23    2    1    0    0    0  0.11535215307E+02  0.12511835666E+02 -0.25353298457E+02  0.94554824111E+02  0.89488646186E+02 0.  0.
         13    1    3    3    0    0  0.24001351859E+01 -0.12592688437E+02 -0.53931567365E+02  0.55434299612E+02  0.10566000000E+00 0. -1.
         22    1    1    0    0    0 -0.11535215307E+02 -0.12511835666E+02  0.25353298457E+02  0.30535175889E+02  0.00000000000E+00 0. -1.
</event>
<event>
 5    1  0.1258677E-009  0.9118800E+02  0.7561462E-02  0.1125453E+00
         25   -1    0    0    0    0  0.00000000000E+00  0.00000000000E+00  0.99999998245E-14  0.12509000000E+03  0.12509000000E+03 0.  0.
        -13    1    3    3    0    0  0.15469512295E+02  0.33269480032E+02 -0.81875594490E+01  0.37592704159E+02  0.10566000000E+00 0. -1.
         23    2    1    0    0    0 -0.22825013942E+02 -0.99022344503E+01 -0.15520932652E+02  0.95765354069E+02  0.91165060089E+02 0.  0.
         13    1    3    3    0    0 -0.38294526237E+02 -0.43171714482E+02 -0.73333732034E+01  0.58172649910E+02  0.10566000000E+00 0.  1.
         22    1    1    0    0    0  0.22825013942E+02  0.99022344503E+01  0.15520932652E+02  0.29324645931E+02  0.00000000000E+00 0.  1.
</event>
<event>
 5    1  0.1258677E-009  0.9118800E+02  0.7561462E-02  0.1125453E+00
         25   -1    0    0    0    0  0.00000000000E+00  0.00000000000E+00  0.99999998245E-14  0.12509000000E+03  0.12509000000E+03 0.  0.
        -13    1    3    3    0    0  0.11812909071E+01  0.18873624798E+02 -0.43317458856E+02  0.47265447919E+02  0.10566000000E+00 0.  1.
         23    2    1    0    0    0  0.22209328315E+02  0.20302588576E+02 -0.49334788810E+00  0.94995270241E+02  0.90102212009E+02 0.  0.
         13    1    3    3    0    0  0.21028037408E+02  0.14289637781E+01  0.42824110968E+02  0.47729822322E+02  0.10566000000E+00 0. -1.
         22    1    1    0    0    0 -0.22209328315E+02 -0.20302588576E+02  0.49334788810E+00  0.30094729759E+02  0.00000000000E+00 0.  1.
</event>
<event>
 5    1  0.1258677E-009  0.9118800E+02  0.7561462E-02  0.1125453E+00
         25   -1    0    0    0    0  0.00000000000E+00  0.00000000000E+00  0.99999998245E-14  0.12509000000E+03  0.12509000000E+03 0.  0.
        -13    1    3    3    0    0  0.47061168032E+02 -0.14546434431E+02  0.18251037188E+02  0.52530598832E+02  0.10566000000E+00 0.  1.
         23    2    1    0    0    0  0.15364528617E+02 -0.18990843956E+02 -0.13131884520E+02  0.97356134693E+02  0.93322289285E+02 0.  0.
         13    1    3    3    0    0 -0.31696639415E+02 -0.44444095260E+01 -0.31382921709E+02  0.44825535861E+02  0.10566000000E+00 0. -1.
         22    1    1    0    0    0 -0.15364528617E+02  0.18990843956E+02  0.13131884520E+02  0.27733865307E+02  0.00000000000E+00 0.  1.
</event>
<event>
 5    1  0.1258677E-009  0.9118800E+02  0.7561462E-02  0.1125453E+00
         25   -1    0    0    0    0  0.00000000000E+00  0.00000000000E+00  0.99999998245E-14  0.12509000000E+03  0.12509000000E+03 0.  0.
        -13    1    3    3    0    0  0.54556621198E+00 -0.31556206094E+02 -0.29667309322E+02  0.43315726843E+02  0.10566000000E+00 0.  1.
         23    2    1    0    0    0  0.31304100421E+01  0.20333847285E+02 -0.20450798034E+02  0.96081381408E+02  0.91597663183E+02 0.  0.
         13    1    3    3    0    0  0.25848438301E+01  0.51890053379E+02  0.92165112881E+01  0.52765654564E+02  0.10566000000E+00 0. -1.
         22    1    1    0    0    0 -0.31304100421E+01 -0.20333847285E+02  0.20450798034E+02  0.29008618592E+02  0.00000000000E+00 0. -1.
</event>
<event>
 5    1  0.1258677E-009  0.9118800E+02  0.7561462E-02  0.1125453E+00
         25   -1    0    0    0    0  0.00000000000E+00  0.00000000000E+00  0.99999998245E-14  0.12509000000E+03  0.12509000000E+03 0.  0.
        -13    1    3    3    0    0  0.25866218453E+02 -0.21238249815E+02  0.47447058553E+02  0.58063405356E+02  0.10566000000E+00 0. -1.
         23    2    1    0    0    0 -0.35913514308E+01 -0.16848562892E+02  0.21300066362E+02  0.97695389149E+02  0.93775926321E+02 0.  0.
         13    1    3    3    0    0 -0.29457569884E+02  0.43896869235E+01 -0.26146992190E+02  0.39631983793E+02  0.10566000000E+00 0.  1.
         22    1    1    0    0    0  0.35913514308E+01  0.16848562892E+02 -0.21300066362E+02  0.27394610851E+02  0.00000000000E+00 0. -1.
</event>
<event>
 5    1  0.1258677E-009  0.9118800E+02  0.7561462E-02  0.1125453E+00
         25   -1    0    0    0    0  0.00000000000E+00  0.00000000000E+00  0.99999998245E-14  0.12509000000E+03  0.12509000000E+03 0.  0.
        -13    1    3    3    0    0 -0.36306475950E+02 -0.13175800002E+02 -0.20716625248E+02  0.43828662166E+02  0.10566000000E+00 0.  1.
         23    2    1    0    0    0 -0.12778160810E+02 -0.19091638824E+02  0.22209556276E+02  0.93136338917E+02  0.87483376536E+02 0.  0.
         13    1    3    3    0    0  0.23528315140E+02 -0.59158388215E+01  0.42926181524E+02  0.49307676750E+02  0.10566000000E+00 0. -1.
         22    1    1    0    0    0  0.12778160810E+02  0.19091638824E+02 -0.22209556276E+02  0.31953661083E+02  0.00000000000E+00 0.  1.
</event>
<event>
 5    1  0.1258677E-009  0.9118800E+02  0.7561462E-02  0.1125453E+00
         25   -1    0    0    0    0  0.00000000000E+00  0.00000000000E+00  0.99999998245E-14  0.12509000000E+03  0.12509000000E+03 0.  0.
        -13    1    3    3    0    0  0.18153243638E+02 -0.65368107958E+01  0.29691790992E+02  0.35410221213E+02  0.10566000000E+00 0.  1.
         23    2    1    0    0    0 -0.18962723485E+02  0.17100266071E+02 -0.12752685149E+02  0.96548189262E+02  0.92232954467E+02 0.  0.
         13    1    3    3    0    0 -0.37115967123E+02  0.23637076867E+02 -0.42444476141E+02  0.61137968050E+02  0.10566000000E+00 0. -1.
         22    1    1    0    0    0  0.18962723485E+02 -0.17100266071E+02  0.12752685149E+02  0.28541810738E+02  0.00000000000E+00 0. -1.
</event>
<event>
 5    1  0.1258677E-009  0.9118800E+02  0.7561462E-02  0.1125453E+00
         25   -1    0    0    0    0  0.00000000000E+00  0.00000000000E+00  0.99999998245E-14  0.12509000000E+03  0.12509000000E+03 0.  0.
        -13    1    3    3    0    0  0.37748187990E+02 -0.19141639576E+02  0.20056792505E+02  0.46836034758E+02  0.10566000000E+00 0. -1.
         23    2    1    0    0    0 -0.85517824280E+01 -0.23107560435E+02  0.20078620657E+02  0.93305674627E+02  0.87725170721E+02 0.  0.
         13    1    3    3    0    0 -0.46299970418E+02 -0.39659208588E+01  0.21828151887E-01  0.46469639869E+02  0.10566000000E+00 0.  1.
         22    1    1    0    0    0  0.85517824280E+01  0.23107560435E+02 -0.20078620657E+02  0.31784325373E+02  0.00000000000E+00 0.  1.
</event>
<event>
 5    1  0.1258677E-009  0.9118800E+02  0.7561462E-02  0.1125453E+00
         25   -1    0    0    0    0  0.00000000000E+00  0.00000000000E+00  0.99999998245E-14  0.12509000000E+03  0.12509000000E+03 0.  0.
        -13    1    3    3    0    0 -0.16431658804E+02 -0.45086333006E+02 -0.77865318029E+01  0.48614998473E+02  0.10566000000E+00 0.  1.
         23    2    1    0    0    0 -0.26858597699E+02 -0.40499350243E+01  0.12053604663E+02  0.95373411545E+02  0.90625669654E+02 0.  0.
         13    1    3    3    0    0 -0.10426938894E+02  0.41036397981E+02  0.19840136466E+02  0.46758413072E+02  0.10566000000E+00 0. -1.
         22    1    1    0    0    0  0.26858597699E+02  0.40499350243E+01 -0.12053604663E+02  0.29716588455E+02  0.00000000000E+00 0. -1.
</event>
<event>
 5    1  0.1258677E-009  0.9118800E+02  0.7561462E-02  0.1125453E+00
         25   -1    0    0    0    0  0.00000000000E+00  0.00000000000E+00  0.99999998245E-14  0.12509000000E+03  0.12509000000E+03 0.  0.
        -13    1    3    3    0    0  0.33235315903E+02  0.27863430044E+02  0.18945285153E+02  0.47327496770E+02  0.10566000000E+00 0. -1.
         23    2    1    0    0    0  0.41411114651E+00 -0.34326260687E+01  0.30715341022E+02  0.94180671572E+02  0.88964106885E+02 0.  0.
         13    1    3    3    0    0 -0.32821204756E+02 -0.31296056112E+02  0.11770055869E+02  0.46853174802E+02  0.10566000000E+00 0.  1.
         22    1    1    0    0    0 -0.41411114651E+00  0.34326260687E+01 -0.30715341022E+02  0.30909328428E+02  0.00000000000E+00 0. -1.
</event>
<event>
 5    1  0.1258677E-009  0.9118800E+02  0.7561462E-02  0.1125453E+00
         25   -1    0    0    0    0  0.00000000000E+00  0.00000000000E+00  0.99999998245E-14  0.12509000000E+03  0.12509000000E+03 0.  0.
        -13    1    3    3    0    0  0.13033810832E+01 -0.76317650384E+01 -0.36969771728E+02  0.37771918478E+02  0.10566000000E+00 0. -1.
         23    2    1    0    0    0 -0.15744063527E+01  0.14886907509E+02  0.20582154265E+02  0.99639580657E+02  0.96334428886E+02 0.  0.
         13    1    3    3    0    0 -0.28777874359E+01  0.22518672547E+02  0.57551925994E+02  0.61867662179E+02  0.10566000000E+00 0.  1.
         22    1    1    0    0    0  0.15744063527E+01 -0.14886907509E+02 -0.20582154265E+02  0.25450419343E+02  0.00000000000E+00 0.  1.
</event>
<event>
 5    1  0.1258677E-009  0.9118800E+02  0.7561462E-02  0.1125453E+00
         25   -1    0    0    0    0  0.00000000000E+00  0.00000000000E+00  0.99999998245E-14  0.12509000000E+03  0.12509000000E+03 0.  0.
        -13    1    3    3    0    0 -0.38905224788E+01 -0.61578127421E+02  0.29965472619E+01  0.61773719342E+02  0.10566000000E+00 0. -1.
         23    2    1    0    0    0 -0.83726805779E+01 -0.26910054375E+02  0.31602154635E+01  0.96730878570E+02  0.92480393060E+02 0.  0.
         13    1    3    3    0    0 -0.44821580991E+01  0.34668073046E+02  0.16366820156E+00  0.34957159227E+02  0.10566000000E+00 0.  1.
         22    1    1    0    0    0  0.83726805779E+01  0.26910054375E+02 -0.31602154635E+01  0.28359121430E+02  0.00000000000E+00 0. -1.
</event>
<event>
 5    1  0.1258677E-009  0.9118800E+02  0.7561462E-02  0.1125453E+00
         25   -1    0    0    0    0  0.00000000000E+00  0.00000000000E+00  0.99999998245E-14  0.12509000000E+03  0.12509000000E+03 0.  0.
        -13    1    3    3    0    0 -0.64236474656E+01  0.12974331773E+02 -0.37416782123E+02  0.40120110670E+02  0.10566000000E+00 0.  1.
         23    2    1    0    0    0 -0.13837942598E+02  0.20293932295E+02  0.16801587465E+02  0.95330536216E+02  0.90566469792E+02 0.  0.
         13    1    3    3    0    0 -0.74142951328E+01  0.73196005227E+01  0.54218369588E+02  0.55210425546E+02  0.10566000000E+00 0. -1.
         22    1    1    0    0    0  0.13837942598E+02 -0.20293932295E+02 -0.16801587465E+02  0.29759463784E+02  0.00000000000E+00 0. -1.
</event>
<event>
 5    1  0.1258677E-009  0.9118800E+02  0.7561462E-02  0.1125453E+00
         25   -1    0    0    0    0  0.00000000000E+00  0.00000000000E+00  0.99999998245E-14  0.12509000000E+03  0.12509000000E+03 0.  0.
        -13    1    3    3    0    0  0.46332635664E+02 -0.38627012843E+02 -0.93200463390E+01  0.61037969139E+02  0.10566000000E+00 0.  1.
         23    2    1    0    0    0  0.24991896993E+02 -0.10460820369E+02 -0.95101932247E+01  0.96376458713E+02  0.91999751851E+02 0.  0.
         13    1    3    3    0    0 -0.21340738671E+02  0.28166192474E+02 -0.19014688574E+00  0.35338489574E+02  0.10566000000E+00 0. -1.
         22    1    1    0    0    0 -0.24991896993E+02  0.10460820369E+02  0.95101932247E+01  0.28713541287E+02  0.00000000000E+00 0.  1.
</event>
<event>
 5    1  0.1258677E-009  0.9118800E+02  0.7561462E-02  0.1125453E+00
         25   -1    0    0    0    0  0.00000000000E+00  0.00000000000E+00  0.99999998245E-14  0.12509000000E+03  0.12509000000E+03 0.  0.
        -13    1    3    3    0    0 -0.43013504787E+02 -0.11549891332E+02  0.24126223831E+02  0.50652220329E+02  0.10566000000E+00 0.  1.
         23    2    1    0    0    0 -0.83603933971E+01 -0.29553582799E+02  0.56186849387E+01  0.93866930733E+02  0.88521865269E+02 0.  0.
         13    1    3    3    0    0  0.34653111390E+02 -0.18003691467E+02 -0.18507538892E+02  0.43214710404E+02  0.10566000000E+00 0. -1.
         22    1    1    0    0    0  0.83603933971E+01  0.29553582799E+02 -0.56186849387E+01  0.31223069267E+02  0.00000000000E+00 0.  1.
</event>
<event>
 5    1  0.1258677E-009  0.9118800E+02  0.7561462E-02  0.1125453E+00
         25   -1    0    0    0    0  0.00000000000E+00  0.00000000000E+00  0.99999998245E-14  0.12509000000E+03  0.12509000000E+03 0.  0.
        -13    1    3    3    0    0  0.55577323945E+01 -0.32427559908E+02 -0.51248448774E+02  0.60900325917E+02  0.10566000000E+00 0. -1.
         23    2    1    0    0    0  0.11689933881E+02 -0.10589814138E+02 -0.24235946416E+02  0.96173226039E+02  0.91723004696E+02 0.  0.
         13    1    3    3    0    0  0.61322014862E+01  0.21837745770E+02  0.27012502358E+02  0.35272900123E+02  0.10566000000E+00 0.  1.
         22    1    1    0    0    0 -0.11689933881E+02  0.10589814138E+02  0.24235946416E+02  0.28916773961E+02  0.00000000000E+00 0. -1.
</event>
<event>
 5    1  0.1258677E-009  0.9118800E+02  0.7561462E-02  0.1125453E+00
         25   -1    0    0    0    0  0.00000000000E+00  0.00000000000E+00  0.99999998245E-14  0.12509000000E+03  0.12509000000E+03 0.  0.
        -13    1    3    3    0    0 -0.28805670257E+02  0.27492187171E+02  0.33070955283E+02  0.51761822242E+02  0.10566000000E+00 0.  1.
         23    2    1    0    0    0 -0.17630755033E+02 -0.13485330660E+02  0.16826440732E+02  0.97236332849E+02  0.93161567463E+02 0.  0.
         13    1    3    3    0    0  0.11174915224E+02 -0.40977517832E+02 -0.16244514552E+02  0.45474510607E+02  0.10566000000E+00 0. -1.
         22    1    1    0    0    0  0.17630755033E+02  0.13485330660E+02 -0.16826440732E+02  0.27853667151E+02  0.00000000000E+00 0.  1.
</event>
<event>
 5    1  0.1258677E-009  0.9118800E+02  0.7561462E-02  0.1125453E+00
         25   -1    0    0    0    0  0.00000000000E+00  0.00000000000E+00  0.99999998245E-14  0.12509000000E+03  0.12509000000E+03 0.  0.
        -13    1    3    3    0    0  0.43706948258E+02 -0.41332455639E+02  0.15244725586E+02  0.62057086924E+02  0.10566000000E+00 0.  1.
         23    2    1    0    0    0  0.19183729313E+02 -0.21561098009E+02  0.22189223734E+01  0.96144878922E+02  0.91684337314E+02 0.  0.
         13    1    3    3    0    0 -0.24523218945E+02  0.19771357630E+02 -0.13025803212E+02  0.34087791998E+02  0.10566000000E+00 0. -1.
         22    1    1    0    0    0 -0.19183729313E+02  0.21561098009E+02 -0.22189223734E+01  0.28945121078E+02  0.00000000000E+00 0.  1.
</event>
<event>
 5    1  0.1258677E-009  0.9118800E+02  0.7561462E-02  0.1125453E+00
         25   -1    0    0    0    0  0.00000000000E+00  0.00000000000E+00  0.99999998245E-14  0.12509000000E+03  0.12509000000E+03 0.  0.
        -13    1    3    3    0    0  0.24355213401E+02 -0.43412832091E+02 -0.76000313564E+01  0.50354960537E+02  0.10566000000E+00 0. -1.
         23    2    1    0    0    0  0.27880376067E+02  0.27326498458E+01 -0.14922635432E+01  0.97036308704E+02  0.92892602567E+02 0.  0.
         13    1    3    3    0    0  0.35251626660E+01  0.46145481937E+02  0.61077678132E+01  0.46681348167E+02  0.10566000000E+00 0.  1.
         22    1    1    0    0    0 -0.27880376067E+02 -0.27326498458E+01  0.14922635432E+01  0.28053691296E+02  0.00000000000E+00 0. -1.
</event>
<event>
 5    1  0.1258677E-009  0.9118800E+02  0.7561462E-02  0.1125453E+00
         25   -1    0    0    0    0  0.00000000000E+00  0.00000000000E+00  0.99999998245E-14  0.12509000000E+03  0.12509000000E+03 0.  0.
        -13    1    3    3    0    0  0.21600513963E+02 -0.51684239352E+02  0.25267660502E+02  0.61451677212E+02  0.10566000000E+00 0.  1.
         23    2    1    0    0    0  0.89431882741E+01 -0.25999868634E+02  0.35988555030E+01  0.97360493217E+02  0.93328131306E+02 0.  0.
         13    1    3    3    0    0 -0.12657325689E+02  0.25684370718E+02 -0.21668804999E+02  0.35908816005E+02  0.10566000000E+00 0. -1.
         22    1    1    0    0    0 -0.89431882741E+01  0.25999868634E+02 -0.35988555030E+01  0.27729506783E+02  0.00000000000E+00 0.  1.
</event>
<event>
 5    1  0.1258677E-009  0.9118800E+02  0.7561462E-02  0.1125453E+00
         25   -1    0    0    0    0  0.00000000000E+00  0.00000000000E+00  0.99999998245E-14  0.12509000000E+03  0.12509000000E+03 0.  0.
        -13    1    3    3    0    0 -0.16116692507E+02  0.33746314378E+02  0.20103781238E+02  0.42458623336E+02  0.10566000000E+00 0. -1.
         23    2    1    0    0    0  0.26023461569E+02  0.37062062833E+01  0.15874072081E+02  0.94382628223E+02  0.89247620858E+02 0.  0.
         13    1    3    3    0    0  0.42140154076E+02 -0.30040108095E+02 -0.42297091574E+01  0.51924004887E+02  0.10566000000E+00 0.  1.
         22    1    1    0    0    0 -0.26023461569E+02 -0.37062062833E+01 -0.15874072081E+02  0.30707371777E+02  0.00000000000E+00 0.  1.
</event>
<event>
 5    1  0.1258677E-009  0.9118800E+02  0.7561462E-02  0.1125453E+00
         25   -1    0    0    0    0  0.00000000000E+00  0.00000000000E+00  0.99999998245E-14  0.12509000000E+03  0.12509000000E+03 0.  0.
        -13    1    3    3    0    0  0.24291923059E+02  0.27776060387E+02  0.92135635812E+01  0.38032985348E+02  0.10566000000E+00 0. -1.
         23    2    1    0    0    0  0.14696722902E+02 -0.23883717204E+02 -0.11856120340E+02  0.94643436958E+02  0.89612426360E+02 0.  0.
         13    1    3    3    0    0 -0.95952001572E+01 -0.51659777592E+02 -0.21069683922E+02  0.56610451610E+02  0.10566000000E+00 0.  1.
         22    1    1    0    0    0 -0.14696722902E+02  0.23883717204E+02  0.11856120340E+02  0.30446563042E+02  0.00000000000E+00 0.  1.
</event>
<event>
 5    1  0.1258677E-009  0.9118800E+02  0.7561462E-02  0.1125453E+00
         25   -1    0    0    0    0  0.00000000000E+00  0.00000000000E+00  0.99999998245E-14  0.12509000000E+03  0.12509000000E+03 0.  0.
        -13    1    3    3    0    0 -0.28405328262E+02 -0.34266420073E+02  0.15480719141E+02  0.47124452755E+02  0.10566000000E+00 0.  1.
         23    2    1    0    0    0 -0.22862400392E+02  0.14669427997E+02  0.56116640227E+01  0.97352439860E+02  0.93317336568E+02 0.  0.
         13    1    3    3    0    0  0.55429278700E+01  0.48935848070E+02 -0.98690551184E+01  0.50227987105E+02  0.10566000000E+00 0. -1.
         22    1    1    0    0    0  0.22862400392E+02 -0.14669427997E+02 -0.56116640227E+01  0.27737560140E+02  0.00000000000E+00 0. -1.
</event>
<event>
 5    1  0.1258677E-009  0.9118800E+02  0.7561462E-02  0.1125453E+00
         25   -1    0    0    0    0  0.00000000000E+00  0.00000000000E+00  0.99999998245E-14  0.12509000000E+03  0.12509000000E+03 0.  0.
        -13    1    3    3    0    0  0.33493207601E+02 -0.15032438788E+02 -0.62885317192E+01  0.37246824919E+02  0.10566000000E+00 0.  1.
         23    2    1    0    0    0 -0.35623298012E+01  0.19702600945E+02  0.21966870027E+02  0.95367515979E+02  0.90617531679E+02 0.  0.
         13    1    3    3    0    0 -0.37055537402E+02  0.34735039733E+02  0.28255401746E+02  0.58120691060E+02  0.10566000000E+00 0. -1.
         22    1    1    0    0    0  0.35623298012E+01 -0.19702600945E+02 -0.21966870027E+02  0.29722484021E+02  0.00000000000E+00 0. -1.
</event>
<event>
 5    1  0.1258677E-009  0.9118800E+02  0.7561462E-02  0.1125453E+00
         25   -1    0    0    0    0  0.00000000000E+00  0.00000000000E+00  0.99999998245E-14  0.12509000000E+03  0.12509000000E+03 0.  0.
        -13    1    3    3    0    0 -0.33223016138E+02 -0.47135724930E+02 -0.15462928955E+02  0.59704762807E+02  0.10566000000E+00 0.  1.
         23    2    1    0    0    0 -0.23855074969E+02 -0.18614550186E+02  0.25663017444E+01  0.94723044521E+02  0.89723481755E+02 0.  0.
         13    1    3    3    0    0  0.93679411687E+01  0.28521174744E+02  0.18029230700E+02  0.35018281714E+02  0.10566000000E+00 0. -1.
         22    1    1    0    0    0  0.23855074969E+02  0.18614550186E+02 -0.25663017444E+01  0.30366955479E+02  0.00000000000E+00 0.  1.
</event>
<event>
 5    1  0.1258677E-009  0.9118800E+02  0.7561462E-02  0.1125453E+00
         25   -1    0    0    0    0  0.00000000000E+00  0.00000000000E+00  0.99999998245E-14  0.12509000000E+03  0.12509000000E+03 0.  0.
        -13    1    3    3    0    0 -0.32394078561E+02  0.33002453432E+01  0.42209347412E+02  0.53309549971E+02  0.10566000000E+00 0. -1.
         23    2    1    0    0    0  0.69167143268E+01 -0.41069699380E+01  0.28311783117E+02  0.95657616433E+02  0.91017110365E+02 0.  0.
         13    1    3    3    0    0  0.39310792888E+02 -0.74072152812E+01 -0.13897564295E+02  0.42348066462E+02  0.10566000000E+00 0.  1.
         22    1    1    0    0    0 -0.69167143268E+01  0.41069699380E+01 -0.28311783117E+02  0.29432383567E+02  0.00000000000E+00 0. -1.
</event>
<event>
 5    1  0.1258677E-009  0.9118800E+02  0.7561462E-02  0.1125453E+00
         25   -1    0    0    0    0  0.00000000000E+00  0.00000000000E+00  0.99999998245E-14  0.12509000000E+03  0.12509000000E+03 0.  0.
        -13    1    3    3    0    0 -0.38580071010E+02  0.43207660617E+02 -0.13608480134E+02  0.59502316852E+02  0.10566000000E+00 0.  1.
         23    2    1    0    0    0 -0.10888219999E+02  0.27005894447E+02  0.33289122474E+01  0.95782094473E+02  0.91188027148E+02 0.  0.
         13    1    3    3    0    0  0.27691851011E+02 -0.16201766170E+02  0.16937392381E+02  0.36279777620E+02  0.10566000000E+00 0. -1.
         22    1    1    0    0    0  0.10888219999E+02 -0.27005894447E+02 -0.33289122474E+01  0.29307905527E+02  0.00000000000E+00 0.  1.
</event>
<event>
 5    1  0.1258677E-009  0.9118800E+02  0.7561462E-02  0.1125453E+00
         25   -1    0    0    0    0  0.00000000000E+00  0.00000000000E+00  0.99999998245E-14  0.12509000000E+03  0.12509000000E+03 0.  0.
        -13    1    3    3    0    0 -0.16501377958E+02  0.95895451778E+01 -0.51307332196E+02  0.54742199009E+02  0.10566000000E+00 0.  1.
         23    2    1    0    0    0 -0.42446161001E+01 -0.17567525187E+02 -0.22984609658E+02  0.95850865468E+02  0.91282317142E+02 0.  0.
         13    1    3    3    0    0  0.12256761858E+02 -0.27157070365E+02  0.28322722538E+02  0.41108666459E+02  0.10566000000E+00 0. -1.
         22    1    1    0    0    0  0.42446161001E+01  0.17567525187E+02  0.22984609658E+02  0.29239134532E+02  0.00000000000E+00 0.  1.
</event>
<event>
 5    1  0.1258677E-009  0.9118800E+02  0.7561462E-02  0.1125453E+00
         25   -1    0    0    0    0  0.00000000000E+00  0.00000000000E+00  0.99999998245E-14  0.12509000000E+03  0.12509000000E+03 0.  0.
        -13    1    3    3    0    0  0.21748504411E+02  0.29012976301E+02  0.59410019058E+01  0.36743120521E+02  0.10566000000E+00 0. -1.
         23    2    1    0    0    0  0.53797159683E+01 -0.28078085780E+02 -0.60970771951E+00  0.96494685900E+02  0.92160362513E+02 0.  0.
         13    1    3    3    0    0 -0.16368788443E+02 -0.57091062081E+02 -0.65507096253E+01  0.59751565379E+02  0.10566000000E+00 0.  1.
         22    1    1    0    0    0 -0.53797159683E+01  0.28078085780E+02  0.60970771951E+00  0.28595314100E+02  0.00000000000E+00 0.  1.
</event>
<event>
 5    1  0.1258677E-009  0.9118800E+02  0.7561462E-02  0.1125453E+00
         25   -1    0    0    0    0  0.00000000000E+00  0.00000000000E+00  0.99999998245E-14  0.12509000000E+03  0.12509000000E+03 0.  0.
        -13    1    3    3    0    0 -0.13190563035E+02  0.15589291362E+02  0.27215149491E+02  0.34024880370E+02  0.10566000000E+00 0.  1.
         23    2    1    0    0    0  0.86543053800E+01 -0.19059947141E+02 -0.19727891248E+02  0.96325989853E+02  0.91931104864E+02 0.  0.
         13    1    3    3    0    0  0.21844868415E+02 -0.34649238502E+02 -0.46943040740E+02  0.62301109483E+02  0.10566000000E+00 0. -1.
         22    1    1    0    0    0 -0.86543053800E+01  0.19059947141E+02  0.19727891248E+02  0.28764010147E+02  0.00000000000E+00 0. -1.
</event>
<event>
 5    1  0.1258677E-009  0.9118800E+02  0.7561462E-02  0.1125453E+00
         25   -1    0    0    0    0  0.00000000000E+00  0.00000000000E+00  0.99999998245E-14  0.12509000000E+03  0.12509000000E+03 0.  0.
        -13    1    3    3    0    0  0.24954909291E+00 -0.23588079986E+02  0.51480772243E+02  0.56628092560E+02  0.10566000000E+00 0.  1.
         23    2    1    0    0    0 -0.32283386611E+00 -0.26155865628E+02  0.11804003672E+02  0.96392124972E+02  0.92021050447E+02 0.  0.
         13    1    3    3    0    0 -0.57238295902E+00 -0.25677856419E+01 -0.39676768571E+02  0.39764032412E+02  0.10566000000E+00 0. -1.
         22    1    1    0    0    0  0.32283386611E+00  0.26155865628E+02 -0.11804003672E+02  0.28697875028E+02  0.00000000000E+00 0.  1.
</event>
<event>
 5    1  0.1258677E-009  0.9118800E+02  0.7561462E-02  0.1125453E+00
         25   -1    0    0    0    0  0.00000000000E+00  0.00000000000E+00  0.99999998245E-14  0.12509000000E+03  0.12509000000E+03 0.  0.
        -13    1    3    3    0    0  0.17143842149E+02 -0.43052880004E+02  0.32626046005E+02  0.56673907949E+02  0.10566000000E+00 0. -1.
         23    2    1    0    0    0 -0.48704677655E+01 -0.11935549954E+02  0.26955384547E+02  0.95210716792E+02  0.90400824260E+02 0.  0.
         13    1    3    3    0    0 -0.22014309914E+02  0.31117330050E+02 -0.56706614578E+01  0.38536808843E+02  0.10566000000E+00 0.  1.
         22    1    1    0    0    0  0.48704677655E+01  0.11935549954E+02 -0.26955384547E+02  0.29879283208E+02  0.00000000000E+00 0. -1.
</event>
<event>
 5    1  0.1258677E-009  0.9118800E+02  0.7561462E-02  0.1125453E+00
         25   -1    0    0    0    0  0.00000000000E+00  0.00000000000E+00  0.99999998245E-14  0.12509000000E+03  0.12509000000E+03 0.  0.
        -13    1    3    3    0    0 -0.71439116715E+01  0.21578463523E+02  0.53344421128E+02  0.57985377394E+02  0.10566000000E+00 0. -1.
         23    2    1    0    0    0 -0.17508753480E+02  0.86642246212E+00  0.21941311965E+02  0.97005692869E+02  0.92851365859E+02 0.  0.
         13    1    3    3    0    0 -0.10364841809E+02 -0.20712041061E+02 -0.31403109163E+02  0.39020315475E+02  0.10566000000E+00 0.  1.
         22    1    1    0    0    0  0.17508753480E+02 -0.86642246212E+00 -0.21941311965E+02  0.28084307131E+02  0.00000000000E+00 0. -1.
</event>
<event>
 5    1  0.1258677E-009  0.9118800E+02  0.7561462E-02  0.1125453E+00
         25   -1    0    0    0    0  0.00000000000E+00  0.00000000000E+00  0.99999998245E-14  0.12509000000E+03  0.12509000000E+03 0.  0.
        -13    1    3    3    0    0  0.38585204787E+02 -0.69391353023E+01 -0.81203445695E+01  0.40036493193E+02  0.10566000000E+00 0.  1.
         23    2    1    0    0    0 -0.24352091619E+01  0.11004128227E+02  0.26277460652E+02  0.96497588069E+02  0.92164301566E+02 0.  0.
         13    1    3    3    0    0 -0.41020413949E+02  0.17943263529E+02  0.34397805221E+02  0.56461094877E+02  0.10566000000E+00 0. -1.
         22    1    1    0    0    0  0.24352091619E+01 -0.11004128227E+02 -0.26277460652E+02  0.28592411931E+02  0.00000000000E+00 0. -1.
</event>
<event>
 4    1  0.1258677E-009  0.9118800E+02  0.7561462E-02  0.1125453E+00
         25   -1    0    0    0    0  0.00000000000E+00  0.00000000000E+00  0.99999998245E-14  0.12509000000E+03  0.12509000000E+03 0.  0.
        -13    1    1    0    0    0 -0.16659544471E+02 -0.10027956776E+02 -0.25676750115E+02  0.32208803138E+02  0.10566000000E+00 0.  1.
         13    1    1    0    0    0  0.37156558402E+02 -0.45352543912E+01 -0.18724808074E+02  0.41854605077E+02  0.10566000000E+00 0. -1.
         22    1    1    0    0    0 -0.20497013931E+02  0.14563211167E+02  0.44401558189E+02  0.51026591785E+02  0.00000000000E+00 0.  1.
</event>
<event>
 5    1  0.1258677E-009  0.9118800E+02  0.7561462E-02  0.1125453E+00
         25   -1    0    0    0    0  0.00000000000E+00  0.00000000000E+00  0.99999998245E-14  0.12509000000E+03  0.12509000000E+03 0.  0.
        -13    1    3    3    0    0  0.26222224153E+02 -0.28399292806E+02  0.12361891194E+02  0.40582661191E+02  0.10566000000E+00 0. -1.
         23    2    1    0    0    0  0.16203093931E+02  0.24302557563E+02 -0.98738661753E+00  0.95864506174E+02  0.91301007961E+02 0.  0.
         13    1    3    3    0    0 -0.10019130222E+02  0.52701850369E+02 -0.13349277811E+02  0.55281844984E+02  0.10566000000E+00 0.  1.
         22    1    1    0    0    0 -0.16203093931E+02 -0.24302557563E+02  0.98738661753E+00  0.29225493826E+02  0.00000000000E+00 0. -1.
</event>
<event>
 5    1  0.1258677E-009  0.9118800E+02  0.7561462E-02  0.1125453E+00
         25   -1    0    0    0    0  0.00000000000E+00  0.00000000000E+00  0.99999998245E-14  0.12509000000E+03  0.12509000000E+03 0.  0.
        -13    1    3    3    0    0  0.38460917637E+02  0.26381549857E+02  0.83679662270E+01  0.47384199699E+02  0.10566000000E+00 0.  1.
         23    2    1    0    0    0  0.10155996161E+02  0.30714717636E+01 -0.25606537857E+02  0.97372262397E+02  0.93343904495E+02 0.  0.
         13    1    3    3    0    0 -0.28304921476E+02 -0.23310078093E+02 -0.33974504084E+02  0.49988062698E+02  0.10566000000E+00 0. -1.
         22    1    1    0    0    0 -0.10155996161E+02 -0.30714717636E+01  0.25606537857E+02  0.27717737603E+02  0.00000000000E+00 0. -1.
</event>
<event>
 5    1  0.1258677E-009  0.9118800E+02  0.7561462E-02  0.1125453E+00
         25   -1    0    0    0    0  0.00000000000E+00  0.00000000000E+00  0.99999998245E-14  0.12509000000E+03  0.12509000000E+03 0.  0.
        -13    1    3    3    0    0 -0.14234448599E+02  0.93325885841E+01 -0.37419779679E+02  0.41109218089E+02  0.10566000000E+00 0.  1.
         23    2    1    0    0    0  0.28645626388E+02  0.83764647733E+01 -0.26034103135E+02  0.85485560864E+02  0.75757966689E+02 0.  0.
         13    1    3    3    0    0  0.42880074987E+02 -0.95612381078E+00  0.11385676545E+02  0.44376342775E+02  0.10566000000E+00 0. -1.
         22    1    1    0    0    0 -0.28645626388E+02 -0.83764647733E+01  0.26034103135E+02  0.39604439136E+02  0.00000000000E+00 0. -1.
</event>
<event>
 5    1  0.1258677E-009  0.9118800E+02  0.7561462E-02  0.1125453E+00
         25   -1    0    0    0    0  0.00000000000E+00  0.00000000000E+00  0.99999998245E-14  0.12509000000E+03  0.12509000000E+03 0.  0.
        -13    1    3    3    0    0 -0.40939008214E+02 -0.67066383464E+01 -0.20980614045E+00  0.41485377835E+02  0.10566000000E+00 0. -1.
         23    2    1    0    0    0 -0.33843456666E+01  0.13018186351E+02  0.29090290215E+02  0.93040476505E+02  0.87346198040E+02 0.  0.
         13    1    3    3    0    0  0.37554662548E+02  0.19724824697E+02  0.29300096355E+02  0.51555098670E+02  0.10566000000E+00 0.  1.
         22    1    1    0    0    0  0.33843456666E+01 -0.13018186351E+02 -0.29090290215E+02  0.32049523495E+02  0.00000000000E+00 0.  1.
</event>
<event>
 5    1  0.1258677E-009  0.9118800E+02  0.7561462E-02  0.1125453E+00
         25   -1    0    0    0    0  0.00000000000E+00  0.00000000000E+00  0.99999998245E-14  0.12509000000E+03  0.12509000000E+03 0.  0.
        -13    1    3    3    0    0 -0.30086767808E+02  0.14123538677E+01  0.30365402905E+02  0.42770050247E+02  0.10566000000E+00 0. -1.
         23    2    1    0    0    0  0.22655849421E+02 -0.11919891173E+01  0.15445236938E+02  0.97644350161E+02  0.93707819435E+02 0.  0.
         13    1    3    3    0    0  0.52742617228E+02 -0.26043429850E+01 -0.14920165967E+02  0.54874299913E+02  0.10566000000E+00 0.  1.
         22    1    1    0    0    0 -0.22655849421E+02  0.11919891173E+01 -0.15445236938E+02  0.27445649839E+02  0.00000000000E+00 0.  1.
</event>
<event>
 5    1  0.1258677E-009  0.9118800E+02  0.7561462E-02  0.1125453E+00
         25   -1    0    0    0    0  0.00000000000E+00  0.00000000000E+00  0.99999998245E-14  0.12509000000E+03  0.12509000000E+03 0.  0.
        -13    1    3    3    0    0  0.14784008035E+02  0.70974547096E+01 -0.39177319251E+02  0.42471334623E+02  0.10566000000E+00 0. -1.
         23    2    1    0    0    0  0.50922410348E+01 -0.29281181233E+02 -0.21256710118E+01  0.95293406732E+02  0.90515172187E+02 0.  0.
         13    1    3    3    0    0 -0.96917670003E+01 -0.36378635943E+02  0.37051648239E+02  0.52822072109E+02  0.10566000000E+00 0.  1.
         22    1    1    0    0    0 -0.50922410348E+01  0.29281181233E+02  0.21256710118E+01  0.29796593268E+02  0.00000000000E+00 0. -1.
</event>
<event>
 5    1  0.1258677E-009  0.9118800E+02  0.7561462E-02  0.1125453E+00
         25   -1    0    0    0    0  0.00000000000E+00  0.00000000000E+00  0.99999998245E-14  0.12509000000E+03  0.12509000000E+03 0.  0.
        -13    1    3    3    0    0  0.19136273674E+02  0.32376955857E+02 -0.13201096245E+02  0.39859056020E+02  0.10566000000E+00 0.  1.
         23    2    1    0    0    0 -0.27235394025E+02  0.43949381416E+01  0.51139954192E+01  0.97032289507E+02  0.92887190123E+02 0.  0.
         13    1    3    3    0    0 -0.46371667699E+02 -0.27982017716E+02  0.18315091665E+02  0.57173233487E+02  0.10566000000E+00 0. -1.
         22    1    1    0    0    0  0.27235394025E+02 -0.43949381416E+01 -0.51139954192E+01  0.28057710493E+02  0.00000000000E+00 0. -1.
</event>
<event>
 5    1  0.1258677E-009  0.9118800E+02  0.7561462E-02  0.1125453E+00
         25   -1    0    0    0    0  0.00000000000E+00  0.00000000000E+00  0.99999998245E-14  0.12509000000E+03  0.12509000000E+03 0.  0.
        -13    1    3    3    0    0  0.28510077622E+02  0.25918493679E+02  0.64819586335E+01  0.39071982191E+02  0.10566000000E+00 0.  1.
         23    2    1    0    0    0 -0.15582880009E+02 -0.47030703587E+01  0.24480526758E+02  0.95692020299E+02  0.91064381282E+02 0.  0.
         13    1    3    3    0    0 -0.44092957631E+02 -0.30621564038E+02  0.17998568124E+02  0.56620038107E+02  0.10566000000E+00 0. -1.
         22    1    1    0    0    0  0.15582880009E+02  0.47030703587E+01 -0.24480526758E+02  0.29397979701E+02  0.00000000000E+00 0. -1.
</event>
<event>
 5    1  0.1258677E-009  0.9118800E+02  0.7561462E-02  0.1125453E+00
         25   -1    0    0    0    0  0.00000000000E+00  0.00000000000E+00  0.99999998245E-14  0.12509000000E+03  0.12509000000E+03 0.  0.
        -13    1    3    3    0    0  0.26555342004E+02  0.15369134344E+02 -0.42948324217E+02  0.52782252666E+02  0.10566000000E+00 0. -1.
         23    2    1    0    0    0  0.22971034898E+01  0.27469878365E+02 -0.92882758010E+01  0.96001463268E+02  0.91488458182E+02 0.  0.
         13    1    3    3    0    0 -0.24258238514E+02  0.12100744021E+02  0.33660048416E+02  0.43219210602E+02  0.10566000000E+00 0.  1.
         22    1    1    0    0    0 -0.22971034898E+01 -0.27469878365E+02  0.92882758010E+01  0.29088536732E+02  0.00000000000E+00 0.  1.
</event>
<event>
 5    1  0.1258677E-009  0.9118800E+02  0.7561462E-02  0.1125453E+00
         25   -1    0    0    0    0  0.00000000000E+00  0.00000000000E+00  0.99999998245E-14  0.12509000000E+03  0.12509000000E+03 0.  0.
        -13    1    3    3    0    0  0.32034016491E+01  0.21919688975E+02 -0.50500435768E+02  0.55145622888E+02  0.10566000000E+00 0.  1.
         23    2    1    0    0    0 -0.56594346153E+01  0.26275092603E+02 -0.10687056241E+02  0.96165566340E+02  0.91712557957E+02 0.  0.
         13    1    3    3    0    0 -0.88628362644E+01  0.43554036279E+01  0.39813379528E+02  0.41019943453E+02  0.10566000000E+00 0. -1.
         22    1    1    0    0    0  0.56594346153E+01 -0.26275092603E+02  0.10687056241E+02  0.28924433660E+02  0.00000000000E+00 0.  1.
</event>
<event>
 5    1  0.1258677E-009  0.9118800E+02  0.7561462E-02  0.1125453E+00
         25   -1    0    0    0    0  0.00000000000E+00  0.00000000000E+00  0.99999998245E-14  0.12509000000E+03  0.12509000000E+03 0.  0.
        -13    1    3    3    0    0  0.21994237091E+02  0.36114583022E+00 -0.43089356083E+02  0.48379547985E+02  0.10566000000E+00 0.  1.
         23    2    1    0    0    0  0.16530840305E+02  0.24793972540E+02 -0.36869617618E+01  0.95063287850E+02  0.90196592255E+02 0.  0.
         13    1    3    3    0    0 -0.54633967867E+01  0.24432826710E+02  0.39402394322E+02  0.46683739865E+02  0.10566000000E+00 0. -1.
         22    1    1    0    0    0 -0.16530840305E+02 -0.24793972540E+02  0.36869617618E+01  0.30026712150E+02  0.00000000000E+00 0. -1.
</event>
<event>
 5    1  0.1258677E-009  0.9118800E+02  0.7561462E-02  0.1125453E+00
         25   -1    0    0    0    0  0.00000000000E+00  0.00000000000E+00  0.99999998245E-14  0.12509000000E+03  0.12509000000E+03 0.  0.
        -13    1    3    3    0    0  0.27479077828E+02 -0.19057800737E+02  0.13279754445E+02  0.35981419224E+02  0.10566000000E+00 0.  1.
         23    2    1    0    0    0 -0.95242974394E+01  0.26511148743E+02 -0.26224695794E+01  0.96798117841E+02  0.92571296964E+02 0.  0.
         13    1    3    3    0    0 -0.37003375267E+02  0.45568949479E+02 -0.15902224025E+02  0.60816698618E+02  0.10566000000E+00 0. -1.
         22    1    1    0    0    0  0.95242974394E+01 -0.26511148743E+02  0.26224695794E+01  0.28291882159E+02  0.00000000000E+00 0. -1.
</event>
<event>
 5    1  0.1258677E-009  0.9118800E+02  0.7561462E-02  0.1125453E+00
         25   -1    0    0    0    0  0.00000000000E+00  0.00000000000E+00  0.99999998245E-14  0.12509000000E+03  0.12509000000E+03 0.  0.
        -13    1    3    3    0    0 -0.45067374402E+01 -0.30229747303E+02 -0.17797019115E+02  0.35367970790E+02  0.10566000000E+00 0. -1.
         23    2    1    0    0    0 -0.74969479430E+01  0.28273703941E+02 -0.38335104481E+01  0.95589112465E+02  0.90922912714E+02 0.  0.
         13    1    3    3    0    0 -0.29902105028E+01  0.58503451244E+02  0.13963508667E+02  0.60221141675E+02  0.10566000000E+00 0.  1.
         22    1    1    0    0    0  0.74969479430E+01 -0.28273703941E+02  0.38335104481E+01  0.29500887535E+02  0.00000000000E+00 0.  1.
</event>
<event>
 5    1  0.1258677E-009  0.9118800E+02  0.7561462E-02  0.1125453E+00
         25   -1    0    0    0    0  0.00000000000E+00  0.00000000000E+00  0.99999998245E-14  0.12509000000E+03  0.12509000000E+03 0.  0.
        -13    1    3    3    0    0  0.90511059089E+01  0.20780966905E+02  0.37106905420E+02  0.43482234275E+02  0.10566000000E+00 0. -1.
         23    2    1    0    0    0 -0.25497035132E+02 -0.86901846979E+01  0.17647436681E+02  0.92886737246E+02  0.87125747195E+02 0.  0.
         13    1    3    3    0    0 -0.34548141041E+02 -0.29471151603E+02 -0.19459468739E+02  0.49404502971E+02  0.10566000000E+00 0.  1.
         22    1    1    0    0    0  0.25497035132E+02  0.86901846979E+01 -0.17647436681E+02  0.32203262754E+02  0.00000000000E+00 0.  1.
</event>
<event>
 5    1  0.1258677E-009  0.9118800E+02  0.7561462E-02  0.1125453E+00
         25   -1    0    0    0    0  0.00000000000E+00  0.00000000000E+00  0.99999998245E-14  0.12509000000E+03  0.12509000000E+03 0.  0.
        -13    1    3    3    0    0 -0.46709153414E+01  0.40918818622E+02  0.90320928698E+00  0.41194588463E+02  0.10566000000E+00 0.  1.
         23    2    1    0    0    0  0.25948491702E+02 -0.30444666665E+01 -0.12057453748E+02  0.96315441971E+02  0.91916751314E+02 0.  0.
         13    1    3    3    0    0  0.30619407044E+02 -0.43963285289E+02 -0.12960663035E+02  0.55120853508E+02  0.10566000000E+00 0. -1.
         22    1    1    0    0    0 -0.25948491702E+02  0.30444666665E+01  0.12057453748E+02  0.28774558029E+02  0.00000000000E+00 0. -1.
</event>
<event>
 5    1  0.1258677E-009  0.9118800E+02  0.7561462E-02  0.1125453E+00
         25   -1    0    0    0    0  0.00000000000E+00  0.00000000000E+00  0.99999998245E-14  0.12509000000E+03  0.12509000000E+03 0.  0.
        -13    1    3    3    0    0 -0.10461947415E+02 -0.11412166550E+02 -0.41243087747E+02  0.44053301125E+02  0.10566000000E+00 0. -1.
         23    2    1    0    0    0  0.24240932672E+02 -0.16707018758E+02 -0.37564102011E+01  0.95410749501E+02  0.90677192338E+02 0.  0.
         13    1    3    3    0    0  0.34702880086E+02 -0.52948522075E+01  0.37486677546E+02  0.51357448376E+02  0.10566000000E+00 0.  1.
         22    1    1    0    0    0 -0.24240932672E+02  0.16707018758E+02  0.37564102011E+01  0.29679250499E+02  0.00000000000E+00 0.  1.
</event>
<event>
 5    1  0.1258677E-009  0.9118800E+02  0.7561462E-02  0.1125453E+00
         25   -1    0    0    0    0  0.00000000000E+00  0.00000000000E+00  0.99999998245E-14  0.12509000000E+03  0.12509000000E+03 0.  0.
        -13    1    3    3    0    0 -0.17172191437E+02 -0.14621924830E+02 -0.37521921402E+02  0.43778882971E+02  0.10566000000E+00 0. -1.
         23    2    1    0    0    0  0.19775655281E+01 -0.27300564130E+02  0.95051453065E+01  0.96114504240E+02  0.91642886089E+02 0.  0.
         13    1    3    3    0    0  0.19149756965E+02 -0.12678639300E+02  0.47027066709E+02  0.52335621269E+02  0.10566000000E+00 0.  1.
         22    1    1    0    0    0 -0.19775655281E+01  0.27300564130E+02 -0.95051453065E+01  0.28975495760E+02  0.00000000000E+00 0.  1.
</event>
<event>
 5    1  0.1258677E-009  0.9118800E+02  0.7561462E-02  0.1125453E+00
         25   -1    0    0    0    0  0.00000000000E+00  0.00000000000E+00  0.99999998245E-14  0.12509000000E+03  0.12509000000E+03 0.  0.
        -13    1    3    3    0    0  0.38806631828E+01 -0.25219600844E+02 -0.36370496193E+02  0.44428729116E+02  0.10566000000E+00 0. -1.
         23    2    1    0    0    0  0.24386366823E+02  0.13301735709E+02 -0.92342127840E+01  0.95817115868E+02  0.91236056183E+02 0.  0.
         13    1    3    3    0    0  0.20505703640E+02  0.38521336553E+02  0.27136283410E+02  0.51388386751E+02  0.10566000000E+00 0.  1.
         22    1    1    0    0    0 -0.24386366823E+02 -0.13301735709E+02  0.92342127840E+01  0.29272884132E+02  0.00000000000E+00 0. -1.
</event>
<event>
 5    1  0.1258677E-009  0.9118800E+02  0.7561462E-02  0.1125453E+00
         25   -1    0    0    0    0  0.00000000000E+00  0.00000000000E+00  0.99999998245E-14  0.12509000000E+03  0.12509000000E+03 0.  0.
        -13    1    3    3    0    0  0.81172740908E+00  0.50410655888E+02  0.25946270202E+02  0.56701968484E+02  0.10566000000E+00 0.  1.
         23    2    1    0    0    0  0.29084200981E+00  0.84367750000E+01  0.25014388742E+02  0.98689556715E+02  0.95092824120E+02 0.  0.
         13    1    3    3    0    0 -0.52088539927E+00 -0.41973880888E+02 -0.93188145961E+00  0.41987588232E+02  0.10566000000E+00 0. -1.
         22    1    1    0    0    0 -0.29084200981E+00 -0.84367750000E+01 -0.25014388742E+02  0.26400443285E+02  0.00000000000E+00 0.  1.
</event>
<event>
 5    1  0.1258677E-009  0.9118800E+02  0.7561462E-02  0.1125453E+00
         25   -1    0    0    0    0  0.00000000000E+00  0.00000000000E+00  0.99999998245E-14  0.12509000000E+03  0.12509000000E+03 0.  0.
        -13    1    3    3    0    0 -0.36808164856E+02 -0.43392340633E+02  0.15253080054E+02  0.58910133601E+02  0.10566000000E+00 0.  1.
         23    2    1    0    0    0 -0.54162258287E+01 -0.25487268371E+02  0.14947077374E+02  0.95050834345E+02  0.90179319339E+02 0.  0.
         13    1    3    3    0    0  0.31391939028E+02  0.17905072262E+02 -0.30600268046E+00  0.36140700744E+02  0.10566000000E+00 0. -1.
         22    1    1    0    0    0  0.54162258287E+01  0.25487268371E+02 -0.14947077374E+02  0.30039165655E+02  0.00000000000E+00 0.  1.
</event>
<event>
 5    1  0.1258677E-009  0.9118800E+02  0.7561462E-02  0.1125453E+00
         25   -1    0    0    0    0  0.00000000000E+00  0.00000000000E+00  0.99999998245E-14  0.12509000000E+03  0.12509000000E+03 0.  0.
        -13    1    3    3    0    0  0.33069118435E+01 -0.38374414798E+02 -0.25480445365E+02  0.46182200436E+02  0.10566000000E+00 0.  1.
         23    2    1    0    0    0 -0.29312341903E+02 -0.87571936481E+01 -0.11523870277E+02  0.92399001016E+02  0.86422647345E+02 0.  0.
         13    1    3    3    0    0 -0.32619253746E+02  0.29617221150E+02  0.13956575088E+02  0.46216800580E+02  0.10566000000E+00 0. -1.
         22    1    1    0    0    0  0.29312341903E+02  0.87571936481E+01  0.11523870277E+02  0.32690998984E+02  0.00000000000E+00 0.  1.
</event>
<event>
 5    1  0.1258677E-009  0.9118800E+02  0.7561462E-02  0.1125453E+00
         25   -1    0    0    0    0  0.00000000000E+00  0.00000000000E+00  0.99999998245E-14  0.12509000000E+03  0.12509000000E+03 0.  0.
        -13    1    3    3    0    0  0.36081837201E+02  0.42624134004E+02  0.13806964456E+02  0.57527030229E+02  0.10566000000E+00 0. -1.
         23    2    1    0    0    0  0.42115001332E+01  0.19312746780E+02  0.19384000673E+02  0.97405014833E+02  0.93387785663E+02 0.  0.
         13    1    3    3    0    0 -0.31870337068E+02 -0.23311387223E+02  0.55770362178E+01  0.39877984605E+02  0.10566000000E+00 0.  1.
         22    1    1    0    0    0 -0.42115001332E+01 -0.19312746780E+02 -0.19384000673E+02  0.27684985167E+02  0.00000000000E+00 0. -1.
</event>
<event>
 5    1  0.1258677E-009  0.9118800E+02  0.7561462E-02  0.1125453E+00
         25   -1    0    0    0    0  0.00000000000E+00  0.00000000000E+00  0.99999998245E-14  0.12509000000E+03  0.12509000000E+03 0.  0.
        -13    1    3    3    0    0 -0.32043232867E+02 -0.99070211008E+01 -0.84404346462E+01  0.34585689825E+02  0.10566000000E+00 0.  1.
         23    2    1    0    0    0 -0.51199424725E+01 -0.59649821145E+01  0.36844126575E+02  0.87416607724E+02  0.78882056390E+02 0.  0.
         13    1    3    3    0    0  0.26923290394E+02  0.39420389863E+01  0.45284561221E+02  0.52830917899E+02  0.10566000000E+00 0. -1.
         22    1    1    0    0    0  0.51199424725E+01  0.59649821145E+01 -0.36844126575E+02  0.37673392276E+02  0.00000000000E+00 0. -1.
</event>
<event>
 5    1  0.1258677E-009  0.9118800E+02  0.7561462E-02  0.1125453E+00
         25   -1    0    0    0    0  0.00000000000E+00  0.00000000000E+00  0.99999998245E-14  0.12509000000E+03  0.12509000000E+03 0.  0.
        -13    1    3    3    0    0 -0.33758762502E+02  0.27348880486E+02  0.32039235928E+01  0.43564797715E+02  0.10566000000E+00 0.  1.
         23    2    1    0    0    0 -0.58886005337E+01 -0.59194500397E+01 -0.27253940745E+02  0.96585740824E+02  0.92283869335E+02 0.  0.
         13    1    3    3    0    0  0.27870161968E+02 -0.33268330526E+02 -0.30457864338E+02  0.53020943109E+02  0.10566000000E+00 0. -1.
         22    1    1    0    0    0  0.58886005337E+01  0.59194500397E+01  0.27253940745E+02  0.28504259176E+02  0.00000000000E+00 0.  1.
</event>
<event>
 5    1  0.1258677E-009  0.9118800E+02  0.7561462E-02  0.1125453E+00
         25   -1    0    0    0    0  0.00000000000E+00  0.00000000000E+00  0.99999998245E-14  0.12509000000E+03  0.12509000000E+03 0.  0.
        -13    1    3    3    0    0 -0.64066925622E+00  0.20209717544E+02  0.92694129414E+01  0.22243568073E+02  0.10566000000E+00 0.  1.
         23    2    1    0    0    0  0.48036319450E+02 -0.35488200106E+01  0.21544905051E+01  0.76874608898E+02  0.59874715482E+02 0.  0.
         13    1    3    3    0    0  0.48676988706E+02 -0.23758537555E+02 -0.71149224362E+01  0.54631040825E+02  0.10566000000E+00 0. -1.
         22    1    1    0    0    0 -0.48036319450E+02  0.35488200106E+01 -0.21544905051E+01  0.48215391102E+02  0.00000000000E+00 0. -1.
</event>
<event>
 5    1  0.1258677E-009  0.9118800E+02  0.7561462E-02  0.1125453E+00
         25   -1    0    0    0    0  0.00000000000E+00  0.00000000000E+00  0.99999998245E-14  0.12509000000E+03  0.12509000000E+03 0.  0.
        -13    1    3    3    0    0  0.37559554567E+02 -0.15064976758E+02  0.10456543015E+02  0.41797417622E+02  0.10566000000E+00 0. -1.
         23    2    1    0    0    0 -0.74810225553E+01 -0.22020939849E+02 -0.18134989341E+02  0.95598215912E+02  0.90935436200E+02 0.  0.
         13    1    3    3    0    0 -0.45040577123E+02 -0.69559630907E+01 -0.28591532356E+02  0.53800798289E+02  0.10566000000E+00 0.  1.
         22    1    1    0    0    0  0.74810225553E+01  0.22020939849E+02  0.18134989341E+02  0.29491784088E+02  0.00000000000E+00 0. -1.
</event>
<event>
 5    1  0.1258677E-009  0.9118800E+02  0.7561462E-02  0.1125453E+00
         25   -1    0    0    0    0  0.00000000000E+00  0.00000000000E+00  0.99999998245E-14  0.12509000000E+03  0.12509000000E+03 0.  0.
        -13    1    3    3    0    0 -0.12710260163E+02 -0.12786575089E+02 -0.30532956541E+02  0.35458705773E+02  0.10566000000E+00 0. -1.
         23    2    1    0    0    0  0.87272196119E+01 -0.17711266662E+02  0.23853481019E+02  0.94124827860E+02  0.88885551885E+02 0.  0.
         13    1    3    3    0    0  0.21437479775E+02 -0.49246915728E+01  0.54386437560E+02  0.58666122087E+02  0.10566000000E+00 0.  1.
         22    1    1    0    0    0 -0.87272196119E+01  0.17711266662E+02 -0.23853481019E+02  0.30965172140E+02  0.00000000000E+00 0.  1.
</event>
<event>
 5    1  0.1258677E-009  0.9118800E+02  0.7561462E-02  0.1125453E+00
         25   -1    0    0    0    0  0.00000000000E+00  0.00000000000E+00  0.99999998245E-14  0.12509000000E+03  0.12509000000E+03 0.  0.
        -13    1    3    3    0    0  0.53224399666E+01  0.38124308718E+02 -0.16362704404E+02  0.41827509391E+02  0.10566000000E+00 0.  1.
         23    2    1    0    0    0  0.25831002056E+02 -0.11069377050E+02 -0.86880128370E+01  0.95674811023E+02  0.91040738802E+02 0.  0.
         13    1    3    3    0    0  0.20508562090E+02 -0.49193685768E+02  0.76746915666E+01  0.53847301632E+02  0.10566000000E+00 0. -1.
         22    1    1    0    0    0 -0.25831002056E+02  0.11069377050E+02  0.86880128370E+01  0.29415188977E+02  0.00000000000E+00 0. -1.
</event>
<event>
 5    1  0.1258677E-009  0.9118800E+02  0.7561462E-02  0.1125453E+00
         25   -1    0    0    0    0  0.00000000000E+00  0.00000000000E+00  0.99999998245E-14  0.12509000000E+03  0.12509000000E+03 0.  0.
        -13    1    3    3    0    0 -0.31252040346E+02 -0.49306135960E+01 -0.13149379836E+02  0.34262491595E+02  0.10566000000E+00 0. -1.
         23    2    1    0    0    0  0.14785381651E+02  0.14777861306E+02  0.21455665993E+02  0.95134394539E+02  0.90295153390E+02 0.  0.
         13    1    3    3    0    0  0.46037421997E+02  0.19708474902E+02  0.34605045829E+02  0.60871902943E+02  0.10566000000E+00 0.  1.
         22    1    1    0    0    0 -0.14785381651E+02 -0.14777861306E+02 -0.21455665993E+02  0.29955605461E+02  0.00000000000E+00 0.  1.
</event>
<event>
 5    1  0.1258677E-009  0.9118800E+02  0.7561462E-02  0.1125453E+00
         25   -1    0    0    0    0  0.00000000000E+00  0.00000000000E+00  0.99999998245E-14  0.12509000000E+03  0.12509000000E+03 0.  0.
        -13    1    3    3    0    0  0.11028295983E+02 -0.43871295872E+02  0.15559679789E+01  0.45263076720E+02  0.10566000000E+00 0.  1.
         23    2    1    0    0    0  0.17184947288E+00 -0.14696558997E+01  0.28428103267E+02  0.96623414745E+02  0.92334921893E+02 0.  0.
         13    1    3    3    0    0 -0.10856446510E+02  0.42401639972E+02  0.26872135288E+02  0.51360338026E+02  0.10566000000E+00 0. -1.
         22    1    1    0    0    0 -0.17184947288E+00  0.14696558997E+01 -0.28428103267E+02  0.28466585255E+02  0.00000000000E+00 0. -1.
</event>
<event>
 5    1  0.1258677E-009  0.9118800E+02  0.7561462E-02  0.1125453E+00
         25   -1    0    0    0    0  0.00000000000E+00  0.00000000000E+00  0.99999998245E-14  0.12509000000E+03  0.12509000000E+03 0.  0.
        -13    1    3    3    0    0  0.12655250646E+02 -0.16758326165E+01  0.44361309210E+02  0.46161680025E+02  0.10566000000E+00 0.  1.
         23    2    1    0    0    0 -0.21311672283E+02  0.16319527986E+02  0.18336611679E+02  0.92582374786E+02  0.86687660160E+02 0.  0.
         13    1    3    3    0    0 -0.33966922930E+02  0.17995360603E+02 -0.26024697531E+02  0.46420694761E+02  0.10566000000E+00 0. -1.
         22    1    1    0    0    0  0.21311672283E+02 -0.16319527986E+02 -0.18336611679E+02  0.32507625214E+02  0.00000000000E+00 0. -1.
</event>
<event>
 5    1  0.1258677E-009  0.9118800E+02  0.7561462E-02  0.1125453E+00
         25   -1    0    0    0    0  0.00000000000E+00  0.00000000000E+00  0.99999998245E-14  0.12509000000E+03  0.12509000000E+03 0.  0.
        -13    1    3    3    0    0 -0.50480946475E+02 -0.21465625763E+02 -0.26818029412E+02  0.61059945234E+02  0.10566000000E+00 0. -1.
         23    2    1    0    0    0 -0.16340525030E+02 -0.12663733603E+02 -0.18642804880E+02  0.97252308271E+02  0.93183015530E+02 0.  0.
         13    1    3    3    0    0  0.34140421444E+02  0.88018921598E+01  0.81752245326E+01  0.36192363037E+02  0.10566000000E+00 0.  1.
         22    1    1    0    0    0  0.16340525030E+02  0.12663733603E+02  0.18642804880E+02  0.27837691729E+02  0.00000000000E+00 0. -1.
</event>
<event>
 5    1  0.1258677E-009  0.9118800E+02  0.7561462E-02  0.1125453E+00
         25   -1    0    0    0    0  0.00000000000E+00  0.00000000000E+00  0.99999998245E-14  0.12509000000E+03  0.12509000000E+03 0.  0.
        -13    1    3    3    0    0 -0.11857428691E+02 -0.20294836037E+01  0.58796769792E+02  0.60014904156E+02  0.10566000000E+00 0. -1.
         23    2    1    0    0    0 -0.13125760690E+02  0.94806306380E+01  0.31321274763E+02  0.89831097524E+02  0.82622248085E+02 0.  0.
         13    1    3    3    0    0 -0.12683319995E+01  0.11510114242E+02 -0.27475495028E+02  0.29816193369E+02  0.10566000000E+00 0.  1.
         22    1    1    0    0    0  0.13125760690E+02 -0.94806306380E+01 -0.31321274763E+02  0.35258902476E+02  0.00000000000E+00 0. -1.
</event>
<event>
 5    1  0.1258677E-009  0.9118800E+02  0.7561462E-02  0.1125453E+00
         25   -1    0    0    0    0  0.00000000000E+00  0.00000000000E+00  0.99999998245E-14  0.12509000000E+03  0.12509000000E+03 0.  0.
        -13    1    3    3    0    0  0.24377717618E+02  0.35245013516E+01 -0.48912081719E+02  0.54764022206E+02  0.10566000000E+00 0. -1.
         23    2    1    0    0    0  0.22384743397E+02 -0.14989138563E+02 -0.13086429289E+02  0.95139947524E+02  0.90302845866E+02 0.  0.
         13    1    3    3    0    0 -0.19929742218E+01 -0.18513639915E+02  0.35825652430E+02  0.40375925317E+02  0.10566000000E+00 0.  1.
         22    1    1    0    0    0 -0.22384743397E+02  0.14989138563E+02  0.13086429289E+02  0.29950052476E+02  0.00000000000E+00 0. -1.
</event>
<event>
 5    1  0.1258677E-009  0.9118800E+02  0.7561462E-02  0.1125453E+00
         25   -1    0    0    0    0  0.00000000000E+00  0.00000000000E+00  0.99999998245E-14  0.12509000000E+03  0.12509000000E+03 0.  0.
        -13    1    3    3    0    0  0.26938566805E+02 -0.27294443762E+02 -0.31537933416E+02  0.49652043764E+02  0.10566000000E+00 0. -1.
         23    2    1    0    0    0 -0.16740515654E+02 -0.15643905472E+02 -0.14567775324E+02  0.97938633172E+02  0.94099836062E+02 0.  0.
         13    1    3    3    0    0 -0.43679082459E+02  0.11650538290E+02  0.16970158092E+02  0.48286589407E+02  0.10566000000E+00 0.  1.
         22    1    1    0    0    0  0.16740515654E+02  0.15643905472E+02  0.14567775324E+02  0.27151366828E+02  0.00000000000E+00 0. -1.
</event>
<event>
 5    1  0.1258677E-009  0.9118800E+02  0.7561462E-02  0.1125453E+00
         25   -1    0    0    0    0  0.00000000000E+00  0.00000000000E+00  0.99999998245E-14  0.12509000000E+03  0.12509000000E+03 0.  0.
        -13    1    3    3    0    0  0.25815676100E+02  0.10153120241E+02  0.23844612616E+02  0.36580209103E+02  0.10566000000E+00 0.  1.
         23    2    1    0    0    0 -0.23419942911E+02 -0.69149799713E+01 -0.99844770728E+01  0.98708179434E+02  0.95117318249E+02 0.  0.
         13    1    3    3    0    0 -0.49235619011E+02 -0.17068100212E+02 -0.33829089689E+02  0.62127970331E+02  0.10566000000E+00 0. -1.
         22    1    1    0    0    0  0.23419942911E+02  0.69149799713E+01  0.99844770728E+01  0.26381820566E+02  0.00000000000E+00 0. -1.
</event>
<event>
 5    1  0.1258677E-009  0.9118800E+02  0.7561462E-02  0.1125453E+00
         25   -1    0    0    0    0  0.00000000000E+00  0.00000000000E+00  0.99999998245E-14  0.12509000000E+03  0.12509000000E+03 0.  0.
        -13    1    3    3    0    0 -0.57446738615E+02  0.14914891089E+01  0.61899760739E+01  0.57798609716E+02  0.10566000000E+00 0.  1.
         23    2    1    0    0    0 -0.25944399803E+02  0.70067592440E+01 -0.13147987205E+02  0.95172177155E+02  0.90347480211E+02 0.  0.
         13    1    3    3    0    0  0.31502338812E+02  0.55152701351E+01 -0.19337963279E+02  0.37373567439E+02  0.10566000000E+00 0. -1.
         22    1    1    0    0    0  0.25944399803E+02 -0.70067592440E+01  0.13147987205E+02  0.29917822845E+02  0.00000000000E+00 0.  1.
</event>
<event>
 5    1  0.1258677E-009  0.9118800E+02  0.7561462E-02  0.1125453E+00
         25   -1    0    0    0    0  0.00000000000E+00  0.00000000000E+00  0.99999998245E-14  0.12509000000E+03  0.12509000000E+03 0.  0.
        -13    1    3    3    0    0 -0.42739809127E+02 -0.14094080724E+02 -0.57390720218E+01  0.45368298484E+02  0.10566000000E+00 0. -1.
         23    2    1    0    0    0 -0.80345232269E+01  0.13020849137E+01  0.27858701976E+02  0.96066625551E+02  0.91577509686E+02 0.  0.
         13    1    3    3    0    0  0.34705285900E+02  0.15396165637E+02  0.33597773998E+02  0.50698327067E+02  0.10566000000E+00 0.  1.
         22    1    1    0    0    0  0.80345232269E+01 -0.13020849137E+01 -0.27858701976E+02  0.29023374449E+02  0.00000000000E+00 0.  1.
</event>
<event>
 5    1  0.1258677E-009  0.9118800E+02  0.7561462E-02  0.1125453E+00
         25   -1    0    0    0    0  0.00000000000E+00  0.00000000000E+00  0.99999998245E-14  0.12509000000E+03  0.12509000000E+03 0.  0.
        -13    1    3    3    0    0 -0.38519486207E+02  0.21136861874E+02  0.30066562700E+02  0.53240277086E+02  0.10566000000E+00 0.  1.
         23    2    1    0    0    0 -0.88425609816E+00  0.23076315753E+02 -0.84467657800E+00  0.10198130605E+03  0.99328621492E+02 0.  0.
         13    1    3    3    0    0  0.37635230109E+02  0.19394538789E+01 -0.30911239278E+02  0.48741028964E+02  0.10566000000E+00 0. -1.
         22    1    1    0    0    0  0.88425609816E+00 -0.23076315753E+02  0.84467657800E+00  0.23108693950E+02  0.00000000000E+00 0.  1.
</event>
<event>
 5    1  0.1258677E-009  0.9118800E+02  0.7561462E-02  0.1125453E+00
         25   -1    0    0    0    0  0.00000000000E+00  0.00000000000E+00  0.99999998245E-14  0.12509000000E+03  0.12509000000E+03 0.  0.
        -13    1    3    3    0    0 -0.52839980152E+02 -0.10036590895E+02  0.37373895891E+01  0.53914524056E+02  0.10566000000E+00 0. -1.
         23    2    1    0    0    0 -0.11768363962E+02 -0.23032380014E+02  0.98265395457E+01  0.97421501687E+02  0.93409866674E+02 0.  0.
         13    1    3    3    0    0  0.41071616190E+02 -0.12995789119E+02  0.60891499566E+01  0.43506977631E+02  0.10566000000E+00 0.  1.
         22    1    1    0    0    0  0.11768363962E+02  0.23032380014E+02 -0.98265395457E+01  0.27668498313E+02  0.00000000000E+00 0. -1.
</event>
<event>
 5    1  0.1258677E-009  0.9118800E+02  0.7561462E-02  0.1125453E+00
         25   -1    0    0    0    0  0.00000000000E+00  0.00000000000E+00  0.99999998245E-14  0.12509000000E+03  0.12509000000E+03 0.  0.
        -13    1    3    3    0    0 -0.54275365309E+01  0.59744663182E+02 -0.15538319753E+01  0.60010903087E+02  0.10566000000E+00 0.  1.
         23    2    1    0    0    0  0.81228847048E+01  0.24811718491E+02 -0.74481645561E+01  0.97940823481E+02  0.94102747667E+02 0.  0.
         13    1    3    3    0    0  0.13550421236E+02 -0.34932944691E+02 -0.58943325808E+01  0.37929920393E+02  0.10566000000E+00 0. -1.
         22    1    1    0    0    0 -0.81228847048E+01 -0.24811718491E+02  0.74481645561E+01  0.27149176519E+02  0.00000000000E+00 0.  1.
</event>
<event>
 5    1  0.1258677E-009  0.9118800E+02  0.7561462E-02  0.1125453E+00
         25   -1    0    0    0    0  0.00000000000E+00  0.00000000000E+00  0.99999998245E-14  0.12509000000E+03  0.12509000000E+03 0.  0.
        -13    1    3    3    0    0 -0.33283423532E+02 -0.19580967905E+02  0.20978565451E+01  0.38673152862E+02  0.10566000000E+00 0.  1.
         23    2    1    0    0    0  0.49890170211E+01  0.25305467505E+02 -0.70139909051E+01  0.98360745523E+02  0.94659300731E+02 0.  0.
         13    1    3    3    0    0  0.38272440554E+02  0.44886435410E+02 -0.91118474502E+01  0.59687592661E+02  0.10566000000E+00 0. -1.
         22    1    1    0    0    0 -0.49890170211E+01 -0.25305467505E+02  0.70139909051E+01  0.26729254477E+02  0.00000000000E+00 0. -1.
</event>
<event>
 5    1  0.1258677E-009  0.9118800E+02  0.7561462E-02  0.1125453E+00
         25   -1    0    0    0    0  0.00000000000E+00  0.00000000000E+00  0.99999998245E-14  0.12509000000E+03  0.12509000000E+03 0.  0.
        -13    1    3    3    0    0  0.21976271256E+02  0.22237723926E+02 -0.32023928889E+02  0.44755067303E+02  0.10566000000E+00 0. -1.
         23    2    1    0    0    0  0.26859958526E+02 -0.94574081569E+01  0.74900525108E+01  0.95645122217E+02  0.90999937232E+02 0.  0.
         13    1    3    3    0    0  0.48836872696E+01 -0.31695132082E+02  0.39513981400E+02  0.50890054914E+02  0.10566000000E+00 0.  1.
         22    1    1    0    0    0 -0.26859958526E+02  0.94574081569E+01 -0.74900525108E+01  0.29444877783E+02  0.00000000000E+00 0.  1.
</event>
<event>
 5    1  0.1258677E-009  0.9118800E+02  0.7561462E-02  0.1125453E+00
         25   -1    0    0    0    0  0.00000000000E+00  0.00000000000E+00  0.99999998245E-14  0.12509000000E+03  0.12509000000E+03 0.  0.
        -13    1    3    3    0    0  0.47429162025E+01  0.28219705886E+02  0.60121281146E+01  0.29240449772E+02  0.10566000000E+00 0. -1.
         23    2    1    0    0    0 -0.15789089126E+02 -0.29845958146E+02 -0.15352437059E+01  0.91290095765E+02  0.84802405970E+02 0.  0.
         13    1    3    3    0    0 -0.20532005328E+02 -0.58065664032E+02 -0.75473718205E+01  0.62049645992E+02  0.10566000000E+00 0.  1.
         22    1    1    0    0    0  0.15789089126E+02  0.29845958146E+02  0.15352437059E+01  0.33799904235E+02  0.00000000000E+00 0.  1.
</event>
<event>
 5    1  0.1258677E-009  0.9118800E+02  0.7561462E-02  0.1125453E+00
         25   -1    0    0    0    0  0.00000000000E+00  0.00000000000E+00  0.99999998245E-14  0.12509000000E+03  0.12509000000E+03 0.  0.
        -13    1    3    3    0    0 -0.49620528977E+02  0.78010904011E+01 -0.24852196621E+02  0.56041919563E+02  0.10566000000E+00 0.  1.
         23    2    1    0    0    0 -0.28300060799E+02 -0.22597172445E+01  0.71719536707E+01  0.95807980215E+02  0.91223529806E+02 0.  0.
         13    1    3    3    0    0  0.21320468178E+02 -0.10060807646E+02  0.32024150292E+02  0.39766060652E+02  0.10566000000E+00 0. -1.
         22    1    1    0    0    0  0.28300060799E+02  0.22597172445E+01 -0.71719536707E+01  0.29282019785E+02  0.00000000000E+00 0.  1.
</event>
<event>
 5    1  0.1258677E-009  0.9118800E+02  0.7561462E-02  0.1125453E+00
         25   -1    0    0    0    0  0.00000000000E+00  0.00000000000E+00  0.99999998245E-14  0.12509000000E+03  0.12509000000E+03 0.  0.
        -13    1    3    3    0    0  0.30228329132E+01  0.35350118106E+02 -0.45938145638E+02  0.58043886479E+02  0.10566000000E+00 0.  1.
         23    2    1    0    0    0  0.94040757794E+01  0.32035744666E+01 -0.27943659330E+02  0.95432831771E+02  0.90707649912E+02 0.  0.
         13    1    3    3    0    0  0.63812428662E+01 -0.32146543640E+02  0.17994486308E+02  0.37388945292E+02  0.10566000000E+00 0. -1.
         22    1    1    0    0    0 -0.94040757794E+01 -0.32035744666E+01  0.27943659330E+02  0.29657168229E+02  0.00000000000E+00 0.  1.
</event>
<event>
 5    1  0.1258677E-009  0.9118800E+02  0.7561462E-02  0.1125453E+00
         25   -1    0    0    0    0  0.00000000000E+00  0.00000000000E+00  0.99999998245E-14  0.12509000000E+03  0.12509000000E+03 0.  0.
        -13    1    3    3    0    0 -0.72312934438E+01  0.28087180538E+02  0.23691549519E+02  0.37449726276E+02  0.10566000000E+00 0.  1.
         23    2    1    0    0    0 -0.31907919485E+01 -0.27971356659E+02  0.88189755575E+01  0.95588266551E+02  0.90921748915E+02 0.  0.
         13    1    3    3    0    0  0.40405014953E+01 -0.56058537197E+02 -0.14872573962E+02  0.58138540275E+02  0.10566000000E+00 0. -1.
         22    1    1    0    0    0  0.31907919485E+01  0.27971356659E+02 -0.88189755575E+01  0.29501733449E+02  0.00000000000E+00 0. -1.
</event>
<event>
 5    1  0.1258677E-009  0.9118800E+02  0.7561462E-02  0.1125453E+00
         25   -1    0    0    0    0  0.00000000000E+00  0.00000000000E+00  0.99999998245E-14  0.12509000000E+03  0.12509000000E+03 0.  0.
        -13    1    3    3    0    0  0.61380070595E+01  0.32184003686E+02 -0.29318967445E+02  0.43967013090E+02  0.10566000000E+00 0.  1.
         23    2    1    0    0    0 -0.27454703557E+02 -0.11762321804E+01 -0.51167947568E+01  0.97137793322E+02  0.93029162274E+02 0.  0.
         13    1    3    3    0    0 -0.33592710617E+02 -0.33360235867E+02  0.24202172688E+02  0.53170780233E+02  0.10566000000E+00 0. -1.
         22    1    1    0    0    0  0.27454703557E+02  0.11762321804E+01  0.51167947568E+01  0.27952206678E+02  0.00000000000E+00 0. -1.
</event>
<event>
 5    1  0.1258677E-009  0.9118800E+02  0.7561462E-02  0.1125453E+00
         25   -1    0    0    0    0  0.00000000000E+00  0.00000000000E+00  0.99999998245E-14  0.12509000000E+03  0.12509000000E+03 0.  0.
        -13    1    3    3    0    0 -0.33289667133E+02  0.41218749563E+02 -0.15451987616E+02  0.55190237712E+02  0.10566000000E+00 0. -1.
         23    2    1    0    0    0 -0.34338975840E+02  0.13021223756E+02 -0.19189370292E+02  0.83653911116E+02  0.72670677601E+02 0.  0.
         13    1    3    3    0    0 -0.10493087066E+01 -0.28197525806E+02 -0.37373826754E+01  0.28463673404E+02  0.10566000000E+00 0.  1.
         22    1    1    0    0    0  0.34338975840E+02 -0.13021223756E+02  0.19189370292E+02  0.41436088884E+02  0.00000000000E+00 0. -1.
</event>
<event>
 5    1  0.1258677E-009  0.9118800E+02  0.7561462E-02  0.1125453E+00
         25   -1    0    0    0    0  0.00000000000E+00  0.00000000000E+00  0.99999998245E-14  0.12509000000E+03  0.12509000000E+03 0.  0.
        -13    1    3    3    0    0 -0.57535774420E+02 -0.37083661222E+01  0.68075255108E+01  0.58055756692E+02  0.10566000000E+00 0. -1.
         23    2    1    0    0    0 -0.24577044583E+02  0.34235455426E+01 -0.12909243003E+02  0.97118579953E+02  0.93003323772E+02 0.  0.
         13    1    3    3    0    0  0.32958729837E+02  0.71319116647E+01 -0.19716768514E+02  0.39062823261E+02  0.10566000000E+00 0.  1.
         22    1    1    0    0    0  0.24577044583E+02 -0.34235455426E+01  0.12909243003E+02  0.27971420047E+02  0.00000000000E+00 0. -1.
</event>
<event>
 5    1  0.1258677E-009  0.9118800E+02  0.7561462E-02  0.1125453E+00
         25   -1    0    0    0    0  0.00000000000E+00  0.00000000000E+00  0.99999998245E-14  0.12509000000E+03  0.12509000000E+03 0.  0.
        -13    1    3    3    0    0 -0.40869768347E+02 -0.85197982948E+01  0.21273781399E+02  0.46856268169E+02  0.10566000000E+00 0.  1.
         23    2    1    0    0    0 -0.10429510205E+02 -0.32378428785E+02 -0.15651125824E+00  0.91072918563E+02  0.84481445691E+02 0.  0.
         13    1    3    3    0    0  0.30440258142E+02 -0.23858630490E+02 -0.21430292657E+02  0.44216650394E+02  0.10566000000E+00 0. -1.
         22    1    1    0    0    0  0.10429510205E+02  0.32378428785E+02  0.15651125824E+00  0.34017081437E+02  0.00000000000E+00 0. -1.
</event>
<event>
 5    1  0.1258677E-009  0.9118800E+02  0.7561462E-02  0.1125453E+00
         25   -1    0    0    0    0  0.00000000000E+00  0.00000000000E+00  0.99999998245E-14  0.12509000000E+03  0.12509000000E+03 0.  0.
        -13    1    3    3    0    0 -0.29425037908E+01  0.78149794533E+01  0.34690917975E+02  0.35681972849E+02  0.10566000000E+00 0.  1.
         23    2    1    0    0    0  0.75996043480E+01 -0.25319014093E+02 -0.13736354845E+02  0.95299164071E+02  0.90523128356E+02 0.  0.
         13    1    3    3    0    0  0.10542108139E+02 -0.33133993546E+02 -0.48427272821E+02  0.59617191222E+02  0.10566000000E+00 0. -1.
         22    1    1    0    0    0 -0.75996043480E+01  0.25319014093E+02  0.13736354845E+02  0.29790835929E+02  0.00000000000E+00 0. -1.
</event>
<event>
 5    1  0.1258677E-009  0.9118800E+02  0.7561462E-02  0.1125453E+00
         25   -1    0    0    0    0  0.00000000000E+00  0.00000000000E+00  0.99999998245E-14  0.12509000000E+03  0.12509000000E+03 0.  0.
        -13    1    3    3    0    0  0.67259497839E+01  0.21808886010E+02  0.25467532297E+02  0.34197547789E+02  0.10566000000E+00 0. -1.
         23    2    1    0    0    0 -0.16910125539E+02 -0.18973165107E+02 -0.14352345871E+02  0.95902277035E+02  0.91352742534E+02 0.  0.
         13    1    3    3    0    0 -0.23636075323E+02 -0.40782051117E+02 -0.39819878168E+02  0.61704729245E+02  0.10566000000E+00 0.  1.
         22    1    1    0    0    0  0.16910125539E+02  0.18973165107E+02  0.14352345871E+02  0.29187722965E+02  0.00000000000E+00 0.  1.
</event>
<event>
 5    1  0.1258677E-009  0.9118800E+02  0.7561462E-02  0.1125453E+00
         25   -1    0    0    0    0  0.00000000000E+00  0.00000000000E+00  0.99999998245E-14  0.12509000000E+03  0.12509000000E+03 0.  0.
        -13    1    3    3    0    0  0.18656894880E+02 -0.27623595749E+02  0.97029299945E+00  0.33348094416E+02  0.10566000000E+00 0.  1.
         23    2    1    0    0    0 -0.10104002127E+02  0.24768074587E+02  0.14551217600E+02  0.94638623818E+02  0.89605707445E+02 0.  0.
         13    1    3    3    0    0 -0.28760897007E+02  0.52391670336E+02  0.13580924601E+02  0.61290529401E+02  0.10566000000E+00 0. -1.
         22    1    1    0    0    0  0.10104002127E+02 -0.24768074587E+02 -0.14551217600E+02  0.30451376182E+02  0.00000000000E+00 0. -1.
</event>
<event>
 5    1  0.1258677E-009  0.9118800E+02  0.7561462E-02  0.1125453E+00
         25   -1    0    0    0    0  0.00000000000E+00  0.00000000000E+00  0.99999998245E-14  0.12509000000E+03  0.12509000000E+03 0.  0.
        -13    1    3    3    0    0  0.36527449096E+02 -0.30937577945E+02  0.89462190593E+01  0.48697374325E+02  0.10566000000E+00 0.  1.
         23    2    1    0    0    0  0.82694768046E+01  0.13843962225E+01  0.28141485409E+02  0.95726008436E+02  0.91111056907E+02 0.  0.
         13    1    3    3    0    0 -0.28257972292E+02  0.32321974168E+02  0.19195266350E+02  0.47028634112E+02  0.10566000000E+00 0. -1.
         22    1    1    0    0    0 -0.82694768046E+01 -0.13843962225E+01 -0.28141485409E+02  0.29363991564E+02  0.00000000000E+00 0. -1.
</event>
<event>
 5    1  0.1258677E-009  0.9118800E+02  0.7561462E-02  0.1125453E+00
         25   -1    0    0    0    0  0.00000000000E+00  0.00000000000E+00  0.99999998245E-14  0.12509000000E+03  0.12509000000E+03 0.  0.
        -13    1    3    3    0    0  0.69822046604E+01 -0.71618559003E+01 -0.45774577174E+02  0.46854737662E+02  0.10566000000E+00 0. -1.
         23    2    1    0    0    0 -0.26973740777E+02 -0.47854942338E+01 -0.10846613581E+02  0.95625908758E+02  0.90973522263E+02 0.  0.
         13    1    3    3    0    0 -0.33955945437E+02  0.23763616665E+01  0.34927963593E+02  0.48771171096E+02  0.10566000000E+00 0.  1.
         22    1    1    0    0    0  0.26973740777E+02  0.47854942338E+01  0.10846613581E+02  0.29464091242E+02  0.00000000000E+00 0. -1.
</event>
<event>
 5    1  0.1258677E-009  0.9118800E+02  0.7561462E-02  0.1125453E+00
         25   -1    0    0    0    0  0.00000000000E+00  0.00000000000E+00  0.99999998245E-14  0.12509000000E+03  0.12509000000E+03 0.  0.
        -13    1    3    3    0    0  0.19459368517E+02 -0.14931555819E+02 -0.25765955157E+02  0.35574063466E+02  0.10566000000E+00 0.  1.
         23    2    1    0    0    0 -0.26840817314E+02 -0.44555546700E+01  0.11126326484E+02  0.95694820420E+02  0.91068227570E+02 0.  0.
         13    1    3    3    0    0 -0.46300185831E+02  0.10476001149E+02  0.36892281641E+02  0.60120756955E+02  0.10566000000E+00 0. -1.
         22    1    1    0    0    0  0.26840817314E+02  0.44555546700E+01 -0.11126326484E+02  0.29395179580E+02  0.00000000000E+00 0. -1.
</event>
<event>
 5    1  0.1258677E-009  0.9118800E+02  0.7561462E-02  0.1125453E+00
         25   -1    0    0    0    0  0.00000000000E+00  0.00000000000E+00  0.99999998245E-14  0.12509000000E+03  0.12509000000E+03 0.  0.
        -13    1    3    3    0    0  0.47536729570E+02 -0.30857870777E+02  0.13580944190E+02  0.58278658669E+02  0.10566000000E+00 0. -1.
         23    2    1    0    0    0  0.21240429626E+02 -0.44159970714E+01  0.19356939629E+02  0.96015131254E+02  0.91507144186E+02 0.  0.
         13    1    3    3    0    0 -0.26296299944E+02  0.26441873706E+02  0.57759954390E+01  0.37736472585E+02  0.10566000000E+00 0.  1.
         22    1    1    0    0    0 -0.21240429626E+02  0.44159970714E+01 -0.19356939629E+02  0.29074868746E+02  0.00000000000E+00 0. -1.
</event>
<event>
 5    1  0.1258677E-009  0.9118800E+02  0.7561462E-02  0.1125453E+00
         25   -1    0    0    0    0  0.00000000000E+00  0.00000000000E+00  0.99999998245E-14  0.12509000000E+03  0.12509000000E+03 0.  0.
        -13    1    3    3    0    0  0.24661763156E+02  0.53874660826E+02  0.25983593882E+01  0.59308045631E+02  0.10566000000E+00 0. -1.
         23    2    1    0    0    0  0.72651925891E+01  0.25533213088E+02 -0.12401564041E+02  0.95789372283E+02  0.91198010164E+02 0.  0.
         13    1    3    3    0    0 -0.17396570567E+02 -0.28341447738E+02 -0.14999923429E+02  0.36481326652E+02  0.10566000000E+00 0.  1.
         22    1    1    0    0    0 -0.72651925891E+01 -0.25533213088E+02  0.12401564041E+02  0.29300627717E+02  0.00000000000E+00 0. -1.
</event>
<event>
 5    1  0.1258677E-009  0.9118800E+02  0.7561462E-02  0.1125453E+00
         25   -1    0    0    0    0  0.00000000000E+00  0.00000000000E+00  0.99999998245E-14  0.12509000000E+03  0.12509000000E+03 0.  0.
        -13    1    3    3    0    0 -0.44401769820E+02 -0.30517064405E+02 -0.13804737848E+02  0.55618255404E+02  0.10566000000E+00 0.  1.
         23    2    1    0    0    0 -0.92093204952E+01 -0.14307124272E+02 -0.23987860375E+02  0.95680429546E+02  0.91048458328E+02 0.  0.
         13    1    3    3    0    0  0.35192449325E+02  0.16209940133E+02 -0.10183122526E+02  0.40062174142E+02  0.10566000000E+00 0. -1.
         22    1    1    0    0    0  0.92093204952E+01  0.14307124272E+02  0.23987860375E+02  0.29409570454E+02  0.00000000000E+00 0.  1.
</event>
<event>
 5    1  0.1258677E-009  0.9118800E+02  0.7561462E-02  0.1125453E+00
         25   -1    0    0    0    0  0.00000000000E+00  0.00000000000E+00  0.99999998245E-14  0.12509000000E+03  0.12509000000E+03 0.  0.
        -13    1    3    3    0    0 -0.15766969293E+02  0.23326542237E+02  0.22471997724E+02  0.36023974505E+02  0.10566000000E+00 0. -1.
         23    2    1    0    0    0 -0.23424490356E+01 -0.23384101736E+02 -0.14839380832E+02  0.97295926802E+02  0.93241551185E+02 0.  0.
         13    1    3    3    0    0  0.13424520257E+02 -0.46710643973E+02 -0.37311378555E+02  0.61271952297E+02  0.10566000000E+00 0.  1.
         22    1    1    0    0    0  0.23424490356E+01  0.23384101736E+02  0.14839380832E+02  0.27794073198E+02  0.00000000000E+00 0.  1.
</event>
<event>
 5    1  0.1258677E-009  0.9118800E+02  0.7561462E-02  0.1125453E+00
         25   -1    0    0    0    0  0.00000000000E+00  0.00000000000E+00  0.99999998245E-14  0.12509000000E+03  0.12509000000E+03 0.  0.
        -13    1    3    3    0    0 -0.94068136214E+01 -0.39183940182E+02 -0.46922277862E+02  0.61851278358E+02  0.10566000000E+00 0.  1.
         23    2    1    0    0    0  0.18908458419E+01 -0.19568198844E+02 -0.23982606689E+02  0.94079435226E+02  0.88821647163E+02 0.  0.
         13    1    3    3    0    0  0.11297659463E+02  0.19615741338E+02  0.22939671172E+02  0.32228156868E+02  0.10566000000E+00 0. -1.
         22    1    1    0    0    0 -0.18908458419E+01  0.19568198844E+02  0.23982606689E+02  0.31010564774E+02  0.00000000000E+00 0.  1.
</event>
<event>
 5    1  0.1258677E-009  0.9118800E+02  0.7561462E-02  0.1125453E+00
         25   -1    0    0    0    0  0.00000000000E+00  0.00000000000E+00  0.99999998245E-14  0.12509000000E+03  0.12509000000E+03 0.  0.
        -13    1    3    3    0    0  0.36338186166E+02 -0.22174111129E+02 -0.35024191789E+02  0.55125857388E+02  0.10566000000E+00 0.  1.
         23    2    1    0    0    0  0.19725856311E+02 -0.21010602999E+02  0.24829494028E+01  0.96163889247E+02  0.91710270481E+02 0.  0.
         13    1    3    3    0    0 -0.16612329855E+02  0.11635081298E+01  0.37507141192E+02  0.41038031859E+02  0.10566000000E+00 0. -1.
         22    1    1    0    0    0 -0.19725856311E+02  0.21010602999E+02 -0.24829494028E+01  0.28926110753E+02  0.00000000000E+00 0.  1.
</event>
<event>
 5    1  0.1258677E-009  0.9118800E+02  0.7561462E-02  0.1125453E+00
         25   -1    0    0    0    0  0.00000000000E+00  0.00000000000E+00  0.99999998245E-14  0.12509000000E+03  0.12509000000E+03 0.  0.
        -13    1    3    3    0    0 -0.23682278669E+02 -0.16061401041E+02  0.33375290593E+02  0.43962940217E+02  0.10566000000E+00 0.  1.
         23    2    1    0    0    0  0.15394862858E+02  0.16730175063E+02  0.13045987785E+02  0.98877438940E+02  0.95339653734E+02 0.  0.
         13    1    3    3    0    0  0.39077141526E+02  0.32791576104E+02 -0.20329302808E+02  0.54914498723E+02  0.10566000000E+00 0. -1.
         22    1    1    0    0    0 -0.15394862858E+02 -0.16730175063E+02 -0.13045987785E+02  0.26212561060E+02  0.00000000000E+00 0.  1.
</event>
<event>
 5    1  0.1258677E-009  0.9118800E+02  0.7561462E-02  0.1125453E+00
         25   -1    0    0    0    0  0.00000000000E+00  0.00000000000E+00  0.99999998245E-14  0.12509000000E+03  0.12509000000E+03 0.  0.
        -13    1    3    3    0    0  0.16048166201E+02 -0.90540854118E+01  0.32454607836E+02  0.37320675702E+02  0.10566000000E+00 0. -1.
         23    2    1    0    0    0 -0.30110387584E+01  0.84612708930E+01 -0.24020479710E+02  0.99445450773E+02  0.96082021078E+02 0.  0.
         13    1    3    3    0    0 -0.19059204959E+02  0.17515356305E+02 -0.56475087547E+02  0.62124775071E+02  0.10566000000E+00 0.  1.
         22    1    1    0    0    0  0.30110387584E+01 -0.84612708930E+01  0.24020479710E+02  0.25644549227E+02  0.00000000000E+00 0.  1.
</event>
<event>
 5    1  0.1258677E-009  0.9118800E+02  0.7561462E-02  0.1125453E+00
         25   -1    0    0    0    0  0.00000000000E+00  0.00000000000E+00  0.99999998245E-14  0.12509000000E+03  0.12509000000E+03 0.  0.
        -13    1    3    3    0    0  0.34636030792E+02  0.15515375916E+02 -0.85949055545E+01  0.38913559132E+02  0.10566000000E+00 0. -1.
         23    2    1    0    0    0  0.20536302078E-01 -0.26867025395E+02  0.95663362824E+01  0.96570668570E+02  0.92263436761E+02 0.  0.
         13    1    3    3    0    0 -0.34615494490E+02 -0.42382401311E+02  0.18161241837E+02  0.57657109438E+02  0.10566000000E+00 0.  1.
         22    1    1    0    0    0 -0.20536302078E-01  0.26867025395E+02 -0.95663362824E+01  0.28519331430E+02  0.00000000000E+00 0.  1.
</event>
<event>
 5    1  0.1258677E-009  0.9118800E+02  0.7561462E-02  0.1125453E+00
         25   -1    0    0    0    0  0.00000000000E+00  0.00000000000E+00  0.99999998245E-14  0.12509000000E+03  0.12509000000E+03 0.  0.
        -13    1    3    3    0    0  0.13478370727E+02 -0.23328398627E+01  0.31055751675E+02  0.33934930315E+02  0.10566000000E+00 0.  1.
         23    2    1    0    0    0 -0.94198018769E+01 -0.35315391288E+02 -0.53698184227E+01  0.88147551798E+02  0.80032783339E+02 0.  0.
         13    1    3    3    0    0 -0.22898172604E+02 -0.32982551425E+02 -0.36425570098E+02  0.54212621484E+02  0.10566000000E+00 0. -1.
         22    1    1    0    0    0  0.94198018769E+01  0.35315391288E+02  0.53698184227E+01  0.36942448202E+02  0.00000000000E+00 0. -1.
</event>
<event>
 5    1  0.1258677E-009  0.9118800E+02  0.7561462E-02  0.1125453E+00
         25   -1    0    0    0    0  0.00000000000E+00  0.00000000000E+00  0.99999998245E-14  0.12509000000E+03  0.12509000000E+03 0.  0.
        -13    1    3    3    0    0  0.15146835862E+02 -0.46664468618E+02 -0.21916060240E+02  0.53733826669E+02  0.10566000000E+00 0. -1.
         23    2    1    0    0    0 -0.10530795678E+02 -0.13416393103E+02 -0.23828279643E+02  0.95786686667E+02  0.91194326415E+02 0.  0.
         13    1    3    3    0    0 -0.25677631540E+02  0.33248075515E+02 -0.19122194039E+01  0.42052859998E+02  0.10566000000E+00 0.  1.
         22    1    1    0    0    0  0.10530795678E+02  0.13416393103E+02  0.23828279643E+02  0.29303313333E+02  0.00000000000E+00 0. -1.
</event>
<event>
 5    1  0.1258677E-009  0.9118800E+02  0.7561462E-02  0.1125453E+00
         25   -1    0    0    0    0  0.00000000000E+00  0.00000000000E+00  0.99999998245E-14  0.12509000000E+03  0.12509000000E+03 0.  0.
        -13    1    3    3    0    0 -0.21261156069E+02  0.47662914547E+02  0.75440520231E+01  0.52732476383E+02  0.10566000000E+00 0.  1.
         23    2    1    0    0    0 -0.27597983265E+02  0.72462373660E+01  0.12493319423E+02  0.93941329620E+02  0.88626935772E+02 0.  0.
         13    1    3    3    0    0 -0.63368271959E+01 -0.40416677181E+02  0.49492674002E+01  0.41208853237E+02  0.10566000000E+00 0. -1.
         22    1    1    0    0    0  0.27597983265E+02 -0.72462373660E+01 -0.12493319423E+02  0.31148670380E+02  0.00000000000E+00 0. -1.
</event>
<event>
 5    1  0.1258677E-009  0.9118800E+02  0.7561462E-02  0.1125453E+00
         25   -1    0    0    0    0  0.00000000000E+00  0.00000000000E+00  0.99999998245E-14  0.12509000000E+03  0.12509000000E+03 0.  0.
        -13    1    3    3    0    0  0.27556817575E+02 -0.46364113032E+02 -0.26373397628E+02  0.60038124876E+02  0.10566000000E+00 0.  1.
         23    2    1    0    0    0  0.22963682481E+02 -0.14474918532E+02 -0.10162878781E+02  0.96104864418E+02  0.91629727054E+02 0.  0.
         13    1    3    3    0    0 -0.45931350938E+01  0.31889194500E+02  0.16210518847E+02  0.36066739542E+02  0.10566000000E+00 0. -1.
         22    1    1    0    0    0 -0.22963682481E+02  0.14474918532E+02  0.10162878781E+02  0.28985135582E+02  0.00000000000E+00 0.  1.
</event>
<event>
 5    1  0.1258677E-009  0.9118800E+02  0.7561462E-02  0.1125453E+00
         25   -1    0    0    0    0  0.00000000000E+00  0.00000000000E+00  0.99999998245E-14  0.12509000000E+03  0.12509000000E+03 0.  0.
        -13    1    3    3    0    0 -0.10440843379E+02 -0.33610129435E+02 -0.10077781534E+02  0.36609081603E+02  0.10566000000E+00 0.  1.
         23    2    1    0    0    0 -0.11229637931E+02  0.25242186529E+02 -0.10680801227E+02  0.95469867258E+02  0.90758709172E+02 0.  0.
         13    1    3    3    0    0 -0.78879455184E+00  0.58852315964E+02 -0.60301969229E+00  0.58860785655E+02  0.10566000000E+00 0. -1.
         22    1    1    0    0    0  0.11229637931E+02 -0.25242186529E+02  0.10680801227E+02  0.29620132742E+02  0.00000000000E+00 0. -1.
</event>
<event>
 5    1  0.1258677E-009  0.9118800E+02  0.7561462E-02  0.1125453E+00
         25   -1    0    0    0    0  0.00000000000E+00  0.00000000000E+00  0.99999998245E-14  0.12509000000E+03  0.12509000000E+03 0.  0.
        -13    1    3    3    0    0 -0.94917858027E+01  0.44106670913E+02 -0.53132260888E+01  0.45428338647E+02  0.10566000000E+00 0.  1.
         23    2    1    0    0    0 -0.17503638609E+02  0.14813749685E+01 -0.26183184414E+02  0.93560157273E+02  0.88087297873E+02 0.  0.
         13    1    3    3    0    0 -0.80118528065E+01 -0.42625295944E+02 -0.20869958325E+02  0.48131818626E+02  0.10566000000E+00 0. -1.
         22    1    1    0    0    0  0.17503638609E+02 -0.14813749685E+01  0.26183184414E+02  0.31529842727E+02  0.00000000000E+00 0.  1.
</event>
<event>
 5    1  0.1258677E-009  0.9118800E+02  0.7561462E-02  0.1125453E+00
         25   -1    0    0    0    0  0.00000000000E+00  0.00000000000E+00  0.99999998245E-14  0.12509000000E+03  0.12509000000E+03 0.  0.
        -13    1    3    3    0    0  0.32810988067E+02 -0.30759999596E+02 -0.27840666107E+02  0.52894729099E+02  0.10566000000E+00 0.  1.
         23    2    1    0    0    0  0.26980641733E+02  0.71374479981E+01 -0.80549154771E+01  0.96042110996E+02  0.91544017986E+02 0.  0.
         13    1    3    3    0    0 -0.58303463344E+01  0.37897447595E+02  0.19785750630E+02  0.43147381897E+02  0.10566000000E+00 0. -1.
         22    1    1    0    0    0 -0.26980641733E+02 -0.71374479981E+01  0.80549154771E+01  0.29047889004E+02  0.00000000000E+00 0.  1.
</event>
<event>
 5    1  0.1258677E-009  0.9118800E+02  0.7561462E-02  0.1125453E+00
         25   -1    0    0    0    0  0.00000000000E+00  0.00000000000E+00  0.99999998245E-14  0.12509000000E+03  0.12509000000E+03 0.  0.
        -13    1    3    3    0    0 -0.43200264021E+01  0.74694194155E+01  0.60572718078E+02  0.61184313299E+02  0.10566000000E+00 0.  1.
         23    2    1    0    0    0 -0.16131362495E+01 -0.58128519307E+01  0.27669372780E+02  0.96770648910E+02  0.92534171225E+02 0.  0.
         13    1    3    3    0    0  0.27068901527E+01 -0.13282271346E+02 -0.32903345298E+02  0.35586335611E+02  0.10566000000E+00 0. -1.
         22    1    1    0    0    0  0.16131362495E+01  0.58128519307E+01 -0.27669372780E+02  0.28319351090E+02  0.00000000000E+00 0.  1.
</event>
<event>
 5    1  0.1258677E-009  0.9118800E+02  0.7561462E-02  0.1125453E+00
         25   -1    0    0    0    0  0.00000000000E+00  0.00000000000E+00  0.99999998245E-14  0.12509000000E+03  0.12509000000E+03 0.  0.
        -13    1    3    3    0    0 -0.18879454145E+02 -0.21202998735E+02 -0.36109615018E+02  0.45933826370E+02  0.10566000000E+00 0.  1.
         23    2    1    0    0    0  0.69644226108E+01  0.17785812827E+02 -0.24306458303E+02  0.94176536340E+02  0.88958292258E+02 0.  0.
         13    1    3    3    0    0  0.25843876756E+02  0.38988811562E+02  0.11803156714E+02  0.48242709970E+02  0.10566000000E+00 0. -1.
         22    1    1    0    0    0 -0.69644226108E+01 -0.17785812827E+02  0.24306458303E+02  0.30913463660E+02  0.00000000000E+00 0.  1.
</event>
<event>
 5    1  0.1258677E-009  0.9118800E+02  0.7561462E-02  0.1125453E+00
         25   -1    0    0    0    0  0.00000000000E+00  0.00000000000E+00  0.99999998245E-14  0.12509000000E+03  0.12509000000E+03 0.  0.
        -13    1    3    3    0    0  0.36589521167E+02 -0.27892361973E+02  0.89940934337E+01  0.46879438951E+02  0.10566000000E+00 0.  1.
         23    2    1    0    0    0  0.25360811620E+02  0.15994863850E+02  0.13107254569E+02  0.92366819257E+02  0.86376054215E+02 0.  0.
         13    1    3    3    0    0 -0.11228709548E+02  0.43887225823E+02  0.41131611358E+01  0.45487380306E+02  0.10566000000E+00 0. -1.
         22    1    1    0    0    0 -0.25360811620E+02 -0.15994863850E+02 -0.13107254569E+02  0.32723180743E+02  0.00000000000E+00 0.  1.
</event>
<event>
 5    1  0.1258677E-009  0.9118800E+02  0.7561462E-02  0.1125453E+00
         25   -1    0    0    0    0  0.00000000000E+00  0.00000000000E+00  0.99999998245E-14  0.12509000000E+03  0.12509000000E+03 0.  0.
        -13    1    3    3    0    0  0.60252494804E+02  0.71412053571E+01 -0.43857301960E+01  0.60832604230E+02  0.10566000000E+00 0.  1.
         23    2    1    0    0    0  0.27116487529E+02  0.21478950407E+01 -0.12256483526E+02  0.95254807065E+02  0.90461812560E+02 0.  0.
         13    1    3    3    0    0 -0.33136007275E+02 -0.49933103165E+01 -0.78707533302E+01  0.34422202835E+02  0.10566000000E+00 0. -1.
         22    1    1    0    0    0 -0.27116487529E+02 -0.21478950407E+01  0.12256483526E+02  0.29835192935E+02  0.00000000000E+00 0.  1.
</event>
<event>
 5    1  0.1258677E-009  0.9118800E+02  0.7561462E-02  0.1125453E+00
         25   -1    0    0    0    0  0.00000000000E+00  0.00000000000E+00  0.99999998245E-14  0.12509000000E+03  0.12509000000E+03 0.  0.
        -13    1    3    3    0    0 -0.28726420632E+01 -0.50624184131E+02 -0.23772082049E+02  0.56001635158E+02  0.10566000000E+00 0. -1.
         23    2    1    0    0    0  0.15264797014E+02 -0.27024620038E+02 -0.67150279821E-01  0.94052142065E+02  0.88783201124E+02 0.  0.
         13    1    3    3    0    0  0.18137439077E+02  0.23599564093E+02  0.23704931770E+02  0.38050506907E+02  0.10566000000E+00 0.  1.
         22    1    1    0    0    0 -0.15264797014E+02  0.27024620038E+02  0.67150279821E-01  0.31037857935E+02  0.00000000000E+00 0. -1.
</event>
<event>
 5    1  0.1258677E-009  0.9118800E+02  0.7561462E-02  0.1125453E+00
         25   -1    0    0    0    0  0.00000000000E+00  0.00000000000E+00  0.99999998245E-14  0.12509000000E+03  0.12509000000E+03 0.  0.
        -13    1    3    3    0    0 -0.15440680599E+02  0.26325983628E+02  0.32525873691E+02  0.44602865993E+02  0.10566000000E+00 0.  1.
         23    2    1    0    0    0  0.45045139934E+01  0.24792685746E+02 -0.14718432074E+02  0.95907810988E+02  0.91360319904E+02 0.  0.
         13    1    3    3    0    0  0.19945194592E+02 -0.15332978825E+01 -0.47244305765E+02  0.51304944996E+02  0.10566000000E+00 0. -1.
         22    1    1    0    0    0 -0.45045139934E+01 -0.24792685746E+02  0.14718432074E+02  0.29182189012E+02  0.00000000000E+00 0. -1.
</event>
<event>
 5    1  0.1258677E-009  0.9118800E+02  0.7561462E-02  0.1125453E+00
         25   -1    0    0    0    0  0.00000000000E+00  0.00000000000E+00  0.99999998245E-14  0.12509000000E+03  0.12509000000E+03 0.  0.
        -13    1    3    3    0    0  0.34289202013E+02 -0.49613409591E+01  0.39459728763E+01  0.34870419338E+02  0.10566000000E+00 0.  1.
         23    2    1    0    0    0 -0.24780438687E+02  0.11557676494E+02  0.87148693535E+01  0.96391585839E+02  0.92020317568E+02 0.  0.
         13    1    3    3    0    0 -0.59069640701E+02  0.16519017453E+02  0.47688964772E+01  0.61521166502E+02  0.10566000000E+00 0. -1.
         22    1    1    0    0    0  0.24780438687E+02 -0.11557676494E+02 -0.87148693535E+01  0.28698414161E+02  0.00000000000E+00 0. -1.
</event>
<event>
 5    1  0.1258677E-009  0.9118800E+02  0.7561462E-02  0.1125453E+00
         25   -1    0    0    0    0  0.00000000000E+00  0.00000000000E+00  0.99999998245E-14  0.12509000000E+03  0.12509000000E+03 0.  0.
        -13    1    3    3    0    0 -0.21333547329E+02 -0.44536715179E+02  0.34956693641E+02  0.60503064674E+02  0.10566000000E+00 0. -1.
         23    2    1    0    0    0 -0.19389338131E+02 -0.19482681670E+02  0.10220505497E+02  0.95764583536E+02  0.91164002813E+02 0.  0.
         13    1    3    3    0    0  0.19442091977E+01  0.25054033509E+02 -0.24736188145E+02  0.35261518862E+02  0.10566000000E+00 0.  1.
         22    1    1    0    0    0  0.19389338131E+02  0.19482681670E+02 -0.10220505497E+02  0.29325416464E+02  0.00000000000E+00 0. -1.
</event>
<event>
 5    1  0.1258677E-009  0.9118800E+02  0.7561462E-02  0.1125453E+00
         25   -1    0    0    0    0  0.00000000000E+00  0.00000000000E+00  0.99999998245E-14  0.12509000000E+03  0.12509000000E+03 0.  0.
        -13    1    3    3    0    0 -0.16715888873E+02  0.25223810982E+02 -0.40648767229E+02  0.50675388726E+02  0.10566000000E+00 0. -1.
         23    2    1    0    0    0 -0.28230970711E+02  0.71340974976E+01 -0.76147412854E+00  0.95961613549E+02  0.91433956371E+02 0.  0.
         13    1    3    3    0    0 -0.11515081839E+02 -0.18089713485E+02  0.39887293101E+02  0.45286224822E+02  0.10566000000E+00 0.  1.
         22    1    1    0    0    0  0.28230970711E+02 -0.71340974976E+01  0.76147412854E+00  0.29128386451E+02  0.00000000000E+00 0. -1.
</event>
<event>
 5    1  0.1258677E-009  0.9118800E+02  0.7561462E-02  0.1125453E+00
         25   -1    0    0    0    0  0.00000000000E+00  0.00000000000E+00  0.99999998245E-14  0.12509000000E+03  0.12509000000E+03 0.  0.
        -13    1    3    3    0    0  0.29575379397E+02 -0.13048132911E+02  0.11854904148E+02  0.34431188701E+02  0.10566000000E+00 0.  1.
         23    2    1    0    0    0 -0.29267125032E+02  0.91835795859E+00  0.16636426682E+01  0.95761247965E+02  0.91159425820E+02 0.  0.
         13    1    3    3    0    0 -0.58842504430E+02  0.13966490869E+02 -0.10191261480E+02  0.61330059264E+02  0.10566000000E+00 0. -1.
         22    1    1    0    0    0  0.29267125032E+02 -0.91835795859E+00 -0.16636426682E+01  0.29328752035E+02  0.00000000000E+00 0. -1.
</event>
<event>
 5    1  0.1258677E-009  0.9118800E+02  0.7561462E-02  0.1125453E+00
         25   -1    0    0    0    0  0.00000000000E+00  0.00000000000E+00  0.99999998245E-14  0.12509000000E+03  0.12509000000E+03 0.  0.
        -13    1    3    3    0    0  0.23539218936E+02  0.40930894458E+01 -0.25112483924E+02  0.34662605531E+02  0.10566000000E+00 0.  1.
         23    2    1    0    0    0 -0.27081424387E+02 -0.63792626214E+01  0.81085508728E+01  0.96109883788E+02  0.91636579083E+02 0.  0.
         13    1    3    3    0    0 -0.50620643323E+02 -0.10472352067E+02  0.33221034796E+02  0.61447278257E+02  0.10566000000E+00 0. -1.
         22    1    1    0    0    0  0.27081424387E+02  0.63792626214E+01 -0.81085508728E+01  0.28980116212E+02  0.00000000000E+00 0. -1.
</event>
<event>
 5    1  0.1258677E-009  0.9118800E+02  0.7561462E-02  0.1125453E+00
         25   -1    0    0    0    0  0.00000000000E+00  0.00000000000E+00  0.99999998245E-14  0.12509000000E+03  0.12509000000E+03 0.  0.
        -13    1    3    3    0    0  0.28318095338E+02  0.32876606146E+02 -0.24591756161E+02  0.49875358549E+02  0.10566000000E+00 0. -1.
         23    2    1    0    0    0 -0.13858676138E+00  0.28822821914E+01 -0.32913663460E+02  0.92050084757E+02  0.85916134134E+02 0.  0.
         13    1    3    3    0    0 -0.28456682100E+02 -0.29994323954E+02 -0.83219072983E+01  0.42174726208E+02  0.10566000000E+00 0.  1.
         22    1    1    0    0    0  0.13858676138E+00 -0.28822821914E+01  0.32913663460E+02  0.33039915243E+02  0.00000000000E+00 0. -1.
</event>
<event>
 5    1  0.1258677E-009  0.9118800E+02  0.7561462E-02  0.1125453E+00
         25   -1    0    0    0    0  0.00000000000E+00  0.00000000000E+00  0.99999998245E-14  0.12509000000E+03  0.12509000000E+03 0.  0.
        -13    1    3    3    0    0  0.49255408807E+01  0.16876174754E+01  0.43335727585E+02  0.43647513733E+02  0.10566000000E+00 0. -1.
         23    2    1    0    0    0  0.27652971553E+02  0.12194233767E+02 -0.13145456428E+01  0.94839145415E+02  0.89885200673E+02 0.  0.
         13    1    3    3    0    0  0.22727430672E+02  0.10506616292E+02 -0.44650273228E+02  0.51191631682E+02  0.10566000000E+00 0.  1.
         22    1    1    0    0    0 -0.27652971553E+02 -0.12194233767E+02  0.13145456428E+01  0.30250854585E+02  0.00000000000E+00 0.  1.
</event>
<event>
 5    1  0.1258677E-009  0.9118800E+02  0.7561462E-02  0.1125453E+00
         25   -1    0    0    0    0  0.00000000000E+00  0.00000000000E+00  0.99999998245E-14  0.12509000000E+03  0.12509000000E+03 0.  0.
        -13    1    3    3    0    0  0.20289672306E+02  0.23108691694E+02 -0.30414944358E+02  0.43252311365E+02  0.10566000000E+00 0. -1.
         23    2    1    0    0    0 -0.19165343982E+02 -0.12455734688E+02 -0.90189925854E+01  0.10051769926E+03  0.97467994234E+02 0.  0.
         13    1    3    3    0    0 -0.39455016287E+02 -0.35564426382E+02  0.21395951773E+02  0.57265387892E+02  0.10566000000E+00 0.  1.
         22    1    1    0    0    0  0.19165343982E+02  0.12455734688E+02  0.90189925854E+01  0.24572300743E+02  0.00000000000E+00 0.  1.
</event>
<event>
 5    1  0.1258677E-009  0.9118800E+02  0.7561462E-02  0.1125453E+00
         25   -1    0    0    0    0  0.00000000000E+00  0.00000000000E+00  0.99999998245E-14  0.12509000000E+03  0.12509000000E+03 0.  0.
        -13    1    3    3    0    0  0.15986868567E+02 -0.25121468104E+02 -0.12778848200E+02  0.32403367905E+02  0.10566000000E+00 0. -1.
         23    2    1    0    0    0 -0.25054249214E+02  0.75067712948E+01  0.18129408492E+02  0.93266385007E+02  0.87669128552E+02 0.  0.
         13    1    3    3    0    0 -0.41041117781E+02  0.32628239398E+02  0.30908256692E+02  0.60863017102E+02  0.10566000000E+00 0.  1.
         22    1    1    0    0    0  0.25054249214E+02 -0.75067712948E+01 -0.18129408492E+02  0.31823614993E+02  0.00000000000E+00 0.  1.
</event>
<event>
 5    1  0.1258677E-009  0.9118800E+02  0.7561462E-02  0.1125453E+00
         25   -1    0    0    0    0  0.00000000000E+00  0.00000000000E+00  0.99999998245E-14  0.12509000000E+03  0.12509000000E+03 0.  0.
        -13    1    3    3    0    0 -0.27522490405E+01 -0.13880018833E+02  0.51854369208E+02  0.53750502952E+02  0.10566000000E+00 0.  1.
         23    2    1    0    0    0  0.15766439568E+02  0.99729172090E+01  0.22461213467E+02  0.95891612977E+02  0.91338138993E+02 0.  0.
         13    1    3    3    0    0  0.18518688609E+02  0.23852936042E+02 -0.29393155742E+02  0.42141110025E+02  0.10566000000E+00 0. -1.
         22    1    1    0    0    0 -0.15766439568E+02 -0.99729172090E+01 -0.22461213467E+02  0.29198387023E+02  0.00000000000E+00 0.  1.
</event>
<event>
 5    1  0.1258677E-009  0.9118800E+02  0.7561462E-02  0.1125453E+00
         25   -1    0    0    0    0  0.00000000000E+00  0.00000000000E+00  0.99999998245E-14  0.12509000000E+03  0.12509000000E+03 0.  0.
        -13    1    3    3    0    0  0.25929735468E+02 -0.28842319616E+02 -0.78794080298E+01  0.39576846984E+02  0.10566000000E+00 0.  1.
         23    2    1    0    0    0  0.13126250334E+02  0.19150619196E+02  0.18117516836E+02  0.95640227849E+02  0.90993209105E+02 0.  0.
         13    1    3    3    0    0 -0.12803485134E+02  0.47992938813E+02  0.25996924866E+02  0.56063380865E+02  0.10566000000E+00 0. -1.
         22    1    1    0    0    0 -0.13126250334E+02 -0.19150619196E+02 -0.18117516836E+02  0.29449772151E+02  0.00000000000E+00 0. -1.
</event>
<event>
 5    1  0.1258677E-009  0.9118800E+02  0.7561462E-02  0.1125453E+00
         25   -1    0    0    0    0  0.00000000000E+00  0.00000000000E+00  0.99999998245E-14  0.12509000000E+03  0.12509000000E+03 0.  0.
        -13    1    3    3    0    0 -0.25015482159E+02  0.38241438288E+02 -0.38375855084E+02  0.59673271801E+02  0.10566000000E+00 0. -1.
         23    2    1    0    0    0 -0.86929499913E+01  0.35344618552E+02 -0.26110143581E+02  0.80295479822E+02  0.66639440588E+02 0.  0.
         13    1    3    3    0    0  0.16322532167E+02 -0.28968197354E+01  0.12265711504E+02  0.20622208021E+02  0.10566000000E+00 0.  1.
         22    1    1    0    0    0  0.86929499913E+01 -0.35344618552E+02  0.26110143581E+02  0.44794520178E+02  0.00000000000E+00 0. -1.
</event>
<event>
 5    1  0.1258677E-009  0.9118800E+02  0.7561462E-02  0.1125453E+00
         25   -1    0    0    0    0  0.00000000000E+00  0.00000000000E+00  0.99999998245E-14  0.12509000000E+03  0.12509000000E+03 0.  0.
        -13    1    3    3    0    0 -0.29189632088E+02 -0.13857571389E+02 -0.10763055321E+02  0.34057619267E+02  0.10566000000E+00 0. -1.
         23    2    1    0    0    0  0.22663979784E+02  0.18415915856E+02 -0.13459678000E+01  0.95856225598E+02  0.91289662176E+02 0.  0.
         13    1    3    3    0    0  0.51853611872E+02  0.32273487244E+02  0.94170875211E+01  0.61798606332E+02  0.10566000000E+00 0.  1.
         22    1    1    0    0    0 -0.22663979784E+02 -0.18415915856E+02  0.13459678000E+01  0.29233774402E+02  0.00000000000E+00 0.  1.
</event>
<event>
 5    1  0.1258677E-009  0.9118800E+02  0.7561462E-02  0.1125453E+00
         25   -1    0    0    0    0  0.00000000000E+00  0.00000000000E+00  0.99999998245E-14  0.12509000000E+03  0.12509000000E+03 0.  0.
        -13    1    3    3    0    0  0.73845622630E+01 -0.19823771938E+02 -0.32653017223E+02  0.38906868179E+02  0.10566000000E+00 0.  1.
         23    2    1    0    0    0  0.21723324719E+02 -0.26563716976E+01  0.19577883670E+02  0.95725860707E+02  0.91110854083E+02 0.  0.
         13    1    3    3    0    0  0.14338762456E+02  0.17167400240E+02  0.52230900893E+02  0.56818992528E+02  0.10566000000E+00 0. -1.
         22    1    1    0    0    0 -0.21723324719E+02  0.26563716976E+01 -0.19577883670E+02  0.29364139293E+02  0.00000000000E+00 0. -1.
</event>
<event>
 5    1  0.1258677E-009  0.9118800E+02  0.7561462E-02  0.1125453E+00
         25   -1    0    0    0    0  0.00000000000E+00  0.00000000000E+00  0.99999998245E-14  0.12509000000E+03  0.12509000000E+03 0.  0.
        -13    1    3    3    0    0  0.46645112515E+02 -0.29322046884E+02  0.42072434066E+01  0.55256321051E+02  0.10566000000E+00 0.  1.
         23    2    1    0    0    0  0.15068640611E+02 -0.14494665272E+02  0.22272709040E+02  0.94541140460E+02  0.89469516710E+02 0.  0.
         13    1    3    3    0    0 -0.31576471904E+02  0.14827381613E+02  0.18065465634E+02  0.39284819409E+02  0.10566000000E+00 0. -1.
         22    1    1    0    0    0 -0.15068640611E+02  0.14494665272E+02 -0.22272709040E+02  0.30548859540E+02  0.00000000000E+00 0.  1.
</event>
<event>
 5    1  0.1258677E-009  0.9118800E+02  0.7561462E-02  0.1125453E+00
         25   -1    0    0    0    0  0.00000000000E+00  0.00000000000E+00  0.99999998245E-14  0.12509000000E+03  0.12509000000E+03 0.  0.
        -13    1    3    3    0    0 -0.11692054010E+02 -0.27846535549E+02  0.16521248128E+02  0.34425230178E+02  0.10566000000E+00 0.  1.
         23    2    1    0    0    0  0.86147306569E+01  0.24443179649E+02 -0.11033744738E+02  0.96922179023E+02  0.92738787182E+02 0.  0.
         13    1    3    3    0    0  0.20306784667E+02  0.52289715198E+02 -0.27554992866E+02  0.62496948845E+02  0.10566000000E+00 0. -1.
         22    1    1    0    0    0 -0.86147306569E+01 -0.24443179649E+02  0.11033744738E+02  0.28167820977E+02  0.00000000000E+00 0. -1.
</event>
<event>
 5    1  0.1258677E-009  0.9118800E+02  0.7561462E-02  0.1125453E+00
         25   -1    0    0    0    0  0.00000000000E+00  0.00000000000E+00  0.99999998245E-14  0.12509000000E+03  0.12509000000E+03 0.  0.
        -13    1    3    3    0    0 -0.29023184914E+02  0.32346803450E+01 -0.12635592178E+02  0.31819455892E+02  0.10566000000E+00 0.  1.
         23    2    1    0    0    0  0.29749808214E+02 -0.94127039301E+01  0.24151773738E+01  0.93793304235E+02  0.88417762658E+02 0.  0.
         13    1    3    3    0    0  0.58772993129E+02 -0.12647384275E+02  0.15050769552E+02  0.61973848343E+02  0.10566000000E+00 0. -1.
         22    1    1    0    0    0 -0.29749808214E+02  0.94127039301E+01 -0.24151773738E+01  0.31296695765E+02  0.00000000000E+00 0. -1.
</event>
<event>
 5    1  0.1258677E-009  0.9118800E+02  0.7561462E-02  0.1125453E+00
         25   -1    0    0    0    0  0.00000000000E+00  0.00000000000E+00  0.99999998245E-14  0.12509000000E+03  0.12509000000E+03 0.  0.
        -13    1    3    3    0    0  0.43397851895E+01 -0.65376906913E+01 -0.61407687563E+02  0.61907110988E+02  0.10566000000E+00 0. -1.
         23    2    1    0    0    0 -0.31594936793E+00  0.28048141083E+01 -0.28963639080E+02  0.95989154738E+02  0.91471627472E+02 0.  0.
         13    1    3    3    0    0 -0.46557345574E+01  0.93425047996E+01  0.32444048482E+02  0.34082043750E+02  0.10566000000E+00 0.  1.
         22    1    1    0    0    0  0.31594936793E+00 -0.28048141083E+01  0.28963639080E+02  0.29100845262E+02  0.00000000000E+00 0. -1.
</event>
<event>
 5    1  0.1258677E-009  0.9118800E+02  0.7561462E-02  0.1125453E+00
         25   -1    0    0    0    0  0.00000000000E+00  0.00000000000E+00  0.99999998245E-14  0.12509000000E+03  0.12509000000E+03 0.  0.
        -13    1    3    3    0    0  0.47910850609E+02 -0.32108565745E+00  0.38551633185E+01  0.48066892455E+02  0.10566000000E+00 0.  1.
         23    2    1    0    0    0  0.11988294801E+02 -0.57232439510E+01 -0.26526035806E+02  0.95423431120E+02  0.90694685057E+02 0.  0.
         13    1    3    3    0    0 -0.35922555808E+02 -0.54021582935E+01 -0.30381199124E+02  0.47356538664E+02  0.10566000000E+00 0. -1.
         22    1    1    0    0    0 -0.11988294801E+02  0.57232439510E+01  0.26526035806E+02  0.29666568880E+02  0.00000000000E+00 0. -1.
</event>
<event>
 5    1  0.1258677E-009  0.9118800E+02  0.7561462E-02  0.1125453E+00
         25   -1    0    0    0    0  0.00000000000E+00  0.00000000000E+00  0.99999998245E-14  0.12509000000E+03  0.12509000000E+03 0.  0.
        -13    1    3    3    0    0 -0.43483786072E+01 -0.36574633765E+02  0.45722203766E+02  0.58712377850E+02  0.10566000000E+00 0.  1.
         23    2    1    0    0    0  0.11250658313E+02 -0.97724689996E+01  0.24918826747E+02  0.96055083274E+02  0.91561742193E+02 0.  0.
         13    1    3    3    0    0  0.15599036920E+02  0.26802164765E+02 -0.20803377019E+02  0.37342705424E+02  0.10566000000E+00 0. -1.
         22    1    1    0    0    0 -0.11250658313E+02  0.97724689996E+01 -0.24918826747E+02  0.29034916726E+02  0.00000000000E+00 0.  1.
</event>
<event>
 5    1  0.1258677E-009  0.9118800E+02  0.7561462E-02  0.1125453E+00
         25   -1    0    0    0    0  0.00000000000E+00  0.00000000000E+00  0.99999998245E-14  0.12509000000E+03  0.12509000000E+03 0.  0.
        -13    1    3    3    0    0  0.31262705120E+02 -0.47692774781E+02 -0.20302625250E+02  0.60532348821E+02  0.10566000000E+00 0.  1.
         23    2    1    0    0    0  0.12405203898E+02 -0.26230197594E+02  0.81957248950E+00  0.96062701665E+02  0.91572149710E+02 0.  0.
         13    1    3    3    0    0 -0.18857501223E+02  0.21462577187E+02  0.21122197739E+02  0.35530352844E+02  0.10566000000E+00 0. -1.
         22    1    1    0    0    0 -0.12405203898E+02  0.26230197594E+02 -0.81957248950E+00  0.29027298335E+02  0.00000000000E+00 0.  1.
</event>
<event>
 5    1  0.1258677E-009  0.9118800E+02  0.7561462E-02  0.1125453E+00
         25   -1    0    0    0    0  0.00000000000E+00  0.00000000000E+00  0.99999998245E-14  0.12509000000E+03  0.12509000000E+03 0.  0.
        -13    1    3    3    0    0  0.35993928862E+02  0.17306851918E+01  0.20499837857E+02  0.41458566091E+02  0.10566000000E+00 0. -1.
         23    2    1    0    0    0  0.11471391651E+02  0.73465362074E+01 -0.26796645162E+02  0.95029650491E+02  0.90149929894E+02 0.  0.
         13    1    3    3    0    0 -0.24522537211E+02  0.56158510156E+01 -0.47296483019E+02  0.53571084401E+02  0.10566000000E+00 0.  1.
         22    1    1    0    0    0 -0.11471391651E+02 -0.73465362074E+01  0.26796645162E+02  0.30060349509E+02  0.00000000000E+00 0.  1.
</event>
<event>
 5    1  0.1258677E-009  0.9118800E+02  0.7561462E-02  0.1125453E+00
         25   -1    0    0    0    0  0.00000000000E+00  0.00000000000E+00  0.99999998245E-14  0.12509000000E+03  0.12509000000E+03 0.  0.
        -13    1    3    3    0    0  0.61672051372E+01  0.34891450772E+02 -0.41874198180E+02  0.54853508488E+02  0.10566000000E+00 0.  1.
         23    2    1    0    0    0  0.82317528126E+01 -0.16023234108E+01 -0.30980387091E+02  0.92994617482E+02  0.87280497831E+02 0.  0.
         13    1    3    3    0    0  0.20645476754E+01 -0.36493774183E+02  0.10893811089E+02  0.38141108994E+02  0.10566000000E+00 0. -1.
         22    1    1    0    0    0 -0.82317528126E+01  0.16023234108E+01  0.30980387091E+02  0.32095382518E+02  0.00000000000E+00 0.  1.
</event>
<event>
 5    1  0.1258677E-009  0.9118800E+02  0.7561462E-02  0.1125453E+00
         25   -1    0    0    0    0  0.00000000000E+00  0.00000000000E+00  0.99999998245E-14  0.12509000000E+03  0.12509000000E+03 0.  0.
        -13    1    3    3    0    0  0.48615236788E+02  0.22589942653E+01 -0.88781833972E+01  0.49470977426E+02  0.10566000000E+00 0.  1.
         23    2    1    0    0    0  0.89869918222E+01 -0.24962685024E+02 -0.72943617771E+01  0.97574379358E+02  0.93614369237E+02 0.  0.
         13    1    3    3    0    0 -0.39628244966E+02 -0.27221679289E+02  0.15838216202E+01  0.48103401931E+02  0.10566000000E+00 0. -1.
         22    1    1    0    0    0 -0.89869918222E+01  0.24962685024E+02  0.72943617771E+01  0.27515620642E+02  0.00000000000E+00 0.  1.
</event>
<event>
 5    1  0.1258677E-009  0.9118800E+02  0.7561462E-02  0.1125453E+00
         25   -1    0    0    0    0  0.00000000000E+00  0.00000000000E+00  0.99999998245E-14  0.12509000000E+03  0.12509000000E+03 0.  0.
        -13    1    3    3    0    0  0.85362840393E+01  0.50106179500E+02  0.96105382739E+01  0.51728821553E+02  0.10566000000E+00 0.  1.
         23    2    1    0    0    0 -0.14398800153E+02  0.23191702299E+02 -0.14160972968E+02  0.94337542264E+02  0.89184405720E+02 0.  0.
         13    1    3    3    0    0 -0.22935084193E+02 -0.26914477200E+02 -0.23771511242E+02  0.42608720711E+02  0.10566000000E+00 0. -1.
         22    1    1    0    0    0  0.14398800153E+02 -0.23191702299E+02  0.14160972968E+02  0.30752457736E+02  0.00000000000E+00 0.  1.
</event>
<event>
 5    1  0.1258677E-009  0.9118800E+02  0.7561462E-02  0.1125453E+00
         25   -1    0    0    0    0  0.00000000000E+00  0.00000000000E+00  0.99999998245E-14  0.12509000000E+03  0.12509000000E+03 0.  0.
        -13    1    3    3    0    0 -0.36098467567E+02 -0.25210403686E+02 -0.13455442705E+01  0.44050941739E+02  0.10566000000E+00 0.  1.
         23    2    1    0    0    0  0.14956308982E+02 -0.19651441521E+02 -0.13666877334E+02  0.96864942546E+02  0.92661552039E+02 0.  0.
         13    1    3    3    0    0  0.51054776549E+02  0.55589621644E+01 -0.12321333063E+02  0.52814000807E+02  0.10566000000E+00 0. -1.
         22    1    1    0    0    0 -0.14956308982E+02  0.19651441521E+02  0.13666877334E+02  0.28225057454E+02  0.00000000000E+00 0.  1.
</event>
<event>
 5    1  0.1258677E-009  0.9118800E+02  0.7561462E-02  0.1125453E+00
         25   -1    0    0    0    0  0.00000000000E+00  0.00000000000E+00  0.99999998245E-14  0.12509000000E+03  0.12509000000E+03 0.  0.
        -13    1    3    3    0    0  0.14456918415E+02  0.18095474969E+02 -0.30182969071E+02  0.38045650085E+02  0.10566000000E+00 0.  1.
         23    2    1    0    0    0 -0.28261086384E+02 -0.30756841114E+01  0.35387048044E+01  0.96442639423E+02  0.92089692316E+02 0.  0.
         13    1    3    3    0    0 -0.42718004799E+02 -0.21171159080E+02  0.33721673875E+02  0.58396989338E+02  0.10566000000E+00 0. -1.
         22    1    1    0    0    0  0.28261086384E+02  0.30756841114E+01 -0.35387048044E+01  0.28647360577E+02  0.00000000000E+00 0. -1.
</event>
<event>
 5    1  0.1258677E-009  0.9118800E+02  0.7561462E-02  0.1125453E+00
         25   -1    0    0    0    0  0.00000000000E+00  0.00000000000E+00  0.99999998245E-14  0.12509000000E+03  0.12509000000E+03 0.  0.
        -13    1    3    3    0    0 -0.20688974562E+02  0.52414703823E+02  0.22629521954E+02  0.60724305456E+02  0.10566000000E+00 0.  1.
         23    2    1    0    0    0 -0.15937312967E+02  0.26048644610E+02  0.20927914024E+01  0.94481020819E+02  0.89385422126E+02 0.  0.
         13    1    3    3    0    0  0.47516615950E+01 -0.26366059213E+02 -0.20536730551E+02  0.33756715363E+02  0.10566000000E+00 0. -1.
         22    1    1    0    0    0  0.15937312967E+02 -0.26048644610E+02 -0.20927914024E+01  0.30608979181E+02  0.00000000000E+00 0.  1.
</event>
<event>
 5    1  0.1258677E-009  0.9118800E+02  0.7561462E-02  0.1125453E+00
         25   -1    0    0    0    0  0.00000000000E+00  0.00000000000E+00  0.99999998245E-14  0.12509000000E+03  0.12509000000E+03 0.  0.
        -13    1    3    3    0    0  0.88484760103E+01 -0.22965864854E+02  0.23796975463E+02  0.34234977456E+02  0.10566000000E+00 0. -1.
         23    2    1    0    0    0 -0.89695825588E+01  0.30213354098E+02  0.66874862483E+01  0.92871641112E+02  0.87104070361E+02 0.  0.
         13    1    3    3    0    0 -0.17818058569E+02  0.53179218952E+02 -0.17109489215E+02  0.58636663656E+02  0.10566000000E+00 0.  1.
         22    1    1    0    0    0  0.89695825588E+01 -0.30213354098E+02 -0.66874862483E+01  0.32218358888E+02  0.00000000000E+00 0.  1.
</event>
<event>
 5    1  0.1258677E-009  0.9118800E+02  0.7561462E-02  0.1125453E+00
         25   -1    0    0    0    0  0.00000000000E+00  0.00000000000E+00  0.99999998245E-14  0.12509000000E+03  0.12509000000E+03 0.  0.
        -13    1    3    3    0    0 -0.38076985259E+02 -0.21609853967E+02  0.12463225914E+02  0.45521267107E+02  0.10566000000E+00 0. -1.
         23    2    1    0    0    0 -0.13583312112E+02  0.21221273912E+02  0.16413273317E+02  0.95019343616E+02  0.90135627174E+02 0.  0.
         13    1    3    3    0    0  0.24493673147E+02  0.42831127878E+02  0.39500474032E+01  0.49498076509E+02  0.10566000000E+00 0.  1.
         22    1    1    0    0    0  0.13583312112E+02 -0.21221273912E+02 -0.16413273317E+02  0.30070656384E+02  0.00000000000E+00 0.  1.
</event>
<event>
 5    1  0.1258677E-009  0.9118800E+02  0.7561462E-02  0.1125453E+00
         25   -1    0    0    0    0  0.00000000000E+00  0.00000000000E+00  0.99999998245E-14  0.12509000000E+03  0.12509000000E+03 0.  0.
        -13    1    3    3    0    0 -0.26422180880E+01  0.84157778502E+01  0.36440184089E+02  0.37492730145E+02  0.10566000000E+00 0.  1.
         23    2    1    0    0    0  0.15808432213E+02  0.22880488791E+02 -0.14614590374E+02  0.93673291895E+02  0.88247810547E+02 0.  0.
         13    1    3    3    0    0  0.18450650301E+02  0.14464710941E+02 -0.51054774463E+02  0.56180561750E+02  0.10566000000E+00 0. -1.
         22    1    1    0    0    0 -0.15808432213E+02 -0.22880488791E+02  0.14614590374E+02  0.31416708105E+02  0.00000000000E+00 0. -1.
</event>
<event>
 5    1  0.1258677E-009  0.9118800E+02  0.7561462E-02  0.1125453E+00
         25   -1    0    0    0    0  0.00000000000E+00  0.00000000000E+00  0.99999998245E-14  0.12509000000E+03  0.12509000000E+03 0.  0.
        -13    1    3    3    0    0 -0.68115344939E+01  0.17873605660E+02 -0.40437196741E+02  0.44732994822E+02  0.10566000000E+00 0. -1.
         23    2    1    0    0    0 -0.74080309392E+01 -0.25128408758E+02 -0.12121235031E+02  0.96224099914E+02  0.91792359249E+02 0.  0.
         13    1    3    3    0    0 -0.59649644530E+00 -0.43002014418E+02  0.28315961710E+02  0.51491105092E+02  0.10566000000E+00 0.  1.
         22    1    1    0    0    0  0.74080309392E+01  0.25128408758E+02  0.12121235031E+02  0.28865900086E+02  0.00000000000E+00 0.  1.
</event>
<event>
 5    1  0.1258677E-009  0.9118800E+02  0.7561462E-02  0.1125453E+00
         25   -1    0    0    0    0  0.00000000000E+00  0.00000000000E+00  0.99999998245E-14  0.12509000000E+03  0.12509000000E+03 0.  0.
        -13    1    3    3    0    0 -0.46316008290E+02 -0.32756421988E+02 -0.77718222733E+01  0.57258782653E+02  0.10566000000E+00 0.  1.
         23    2    1    0    0    0 -0.18842041294E+02 -0.14582739051E+02  0.14662625822E+02  0.97113735161E+02  0.92996807271E+02 0.  0.
         13    1    3    3    0    0  0.27473966996E+02  0.18173682938E+02  0.22434448095E+02  0.39854952508E+02  0.10566000000E+00 0. -1.
         22    1    1    0    0    0  0.18842041294E+02  0.14582739051E+02 -0.14662625822E+02  0.27976264839E+02  0.00000000000E+00 0.  1.
</event>
<event>
 5    1  0.1258677E-009  0.9118800E+02  0.7561462E-02  0.1125453E+00
         25   -1    0    0    0    0  0.00000000000E+00  0.00000000000E+00  0.99999998245E-14  0.12509000000E+03  0.12509000000E+03 0.  0.
        -13    1    3    3    0    0  0.61493988238E+01 -0.43579211610E+02 -0.41743603636E+01  0.44208587841E+02  0.10566000000E+00 0.  1.
         23    2    1    0    0    0  0.70238341007E+01  0.76836834647E+00 -0.29138246983E+02  0.95107303780E+02  0.90257615521E+02 0.  0.
         13    1    3    3    0    0  0.87443527689E+00  0.44347579956E+02 -0.24963886620E+02  0.50898715939E+02  0.10566000000E+00 0. -1.
         22    1    1    0    0    0 -0.70238341007E+01 -0.76836834647E+00  0.29138246983E+02  0.29982696220E+02  0.00000000000E+00 0. -1.
</event>
<event>
 5    1  0.1258677E-009  0.9118800E+02  0.7561462E-02  0.1125453E+00
         25   -1    0    0    0    0  0.00000000000E+00  0.00000000000E+00  0.99999998245E-14  0.12509000000E+03  0.12509000000E+03 0.  0.
        -13    1    3    3    0    0  0.51264188916E+02  0.26935730952E+01 -0.16473857917E+02  0.53913556365E+02  0.10566000000E+00 0.  1.
         23    2    1    0    0    0  0.18544412276E+02  0.23788822695E+02 -0.48734722751E+01  0.94535883356E+02  0.89462166294E+02 0.  0.
         13    1    3    3    0    0 -0.32719776641E+02  0.21095249600E+02  0.11600385641E+02  0.40622326991E+02  0.10566000000E+00 0. -1.
         22    1    1    0    0    0 -0.18544412276E+02 -0.23788822695E+02  0.48734722751E+01  0.30554116644E+02  0.00000000000E+00 0.  1.
</event>
<event>
 5    1  0.1258677E-009  0.9118800E+02  0.7561462E-02  0.1125453E+00
         25   -1    0    0    0    0  0.00000000000E+00  0.00000000000E+00  0.99999998245E-14  0.12509000000E+03  0.12509000000E+03 0.  0.
        -13    1    3    3    0    0 -0.29488032321E+00 -0.20755374847E+02 -0.26488716190E+02  0.33653169076E+02  0.10566000000E+00 0. -1.
         23    2    1    0    0    0  0.42653388075E+01  0.27905480713E+02  0.10525820847E+02  0.94961908897E+02  0.90055884138E+02 0.  0.
         13    1    3    3    0    0  0.45602191307E+01  0.48660855560E+02  0.37014537037E+02  0.61308739821E+02  0.10566000000E+00 0.  1.
         22    1    1    0    0    0 -0.42653388075E+01 -0.27905480713E+02 -0.10525820847E+02  0.30128091103E+02  0.00000000000E+00 0.  1.
</event>
<event>
 5    1  0.1258677E-009  0.9118800E+02  0.7561462E-02  0.1125453E+00
         25   -1    0    0    0    0  0.00000000000E+00  0.00000000000E+00  0.99999998245E-14  0.12509000000E+03  0.12509000000E+03 0.  0.
        -13    1    3    3    0    0 -0.17349476814E+02 -0.40100178623E+02  0.20467287569E+02  0.48248831031E+02  0.10566000000E+00 0. -1.
         23    2    1    0    0    0  0.12797640191E+02 -0.40880927053E+01  0.26282669989E+02  0.95572702730E+02  0.90900333712E+02 0.  0.
         13    1    3    3    0    0  0.30147117005E+02  0.36012085918E+02  0.58153824194E+01  0.47323871699E+02  0.10566000000E+00 0.  1.
         22    1    1    0    0    0 -0.12797640191E+02  0.40880927053E+01 -0.26282669989E+02  0.29517297270E+02  0.00000000000E+00 0. -1.
</event>
<event>
 5    1  0.1258677E-009  0.9118800E+02  0.7561462E-02  0.1125453E+00
         25   -1    0    0    0    0  0.00000000000E+00  0.00000000000E+00  0.99999998245E-14  0.12509000000E+03  0.12509000000E+03 0.  0.
        -13    1    3    3    0    0 -0.41955439062E+02 -0.27572250659E+02  0.35900973697E+02  0.61720166476E+02  0.10566000000E+00 0. -1.
         23    2    1    0    0    0 -0.13783790634E+02 -0.17080408389E+02  0.17968469491E+02  0.96724543352E+02  0.92471823578E+02 0.  0.
         13    1    3    3    0    0  0.28171648428E+02  0.10491842270E+02 -0.17932504206E+02  0.35004376877E+02  0.10566000000E+00 0.  1.
         22    1    1    0    0    0  0.13783790634E+02  0.17080408389E+02 -0.17968469491E+02  0.28365456648E+02  0.00000000000E+00 0. -1.
</event>
<event>
 5    1  0.1258677E-009  0.9118800E+02  0.7561462E-02  0.1125453E+00
         25   -1    0    0    0    0  0.00000000000E+00  0.00000000000E+00  0.99999998245E-14  0.12509000000E+03  0.12509000000E+03 0.  0.
        -13    1    3    3    0    0  0.24467663795E+02  0.22019302144E+02 -0.85944385346E+01  0.34020461141E+02  0.10566000000E+00 0.  1.
         23    2    1    0    0    0 -0.22153286766E+02 -0.15591376461E+02  0.91542051422E+01  0.96495269606E+02  0.92161154779E+02 0.  0.
         13    1    3    3    0    0 -0.46620950561E+02 -0.37610678605E+02  0.17748643677E+02  0.62474808465E+02  0.10566000000E+00 0. -1.
         22    1    1    0    0    0  0.22153286766E+02  0.15591376461E+02 -0.91542051422E+01  0.28594730394E+02  0.00000000000E+00 0. -1.
</event>
<event>
 5    1  0.1258677E-009  0.9118800E+02  0.7561462E-02  0.1125453E+00
         25   -1    0    0    0    0  0.00000000000E+00  0.00000000000E+00  0.99999998245E-14  0.12509000000E+03  0.12509000000E+03 0.  0.
        -13    1    3    3    0    0 -0.29311759318E+02  0.27544135264E+01 -0.20748237243E+02  0.36017586550E+02  0.10566000000E+00 0. -1.
         23    2    1    0    0    0  0.14225714959E+02 -0.26315530937E+02  0.56487891776E+01  0.94646824184E+02  0.89617154464E+02 0.  0.
         13    1    3    3    0    0  0.43537474277E+02 -0.29069944464E+02  0.26397026420E+02  0.58629237633E+02  0.10566000000E+00 0.  1.
         22    1    1    0    0    0 -0.14225714959E+02  0.26315530937E+02 -0.56487891776E+01  0.30443175816E+02  0.00000000000E+00 0.  1.
</event>
<event>
 5    1  0.1258677E-009  0.9118800E+02  0.7561462E-02  0.1125453E+00
         25   -1    0    0    0    0  0.00000000000E+00  0.00000000000E+00  0.99999998245E-14  0.12509000000E+03  0.12509000000E+03 0.  0.
        -13    1    3    3    0    0 -0.28172978872E+02 -0.15762943084E+02 -0.27964026048E+02  0.42710479160E+02  0.10566000000E+00 0.  1.
         23    2    1    0    0    0  0.38959109972E+01  0.25168946519E+02 -0.10094261283E+02  0.97693867021E+02  0.93773895895E+02 0.  0.
         13    1    3    3    0    0  0.32068889869E+02  0.40931889603E+02  0.17869764765E+02  0.54983387861E+02  0.10566000000E+00 0. -1.
         22    1    1    0    0    0 -0.38959109972E+01 -0.25168946519E+02  0.10094261283E+02  0.27396132979E+02  0.00000000000E+00 0. -1.
</event>
<event>
 5    1  0.1258677E-009  0.9118800E+02  0.7561462E-02  0.1125453E+00
         25   -1    0    0    0    0  0.00000000000E+00  0.00000000000E+00  0.99999998245E-14  0.12509000000E+03  0.12509000000E+03 0.  0.
        -13    1    3    3    0    0 -0.25655304204E+01  0.42809723907E+01  0.36015217589E+02  0.36359534279E+02  0.10566000000E+00 0.  1.
         23    2    1    0    0    0 -0.66115875276E+01  0.24158981964E+02 -0.18123133227E+02  0.94173702402E+02  0.88954307186E+02 0.  0.
         13    1    3    3    0    0 -0.40460571071E+01  0.19878009574E+02 -0.54138350816E+02  0.57814168124E+02  0.10566000000E+00 0. -1.
         22    1    1    0    0    0  0.66115875276E+01 -0.24158981964E+02  0.18123133227E+02  0.30916297598E+02  0.00000000000E+00 0. -1.
</event>
<event>
 5    1  0.1258677E-009  0.9118800E+02  0.7561462E-02  0.1125453E+00
         25   -1    0    0    0    0  0.00000000000E+00  0.00000000000E+00  0.99999998245E-14  0.12509000000E+03  0.12509000000E+03 0.  0.
        -13    1    3    3    0    0  0.39598369750E+02  0.32638395685E+02  0.29184215935E+02  0.59034103563E+02  0.10566000000E+00 0. -1.
         23    2    1    0    0    0  0.23412237622E+02  0.43647065318E+01  0.22571374567E+02  0.92277647396E+02  0.86246818640E+02 0.  0.
         13    1    3    3    0    0 -0.16186132128E+02 -0.28273689153E+02 -0.66128413678E+01  0.33243543833E+02  0.10566000000E+00 0.  1.
         22    1    1    0    0    0 -0.23412237622E+02 -0.43647065318E+01 -0.22571374567E+02  0.32812352604E+02  0.00000000000E+00 0. -1.
</event>
<event>
 5    1  0.1258677E-009  0.9118800E+02  0.7561462E-02  0.1125453E+00
         25   -1    0    0    0    0  0.00000000000E+00  0.00000000000E+00  0.99999998245E-14  0.12509000000E+03  0.12509000000E+03 0.  0.
        -13    1    3    3    0    0 -0.24483175497E+02 -0.12411239541E+01  0.25920578032E+02  0.35677076683E+02  0.10566000000E+00 0.  1.
         23    2    1    0    0    0  0.23964617606E+02 -0.19595235016E+02 -0.11126921906E+01  0.94113973524E+02  0.88870275099E+02 0.  0.
         13    1    3    3    0    0  0.48447793103E+02 -0.18354111062E+02 -0.27033270222E+02  0.58436896841E+02  0.10566000000E+00 0. -1.
         22    1    1    0    0    0 -0.23964617606E+02  0.19595235016E+02  0.11126921906E+01  0.30976026476E+02  0.00000000000E+00 0. -1.
</event>
<event>
 5    1  0.1258677E-009  0.9118800E+02  0.7561462E-02  0.1125453E+00
         25   -1    0    0    0    0  0.00000000000E+00  0.00000000000E+00  0.99999998245E-14  0.12509000000E+03  0.12509000000E+03 0.  0.
        -13    1    3    3    0    0 -0.56367130421E+01 -0.32428930705E+02 -0.37398126972E+02  0.49820067700E+02  0.10566000000E+00 0. -1.
         23    2    1    0    0    0 -0.21995872586E+02  0.45439437312E+01 -0.23525529964E+02  0.92564373249E+02  0.86661680109E+02 0.  0.
         13    1    3    3    0    0 -0.16359159544E+02  0.36972874436E+02  0.13872597008E+02  0.42744305548E+02  0.10566000000E+00 0.  1.
         22    1    1    0    0    0  0.21995872586E+02 -0.45439437312E+01  0.23525529964E+02  0.32525626751E+02  0.00000000000E+00 0. -1.
</event>
<event>
 5    1  0.1258677E-009  0.9118800E+02  0.7561462E-02  0.1125453E+00
         25   -1    0    0    0    0  0.00000000000E+00  0.00000000000E+00  0.99999998245E-14  0.12509000000E+03  0.12509000000E+03 0.  0.
        -13    1    3    3    0    0 -0.13013388389E+02 -0.78752277899E+01  0.54969377476E+02  0.57035174360E+02  0.10566000000E+00 0.  1.
         23    2    1    0    0    0  0.12510335515E+02 -0.68829626125E+01  0.23816701658E+02  0.97320971445E+02  0.93275144257E+02 0.  0.
         13    1    3    3    0    0  0.25523723904E+02  0.99226517741E+00 -0.31152675819E+02  0.40285797085E+02  0.10566000000E+00 0. -1.
         22    1    1    0    0    0 -0.12510335515E+02  0.68829626125E+01 -0.23816701658E+02  0.27769028555E+02  0.00000000000E+00 0.  1.
</event>
<event>
 5    1  0.1258677E-009  0.9118800E+02  0.7561462E-02  0.1125453E+00
         25   -1    0    0    0    0  0.00000000000E+00  0.00000000000E+00  0.99999998245E-14  0.12509000000E+03  0.12509000000E+03 0.  0.
        -13    1    3    3    0    0 -0.35316293971E+02  0.30948246324E+02 -0.42339151942E+01  0.47148401587E+02  0.10566000000E+00 0. -1.
         23    2    1    0    0    0  0.99272332606E+01  0.29357985461E+02  0.59050408056E+01  0.93541453640E+02  0.88060733426E+02 0.  0.
         13    1    3    3    0    0  0.45243527231E+02 -0.15902608627E+01  0.10138956000E+02  0.46393052052E+02  0.10566000000E+00 0.  1.
         22    1    1    0    0    0 -0.99272332606E+01 -0.29357985461E+02 -0.59050408056E+01  0.31548546360E+02  0.00000000000E+00 0. -1.
</event>
<event>
 5    1  0.1258677E-009  0.9118800E+02  0.7561462E-02  0.1125453E+00
         25   -1    0    0    0    0  0.00000000000E+00  0.00000000000E+00  0.99999998245E-14  0.12509000000E+03  0.12509000000E+03 0.  0.
        -13    1    3    3    0    0  0.20083237058E+02  0.57867992652E+01 -0.38556167595E+02  0.43856729017E+02  0.10566000000E+00 0.  1.
         23    2    1    0    0    0  0.81878548194E+01  0.21219836415E+02  0.12944033289E+02  0.98919970925E+02  0.95395441327E+02 0.  0.
         13    1    3    3    0    0 -0.11895382238E+02  0.15433037150E+02  0.51500200884E+02  0.55063241907E+02  0.10566000000E+00 0. -1.
         22    1    1    0    0    0 -0.81878548194E+01 -0.21219836415E+02 -0.12944033289E+02  0.26170029075E+02  0.00000000000E+00 0. -1.
</event>
<event>
 5    1  0.1258677E-009  0.9118800E+02  0.7561462E-02  0.1125453E+00
         25   -1    0    0    0    0  0.00000000000E+00  0.00000000000E+00  0.99999998245E-14  0.12509000000E+03  0.12509000000E+03 0.  0.
        -13    1    3    3    0    0  0.19173098564E+02  0.21748815171E+02  0.18269652629E+02  0.34269666486E+02  0.10566000000E+00 0.  1.
         23    2    1    0    0    0 -0.12067184545E+02 -0.12936978433E+02 -0.22652458866E+02  0.96347761978E+02  0.91960725267E+02 0.  0.
         13    1    3    3    0    0 -0.31240283109E+02 -0.34685793604E+02 -0.40922111495E+02  0.62078095492E+02  0.10566000000E+00 0. -1.
         22    1    1    0    0    0  0.12067184545E+02  0.12936978433E+02  0.22652458866E+02  0.28742238022E+02  0.00000000000E+00 0. -1.
</event>
<event>
 5    1  0.1258677E-009  0.9118800E+02  0.7561462E-02  0.1125453E+00
         25   -1    0    0    0    0  0.00000000000E+00  0.00000000000E+00  0.99999998245E-14  0.12509000000E+03  0.12509000000E+03 0.  0.
        -13    1    3    3    0    0  0.21323421318E+02  0.38948341428E+02 -0.70277689222E+01  0.44956226451E+02  0.10566000000E+00 0.  1.
         23    2    1    0    0    0  0.56102723221E+01  0.18509936305E+01  0.26851754618E+02  0.97596035953E+02  0.93643302882E+02 0.  0.
         13    1    3    3    0    0 -0.15713148996E+02 -0.37097347797E+02  0.33879523540E+02  0.52639809501E+02  0.10566000000E+00 0. -1.
         22    1    1    0    0    0 -0.56102723221E+01 -0.18509936305E+01 -0.26851754618E+02  0.27493964047E+02  0.00000000000E+00 0.  1.
</event>
<event>
 5    1  0.1258677E-009  0.9118800E+02  0.7561462E-02  0.1125453E+00
         25   -1    0    0    0    0  0.00000000000E+00  0.00000000000E+00  0.99999998245E-14  0.12509000000E+03  0.12509000000E+03 0.  0.
        -13    1    3    3    0    0  0.17165841622E+02  0.59546120956E+02  0.36515137231E+00  0.61972180364E+02  0.10566000000E+00 0. -1.
         23    2    1    0    0    0  0.53895810356E+01  0.27128204291E+02  0.56355693869E+01  0.96863298207E+02  0.92659332209E+02 0.  0.
         13    1    3    3    0    0 -0.11776260586E+02 -0.32417916665E+02  0.52704180145E+01  0.34891117843E+02  0.10566000000E+00 0.  1.
         22    1    1    0    0    0 -0.53895810356E+01 -0.27128204291E+02 -0.56355693869E+01  0.28226701793E+02  0.00000000000E+00 0. -1.
</event>
<event>
 5    1  0.1258677E-009  0.9118800E+02  0.7561462E-02  0.1125453E+00
         25   -1    0    0    0    0  0.00000000000E+00  0.00000000000E+00  0.99999998245E-14  0.12509000000E+03  0.12509000000E+03 0.  0.
        -13    1    3    3    0    0 -0.47960726327E+02 -0.30524096886E+02 -0.15853160380E+02  0.59019366470E+02  0.10566000000E+00 0.  1.
         23    2    1    0    0    0 -0.25725231410E+02 -0.16541031621E+01  0.12658544161E+01  0.99280583584E+02  0.95867138796E+02 0.  0.
         13    1    3    3    0    0  0.22235494917E+02  0.28869993724E+02  0.17119014796E+02  0.40261217113E+02  0.10566000000E+00 0. -1.
         22    1    1    0    0    0  0.25725231410E+02  0.16541031621E+01 -0.12658544161E+01  0.25809416416E+02  0.00000000000E+00 0.  1.
</event>
