<event>
 5    1  0.8962567E-005  0.9118800E+02  0.7818608E-02  0.1130116E+00
         25   -1    0    0    0    0  0.00000000000E+00  0.00000000000E+00  0.99999998245E-14  0.12500000000E+03  0.12500000000E+03 0.  0.
        -11    1    3    3    0    0  0.58823240795E+02  0.76876231402E+01  0.94396871480E+01  0.60069800240E+02  0.51100000000E-03 0.  1.
         23    2    1    0    0    0  0.24145282269E+02  0.15099580806E+02  0.73307654115E+01  0.95593672145E+02  0.90958331319E+02 0.  0.
         11    1    3    3    0    0 -0.34677958526E+02  0.74119576660E+01 -0.21089217364E+01  0.35523871905E+02  0.51100000000E-03 0. -1.
         22    1    1    0    0    0 -0.24145282269E+02 -0.15099580806E+02 -0.73307654115E+01  0.29406327855E+02  0.00000000000E+00 0.  1.
</event>
<event>
 5    1  0.8962567E-005  0.9118800E+02  0.7818608E-02  0.1130116E+00
         25   -1    0    0    0    0  0.00000000000E+00  0.00000000000E+00  0.99999998245E-14  0.12500000000E+03  0.12500000000E+03 0.  0.
        -11    1    3    3    0    0 -0.19825086136E+02 -0.19408453130E+01 -0.26894250758E+02  0.33467919638E+02  0.51100000000E-03 0.  1.
         23    2    1    0    0    0  0.27211782804E+02 -0.22338240220E+01  0.12639703421E+02  0.94912906493E+02  0.90017923900E+02 0.  0.
         11    1    3    3    0    0  0.47036868940E+02 -0.29297870904E+00  0.39533954180E+02  0.61444986854E+02  0.51100000000E-03 0. -1.
         22    1    1    0    0    0 -0.27211782804E+02  0.22338240220E+01 -0.12639703421E+02  0.30087093507E+02  0.00000000000E+00 0. -1.
</event>
<event>
 5    1  0.8962567E-005  0.9118800E+02  0.7818608E-02  0.1130116E+00
         25   -1    0    0    0    0  0.00000000000E+00  0.00000000000E+00  0.99999998245E-14  0.12500000000E+03  0.12500000000E+03 0.  0.
        -11    1    3    3    0    0 -0.49132580669E+02  0.28284225637E+02  0.12041389255E+02  0.57956906047E+02  0.51100000000E-03 0. -1.
         23    2    1    0    0    0 -0.28727413649E+02 -0.15324837041E+01 -0.57286267584E+00  0.96226036545E+02  0.91823249432E+02 0.  0.
         11    1    3    3    0    0  0.20405167020E+02 -0.29816709342E+02 -0.12614251931E+02  0.38269130498E+02  0.51100000000E-03 0.  1.
         22    1    1    0    0    0  0.28727413649E+02  0.15324837041E+01  0.57286267584E+00  0.28773963455E+02  0.00000000000E+00 0. -1.
</event>
<event>
 5    1  0.8962567E-005  0.9118800E+02  0.7818608E-02  0.1130116E+00
         25   -1    0    0    0    0  0.00000000000E+00  0.00000000000E+00  0.99999998245E-14  0.12500000000E+03  0.12500000000E+03 0.  0.
        -11    1    3    3    0    0  0.55111801134E+02  0.12064760313E+02  0.18429334066E+02  0.59350732262E+02  0.51100000000E-03 0.  1.
         23    2    1    0    0    0  0.18382891455E+02  0.15487443270E+02  0.15593879969E+02  0.96347588413E+02  0.91988570503E+02 0.  0.
         11    1    3    3    0    0 -0.36728909679E+02  0.34226829566E+01 -0.28354540967E+01  0.36996856151E+02  0.51100000000E-03 0. -1.
         22    1    1    0    0    0 -0.18382891455E+02 -0.15487443270E+02 -0.15593879969E+02  0.28652411587E+02  0.00000000000E+00 0.  1.
</event>
<event>
 5    1  0.8962567E-005  0.9118800E+02  0.7818608E-02  0.1130116E+00
         25   -1    0    0    0    0  0.00000000000E+00  0.00000000000E+00  0.99999998245E-14  0.12500000000E+03  0.12500000000E+03 0.  0.
        -11    1    3    3    0    0  0.31006785738E+02  0.13403776159E+02 -0.48618203234E+02  0.59201449839E+02  0.51100000000E-03 0.  1.
         23    2    1    0    0    0  0.14448794474E+02  0.17688461131E+02 -0.12983917060E+02  0.98727744269E+02  0.95167936130E+02 0.  0.
         11    1    3    3    0    0 -0.16557991264E+02  0.42846849727E+01  0.35634286174E+02  0.39526294430E+02  0.51100000000E-03 0. -1.
         22    1    1    0    0    0 -0.14448794474E+02 -0.17688461131E+02  0.12983917060E+02  0.26272255731E+02  0.00000000000E+00 0.  1.
</event>
<event>
 5    1  0.8962567E-005  0.9118800E+02  0.7818608E-02  0.1130116E+00
         25   -1    0    0    0    0  0.00000000000E+00  0.00000000000E+00  0.99999998245E-14  0.12500000000E+03  0.12500000000E+03 0.  0.
        -11    1    3    3    0    0  0.23233567182E+02 -0.38569064964E+02 -0.50729184436E+01  0.45311211836E+02  0.51100000000E-03 0.  1.
         23    2    1    0    0    0 -0.14889483312E+02 -0.15930497121E+02  0.19276702615E+02  0.95895555055E+02  0.91372253796E+02 0.  0.
         11    1    3    3    0    0 -0.38123050494E+02  0.22638567843E+02  0.24349621059E+02  0.50584343219E+02  0.51100000000E-03 0. -1.
         22    1    1    0    0    0  0.14889483312E+02  0.15930497121E+02 -0.19276702615E+02  0.29104444945E+02  0.00000000000E+00 0. -1.
</event>
<event>
 5    1  0.8962567E-005  0.9118800E+02  0.7818608E-02  0.1130116E+00
         25   -1    0    0    0    0  0.00000000000E+00  0.00000000000E+00  0.99999998245E-14  0.12500000000E+03  0.12500000000E+03 0.  0.
        -11    1    3    3    0    0  0.19713344145E+02 -0.26659889340E+02  0.15631580659E+02  0.36656676761E+02  0.51100000000E-03 0. -1.
         23    2    1    0    0    0  0.69070682654E+01  0.26998714161E+02 -0.69709802821E+01  0.96273135840E+02  0.91887343851E+02 0.  0.
         11    1    3    3    0    0 -0.12806275880E+02  0.53658603502E+02 -0.22602560941E+02  0.59616459078E+02  0.51100000000E-03 0.  1.
         22    1    1    0    0    0 -0.69070682654E+01 -0.26998714161E+02  0.69709802821E+01  0.28726864160E+02  0.00000000000E+00 0.  1.
</event>
<event>
 5    1  0.8962567E-005  0.9118800E+02  0.7818608E-02  0.1130116E+00
         25   -1    0    0    0    0  0.00000000000E+00  0.00000000000E+00  0.99999998245E-14  0.12500000000E+03  0.12500000000E+03 0.  0.
        -11    1    3    3    0    0 -0.22896431883E+02  0.20622712668E+02 -0.52933902586E+02  0.61249823787E+02  0.51100000000E-03 0. -1.
         23    2    1    0    0    0 -0.12935352804E+02  0.16441475143E+02 -0.19443025853E+02  0.96439945530E+02  0.92113985813E+02 0.  0.
         11    1    3    3    0    0  0.99610790791E+01 -0.41812375243E+01  0.33490876733E+02  0.35190121743E+02  0.51100000000E-03 0.  1.
         22    1    1    0    0    0  0.12935352804E+02 -0.16441475143E+02  0.19443025853E+02  0.28560054470E+02  0.00000000000E+00 0. -1.
</event>
<event>
 5    1  0.8962567E-005  0.9118800E+02  0.7818608E-02  0.1130116E+00
         25   -1    0    0    0    0  0.00000000000E+00  0.00000000000E+00  0.99999998245E-14  0.12500000000E+03  0.12500000000E+03 0.  0.
        -11    1    3    3    0    0  0.54303480543E+01 -0.40215494912E+02  0.52622420032E+01  0.40920238295E+02  0.51100000000E-03 0.  1.
         23    2    1    0    0    0  0.33689522714E+00  0.95432038990E+01  0.27669845041E+02  0.95728741680E+02  0.91143762375E+02 0.  0.
         11    1    3    3    0    0 -0.50934528272E+01  0.49758698811E+02  0.22407603038E+02  0.54808503384E+02  0.51100000000E-03 0. -1.
         22    1    1    0    0    0 -0.33689522714E+00 -0.95432038990E+01 -0.27669845041E+02  0.29271258320E+02  0.00000000000E+00 0. -1.
</event>
<event>
 5    1  0.8962567E-005  0.9118800E+02  0.7818608E-02  0.1130116E+00
         25   -1    0    0    0    0  0.00000000000E+00  0.00000000000E+00  0.99999998245E-14  0.12500000000E+03  0.12500000000E+03 0.  0.
        -11    1    3    3    0    0  0.71708763082E+00 -0.16465900209E+02  0.33601841611E+02  0.37426245394E+02  0.51100000000E-03 0.  1.
         23    2    1    0    0    0 -0.72982754825E+01 -0.12403863850E+02 -0.24698162695E+02  0.96414690767E+02  0.92079708360E+02 0.  0.
         11    1    3    3    0    0 -0.80153631133E+01  0.40620363590E+01 -0.58300004306E+02  0.58988445373E+02  0.51100000000E-03 0. -1.
         22    1    1    0    0    0  0.72982754825E+01  0.12403863850E+02  0.24698162695E+02  0.28585309233E+02  0.00000000000E+00 0. -1.
</event>
<event>
 5    1  0.8962567E-005  0.9118800E+02  0.7818608E-02  0.1130116E+00
         25   -1    0    0    0    0  0.00000000000E+00  0.00000000000E+00  0.99999998245E-14  0.12500000000E+03  0.12500000000E+03 0.  0.
        -11    1    3    3    0    0 -0.12531873655E+02  0.24489814396E+02 -0.27705894520E+02  0.39043763367E+02  0.51100000000E-03 0.  1.
         23    2    1    0    0    0 -0.12767876000E+02 -0.24080453520E+02  0.45740647285E+01  0.97362905952E+02  0.93358055293E+02 0.  0.
         11    1    3    3    0    0 -0.23600234515E+00 -0.48570267916E+02  0.32279959248E+02  0.58319142585E+02  0.51100000000E-03 0. -1.
         22    1    1    0    0    0  0.12767876000E+02  0.24080453520E+02 -0.45740647285E+01  0.27637094048E+02  0.00000000000E+00 0. -1.
</event>
<event>
 5    1  0.8962567E-005  0.9118800E+02  0.7818608E-02  0.1130116E+00
         25   -1    0    0    0    0  0.00000000000E+00  0.00000000000E+00  0.99999998245E-14  0.12500000000E+03  0.12500000000E+03 0.  0.
        -11    1    3    3    0    0  0.10703013865E+02  0.36746458232E+01  0.34528384731E+02  0.36335476880E+02  0.51100000000E-03 0.  1.
         23    2    1    0    0    0 -0.16400539850E+02  0.20332642829E+02 -0.14757426663E+02  0.94997071585E+02  0.90134720814E+02 0.  0.
         11    1    3    3    0    0 -0.27103553714E+02  0.16657997006E+02 -0.49285811394E+02  0.58661594704E+02  0.51100000000E-03 0. -1.
         22    1    1    0    0    0  0.16400539850E+02 -0.20332642829E+02  0.14757426663E+02  0.30002928415E+02  0.00000000000E+00 0.  1.
</event>
<event>
 5    1  0.8962567E-005  0.9118800E+02  0.7818608E-02  0.1130116E+00
         25   -1    0    0    0    0  0.00000000000E+00  0.00000000000E+00  0.99999998245E-14  0.12500000000E+03  0.12500000000E+03 0.  0.
        -11    1    3    3    0    0 -0.50537014430E+02 -0.44219013800E+01 -0.62260185071E+01  0.51110726330E+02  0.51100000000E-03 0. -1.
         23    2    1    0    0    0 -0.16373655676E+02  0.19440168754E+02  0.12357414677E+02  0.96738321726E+02  0.92518000580E+02 0.  0.
         11    1    3    3    0    0  0.34163358754E+02  0.23862070134E+02  0.18583433184E+02  0.45627595396E+02  0.51100000000E-03 0.  1.
         22    1    1    0    0    0  0.16373655676E+02 -0.19440168754E+02 -0.12357414677E+02  0.28261678274E+02  0.00000000000E+00 0.  1.
</event>
<event>
 5    1  0.8962567E-005  0.9118800E+02  0.7818608E-02  0.1130116E+00
         25   -1    0    0    0    0  0.00000000000E+00  0.00000000000E+00  0.99999998245E-14  0.12500000000E+03  0.12500000000E+03 0.  0.
        -11    1    3    3    0    0  0.20984771615E+02 -0.37377847086E+02  0.42643306374E+02  0.60464168491E+02  0.51100000000E-03 0.  1.
         23    2    1    0    0    0  0.42859581927E+00 -0.23537560515E+02  0.18534930268E+02  0.95037622100E+02  0.90190939263E+02 0.  0.
         11    1    3    3    0    0 -0.20556175795E+02  0.13840286571E+02 -0.24108376107E+02  0.34573453609E+02  0.51100000000E-03 0. -1.
         22    1    1    0    0    0 -0.42859581927E+00  0.23537560515E+02 -0.18534930268E+02  0.29962377900E+02  0.00000000000E+00 0.  1.
</event>
<event>
 5    1  0.8962567E-005  0.9118800E+02  0.7818608E-02  0.1130116E+00
         25   -1    0    0    0    0  0.00000000000E+00  0.00000000000E+00  0.99999998245E-14  0.12500000000E+03  0.12500000000E+03 0.  0.
        -11    1    3    3    0    0  0.46626405015E+02 -0.16656329609E+02  0.25355333160E+02  0.55626862940E+02  0.51100000000E-03 0.  1.
         23    2    1    0    0    0  0.65908164002E+01 -0.17881139717E+02  0.22107151151E+02  0.95812671407E+02  0.91258796024E+02 0.  0.
         11    1    3    3    0    0 -0.40035588614E+02 -0.12248101077E+01 -0.32481820084E+01  0.40185808467E+02  0.51100000000E-03 0. -1.
         22    1    1    0    0    0 -0.65908164002E+01  0.17881139717E+02 -0.22107151151E+02  0.29187328593E+02  0.00000000000E+00 0. -1.
</event>
<event>
 5    1  0.8962567E-005  0.9118800E+02  0.7818608E-02  0.1130116E+00
         25   -1    0    0    0    0  0.00000000000E+00  0.00000000000E+00  0.99999998245E-14  0.12500000000E+03  0.12500000000E+03 0.  0.
        -11    1    3    3    0    0 -0.21501584975E+02  0.80401897299E+01 -0.16495011206E+01  0.23014857408E+02  0.51100000000E-03 0. -1.
         23    2    1    0    0    0  0.36140147407E+02  0.22463010608E+02 -0.49262934409E+00  0.82444861839E+02  0.70613139428E+02 0.  0.
         11    1    3    3    0    0  0.57641732382E+02  0.14422820878E+02  0.11568717765E+01  0.59430004431E+02  0.51100000000E-03 0.  1.
         22    1    1    0    0    0 -0.36140147407E+02 -0.22463010608E+02  0.49262934409E+00  0.42555138161E+02  0.00000000000E+00 0.  1.
</event>
<event>
 5    1  0.8962567E-005  0.9118800E+02  0.7818608E-02  0.1130116E+00
         25   -1    0    0    0    0  0.00000000000E+00  0.00000000000E+00  0.99999998245E-14  0.12500000000E+03  0.12500000000E+03 0.  0.
        -11    1    3    3    0    0 -0.35434290419E+01  0.31095840499E+02  0.22423770890E+02  0.38501073840E+02  0.51100000000E-03 0.  1.
         23    2    1    0    0    0  0.22190165461E+02 -0.17694136541E+02  0.77208477614E+01  0.95587461836E+02  0.90949796365E+02 0.  0.
         11    1    3    3    0    0  0.25733594503E+02 -0.48789977040E+02 -0.14702923128E+02  0.57086387995E+02  0.51100000000E-03 0. -1.
         22    1    1    0    0    0 -0.22190165461E+02  0.17694136541E+02 -0.77208477614E+01  0.29412538164E+02  0.00000000000E+00 0. -1.
</event>
<event>
 5    1  0.8962567E-005  0.9118800E+02  0.7818608E-02  0.1130116E+00
         25   -1    0    0    0    0  0.00000000000E+00  0.00000000000E+00  0.99999998245E-14  0.12500000000E+03  0.12500000000E+03 0.  0.
        -11    1    3    3    0    0 -0.38220357748E+00 -0.49264181767E+02 -0.34485632896E+02  0.60136216718E+02  0.51100000000E-03 0. -1.
         23    2    1    0    0    0 -0.11827246119E+02 -0.19602668667E+02 -0.17509254977E+02  0.96177745066E+02  0.91757486160E+02 0.  0.
         11    1    3    3    0    0 -0.11445042541E+02  0.29661513100E+02  0.16976377919E+02  0.36041528348E+02  0.51100000000E-03 0.  1.
         22    1    1    0    0    0  0.11827246119E+02  0.19602668667E+02  0.17509254977E+02  0.28822254934E+02  0.00000000000E+00 0. -1.
</event>
<event>
 5    1  0.8962567E-005  0.9118800E+02  0.7818608E-02  0.1130116E+00
         25   -1    0    0    0    0  0.00000000000E+00  0.00000000000E+00  0.99999998245E-14  0.12500000000E+03  0.12500000000E+03 0.  0.
        -11    1    3    3    0    0 -0.31057078207E+02 -0.22787242697E+02 -0.32816902475E+02  0.50603849901E+02  0.51100000000E-03 0.  1.
         23    2    1    0    0    0 -0.27711459295E+02 -0.52010446143E+01  0.84328518826E+01  0.95570612779E+02  0.90926636333E+02 0.  0.
         11    1    3    3    0    0  0.33456189118E+01  0.17586198083E+02  0.41249754358E+02  0.44966762878E+02  0.51100000000E-03 0. -1.
         22    1    1    0    0    0  0.27711459295E+02  0.52010446143E+01 -0.84328518826E+01  0.29429387221E+02  0.00000000000E+00 0.  1.
</event>
<event>
 5    1  0.8962567E-005  0.9118800E+02  0.7818608E-02  0.1130116E+00
         25   -1    0    0    0    0  0.00000000000E+00  0.00000000000E+00  0.99999998245E-14  0.12500000000E+03  0.12500000000E+03 0.  0.
        -11    1    3    3    0    0  0.42388938572E+02  0.78465333525E+01  0.35350435781E+02  0.55749829678E+02  0.51100000000E-03 0.  1.
         23    2    1    0    0    0  0.28587185134E+02  0.66106390301E+01 -0.20024451362E+01  0.95590180402E+02  0.90953532644E+02 0.  0.
         11    1    3    3    0    0 -0.13801753438E+02 -0.12358943224E+01 -0.37352880918E+02  0.39840350724E+02  0.51100000000E-03 0. -1.
         22    1    1    0    0    0 -0.28587185134E+02 -0.66106390301E+01  0.20024451362E+01  0.29409819598E+02  0.00000000000E+00 0.  1.
</event>
<event>
 5    1  0.8962567E-005  0.9118800E+02  0.7818608E-02  0.1130116E+00
         25   -1    0    0    0    0  0.00000000000E+00  0.00000000000E+00  0.99999998245E-14  0.12500000000E+03  0.12500000000E+03 0.  0.
        -11    1    3    3    0    0 -0.67943136288E+01  0.19537009124E+02  0.56268130461E+02  0.59949644945E+02  0.51100000000E-03 0. -1.
         23    2    1    0    0    0 -0.13521972433E+02  0.14403619151E+02  0.21211606246E+02  0.96013102570E+02  0.91532921086E+02 0.  0.
         11    1    3    3    0    0 -0.67276588038E+01 -0.51333899730E+01 -0.35056524215E+02  0.36063457625E+02  0.51100000000E-03 0.  1.
         22    1    1    0    0    0  0.13521972433E+02 -0.14403619151E+02 -0.21211606246E+02  0.28986897430E+02  0.00000000000E+00 0. -1.
</event>
<event>
 5    1  0.8962567E-005  0.9118800E+02  0.7818608E-02  0.1130116E+00
         25   -1    0    0    0    0  0.00000000000E+00  0.00000000000E+00  0.99999998245E-14  0.12500000000E+03  0.12500000000E+03 0.  0.
        -11    1    3    3    0    0  0.43853220312E+02  0.36202887704E+01 -0.38714343172E+02  0.58608973631E+02  0.51100000000E-03 0.  1.
         23    2    1    0    0    0  0.12303009691E+02  0.15386671423E+02 -0.19008549492E+02  0.97624122686E+02  0.93707153790E+02 0.  0.
         11    1    3    3    0    0 -0.31550210621E+02  0.11766382653E+02  0.19705793680E+02  0.39015149055E+02  0.51100000000E-03 0. -1.
         22    1    1    0    0    0 -0.12303009691E+02 -0.15386671423E+02  0.19008549492E+02  0.27375877314E+02  0.00000000000E+00 0.  1.
</event>
<event>
 5    1  0.8962567E-005  0.9118800E+02  0.7818608E-02  0.1130116E+00
         25   -1    0    0    0    0  0.00000000000E+00  0.00000000000E+00  0.99999998245E-14  0.12500000000E+03  0.12500000000E+03 0.  0.
        -11    1    3    3    0    0 -0.19255067463E+02  0.24160393312E+01  0.30759477544E+02  0.36369497221E+02  0.51100000000E-03 0. -1.
         23    2    1    0    0    0  0.18431582545E+01  0.16361273332E+02 -0.23542100372E+02  0.96271634447E+02  0.91885301392E+02 0.  0.
         11    1    3    3    0    0  0.21098225718E+02  0.13945234001E+02 -0.54301577916E+02  0.59902137226E+02  0.51100000000E-03 0.  1.
         22    1    1    0    0    0 -0.18431582545E+01 -0.16361273332E+02  0.23542100372E+02  0.28728365553E+02  0.00000000000E+00 0.  1.
</event>
<event>
 5    1  0.8962567E-005  0.9118800E+02  0.7818608E-02  0.1130116E+00
         25   -1    0    0    0    0  0.00000000000E+00  0.00000000000E+00  0.99999998245E-14  0.12500000000E+03  0.12500000000E+03 0.  0.
        -11    1    3    3    0    0  0.36520996366E+02  0.45988232465E+01  0.11934702489E+02  0.38695858623E+02  0.51100000000E-03 0. -1.
         23    2    1    0    0    0 -0.14256266769E+02 -0.19232808557E+02  0.17905399793E+02  0.95104424927E+02  0.90283477070E+02 0.  0.
         11    1    3    3    0    0 -0.50777263135E+02 -0.23831631804E+02  0.59706973045E+01  0.56408566304E+02  0.51100000000E-03 0.  1.
         22    1    1    0    0    0  0.14256266769E+02  0.19232808557E+02 -0.17905399793E+02  0.29895575073E+02  0.00000000000E+00 0.  1.
</event>
<event>
 5    1  0.8962567E-005  0.9118800E+02  0.7818608E-02  0.1130116E+00
         25   -1    0    0    0    0  0.00000000000E+00  0.00000000000E+00  0.99999998245E-14  0.12500000000E+03  0.12500000000E+03 0.  0.
        -11    1    3    3    0    0  0.44387001269E+00 -0.16419777135E+02  0.36012831089E+02  0.39581941653E+02  0.51100000000E-03 0. -1.
         23    2    1    0    0    0  0.26486876225E+02 -0.27762254959E+02 -0.14568815393E+01  0.86601824048E+02  0.77623810858E+02 0.  0.
         11    1    3    3    0    0  0.26043006213E+02 -0.11342477824E+02 -0.37469712628E+02  0.47019882395E+02  0.51100000000E-03 0.  1.
         22    1    1    0    0    0 -0.26486876225E+02  0.27762254959E+02  0.14568815393E+01  0.38398175952E+02  0.00000000000E+00 0. -1.
</event>
<event>
 5    1  0.8962567E-005  0.9118800E+02  0.7818608E-02  0.1130116E+00
         25   -1    0    0    0    0  0.00000000000E+00  0.00000000000E+00  0.99999998245E-14  0.12500000000E+03  0.12500000000E+03 0.  0.
        -11    1    3    3    0    0  0.28682908471E+02 -0.23642642488E+02  0.28869241837E+02  0.47065028489E+02  0.51100000000E-03 0. -1.
         23    2    1    0    0    0  0.20847896028E+02 -0.12573218352E+02 -0.17266580677E+02  0.95152799179E+02  0.90350427751E+02 0.  0.
         11    1    3    3    0    0 -0.78350124431E+01  0.11069424136E+02 -0.46135822514E+02  0.48087770690E+02  0.51100000000E-03 0.  1.
         22    1    1    0    0    0 -0.20847896028E+02  0.12573218352E+02  0.17266580677E+02  0.29847200821E+02  0.00000000000E+00 0.  1.
</event>
<event>
 5    1  0.8962567E-005  0.9118800E+02  0.7818608E-02  0.1130116E+00
         25   -1    0    0    0    0  0.00000000000E+00  0.00000000000E+00  0.99999998245E-14  0.12500000000E+03  0.12500000000E+03 0.  0.
        -11    1    3    3    0    0  0.63207310656E+01  0.38508770078E+02 -0.23330385356E+00  0.39024754261E+02  0.51100000000E-03 0. -1.
         23    2    1    0    0    0  0.10514475897E+01 -0.19473388777E+02 -0.16477047199E+02  0.99469400773E+02  0.96137142631E+02 0.  0.
         11    1    3    3    0    0 -0.52692834759E+01 -0.57982158856E+02 -0.16243743345E+02  0.60444646512E+02  0.51100000000E-03 0.  1.
         22    1    1    0    0    0 -0.10514475897E+01  0.19473388777E+02  0.16477047199E+02  0.25530599227E+02  0.00000000000E+00 0.  1.
</event>
<event>
 5    1  0.8962567E-005  0.9118800E+02  0.7818608E-02  0.1130116E+00
         25   -1    0    0    0    0  0.00000000000E+00  0.00000000000E+00  0.99999998245E-14  0.12500000000E+03  0.12500000000E+03 0.  0.
        -11    1    3    3    0    0  0.29291625709E+02 -0.85250538477E+01 -0.23089831393E+02  0.38259850939E+02  0.51100000000E-03 0.  1.
         23    2    1    0    0    0  0.21684889450E+01  0.28426364603E+02  0.99945074495E+01  0.94789890302E+02  0.89846939711E+02 0.  0.
         11    1    3    3    0    0 -0.27123136765E+02  0.36951418450E+02  0.33084338843E+02  0.56530039363E+02  0.51100000000E-03 0. -1.
         22    1    1    0    0    0 -0.21684889450E+01 -0.28426364603E+02 -0.99945074495E+01  0.30210109698E+02  0.00000000000E+00 0. -1.
</event>
<event>
 5    1  0.8962567E-005  0.9118800E+02  0.7818608E-02  0.1130116E+00
         25   -1    0    0    0    0  0.00000000000E+00  0.00000000000E+00  0.99999998245E-14  0.12500000000E+03  0.12500000000E+03 0.  0.
        -11    1    3    3    0    0 -0.48213823417E+02  0.15668814444E+02 -0.33681459412E+02  0.60864811040E+02  0.51100000000E-03 0. -1.
         23    2    1    0    0    0 -0.24738512690E+02 -0.25414985160E+01 -0.15303819327E+02  0.95799655639E+02  0.91240966181E+02 0.  0.
         11    1    3    3    0    0  0.23475310727E+02 -0.18210312960E+02  0.18377640085E+02  0.34934844599E+02  0.51100000000E-03 0.  1.
         22    1    1    0    0    0  0.24738512690E+02  0.25414985160E+01  0.15303819327E+02  0.29200344361E+02  0.00000000000E+00 0. -1.
</event>
<event>
 5    1  0.8962567E-005  0.9118800E+02  0.7818608E-02  0.1130116E+00
         25   -1    0    0    0    0  0.00000000000E+00  0.00000000000E+00  0.99999998245E-14  0.12500000000E+03  0.12500000000E+03 0.  0.
        -11    1    3    3    0    0 -0.31172230988E+02  0.88666797900E+01  0.24914088134E+02  0.40878329015E+02  0.51100000000E-03 0. -1.
         23    2    1    0    0    0  0.21429955748E+02  0.16437080127E+02  0.56404506396E+01  0.97409507255E+02  0.93420430388E+02 0.  0.
         11    1    3    3    0    0  0.52602186736E+02  0.75704003369E+01 -0.19273637495E+02  0.56531178240E+02  0.51100000000E-03 0.  1.
         22    1    1    0    0    0 -0.21429955748E+02 -0.16437080127E+02 -0.56404506396E+01  0.27590492745E+02  0.00000000000E+00 0.  1.
</event>
<event>
 5    1  0.8962567E-005  0.9118800E+02  0.7818608E-02  0.1130116E+00
         25   -1    0    0    0    0  0.00000000000E+00  0.00000000000E+00  0.99999998245E-14  0.12500000000E+03  0.12500000000E+03 0.  0.
        -11    1    3    3    0    0 -0.18094717141E+02 -0.34745854527E+02  0.18433302897E+02  0.43295263612E+02  0.51100000000E-03 0.  1.
         23    2    1    0    0    0  0.15064348663E+02  0.71976660390E+01  0.22573892669E+02  0.96922934141E+02  0.92767092954E+02 0.  0.
         11    1    3    3    0    0  0.33159065804E+02  0.41943520566E+02  0.41405897714E+01  0.53627670529E+02  0.51100000000E-03 0. -1.
         22    1    1    0    0    0 -0.15064348663E+02 -0.71976660390E+01 -0.22573892669E+02  0.28077065859E+02  0.00000000000E+00 0. -1.
</event>
<event>
 5    1  0.8962567E-005  0.9118800E+02  0.7818608E-02  0.1130116E+00
         25   -1    0    0    0    0  0.00000000000E+00  0.00000000000E+00  0.99999998245E-14  0.12500000000E+03  0.12500000000E+03 0.  0.
        -11    1    3    3    0    0  0.15382679813E+02 -0.69908712007E+01 -0.34745515989E+02  0.38636122994E+02  0.51100000000E-03 0.  1.
         23    2    1    0    0    0  0.11604846685E+02  0.15784944721E+02  0.19356937971E+02  0.97458613070E+02  0.93486112699E+02 0.  0.
         11    1    3    3    0    0 -0.37778331279E+01  0.22775815921E+02  0.54102453960E+02  0.58822490076E+02  0.51100000000E-03 0. -1.
         22    1    1    0    0    0 -0.11604846685E+02 -0.15784944721E+02 -0.19356937971E+02  0.27541386930E+02  0.00000000000E+00 0. -1.
</event>
<event>
 5    1  0.8962567E-005  0.9118800E+02  0.7818608E-02  0.1130116E+00
         25   -1    0    0    0    0  0.00000000000E+00  0.00000000000E+00  0.99999998245E-14  0.12500000000E+03  0.12500000000E+03 0.  0.
        -11    1    3    3    0    0 -0.25287285732E+02 -0.27843073923E+02 -0.31256179734E+02  0.48904318388E+02  0.51100000000E-03 0. -1.
         23    2    1    0    0    0  0.32164093829E+01 -0.26262430062E+02  0.79227840875E+01  0.97380604101E+02  0.93381748888E+02 0.  0.
         11    1    3    3    0    0  0.28503695115E+02  0.15806438603E+01  0.39178963821E+02  0.48476285714E+02  0.51100000000E-03 0.  1.
         22    1    1    0    0    0 -0.32164093829E+01  0.26262430062E+02 -0.79227840875E+01  0.27619395899E+02  0.00000000000E+00 0. -1.
</event>
<event>
 5    1  0.8962567E-005  0.9118800E+02  0.7818608E-02  0.1130116E+00
         25   -1    0    0    0    0  0.00000000000E+00  0.00000000000E+00  0.99999998245E-14  0.12500000000E+03  0.12500000000E+03 0.  0.
        -11    1    3    3    0    0  0.24750042057E+02  0.17828043073E+02 -0.24151651332E+02  0.38906374336E+02  0.51100000000E-03 0. -1.
         23    2    1    0    0    0 -0.78955070169E+01 -0.25835664415E+02 -0.15000541887E+01  0.97943194028E+02  0.94131814532E+02 0.  0.
         11    1    3    3    0    0 -0.32645549074E+02 -0.43663707489E+02  0.22651597143E+02  0.59036819692E+02  0.51100000000E-03 0.  1.
         22    1    1    0    0    0  0.78955070169E+01  0.25835664415E+02  0.15000541887E+01  0.27056805972E+02  0.00000000000E+00 0.  1.
</event>
<event>
 5    1  0.8962567E-005  0.9118800E+02  0.7818608E-02  0.1130116E+00
         25   -1    0    0    0    0  0.00000000000E+00  0.00000000000E+00  0.99999998245E-14  0.12500000000E+03  0.12500000000E+03 0.  0.
        -11    1    3    3    0    0  0.14511591053E+02 -0.48647307941E+02 -0.34525588019E+02  0.61393510024E+02  0.51100000000E-03 0.  1.
         23    2    1    0    0    0  0.15071136269E+02 -0.23002542490E+02 -0.21047167423E+02  0.90369964395E+02  0.83471498722E+02 0.  0.
         11    1    3    3    0    0  0.55954521573E+00  0.25644765451E+02  0.13478420596E+02  0.28976454371E+02  0.51100000000E-03 0. -1.
         22    1    1    0    0    0 -0.15071136269E+02  0.23002542490E+02  0.21047167423E+02  0.34630035605E+02  0.00000000000E+00 0.  1.
</event>
<event>
 5    1  0.8962567E-005  0.9118800E+02  0.7818608E-02  0.1130116E+00
         25   -1    0    0    0    0  0.00000000000E+00  0.00000000000E+00  0.99999998245E-14  0.12500000000E+03  0.12500000000E+03 0.  0.
        -11    1    3    3    0    0 -0.47587675294E+02  0.16587408470E+02  0.17224728295E+02  0.53258053144E+02  0.51100000000E-03 0.  1.
         23    2    1    0    0    0 -0.22930741314E+02  0.15457733163E+02 -0.14755190860E+02  0.93655525701E+02  0.88254639682E+02 0.  0.
         11    1    3    3    0    0  0.24656933980E+02 -0.11296753074E+01 -0.31979919155E+02  0.40397472557E+02  0.51100000000E-03 0. -1.
         22    1    1    0    0    0  0.22930741314E+02 -0.15457733163E+02  0.14755190860E+02  0.31344474299E+02  0.00000000000E+00 0.  1.
</event>
<event>
 5    1  0.8962567E-005  0.9118800E+02  0.7818608E-02  0.1130116E+00
         25   -1    0    0    0    0  0.00000000000E+00  0.00000000000E+00  0.99999998245E-14  0.12500000000E+03  0.12500000000E+03 0.  0.
        -11    1    3    3    0    0  0.23243641207E+02  0.12187214332E+02  0.27843976187E+02  0.38263325259E+02  0.51100000000E-03 0.  1.
         23    2    1    0    0    0 -0.14262613304E+02 -0.25345449114E+02  0.10187102298E+02  0.94184565843E+02  0.89000794720E+02 0.  0.
         11    1    3    3    0    0 -0.37506254510E+02 -0.37532663445E+02 -0.17656873889E+02  0.55921240584E+02  0.51100000000E-03 0. -1.
         22    1    1    0    0    0  0.14262613304E+02  0.25345449114E+02 -0.10187102298E+02  0.30815434157E+02  0.00000000000E+00 0. -1.
</event>
<event>
 5    1  0.8962567E-005  0.9118800E+02  0.7818608E-02  0.1130116E+00
         25   -1    0    0    0    0  0.00000000000E+00  0.00000000000E+00  0.99999998245E-14  0.12500000000E+03  0.12500000000E+03 0.  0.
        -11    1    3    3    0    0  0.55525843744E+02 -0.80574598507E+01 -0.13156002267E+02  0.57629179923E+02  0.51100000000E-03 0. -1.
         23    2    1    0    0    0  0.18858642906E+02 -0.10824489255E+02 -0.20487430070E+02  0.95124378320E+02  0.90311098876E+02 0.  0.
         11    1    3    3    0    0 -0.36667200838E+02 -0.27670294040E+01 -0.73314278025E+01  0.37495198398E+02  0.51100000000E-03 0.  1.
         22    1    1    0    0    0 -0.18858642906E+02  0.10824489255E+02  0.20487430070E+02  0.29875621680E+02  0.00000000000E+00 0. -1.
</event>
<event>
 5    1  0.8962567E-005  0.9118800E+02  0.7818608E-02  0.1130116E+00
         25   -1    0    0    0    0  0.00000000000E+00  0.00000000000E+00  0.99999998245E-14  0.12500000000E+03  0.12500000000E+03 0.  0.
        -11    1    3    3    0    0  0.30939768694E+02  0.29166791419E+01  0.26908230546E+02  0.41107531857E+02  0.51100000000E-03 0.  1.
         23    2    1    0    0    0  0.90285257125E+01 -0.20513502805E+02 -0.17970631648E+02  0.96272631940E+02  0.91886658362E+02 0.  0.
         11    1    3    3    0    0 -0.21911242981E+02 -0.23430181947E+02 -0.44878862193E+02  0.55165100082E+02  0.51100000000E-03 0. -1.
         22    1    1    0    0    0 -0.90285257125E+01  0.20513502805E+02  0.17970631648E+02  0.28727368060E+02  0.00000000000E+00 0. -1.
</event>
<event>
 5    1  0.8962567E-005  0.9118800E+02  0.7818608E-02  0.1130116E+00
         25   -1    0    0    0    0  0.00000000000E+00  0.00000000000E+00  0.99999998245E-14  0.12500000000E+03  0.12500000000E+03 0.  0.
        -11    1    3    3    0    0 -0.28765114305E+02  0.21398979471E+02 -0.10489914309E+02  0.37354871514E+02  0.51100000000E-03 0.  1.
         23    2    1    0    0    0  0.55740402956E+01 -0.24927718223E+02 -0.15306852132E+02  0.95221471104E+02  0.90445385598E+02 0.  0.
         11    1    3    3    0    0  0.34339154600E+02 -0.46326697694E+02 -0.48169378230E+01  0.57866599590E+02  0.51100000000E-03 0. -1.
         22    1    1    0    0    0 -0.55740402956E+01  0.24927718223E+02  0.15306852132E+02  0.29778528896E+02  0.00000000000E+00 0. -1.
</event>
<event>
 5    1  0.8962567E-005  0.9118800E+02  0.7818608E-02  0.1130116E+00
         25   -1    0    0    0    0  0.00000000000E+00  0.00000000000E+00  0.99999998245E-14  0.12500000000E+03  0.12500000000E+03 0.  0.
        -11    1    3    3    0    0  0.21194142917E+02  0.41059394733E+01 -0.14678665544E+02  0.26105816504E+02  0.51100000000E-03 0.  1.
         23    2    1    0    0    0 -0.20902821132E+02 -0.24833944390E+02  0.19089598156E+02  0.87342789761E+02  0.78807978278E+02 0.  0.
         11    1    3    3    0    0 -0.42096964048E+02 -0.28939883863E+02  0.33768263700E+02  0.61236973257E+02  0.51100000000E-03 0. -1.
         22    1    1    0    0    0  0.20902821132E+02  0.24833944390E+02 -0.19089598156E+02  0.37657210239E+02  0.00000000000E+00 0. -1.
</event>
<event>
 5    1  0.8962567E-005  0.9118800E+02  0.7818608E-02  0.1130116E+00
         25   -1    0    0    0    0  0.00000000000E+00  0.00000000000E+00  0.99999998245E-14  0.12500000000E+03  0.12500000000E+03 0.  0.
        -11    1    3    3    0    0 -0.30431008702E+02  0.24221787531E+02 -0.36654792459E+01  0.39066315672E+02  0.51100000000E-03 0.  1.
         23    2    1    0    0    0 -0.54571741619E+01 -0.27473099182E+02  0.28472454372E+01  0.96845804307E+02  0.92663105262E+02 0.  0.
         11    1    3    3    0    0  0.24973834540E+02 -0.51694886713E+02  0.65127246830E+01  0.57779488636E+02  0.51100000000E-03 0. -1.
         22    1    1    0    0    0  0.54571741619E+01  0.27473099182E+02 -0.28472454372E+01  0.28154195693E+02  0.00000000000E+00 0. -1.
</event>
<event>
 5    1  0.8962567E-005  0.9118800E+02  0.7818608E-02  0.1130116E+00
         25   -1    0    0    0    0  0.00000000000E+00  0.00000000000E+00  0.99999998245E-14  0.12500000000E+03  0.12500000000E+03 0.  0.
        -11    1    3    3    0    0 -0.40683140718E+01  0.39040258573E+02  0.43212135840E+02  0.58377920937E+02  0.51100000000E-03 0.  1.
         23    2    1    0    0    0 -0.16156167606E+02  0.17858868108E+02  0.31266183118E+02  0.85534380423E+02  0.75885407725E+02 0.  0.
         11    1    3    3    0    0 -0.12087853535E+02 -0.21181390465E+02 -0.11945952722E+02  0.27156459485E+02  0.51100000000E-03 0. -1.
         22    1    1    0    0    0  0.16156167606E+02 -0.17858868108E+02 -0.31266183118E+02  0.39465619577E+02  0.00000000000E+00 0.  1.
</event>
<event>
 5    1  0.8962567E-005  0.9118800E+02  0.7818608E-02  0.1130116E+00
         25   -1    0    0    0    0  0.00000000000E+00  0.00000000000E+00  0.99999998245E-14  0.12500000000E+03  0.12500000000E+03 0.  0.
        -11    1    3    3    0    0  0.41974658932E+02 -0.12262343192E+02  0.41885085342E+02  0.60552435355E+02  0.51100000000E-03 0. -1.
         23    2    1    0    0    0  0.23376074087E+02 -0.13294517562E+02  0.12498376974E+02  0.95345414116E+02  0.90616519074E+02 0.  0.
         11    1    3    3    0    0 -0.18598584845E+02 -0.10321743699E+01 -0.29386708368E+02  0.34792978762E+02  0.51100000000E-03 0.  1.
         22    1    1    0    0    0 -0.23376074087E+02  0.13294517562E+02 -0.12498376974E+02  0.29654585884E+02  0.00000000000E+00 0. -1.
</event>
<event>
 5    1  0.8962567E-005  0.9118800E+02  0.7818608E-02  0.1130116E+00
         25   -1    0    0    0    0  0.00000000000E+00  0.00000000000E+00  0.99999998245E-14  0.12500000000E+03  0.12500000000E+03 0.  0.
        -11    1    3    3    0    0 -0.28835435979E+02 -0.21226790346E+02  0.19572748359E+02  0.40806267596E+02  0.51100000000E-03 0. -1.
         23    2    1    0    0    0  0.24558637266E+02 -0.10865282270E+02  0.11476524045E+02  0.95795691631E+02  0.91235535334E+02 0.  0.
         11    1    3    3    0    0  0.53394073245E+02  0.10361508076E+02 -0.80962243133E+01  0.54989424035E+02  0.51100000000E-03 0.  1.
         22    1    1    0    0    0 -0.24558637266E+02  0.10865282270E+02 -0.11476524045E+02  0.29204308369E+02  0.00000000000E+00 0.  1.
</event>
<event>
 5    1  0.8962567E-005  0.9118800E+02  0.7818608E-02  0.1130116E+00
         25   -1    0    0    0    0  0.00000000000E+00  0.00000000000E+00  0.99999998245E-14  0.12500000000E+03  0.12500000000E+03 0.  0.
        -11    1    3    3    0    0  0.31794854494E+02 -0.11430191394E+02  0.27917947902E+00  0.33788163446E+02  0.51100000000E-03 0. -1.
         23    2    1    0    0    0 -0.17503948741E+02  0.20170683474E+02  0.15272677267E+02  0.94234770207E+02  0.89071277928E+02 0.  0.
         11    1    3    3    0    0 -0.49298803235E+02  0.31600874868E+02  0.14993497788E+02  0.60446606761E+02  0.51100000000E-03 0.  1.
         22    1    1    0    0    0  0.17503948741E+02 -0.20170683474E+02 -0.15272677267E+02  0.30765229793E+02  0.00000000000E+00 0.  1.
</event>
<event>
 5    1  0.8962567E-005  0.9118800E+02  0.7818608E-02  0.1130116E+00
         25   -1    0    0    0    0  0.00000000000E+00  0.00000000000E+00  0.99999998245E-14  0.12500000000E+03  0.12500000000E+03 0.  0.
        -11    1    3    3    0    0  0.64177600530E+01 -0.13369887884E+02  0.48754990919E+02  0.50960677840E+02  0.51100000000E-03 0.  1.
         23    2    1    0    0    0 -0.22815599008E+02  0.16012369926E+01  0.19535462140E+02  0.94920940856E+02  0.90029079824E+02 0.  0.
         11    1    3    3    0    0 -0.29233359061E+02  0.14971124877E+02 -0.29219528780E+02  0.43960263016E+02  0.51100000000E-03 0. -1.
         22    1    1    0    0    0  0.22815599008E+02 -0.16012369926E+01 -0.19535462140E+02  0.30079059144E+02  0.00000000000E+00 0.  1.
</event>
<event>
 5    1  0.8962567E-005  0.9118800E+02  0.7818608E-02  0.1130116E+00
         25   -1    0    0    0    0  0.00000000000E+00  0.00000000000E+00  0.99999998245E-14  0.12500000000E+03  0.12500000000E+03 0.  0.
        -11    1    3    3    0    0  0.85930966742E+01 -0.35664123758E+02 -0.23597202432E+02  0.43618791784E+02  0.51100000000E-03 0. -1.
         23    2    1    0    0    0  0.34404140197E+02 -0.69714619237E+00 -0.97088514412E+01  0.89245382510E+02  0.81770077825E+02 0.  0.
         11    1    3    3    0    0  0.25811043523E+02  0.34966977565E+02  0.13888350990E+02  0.45626590726E+02  0.51100000000E-03 0.  1.
         22    1    1    0    0    0 -0.34404140197E+02  0.69714619237E+00  0.97088514412E+01  0.35754617490E+02  0.00000000000E+00 0.  1.
</event>
<event>
 5    1  0.8962567E-005  0.9118800E+02  0.7818608E-02  0.1130116E+00
         25   -1    0    0    0    0  0.00000000000E+00  0.00000000000E+00  0.99999998245E-14  0.12500000000E+03  0.12500000000E+03 0.  0.
        -11    1    3    3    0    0 -0.18738224010E+02 -0.98776378448E+01  0.27985021764E+02  0.35097723741E+02  0.51100000000E-03 0. -1.
         23    2    1    0    0    0  0.45961995091E+01  0.31146144833E+01 -0.27643042969E+02  0.96804899399E+02  0.92607909218E+02 0.  0.
         11    1    3    3    0    0  0.23334423519E+02  0.12992252328E+02 -0.55628064733E+02  0.61707175658E+02  0.51100000000E-03 0.  1.
         22    1    1    0    0    0 -0.45961995091E+01 -0.31146144833E+01  0.27643042969E+02  0.28195100601E+02  0.00000000000E+00 0.  1.
</event>
<event>
 5    1  0.8962567E-005  0.9118800E+02  0.7818608E-02  0.1130116E+00
         25   -1    0    0    0    0  0.00000000000E+00  0.00000000000E+00  0.99999998245E-14  0.12500000000E+03  0.12500000000E+03 0.  0.
        -11    1    3    3    0    0  0.20761511876E+02  0.50349516588E+02 -0.36960546784E+00  0.54463297774E+02  0.51100000000E-03 0. -1.
         23    2    1    0    0    0  0.17700915282E+02  0.12970206631E+02  0.18363446994E+02  0.96385932701E+02  0.92040660445E+02 0.  0.
         11    1    3    3    0    0 -0.30605965934E+01 -0.37379309957E+02  0.18733052462E+02  0.41922634926E+02  0.51100000000E-03 0.  1.
         22    1    1    0    0    0 -0.17700915282E+02 -0.12970206631E+02 -0.18363446994E+02  0.28614067299E+02  0.00000000000E+00 0. -1.
</event>
<event>
 5    1  0.8962567E-005  0.9118800E+02  0.7818608E-02  0.1130116E+00
         25   -1    0    0    0    0  0.00000000000E+00  0.00000000000E+00  0.99999998245E-14  0.12500000000E+03  0.12500000000E+03 0.  0.
        -11    1    3    3    0    0  0.30822372447E+02  0.24931319878E+02  0.10593935527E+02  0.41034385877E+02  0.51100000000E-03 0.  1.
         23    2    1    0    0    0  0.12568077756E+02 -0.21694518823E+02 -0.13414896258E+02  0.96564666925E+02  0.92283079333E+02 0.  0.
         11    1    3    3    0    0 -0.18254294691E+02 -0.46625838701E+02 -0.24008831785E+02  0.55530281048E+02  0.51100000000E-03 0. -1.
         22    1    1    0    0    0 -0.12568077756E+02  0.21694518823E+02  0.13414896258E+02  0.28435333075E+02  0.00000000000E+00 0. -1.
</event>
<event>
 5    1  0.8962567E-005  0.9118800E+02  0.7818608E-02  0.1130116E+00
         25   -1    0    0    0    0  0.00000000000E+00  0.00000000000E+00  0.99999998245E-14  0.12500000000E+03  0.12500000000E+03 0.  0.
        -11    1    3    3    0    0 -0.40078747268E+02  0.15831154934E+02 -0.36677061838E+01  0.43247930794E+02  0.51100000000E-03 0.  1.
         23    2    1    0    0    0  0.11887467011E+02  0.22297471184E+02 -0.13225174159E+02  0.96479931195E+02  0.92168230962E+02 0.  0.
         11    1    3    3    0    0  0.51966214278E+02  0.64663162496E+01 -0.95574679751E+01  0.53232000400E+02  0.51100000000E-03 0. -1.
         22    1    1    0    0    0 -0.11887467011E+02 -0.22297471184E+02  0.13225174159E+02  0.28520068805E+02  0.00000000000E+00 0. -1.
</event>
<event>
 5    1  0.8962567E-005  0.9118800E+02  0.7818608E-02  0.1130116E+00
         25   -1    0    0    0    0  0.00000000000E+00  0.00000000000E+00  0.99999998245E-14  0.12500000000E+03  0.12500000000E+03 0.  0.
        -11    1    3    3    0    0 -0.53296395413E+01  0.41439269256E+02  0.30890222490E+01  0.41894631551E+02  0.51100000000E-03 0.  1.
         23    2    1    0    0    0 -0.22471540213E+02 -0.61696670179E+01  0.18994287559E+02  0.94936436164E+02  0.90050591564E+02 0.  0.
         11    1    3    3    0    0 -0.17141900671E+02 -0.47608936274E+02  0.15905265310E+02  0.53041804613E+02  0.51100000000E-03 0. -1.
         22    1    1    0    0    0  0.22471540213E+02  0.61696670179E+01 -0.18994287559E+02  0.30063563836E+02  0.00000000000E+00 0. -1.
</event>
<event>
 5    1  0.8962567E-005  0.9118800E+02  0.7818608E-02  0.1130116E+00
         25   -1    0    0    0    0  0.00000000000E+00  0.00000000000E+00  0.99999998245E-14  0.12500000000E+03  0.12500000000E+03 0.  0.
        -11    1    3    3    0    0 -0.51895518214E+02  0.18757465345E+02  0.60735520290E+00  0.55184746058E+02  0.51100000000E-03 0.  1.
         23    2    1    0    0    0 -0.12277379611E+02  0.14960531783E+02 -0.17498078967E+02  0.98909114065E+02  0.95405862064E+02 0.  0.
         11    1    3    3    0    0  0.39618138603E+02 -0.37969335622E+01 -0.18105434170E+02  0.43724368007E+02  0.51100000000E-03 0. -1.
         22    1    1    0    0    0  0.12277379611E+02 -0.14960531783E+02  0.17498078967E+02  0.26090885935E+02  0.00000000000E+00 0.  1.
</event>
<event>
 5    1  0.8962567E-005  0.9118800E+02  0.7818608E-02  0.1130116E+00
         25   -1    0    0    0    0  0.00000000000E+00  0.00000000000E+00  0.99999998245E-14  0.12500000000E+03  0.12500000000E+03 0.  0.
        -11    1    3    3    0    0  0.85338395217E+01 -0.17677861075E+02 -0.27580335156E+02  0.33852741052E+02  0.51100000000E-03 0. -1.
         23    2    1    0    0    0  0.12251563582E+01  0.10952467423E+02  0.26955214329E+02  0.95878854241E+02  0.91349403722E+02 0.  0.
         11    1    3    3    0    0 -0.73086831636E+01  0.28630328498E+02  0.54535549485E+02  0.62026113189E+02  0.51100000000E-03 0.  1.
         22    1    1    0    0    0 -0.12251563582E+01 -0.10952467423E+02 -0.26955214329E+02  0.29121145759E+02  0.00000000000E+00 0.  1.
</event>
<event>
 5    1  0.8962567E-005  0.9118800E+02  0.7818608E-02  0.1130116E+00
         25   -1    0    0    0    0  0.00000000000E+00  0.00000000000E+00  0.99999998245E-14  0.12500000000E+03  0.12500000000E+03 0.  0.
        -11    1    3    3    0    0  0.11167022568E+02  0.20872779390E+02 -0.55980354291E+02  0.60779728358E+02  0.51100000000E-03 0. -1.
         23    2    1    0    0    0  0.65027628085E+00  0.18230667340E+02 -0.22152350403E+02  0.96303193221E+02  0.91928223660E+02 0.  0.
         11    1    3    3    0    0 -0.10516746287E+02 -0.26421120497E+01  0.33828003888E+02  0.35523464863E+02  0.51100000000E-03 0.  1.
         22    1    1    0    0    0 -0.65027628085E+00 -0.18230667340E+02  0.22152350403E+02  0.28696806779E+02  0.00000000000E+00 0. -1.
</event>
<event>
 5    1  0.8962567E-005  0.9118800E+02  0.7818608E-02  0.1130116E+00
         25   -1    0    0    0    0  0.00000000000E+00  0.00000000000E+00  0.99999998245E-14  0.12500000000E+03  0.12500000000E+03 0.  0.
        -11    1    3    3    0    0  0.29003880026E+02 -0.21872945035E+02  0.70236784930E-01  0.36327065867E+02  0.51100000000E-03 0. -1.
         23    2    1    0    0    0 -0.27916975177E+02 -0.45066434488E+01  0.58655683734E+01  0.96119691301E+02  0.91678366179E+02 0.  0.
         11    1    3    3    0    0 -0.56920855203E+02  0.17366301586E+02  0.57953315885E+01  0.59792625434E+02  0.51100000000E-03 0.  1.
         22    1    1    0    0    0  0.27916975177E+02  0.45066434488E+01 -0.58655683734E+01  0.28880308699E+02  0.00000000000E+00 0.  1.
</event>
<event>
 5    1  0.8962567E-005  0.9118800E+02  0.7818608E-02  0.1130116E+00
         25   -1    0    0    0    0  0.00000000000E+00  0.00000000000E+00  0.99999998245E-14  0.12500000000E+03  0.12500000000E+03 0.  0.
        -11    1    3    3    0    0  0.31551742467E+02  0.36370298415E+02  0.22625263189E+01  0.48201971796E+02  0.51100000000E-03 0. -1.
         23    2    1    0    0    0  0.19465782130E+01  0.52588486419E+01  0.26770024915E+02  0.97648969128E+02  0.93740291669E+02 0.  0.
         11    1    3    3    0    0 -0.29605164254E+02 -0.31111449773E+02  0.24507498596E+02  0.49446997332E+02  0.51100000000E-03 0.  1.
         22    1    1    0    0    0 -0.19465782130E+01 -0.52588486419E+01 -0.26770024915E+02  0.27351030872E+02  0.00000000000E+00 0.  1.
</event>
<event>
 5    1  0.8962567E-005  0.9118800E+02  0.7818608E-02  0.1130116E+00
         25   -1    0    0    0    0  0.00000000000E+00  0.00000000000E+00  0.99999998245E-14  0.12500000000E+03  0.12500000000E+03 0.  0.
        -11    1    3    3    0    0  0.46827389129E+02  0.27904300649E+01  0.10478763566E+01  0.46922158068E+02  0.51100000000E-03 0.  1.
         23    2    1    0    0    0  0.44634475173E+01  0.16944647985E+02 -0.21749835399E+02  0.97069751184E+02  0.92964712639E+02 0.  0.
         11    1    3    3    0    0 -0.42363941612E+02  0.14154217920E+02 -0.22797711755E+02  0.50147593116E+02  0.51100000000E-03 0. -1.
         22    1    1    0    0    0 -0.44634475173E+01 -0.16944647985E+02  0.21749835399E+02  0.27930248816E+02  0.00000000000E+00 0.  1.
</event>
<event>
 5    1  0.8962567E-005  0.9118800E+02  0.7818608E-02  0.1130116E+00
         25   -1    0    0    0    0  0.00000000000E+00  0.00000000000E+00  0.99999998245E-14  0.12500000000E+03  0.12500000000E+03 0.  0.
        -11    1    3    3    0    0 -0.37639124629E+02  0.64976930505E+01 -0.63257788393E+01  0.38716136119E+02  0.51100000000E-03 0.  1.
         23    2    1    0    0    0  0.18690393611E+02  0.17841472842E+02  0.80289138093E+01  0.97942423918E+02  0.94130791877E+02 0.  0.
         11    1    3    3    0    0  0.56329518240E+02  0.11343779791E+02  0.14354692649E+02  0.59226287799E+02  0.51100000000E-03 0. -1.
         22    1    1    0    0    0 -0.18690393611E+02 -0.17841472842E+02 -0.80289138093E+01  0.27057576082E+02  0.00000000000E+00 0. -1.
</event>
<event>
 5    1  0.8962567E-005  0.9118800E+02  0.7818608E-02  0.1130116E+00
         25   -1    0    0    0    0  0.00000000000E+00  0.00000000000E+00  0.99999998245E-14  0.12500000000E+03  0.12500000000E+03 0.  0.
        -11    1    3    3    0    0 -0.22907907701E+02  0.78223719727E+01  0.50052189300E+02  0.55598411780E+02  0.51100000000E-03 0. -1.
         23    2    1    0    0    0  0.89470396581E+01 -0.25561000763E+01  0.27458082759E+02  0.96008113634E+02  0.91526107797E+02 0.  0.
         11    1    3    3    0    0  0.31854947359E+02 -0.10378472049E+02 -0.22594106540E+02  0.40409701854E+02  0.51100000000E-03 0.  1.
         22    1    1    0    0    0 -0.89470396581E+01  0.25561000763E+01 -0.27458082759E+02  0.28991886366E+02  0.00000000000E+00 0. -1.
</event>
<event>
 5    1  0.8962567E-005  0.9118800E+02  0.7818608E-02  0.1130116E+00
         25   -1    0    0    0    0  0.00000000000E+00  0.00000000000E+00  0.99999998245E-14  0.12500000000E+03  0.12500000000E+03 0.  0.
        -11    1    3    3    0    0  0.19164599309E+02 -0.37437498293E+02 -0.17826712233E+02  0.45679752784E+02  0.51100000000E-03 0.  1.
         23    2    1    0    0    0 -0.55725577188E+01  0.48823791578E+01 -0.28249636797E+02  0.95794983223E+02  0.91234564753E+02 0.  0.
         11    1    3    3    0    0 -0.24737157027E+02  0.42319877451E+02 -0.10422924564E+02  0.50115230439E+02  0.51100000000E-03 0. -1.
         22    1    1    0    0    0  0.55725577188E+01 -0.48823791578E+01  0.28249636797E+02  0.29205016777E+02  0.00000000000E+00 0. -1.
</event>
<event>
 5    1  0.8962567E-005  0.9118800E+02  0.7818608E-02  0.1130116E+00
         25   -1    0    0    0    0  0.00000000000E+00  0.00000000000E+00  0.99999998245E-14  0.12500000000E+03  0.12500000000E+03 0.  0.
        -11    1    3    3    0    0  0.13983600261E+02 -0.87929639125E+01 -0.29162764183E+02  0.33516027594E+02  0.51100000000E-03 0.  1.
         23    2    1    0    0    0 -0.28743876640E+01  0.15047033833E+02  0.25364281842E+02  0.95368561881E+02  0.90648444390E+02 0.  0.
         11    1    3    3    0    0 -0.16857987925E+02  0.23839997745E+02  0.54527046025E+02  0.61852534288E+02  0.51100000000E-03 0. -1.
         22    1    1    0    0    0  0.28743876640E+01 -0.15047033833E+02 -0.25364281842E+02  0.29631438119E+02  0.00000000000E+00 0. -1.
</event>
<event>
 5    1  0.8962567E-005  0.9118800E+02  0.7818608E-02  0.1130116E+00
         25   -1    0    0    0    0  0.00000000000E+00  0.00000000000E+00  0.99999998245E-14  0.12500000000E+03  0.12500000000E+03 0.  0.
        -11    1    3    3    0    0 -0.32202237885E+02  0.22993006097E+02  0.10895095203E+02  0.41041022818E+02  0.51100000000E-03 0.  1.
         23    2    1    0    0    0  0.73735283900E+01  0.12704825751E+02 -0.25361786311E+02  0.95691268823E+02  0.91092355364E+02 0.  0.
         11    1    3    3    0    0  0.39575766275E+02 -0.10288180345E+02 -0.36256881514E+02  0.54650246006E+02  0.51100000000E-03 0. -1.
         22    1    1    0    0    0 -0.73735283900E+01 -0.12704825751E+02  0.25361786311E+02  0.29308731177E+02  0.00000000000E+00 0. -1.
</event>
<event>
 5    1  0.8962567E-005  0.9118800E+02  0.7818608E-02  0.1130116E+00
         25   -1    0    0    0    0  0.00000000000E+00  0.00000000000E+00  0.99999998245E-14  0.12500000000E+03  0.12500000000E+03 0.  0.
        -11    1    3    3    0    0 -0.40731965417E+02  0.89806620649E+01 -0.41439257391E+02  0.58795895700E+02  0.51100000000E-03 0. -1.
         23    2    1    0    0    0 -0.22260312872E+02 -0.10449400267E+02 -0.16707881609E+02  0.95270136177E+02  0.90512618149E+02 0.  0.
         11    1    3    3    0    0  0.18471652545E+02 -0.19430062332E+02  0.24731375782E+02  0.36474240476E+02  0.51100000000E-03 0.  1.
         22    1    1    0    0    0  0.22260312872E+02  0.10449400267E+02  0.16707881609E+02  0.29729863823E+02  0.00000000000E+00 0. -1.
</event>
<event>
 5    1  0.8962567E-005  0.9118800E+02  0.7818608E-02  0.1130116E+00
         25   -1    0    0    0    0  0.00000000000E+00  0.00000000000E+00  0.99999998245E-14  0.12500000000E+03  0.12500000000E+03 0.  0.
        -11    1    3    3    0    0  0.52319372268E+02  0.22549040775E+02 -0.19089910636E+02  0.60084945226E+02  0.51100000000E-03 0.  1.
         23    2    1    0    0    0  0.16912403926E+02  0.20396472257E+02 -0.97567248742E+01  0.96764576019E+02  0.92553465656E+02 0.  0.
         11    1    3    3    0    0 -0.35406968342E+02 -0.21525685183E+01  0.93331857620E+01  0.36679630793E+02  0.51100000000E-03 0. -1.
         22    1    1    0    0    0 -0.16912403926E+02 -0.20396472257E+02  0.97567248742E+01  0.28235423981E+02  0.00000000000E+00 0.  1.
</event>
<event>
 5    1  0.8962567E-005  0.9118800E+02  0.7818608E-02  0.1130116E+00
         25   -1    0    0    0    0  0.00000000000E+00  0.00000000000E+00  0.99999998245E-14  0.12500000000E+03  0.12500000000E+03 0.  0.
        -11    1    3    3    0    0  0.59630941297E+01 -0.42019713908E+02  0.55290904725E+01  0.42799365535E+02  0.51100000000E-03 0.  1.
         23    2    1    0    0    0 -0.20561757141E+02 -0.50607895294E+01 -0.20763769333E+02  0.95343102585E+02  0.90613330400E+02 0.  0.
         11    1    3    3    0    0 -0.26524851270E+02  0.36958924378E+02 -0.26292859806E+02  0.52543737050E+02  0.51100000000E-03 0. -1.
         22    1    1    0    0    0  0.20561757141E+02  0.50607895294E+01  0.20763769333E+02  0.29656897415E+02  0.00000000000E+00 0. -1.
</event>
<event>
 5    1  0.8962567E-005  0.9118800E+02  0.7818608E-02  0.1130116E+00
         25   -1    0    0    0    0  0.00000000000E+00  0.00000000000E+00  0.99999998245E-14  0.12500000000E+03  0.12500000000E+03 0.  0.
        -11    1    3    3    0    0  0.17434318312E+02  0.44369496824E+00  0.46566538097E+02  0.49725192718E+02  0.51100000000E-03 0.  1.
         23    2    1    0    0    0  0.22078426107E+02 -0.18062741664E+02  0.42304594822E+01  0.96162241362E+02  0.91736363240E+02 0.  0.
         11    1    3    3    0    0  0.46441077951E+01 -0.18506436633E+02 -0.42336078615E+02  0.46437048644E+02  0.51100000000E-03 0. -1.
         22    1    1    0    0    0 -0.22078426107E+02  0.18062741664E+02 -0.42304594822E+01  0.28837758638E+02  0.00000000000E+00 0.  1.
</event>
<event>
 5    1  0.8962567E-005  0.9118800E+02  0.7818608E-02  0.1130116E+00
         25   -1    0    0    0    0  0.00000000000E+00  0.00000000000E+00  0.99999998245E-14  0.12500000000E+03  0.12500000000E+03 0.  0.
        -11    1    3    3    0    0 -0.45235907874E+02 -0.15624200983E+02 -0.14318035200E+02  0.49954070402E+02  0.51100000000E-03 0. -1.
         23    2    1    0    0    0 -0.78122203614E+01 -0.31296493923E+02 -0.75323541515E+00  0.92734404044E+02  0.86940215153E+02 0.  0.
         11    1    3    3    0    0  0.37423687512E+02 -0.15672292940E+02  0.13564799785E+02  0.42780333641E+02  0.51100000000E-03 0.  1.
         22    1    1    0    0    0  0.78122203614E+01  0.31296493923E+02  0.75323541515E+00  0.32265595956E+02  0.00000000000E+00 0. -1.
</event>
<event>
 5    1  0.8962567E-005  0.9118800E+02  0.7818608E-02  0.1130116E+00
         25   -1    0    0    0    0  0.00000000000E+00  0.00000000000E+00  0.99999998245E-14  0.12500000000E+03  0.12500000000E+03 0.  0.
        -11    1    3    3    0    0  0.24692548699E+02 -0.13279135200E+02 -0.37298930878E+02  0.46661200561E+02  0.51100000000E-03 0.  1.
         23    2    1    0    0    0  0.12103545481E+02 -0.20387470096E+02  0.12275778944E+02  0.98300945732E+02  0.94605689221E+02 0.  0.
         11    1    3    3    0    0 -0.12589003218E+02 -0.71083348959E+01  0.49574709822E+02  0.51639745170E+02  0.51100000000E-03 0. -1.
         22    1    1    0    0    0 -0.12103545481E+02  0.20387470096E+02 -0.12275778944E+02  0.26699054268E+02  0.00000000000E+00 0. -1.
</event>
<event>
 5    1  0.8962567E-005  0.9118800E+02  0.7818608E-02  0.1130116E+00
         25   -1    0    0    0    0  0.00000000000E+00  0.00000000000E+00  0.99999998245E-14  0.12500000000E+03  0.12500000000E+03 0.  0.
        -11    1    3    3    0    0 -0.13276577423E+02 -0.13661752354E+01  0.43816238159E+02  0.45803893606E+02  0.51100000000E-03 0.  1.
         23    2    1    0    0    0 -0.18911512402E+02  0.24680115358E+02  0.40913635847E+01  0.93639313601E+02  0.88231674587E+02 0.  0.
         11    1    3    3    0    0 -0.56349349793E+01  0.26046290593E+02 -0.39724874574E+02  0.47835419995E+02  0.51100000000E-03 0. -1.
         22    1    1    0    0    0  0.18911512402E+02 -0.24680115358E+02 -0.40913635847E+01  0.31360686399E+02  0.00000000000E+00 0.  1.
</event>
<event>
 5    1  0.8962567E-005  0.9118800E+02  0.7818608E-02  0.1130116E+00
         25   -1    0    0    0    0  0.00000000000E+00  0.00000000000E+00  0.99999998245E-14  0.12500000000E+03  0.12500000000E+03 0.  0.
        -11    1    3    3    0    0 -0.63908631671E+01  0.19219268773E+02 -0.37951779455E+02  0.43018147197E+02  0.51100000000E-03 0. -1.
         23    2    1    0    0    0  0.19557149728E+02  0.16921096402E+02  0.97439862409E+01  0.97363956926E+02  0.93359462464E+02 0.  0.
         11    1    3    3    0    0  0.25948012895E+02 -0.22981723717E+01  0.47695765696E+02  0.54345809729E+02  0.51100000000E-03 0.  1.
         22    1    1    0    0    0 -0.19557149728E+02 -0.16921096402E+02 -0.97439862409E+01  0.27636043074E+02  0.00000000000E+00 0. -1.
</event>
<event>
 5    1  0.8962567E-005  0.9118800E+02  0.7818608E-02  0.1130116E+00
         25   -1    0    0    0    0  0.00000000000E+00  0.00000000000E+00  0.99999998245E-14  0.12500000000E+03  0.12500000000E+03 0.  0.
        -11    1    3    3    0    0  0.18147434817E+02 -0.16641570261E+02 -0.40460478208E+02  0.47363715524E+02  0.51100000000E-03 0.  1.
         23    2    1    0    0    0 -0.22912129054E+02 -0.51758223797E+01 -0.16811298989E+02  0.96114457443E+02  0.91671229733E+02 0.  0.
         11    1    3    3    0    0 -0.41059563871E+02  0.11465747881E+02  0.23649179218E+02  0.48750741919E+02  0.51100000000E-03 0. -1.
         22    1    1    0    0    0  0.22912129054E+02  0.51758223797E+01  0.16811298989E+02  0.28885542557E+02  0.00000000000E+00 0.  1.
</event>
<event>
 5    1  0.8962567E-005  0.9118800E+02  0.7818608E-02  0.1130116E+00
         25   -1    0    0    0    0  0.00000000000E+00  0.00000000000E+00  0.99999998245E-14  0.12500000000E+03  0.12500000000E+03 0.  0.
        -11    1    3    3    0    0 -0.49815051690E+01 -0.81425407746E+01  0.19839533370E+02  0.22016435875E+02  0.51100000000E-03 0. -1.
         23    2    1    0    0    0  0.11805279635E+02  0.29488781809E+02 -0.26215981323E+02  0.83814680327E+02  0.72997740251E+02 0.  0.
         11    1    3    3    0    0  0.16786784804E+02  0.37631322583E+02 -0.46055514694E+02  0.61798244452E+02  0.51100000000E-03 0.  1.
         22    1    1    0    0    0 -0.11805279635E+02 -0.29488781809E+02  0.26215981323E+02  0.41185319673E+02  0.00000000000E+00 0.  1.
</event>
<event>
 5    1  0.8962567E-005  0.9118800E+02  0.7818608E-02  0.1130116E+00
         25   -1    0    0    0    0  0.00000000000E+00  0.00000000000E+00  0.99999998245E-14  0.12500000000E+03  0.12500000000E+03 0.  0.
        -11    1    3    3    0    0  0.15794097999E+02 -0.16772134696E+02 -0.34064490724E+02  0.41123564563E+02  0.51100000000E-03 0.  1.
         23    2    1    0    0    0  0.13390729282E+02  0.26436814520E+02 -0.14196054237E+01  0.95331294733E+02  0.90597040146E+02 0.  0.
         11    1    3    3    0    0 -0.24033687170E+01  0.43208949216E+02  0.32644885300E+02  0.54207730169E+02  0.51100000000E-03 0. -1.
         22    1    1    0    0    0 -0.13390729282E+02 -0.26436814520E+02  0.14196054237E+01  0.29668705267E+02  0.00000000000E+00 0.  1.
</event>
<event>
 5    1  0.8962567E-005  0.9118800E+02  0.7818608E-02  0.1130116E+00
         25   -1    0    0    0    0  0.00000000000E+00  0.00000000000E+00  0.99999998245E-14  0.12500000000E+03  0.12500000000E+03 0.  0.
        -11    1    3    3    0    0 -0.25969861983E+02 -0.44340516017E+02 -0.28892535659E+02  0.58951621769E+02  0.51100000000E-03 0.  1.
         23    2    1    0    0    0 -0.37317793623E+01 -0.26700919838E+02 -0.21429769805E+01  0.97954526298E+02  0.94146861735E+02 0.  0.
         11    1    3    3    0    0  0.22238082620E+02  0.17639596179E+02  0.26749558679E+02  0.39002904530E+02  0.51100000000E-03 0. -1.
         22    1    1    0    0    0  0.37317793623E+01  0.26700919838E+02  0.21429769805E+01  0.27045473702E+02  0.00000000000E+00 0.  1.
</event>
<event>
 5    1  0.8962567E-005  0.9118800E+02  0.7818608E-02  0.1130116E+00
         25   -1    0    0    0    0  0.00000000000E+00  0.00000000000E+00  0.99999998245E-14  0.12500000000E+03  0.12500000000E+03 0.  0.
        -11    1    3    3    0    0 -0.22542282859E+02  0.38541233113E+02  0.36954328236E+02  0.57958636474E+02  0.51100000000E-03 0.  1.
         23    2    1    0    0    0  0.82633117936E+01  0.15005941613E+02  0.12487612868E+02  0.10380091793E+03  0.10161313637E+03 0.  0.
         11    1    3    3    0    0  0.30805594652E+02 -0.23535291500E+02 -0.24466715368E+02  0.45842281455E+02  0.51100000000E-03 0. -1.
         22    1    1    0    0    0 -0.82633117936E+01 -0.15005941613E+02 -0.12487612868E+02  0.21199082071E+02  0.00000000000E+00 0.  1.
</event>
<event>
 5    1  0.8962567E-005  0.9118800E+02  0.7818608E-02  0.1130116E+00
         25   -1    0    0    0    0  0.00000000000E+00  0.00000000000E+00  0.99999998245E-14  0.12500000000E+03  0.12500000000E+03 0.  0.
        -11    1    3    3    0    0 -0.48437351924E+02 -0.71024665817E+01 -0.61209309756E+01  0.49336476254E+02  0.51100000000E-03 0.  1.
         23    2    1    0    0    0 -0.16669713504E+02  0.24916968769E+02  0.10245866038E+01  0.95003592571E+02  0.90143763748E+02 0.  0.
         11    1    3    3    0    0  0.31767638419E+02  0.32019435351E+02  0.71455175794E+01  0.45667116316E+02  0.51100000000E-03 0. -1.
         22    1    1    0    0    0  0.16669713504E+02 -0.24916968769E+02 -0.10245866038E+01  0.29996407429E+02  0.00000000000E+00 0. -1.
</event>
<event>
 5    1  0.8962567E-005  0.9118800E+02  0.7818608E-02  0.1130116E+00
         25   -1    0    0    0    0  0.00000000000E+00  0.00000000000E+00  0.99999998245E-14  0.12500000000E+03  0.12500000000E+03 0.  0.
        -11    1    3    3    0    0 -0.33475170497E+02  0.37092885694E+02 -0.86580201516E+01  0.50709274518E+02  0.51100000000E-03 0.  1.
         23    2    1    0    0    0  0.47684317664E+01  0.24479479837E+02  0.13466747130E+02  0.96656814701E+02  0.92407811766E+02 0.  0.
         11    1    3    3    0    0  0.38243602264E+02 -0.12613405856E+02  0.22124767282E+02  0.45947540184E+02  0.51100000000E-03 0. -1.
         22    1    1    0    0    0 -0.47684317664E+01 -0.24479479837E+02 -0.13466747130E+02  0.28343185299E+02  0.00000000000E+00 0.  1.
</event>
<event>
 5    1  0.8962567E-005  0.9118800E+02  0.7818608E-02  0.1130116E+00
         25   -1    0    0    0    0  0.00000000000E+00  0.00000000000E+00  0.99999998245E-14  0.12500000000E+03  0.12500000000E+03 0.  0.
        -11    1    3    3    0    0  0.13763650045E+01 -0.24413623451E+02 -0.30685234613E+02  0.39236501044E+02  0.51100000000E-03 0.  1.
         23    2    1    0    0    0  0.11558850246E+02  0.26103271774E+02 -0.10468028518E+02  0.94593299466E+02  0.89573014164E+02 0.  0.
         11    1    3    3    0    0  0.10182485241E+02  0.50516895226E+02  0.20217206095E+02  0.55356798422E+02  0.51100000000E-03 0. -1.
         22    1    1    0    0    0 -0.11558850246E+02 -0.26103271774E+02  0.10468028518E+02  0.30406700534E+02  0.00000000000E+00 0. -1.
</event>
<event>
 5    1  0.8962567E-005  0.9118800E+02  0.7818608E-02  0.1130116E+00
         25   -1    0    0    0    0  0.00000000000E+00  0.00000000000E+00  0.99999998245E-14  0.12500000000E+03  0.12500000000E+03 0.  0.
        -11    1    3    3    0    0  0.26974027781E+02 -0.44331800288E+01  0.31171402741E+02  0.41459710672E+02  0.51100000000E-03 0.  1.
         23    2    1    0    0    0 -0.39152236394E+01 -0.28859177340E+02 -0.56052323990E+01  0.95341953484E+02  0.90611745215E+02 0.  0.
         11    1    3    3    0    0 -0.30889251420E+02 -0.24425997312E+02 -0.36776635140E+02  0.53882242812E+02  0.51100000000E-03 0. -1.
         22    1    1    0    0    0  0.39152236394E+01  0.28859177340E+02  0.56052323990E+01  0.29658046516E+02  0.00000000000E+00 0.  1.
</event>
<event>
 5    1  0.8962567E-005  0.9118800E+02  0.7818608E-02  0.1130116E+00
         25   -1    0    0    0    0  0.00000000000E+00  0.00000000000E+00  0.99999998245E-14  0.12500000000E+03  0.12500000000E+03 0.  0.
        -11    1    3    3    0    0 -0.23036191882E+02  0.12938999128E+01 -0.50263222665E+02  0.55305803188E+02  0.51100000000E-03 0.  1.
         23    2    1    0    0    0 -0.11172625868E+02  0.20914994818E+02 -0.16525792898E+02  0.96097294107E+02  0.91647823361E+02 0.  0.
         11    1    3    3    0    0  0.11863566014E+02  0.19621094905E+02  0.33737429767E+02  0.40791490919E+02  0.51100000000E-03 0. -1.
         22    1    1    0    0    0  0.11172625868E+02 -0.20914994818E+02  0.16525792898E+02  0.28902705893E+02  0.00000000000E+00 0.  1.
</event>
<event>
 5    1  0.8962567E-005  0.9118800E+02  0.7818608E-02  0.1130116E+00
         25   -1    0    0    0    0  0.00000000000E+00  0.00000000000E+00  0.99999998245E-14  0.12500000000E+03  0.12500000000E+03 0.  0.
        -11    1    3    3    0    0 -0.17356397001E+02 -0.20917901323E+02 -0.29349832824E+02  0.40002697405E+02  0.51100000000E-03 0. -1.
         23    2    1    0    0    0 -0.16493732518E+02  0.22235891308E+02  0.70124613577E+01  0.96440366092E+02  0.92114556521E+02 0.  0.
         11    1    3    3    0    0  0.86266448328E+00  0.43153792631E+02  0.36362294181E+02  0.56437668687E+02  0.51100000000E-03 0.  1.
         22    1    1    0    0    0  0.16493732518E+02 -0.22235891308E+02 -0.70124613577E+01  0.28559633908E+02  0.00000000000E+00 0.  1.
</event>
<event>
 5    1  0.8962567E-005  0.9118800E+02  0.7818608E-02  0.1130116E+00
         25   -1    0    0    0    0  0.00000000000E+00  0.00000000000E+00  0.99999998245E-14  0.12500000000E+03  0.12500000000E+03 0.  0.
        -11    1    3    3    0    0  0.19225820900E+02 -0.13712841297E+02  0.53474504255E+02  0.58456794398E+02  0.51100000000E-03 0. -1.
         23    2    1    0    0    0  0.17593950890E+02  0.65679895602E+01  0.30840428645E+02  0.88891585000E+02  0.81227435328E+02 0.  0.
         11    1    3    3    0    0 -0.16318700097E+01  0.20280830857E+02 -0.22634075610E+02  0.30434790602E+02  0.51100000000E-03 0.  1.
         22    1    1    0    0    0 -0.17593950890E+02 -0.65679895602E+01 -0.30840428645E+02  0.36108415000E+02  0.00000000000E+00 0. -1.
</event>
<event>
 5    1  0.8962567E-005  0.9118800E+02  0.7818608E-02  0.1130116E+00
         25   -1    0    0    0    0  0.00000000000E+00  0.00000000000E+00  0.99999998245E-14  0.12500000000E+03  0.12500000000E+03 0.  0.
        -11    1    3    3    0    0 -0.27087220296E+02  0.52632464991E+02  0.13731896769E+02  0.60765605926E+02  0.51100000000E-03 0. -1.
         23    2    1    0    0    0 -0.20222240677E+02  0.18942530355E+02  0.10758549520E+02  0.95276190318E+02  0.90520978671E+02 0.  0.
         11    1    3    3    0    0  0.68649796188E+01 -0.33689934636E+02 -0.29733472496E+01  0.34510584392E+02  0.51100000000E-03 0.  1.
         22    1    1    0    0    0  0.20222240677E+02 -0.18942530355E+02 -0.10758549520E+02  0.29723809682E+02  0.00000000000E+00 0. -1.
</event>
<event>
 5    1  0.8962567E-005  0.9118800E+02  0.7818608E-02  0.1130116E+00
         25   -1    0    0    0    0  0.00000000000E+00  0.00000000000E+00  0.99999998245E-14  0.12500000000E+03  0.12500000000E+03 0.  0.
        -11    1    3    3    0    0  0.18784900421E+02  0.26872255692E+02 -0.13713799996E+02  0.35539540239E+02  0.51100000000E-03 0.  1.
         23    2    1    0    0    0 -0.10561617221E+02 -0.19735084861E+02  0.15392927982E+02  0.97834515196E+02  0.93987386382E+02 0.  0.
         11    1    3    3    0    0 -0.29346517642E+02 -0.46607340552E+02  0.29106727979E+02  0.62294974957E+02  0.51100000000E-03 0. -1.
         22    1    1    0    0    0  0.10561617221E+02  0.19735084861E+02 -0.15392927982E+02  0.27165484804E+02  0.00000000000E+00 0. -1.
</event>
<event>
 5    1  0.8962567E-005  0.9118800E+02  0.7818608E-02  0.1130116E+00
         25   -1    0    0    0    0  0.00000000000E+00  0.00000000000E+00  0.99999998245E-14  0.12500000000E+03  0.12500000000E+03 0.  0.
        -11    1    3    3    0    0  0.95401271033E+01  0.21813318862E+02 -0.51727500457E+01  0.24363748649E+02  0.51100000000E-03 0.  1.
         23    2    1    0    0    0  0.26767999697E+02 -0.30302433523E+02 -0.18015751511E+02  0.80735673644E+02  0.67519763115E+02 0.  0.
         11    1    3    3    0    0  0.17227872594E+02 -0.52115752385E+02 -0.12843001465E+02  0.56371924995E+02  0.51100000000E-03 0. -1.
         22    1    1    0    0    0 -0.26767999697E+02  0.30302433523E+02  0.18015751511E+02  0.44264326356E+02  0.00000000000E+00 0. -1.
</event>
<event>
 5    1  0.8962567E-005  0.9118800E+02  0.7818608E-02  0.1130116E+00
         25   -1    0    0    0    0  0.00000000000E+00  0.00000000000E+00  0.99999998245E-14  0.12500000000E+03  0.12500000000E+03 0.  0.
        -11    1    3    3    0    0 -0.20810050284E+02 -0.45268350629E+02 -0.22471656849E+02  0.54655805943E+02  0.51100000000E-03 0.  1.
         23    2    1    0    0    0 -0.31380162810E+02 -0.25876375964E+02 -0.28022611909E+01  0.84230475612E+02  0.73706301651E+02 0.  0.
         11    1    3    3    0    0 -0.10570112525E+02  0.19391974665E+02  0.19669395659E+02  0.29574669669E+02  0.51100000000E-03 0. -1.
         22    1    1    0    0    0  0.31380162810E+02  0.25876375964E+02  0.28022611909E+01  0.40769524388E+02  0.00000000000E+00 0.  1.
</event>
<event>
 5    1  0.8962567E-005  0.9118800E+02  0.7818608E-02  0.1130116E+00
         25   -1    0    0    0    0  0.00000000000E+00  0.00000000000E+00  0.99999998245E-14  0.12500000000E+03  0.12500000000E+03 0.  0.
        -11    1    3    3    0    0 -0.30397307211E+02 -0.72013747561E+01  0.53634929878E+02  0.62069008268E+02  0.51100000000E-03 0. -1.
         23    2    1    0    0    0 -0.17981132190E+02 -0.40981023856E+01  0.21410677698E+02  0.96741679500E+02  0.92522537119E+02 0.  0.
         11    1    3    3    0    0  0.12416175021E+02  0.31032723705E+01 -0.32224252180E+02  0.34672671232E+02  0.51100000000E-03 0.  1.
         22    1    1    0    0    0  0.17981132190E+02  0.40981023856E+01 -0.21410677698E+02  0.28258320500E+02  0.00000000000E+00 0. -1.
</event>
<event>
 5    1  0.8962567E-005  0.9118800E+02  0.7818608E-02  0.1130116E+00
         25   -1    0    0    0    0  0.00000000000E+00  0.00000000000E+00  0.99999998245E-14  0.12500000000E+03  0.12500000000E+03 0.  0.
        -11    1    3    3    0    0 -0.56181528053E+02 -0.18697499564E+02 -0.18788921650E+02  0.62120722480E+02  0.51100000000E-03 0.  1.
         23    2    1    0    0    0 -0.27690076094E+02 -0.41700639465E+01 -0.96363225557E+01  0.95386009053E+02  0.90672500039E+02 0.  0.
         11    1    3    3    0    0  0.28491451960E+02  0.14527435617E+02  0.91525990945E+01  0.33265286574E+02  0.51100000000E-03 0. -1.
         22    1    1    0    0    0  0.27690076094E+02  0.41700639465E+01  0.96363225557E+01  0.29613990947E+02  0.00000000000E+00 0.  1.
</event>
<event>
 5    1  0.8962567E-005  0.9118800E+02  0.7818608E-02  0.1130116E+00
         25   -1    0    0    0    0  0.00000000000E+00  0.00000000000E+00  0.99999998245E-14  0.12500000000E+03  0.12500000000E+03 0.  0.
        -11    1    3    3    0    0 -0.20844737705E+02 -0.14622430812E+02 -0.26437428426E+02  0.36704988692E+02  0.51100000000E-03 0.  1.
         23    2    1    0    0    0  0.20977852181E+02  0.79794737756E+01  0.13513051499E+02  0.98801816005E+02  0.95265177275E+02 0.  0.
         11    1    3    3    0    0  0.41822589885E+02  0.22601904588E+02  0.39950479925E+02  0.62096827312E+02  0.51100000000E-03 0. -1.
         22    1    1    0    0    0 -0.20977852181E+02 -0.79794737756E+01 -0.13513051499E+02  0.26198183995E+02  0.00000000000E+00 0. -1.
</event>
<event>
 5    1  0.8962567E-005  0.9118800E+02  0.7818608E-02  0.1130116E+00
         25   -1    0    0    0    0  0.00000000000E+00  0.00000000000E+00  0.99999998245E-14  0.12500000000E+03  0.12500000000E+03 0.  0.
        -11    1    3    3    0    0  0.59518376753E+01  0.33881073769E+02 -0.42721261105E+02  0.54849409132E+02  0.51100000000E-03 0.  1.
         23    2    1    0    0    0  0.96935521784E+01  0.29697991448E+02 -0.45507527961E+01  0.93430315161E+02  0.87935082818E+02 0.  0.
         11    1    3    3    0    0  0.37417145032E+01 -0.41830823215E+01  0.38170508309E+02  0.38580906028E+02  0.51100000000E-03 0. -1.
         22    1    1    0    0    0 -0.96935521784E+01 -0.29697991448E+02  0.45507527961E+01  0.31569684839E+02  0.00000000000E+00 0.  1.
</event>
<event>
 5    1  0.8962567E-005  0.9118800E+02  0.7818608E-02  0.1130116E+00
         25   -1    0    0    0    0  0.00000000000E+00  0.00000000000E+00  0.99999998245E-14  0.12500000000E+03  0.12500000000E+03 0.  0.
        -11    1    3    3    0    0 -0.37929373404E+01 -0.30813145910E+02 -0.36448157627E+02  0.47878017181E+02  0.51100000000E-03 0.  1.
         23    2    1    0    0    0  0.23397094809E+02  0.38993944150E+01 -0.15233195640E+02  0.96809938424E+02  0.92614710527E+02 0.  0.
         11    1    3    3    0    0  0.27190032149E+02  0.34712540325E+02  0.21214961988E+02  0.48931921242E+02  0.51100000000E-03 0. -1.
         22    1    1    0    0    0 -0.23397094809E+02 -0.38993944150E+01  0.15233195640E+02  0.28190061576E+02  0.00000000000E+00 0. -1.
</event>
<event>
 5    1  0.8962567E-005  0.9118800E+02  0.7818608E-02  0.1130116E+00
         25   -1    0    0    0    0  0.00000000000E+00  0.00000000000E+00  0.99999998245E-14  0.12500000000E+03  0.12500000000E+03 0.  0.
        -11    1    3    3    0    0 -0.39495188549E+02  0.40823209674E+02 -0.47663250328E+01  0.57001072105E+02  0.51100000000E-03 0. -1.
         23    2    1    0    0    0 -0.25242071324E+02  0.33121127932E+01  0.65855574860E+01  0.98703577747E+02  0.95136188891E+02 0.  0.
         11    1    3    3    0    0  0.14253117224E+02 -0.37511096881E+02  0.11351882519E+02  0.41702505642E+02  0.51100000000E-03 0.  1.
         22    1    1    0    0    0  0.25242071324E+02 -0.33121127932E+01 -0.65855574860E+01  0.26296422253E+02  0.00000000000E+00 0. -1.
</event>
<event>
 5    1  0.8962567E-005  0.9118800E+02  0.7818608E-02  0.1130116E+00
         25   -1    0    0    0    0  0.00000000000E+00  0.00000000000E+00  0.99999998245E-14  0.12500000000E+03  0.12500000000E+03 0.  0.
        -11    1    3    3    0    0  0.32452672535E+02 -0.44380584172E+02 -0.12325985547E+02  0.56344850041E+02  0.51100000000E-03 0.  1.
         23    2    1    0    0    0  0.28161014151E+02 -0.73962098707E+01  0.93619334610E+00  0.95868863797E+02  0.91335732051E+02 0.  0.
         11    1    3    3    0    0 -0.42916583838E+01  0.36984374302E+02  0.13262178893E+02  0.39524013756E+02  0.51100000000E-03 0. -1.
         22    1    1    0    0    0 -0.28161014151E+02  0.73962098707E+01 -0.93619334610E+00  0.29131136203E+02  0.00000000000E+00 0.  1.
</event>
<event>
 5    1  0.8962567E-005  0.9118800E+02  0.7818608E-02  0.1130116E+00
         25   -1    0    0    0    0  0.00000000000E+00  0.00000000000E+00  0.99999998245E-14  0.12500000000E+03  0.12500000000E+03 0.  0.
        -11    1    3    3    0    0  0.59969587052E+00  0.37550363839E+02  0.88154130552E+01  0.38575911748E+02  0.51100000000E-03 0.  1.
         23    2    1    0    0    0 -0.12077548826E+00 -0.84676932600E+01 -0.26878600349E+02  0.96818879146E+02  0.92626776833E+02 0.  0.
         11    1    3    3    0    0 -0.72047135879E+00 -0.46018057099E+02 -0.35694013404E+02  0.58242967398E+02  0.51100000000E-03 0. -1.
         22    1    1    0    0    0  0.12077548826E+00  0.84676932600E+01  0.26878600349E+02  0.28181120854E+02  0.00000000000E+00 0. -1.
</event>
<event>
 5    1  0.8962567E-005  0.9118800E+02  0.7818608E-02  0.1130116E+00
         25   -1    0    0    0    0  0.00000000000E+00  0.00000000000E+00  0.99999998245E-14  0.12500000000E+03  0.12500000000E+03 0.  0.
        -11    1    3    3    0    0  0.21068707174E+02  0.28968906021E+02  0.29167108589E+01  0.35938769324E+02  0.51100000000E-03 0.  1.
         23    2    1    0    0    0 -0.23743794229E+02 -0.93737623740E+01 -0.12029476949E+02  0.96780441161E+02  0.92574890171E+02 0.  0.
         11    1    3    3    0    0 -0.44812501403E+02 -0.38342668395E+02 -0.14946187808E+02  0.60841671837E+02  0.51100000000E-03 0. -1.
         22    1    1    0    0    0  0.23743794229E+02  0.93737623740E+01  0.12029476949E+02  0.28219558839E+02  0.00000000000E+00 0. -1.
</event>
<event>
 5    1  0.8962567E-005  0.9118800E+02  0.7818608E-02  0.1130116E+00
         25   -1    0    0    0    0  0.00000000000E+00  0.00000000000E+00  0.99999998245E-14  0.12500000000E+03  0.12500000000E+03 0.  0.
        -11    1    3    3    0    0  0.34660445875E+02  0.13629957479E+02 -0.10741925859E+02  0.38762239623E+02  0.51100000000E-03 0.  1.
         23    2    1    0    0    0 -0.12298679129E+02  0.12923026326E+02  0.22488899827E+02  0.96294378022E+02  0.91916236354E+02 0.  0.
         11    1    3    3    0    0 -0.46959125004E+02 -0.70693115312E+00  0.33230825685E+02  0.57532138399E+02  0.51100000000E-03 0. -1.
         22    1    1    0    0    0  0.12298679129E+02 -0.12923026326E+02 -0.22488899827E+02  0.28705621978E+02  0.00000000000E+00 0. -1.
</event>
<event>
 5    1  0.8962567E-005  0.9118800E+02  0.7818608E-02  0.1130116E+00
         25   -1    0    0    0    0  0.00000000000E+00  0.00000000000E+00  0.99999998245E-14  0.12500000000E+03  0.12500000000E+03 0.  0.
        -11    1    3    3    0    0 -0.33330381108E+02 -0.11675376088E+02  0.17731192839E+02  0.39517387456E+02  0.51100000000E-03 0.  1.
         23    2    1    0    0    0  0.11874083332E+02 -0.25766862671E+02 -0.10620106224E+02  0.94706242836E+02  0.89730489295E+02 0.  0.
         11    1    3    3    0    0  0.45204464440E+02 -0.14091486584E+02 -0.28351299063E+02  0.55188855381E+02  0.51100000000E-03 0. -1.
         22    1    1    0    0    0 -0.11874083332E+02  0.25766862671E+02  0.10620106224E+02  0.30293757164E+02  0.00000000000E+00 0. -1.
</event>
<event>
 5    1  0.8962567E-005  0.9118800E+02  0.7818608E-02  0.1130116E+00
         25   -1    0    0    0    0  0.00000000000E+00  0.00000000000E+00  0.99999998245E-14  0.12500000000E+03  0.12500000000E+03 0.  0.
        -11    1    3    3    0    0  0.11743352677E+02 -0.36954863978E+02  0.42765771972E+02  0.57727632520E+02  0.51100000000E-03 0.  1.
         23    2    1    0    0    0  0.19786051530E+02 -0.71358923295E+01  0.18016354154E+02  0.97305274663E+02  0.93280859054E+02 0.  0.
         11    1    3    3    0    0  0.80426988526E+01  0.29818971648E+02 -0.24749417818E+02  0.39577642143E+02  0.51100000000E-03 0. -1.
         22    1    1    0    0    0 -0.19786051530E+02  0.71358923295E+01 -0.18016354154E+02  0.27694725337E+02  0.00000000000E+00 0.  1.
</event>
<event>
 5    1  0.8962567E-005  0.9118800E+02  0.7818608E-02  0.1130116E+00
         25   -1    0    0    0    0  0.00000000000E+00  0.00000000000E+00  0.99999998245E-14  0.12500000000E+03  0.12500000000E+03 0.  0.
        -11    1    3    3    0    0 -0.17158724531E+02 -0.31850649215E+02  0.43811381217E+02  0.56818331614E+02  0.51100000000E-03 0. -1.
         23    2    1    0    0    0 -0.15884150403E+02  0.19693588427E+01  0.24355034358E+02  0.95856350488E+02  0.91318605016E+02 0.  0.
         11    1    3    3    0    0  0.12745741276E+01  0.33820008058E+02 -0.19456346859E+02  0.39038018874E+02  0.51100000000E-03 0.  1.
         22    1    1    0    0    0  0.15884150403E+02 -0.19693588427E+01 -0.24355034358E+02  0.29143649512E+02  0.00000000000E+00 0. -1.
</event>
<event>
 5    1  0.8962567E-005  0.9118800E+02  0.7818608E-02  0.1130116E+00
         25   -1    0    0    0    0  0.00000000000E+00  0.00000000000E+00  0.99999998245E-14  0.12500000000E+03  0.12500000000E+03 0.  0.
        -11    1    3    3    0    0  0.30234257907E+02  0.16073883359E+02 -0.28473660974E+02  0.44533464350E+02  0.51100000000E-03 0. -1.
         23    2    1    0    0    0 -0.18383890194E+02  0.19047561850E+02 -0.82728505787E+01  0.97265236836E+02  0.93227191360E+02 0.  0.
         11    1    3    3    0    0 -0.48618148101E+02  0.29736784906E+01  0.20200810396E+02  0.52731772486E+02  0.51100000000E-03 0.  1.
         22    1    1    0    0    0  0.18383890194E+02 -0.19047561850E+02  0.82728505787E+01  0.27734763164E+02  0.00000000000E+00 0. -1.
</event>
<event>
 5    1  0.8962567E-005  0.9118800E+02  0.7818608E-02  0.1130116E+00
         25   -1    0    0    0    0  0.00000000000E+00  0.00000000000E+00  0.99999998245E-14  0.12500000000E+03  0.12500000000E+03 0.  0.
        -11    1    3    3    0    0 -0.31683978502E+01 -0.26648486260E+02  0.33398991350E+02  0.42844756836E+02  0.51100000000E-03 0.  1.
         23    2    1    0    0    0 -0.22058839570E+02  0.16474435780E+02  0.80446274140E+01  0.96316982940E+02  0.91946972408E+02 0.  0.
         11    1    3    3    0    0 -0.18890441720E+02  0.43122922039E+02 -0.25354363936E+02  0.53472226104E+02  0.51100000000E-03 0. -1.
         22    1    1    0    0    0  0.22058839570E+02 -0.16474435780E+02 -0.80446274140E+01  0.28683017060E+02  0.00000000000E+00 0. -1.
</event>
<event>
 5    1  0.8962567E-005  0.9118800E+02  0.7818608E-02  0.1130116E+00
         25   -1    0    0    0    0  0.00000000000E+00  0.00000000000E+00  0.99999998245E-14  0.12500000000E+03  0.12500000000E+03 0.  0.
        -11    1    3    3    0    0  0.29535814829E+02 -0.21277576797E+02 -0.39608616234E+02  0.53795372591E+02  0.51100000000E-03 0. -1.
         23    2    1    0    0    0  0.27111301682E+02 -0.75632467166E+01  0.11117917618E+01  0.96831552035E+02  0.92643877341E+02 0.  0.
         11    1    3    3    0    0 -0.24245131463E+01  0.13714330081E+02  0.40720407996E+02  0.43036179444E+02  0.51100000000E-03 0.  1.
         22    1    1    0    0    0 -0.27111301682E+02  0.75632467166E+01 -0.11117917618E+01  0.28168447965E+02  0.00000000000E+00 0. -1.
</event>
<event>
 5    1  0.8962567E-005  0.9118800E+02  0.7818608E-02  0.1130116E+00
         25   -1    0    0    0    0  0.00000000000E+00  0.00000000000E+00  0.99999998245E-14  0.12500000000E+03  0.12500000000E+03 0.  0.
        -11    1    3    3    0    0 -0.10099063734E+01  0.19165219016E+02  0.31754001868E+02  0.37103128786E+02  0.51100000000E-03 0.  1.
         23    2    1    0    0    0 -0.14136269189E+02 -0.24927428807E+02 -0.49032898866E+01  0.95926763764E+02  0.91414938281E+02 0.  0.
         11    1    3    3    0    0 -0.13126362816E+02 -0.44092647824E+02 -0.36657291755E+02  0.58823634977E+02  0.51100000000E-03 0. -1.
         22    1    1    0    0    0  0.14136269189E+02  0.24927428807E+02  0.49032898866E+01  0.29073236236E+02  0.00000000000E+00 0. -1.
</event>
<event>
 5    1  0.8962567E-005  0.9118800E+02  0.7818608E-02  0.1130116E+00
         25   -1    0    0    0    0  0.00000000000E+00  0.00000000000E+00  0.99999998245E-14  0.12500000000E+03  0.12500000000E+03 0.  0.
        -11    1    3    3    0    0  0.22215865657E+02  0.25982468962E+02 -0.49385247957E+02  0.60062767971E+02  0.51100000000E-03 0. -1.
         23    2    1    0    0    0  0.63381121412E+01  0.22289934983E+02 -0.17200138451E+02  0.96140727144E+02  0.91707043273E+02 0.  0.
         11    1    3    3    0    0 -0.15877753516E+02 -0.36925339791E+01  0.32185109506E+02  0.36077959173E+02  0.51100000000E-03 0.  1.
         22    1    1    0    0    0 -0.63381121412E+01 -0.22289934983E+02  0.17200138451E+02  0.28859272856E+02  0.00000000000E+00 0. -1.
</event>
<event>
 5    1  0.8962567E-005  0.9118800E+02  0.7818608E-02  0.1130116E+00
         25   -1    0    0    0    0  0.00000000000E+00  0.00000000000E+00  0.99999998245E-14  0.12500000000E+03  0.12500000000E+03 0.  0.
        -11    1    3    3    0    0  0.10929956652E+02  0.34045035823E+02  0.62441700607E+01  0.36297631832E+02  0.51100000000E-03 0.  1.
         23    2    1    0    0    0 -0.26828266556E+02 -0.93227791681E+01 -0.79126708955E+01  0.95516437486E+02  0.90852129152E+02 0.  0.
         11    1    3    3    0    0 -0.37758223208E+02 -0.43367814991E+02 -0.14156840956E+02  0.59218805654E+02  0.51100000000E-03 0. -1.
         22    1    1    0    0    0  0.26828266556E+02  0.93227791681E+01  0.79126708955E+01  0.29483562514E+02  0.00000000000E+00 0. -1.
</event>
<event>
 5    1  0.8962567E-005  0.9118800E+02  0.7818608E-02  0.1130116E+00
         25   -1    0    0    0    0  0.00000000000E+00  0.00000000000E+00  0.99999998245E-14  0.12500000000E+03  0.12500000000E+03 0.  0.
        -11    1    3    3    0    0  0.17585368948E+02 -0.39121696335E+02  0.31385239134E+02  0.53148711752E+02  0.51100000000E-03 0.  1.
         23    2    1    0    0    0  0.44570633222E+01 -0.29927526943E+02 -0.62936181672E+01  0.94094791506E+02  0.88874618855E+02 0.  0.
         11    1    3    3    0    0 -0.13128305626E+02  0.91941693912E+01 -0.37678857302E+02  0.40946079754E+02  0.51100000000E-03 0. -1.
         22    1    1    0    0    0 -0.44570633222E+01  0.29927526943E+02  0.62936181672E+01  0.30905208494E+02  0.00000000000E+00 0.  1.
</event>
<event>
 5    1  0.8962567E-005  0.9118800E+02  0.7818608E-02  0.1130116E+00
         25   -1    0    0    0    0  0.00000000000E+00  0.00000000000E+00  0.99999998245E-14  0.12500000000E+03  0.12500000000E+03 0.  0.
        -11    1    3    3    0    0  0.23722238711E+02 -0.17465998704E+02  0.50231071173E+01  0.29883730114E+02  0.51100000000E-03 0.  1.
         23    2    1    0    0    0 -0.26487560488E+02  0.15768445219E+02 -0.11131716646E+02  0.92225774751E+02  0.86205821658E+02 0.  0.
         11    1    3    3    0    0 -0.50209799198E+02  0.33234443922E+02 -0.16154823763E+02  0.62342044637E+02  0.51100000000E-03 0. -1.
         22    1    1    0    0    0  0.26487560488E+02 -0.15768445219E+02  0.11131716646E+02  0.32774225249E+02  0.00000000000E+00 0. -1.
</event>
<event>
 5    1  0.8962567E-005  0.9118800E+02  0.7818608E-02  0.1130116E+00
         25   -1    0    0    0    0  0.00000000000E+00  0.00000000000E+00  0.99999998245E-14  0.12500000000E+03  0.12500000000E+03 0.  0.
        -11    1    3    3    0    0  0.10355788816E+02  0.64196580451E+01 -0.35712700352E+02  0.37733954711E+02  0.51100000000E-03 0. -1.
         23    2    1    0    0    0 -0.23685825674E+02  0.21652854055E+02  0.45181775786E+01  0.92592001678E+02  0.86735231709E+02 0.  0.
         11    1    3    3    0    0 -0.34041614490E+02  0.15233196010E+02  0.40230877931E+02  0.54858046968E+02  0.51100000000E-03 0.  1.
         22    1    1    0    0    0  0.23685825674E+02 -0.21652854055E+02 -0.45181775786E+01  0.32407998322E+02  0.00000000000E+00 0.  1.
</event>
<event>
 5    1  0.8962567E-005  0.9118800E+02  0.7818608E-02  0.1130116E+00
         25   -1    0    0    0    0  0.00000000000E+00  0.00000000000E+00  0.99999998245E-14  0.12500000000E+03  0.12500000000E+03 0.  0.
        -11    1    3    3    0    0  0.35355138588E+02 -0.46467148754E+02  0.15953166333E+02  0.60528383873E+02  0.51100000000E-03 0. -1.
         23    2    1    0    0    0  0.24697685439E+02 -0.14376479341E+02  0.88859452719E+01  0.95073108286E+02  0.90240107887E+02 0.  0.
         11    1    3    3    0    0 -0.10657453149E+02  0.32090669413E+02 -0.70672210612E+01  0.34544724414E+02  0.51100000000E-03 0.  1.
         22    1    1    0    0    0 -0.24697685439E+02  0.14376479341E+02 -0.88859452719E+01  0.29926891714E+02  0.00000000000E+00 0. -1.
</event>
<event>
 5    1  0.8962567E-005  0.9118800E+02  0.7818608E-02  0.1130116E+00
         25   -1    0    0    0    0  0.00000000000E+00  0.00000000000E+00  0.99999998245E-14  0.12500000000E+03  0.12500000000E+03 0.  0.
        -11    1    3    3    0    0  0.35197921908E+02  0.23004451337E+01 -0.54734157992E+01  0.35695154227E+02  0.51100000000E-03 0. -1.
         23    2    1    0    0    0 -0.16450382524E+02  0.90115447854E+00  0.24536540113E+02  0.95445491625E+02  0.90754464938E+02 0.  0.
         11    1    3    3    0    0 -0.51648304433E+02 -0.13992906552E+01  0.30009955912E+02  0.59750337398E+02  0.51100000000E-03 0.  1.
         22    1    1    0    0    0  0.16450382524E+02 -0.90115447854E+00 -0.24536540113E+02  0.29554508375E+02  0.00000000000E+00 0.  1.
</event>
<event>
 5    1  0.8962567E-005  0.9118800E+02  0.7818608E-02  0.1130116E+00
         25   -1    0    0    0    0  0.00000000000E+00  0.00000000000E+00  0.99999998245E-14  0.12500000000E+03  0.12500000000E+03 0.  0.
        -11    1    3    3    0    0 -0.45498717764E+02  0.30246104404E+02 -0.23277632307E+02  0.59386937249E+02  0.51100000000E-03 0. -1.
         23    2    1    0    0    0 -0.12663440238E+02  0.24781415665E+02 -0.77881556217E+01  0.96101269076E+02  0.91653244727E+02 0.  0.
         11    1    3    3    0    0  0.32835277526E+02 -0.54646887382E+01  0.15489476685E+02  0.36714331826E+02  0.51100000000E-03 0.  1.
         22    1    1    0    0    0  0.12663440238E+02 -0.24781415665E+02  0.77881556217E+01  0.28898730924E+02  0.00000000000E+00 0. -1.
</event>
<event>
 5    1  0.8962567E-005  0.9118800E+02  0.7818608E-02  0.1130116E+00
         25   -1    0    0    0    0  0.00000000000E+00  0.00000000000E+00  0.99999998245E-14  0.12500000000E+03  0.12500000000E+03 0.  0.
        -11    1    3    3    0    0  0.59878115635E+01 -0.35610464188E+02 -0.14578826884E+02  0.38942280885E+02  0.51100000000E-03 0.  1.
         23    2    1    0    0    0 -0.69397695245E+01  0.17864057481E+02 -0.23500304355E+02  0.94675929437E+02  0.89688250955E+02 0.  0.
         11    1    3    3    0    0 -0.12927581088E+02  0.53474521668E+02 -0.89214774708E+01  0.55733648552E+02  0.51100000000E-03 0. -1.
         22    1    1    0    0    0  0.69397695245E+01 -0.17864057481E+02  0.23500304355E+02  0.30324070563E+02  0.00000000000E+00 0. -1.
</event>
<event>
 5    1  0.8962567E-005  0.9118800E+02  0.7818608E-02  0.1130116E+00
         25   -1    0    0    0    0  0.00000000000E+00  0.00000000000E+00  0.99999998245E-14  0.12500000000E+03  0.12500000000E+03 0.  0.
        -11    1    3    3    0    0  0.46524012741E+02 -0.24086804531E+02 -0.21099633302E+01  0.52431954566E+02  0.51100000000E-03 0.  1.
         23    2    1    0    0    0  0.16588972103E+02 -0.25649828247E+01  0.22624102043E+02  0.96828682573E+02  0.92640005630E+02 0.  0.
         11    1    3    3    0    0 -0.29935040638E+02  0.21521821707E+02  0.24734065373E+02  0.44396728007E+02  0.51100000000E-03 0. -1.
         22    1    1    0    0    0 -0.16588972103E+02  0.25649828247E+01 -0.22624102043E+02  0.28171317427E+02  0.00000000000E+00 0.  1.
</event>
<event>
 5    1  0.8962567E-005  0.9118800E+02  0.7818608E-02  0.1130116E+00
         25   -1    0    0    0    0  0.00000000000E+00  0.00000000000E+00  0.99999998245E-14  0.12500000000E+03  0.12500000000E+03 0.  0.
        -11    1    3    3    0    0  0.47714124194E+02  0.24074238938E+02  0.26268408848E+02  0.59550280702E+02  0.51100000000E-03 0.  1.
         23    2    1    0    0    0  0.28848883743E+02  0.20372255625E+01  0.46978332385E+01  0.95700204466E+02  0.91104616329E+02 0.  0.
         11    1    3    3    0    0 -0.18865240451E+02 -0.22037013375E+02 -0.21570575609E+02  0.36149923764E+02  0.51100000000E-03 0. -1.
         22    1    1    0    0    0 -0.28848883743E+02 -0.20372255625E+01 -0.46978332385E+01  0.29299795534E+02  0.00000000000E+00 0.  1.
</event>
<event>
 5    1  0.8962567E-005  0.9118800E+02  0.7818608E-02  0.1130116E+00
         25   -1    0    0    0    0  0.00000000000E+00  0.00000000000E+00  0.99999998245E-14  0.12500000000E+03  0.12500000000E+03 0.  0.
        -11    1    3    3    0    0 -0.38281470469E+02  0.25216108922E+02  0.14538471064E+01  0.45863240205E+02  0.51100000000E-03 0.  1.
         23    2    1    0    0    0 -0.23945407838E+01  0.97159710394E+01  0.29417810757E+02  0.93926836200E+02  0.88638079006E+02 0.  0.
         11    1    3    3    0    0  0.35886929685E+02 -0.15500137883E+02  0.27963963651E+02  0.48063595995E+02  0.51100000000E-03 0. -1.
         22    1    1    0    0    0  0.23945407838E+01 -0.97159710394E+01 -0.29417810757E+02  0.31073163800E+02  0.00000000000E+00 0. -1.
</event>
<event>
 5    1  0.8962567E-005  0.9118800E+02  0.7818608E-02  0.1130116E+00
         25   -1    0    0    0    0  0.00000000000E+00  0.00000000000E+00  0.99999998245E-14  0.12500000000E+03  0.12500000000E+03 0.  0.
        -11    1    3    3    0    0  0.41981552418E+02 -0.31610416652E+02  0.17042713905E+02  0.55246025032E+02  0.51100000000E-03 0.  1.
         23    2    1    0    0    0  0.80697602392E+01 -0.11716153937E+02  0.25810611171E+02  0.95528370551E+02  0.90868545921E+02 0.  0.
         11    1    3    3    0    0 -0.33911792179E+02  0.19894262715E+02  0.87678972659E+01  0.40282345519E+02  0.51100000000E-03 0. -1.
         22    1    1    0    0    0 -0.80697602392E+01  0.11716153937E+02 -0.25810611171E+02  0.29471629449E+02  0.00000000000E+00 0.  1.
</event>
<event>
 5    1  0.8962567E-005  0.9118800E+02  0.7818608E-02  0.1130116E+00
         25   -1    0    0    0    0  0.00000000000E+00  0.00000000000E+00  0.99999998245E-14  0.12500000000E+03  0.12500000000E+03 0.  0.
        -11    1    3    3    0    0  0.49045435569E+02 -0.42304677889E+01  0.38215893760E+02  0.62320190500E+02  0.51100000000E-03 0.  1.
         23    2    1    0    0    0  0.25846910191E+02 -0.15540075415E+01  0.15939103401E+02  0.94593870304E+02  0.89573810771E+02 0.  0.
         11    1    3    3    0    0 -0.23198525378E+02  0.26764602474E+01 -0.22276790358E+02  0.32273679804E+02  0.51100000000E-03 0. -1.
         22    1    1    0    0    0 -0.25846910191E+02  0.15540075415E+01 -0.15939103401E+02  0.30406129696E+02  0.00000000000E+00 0.  1.
</event>
<event>
 5    1  0.8962567E-005  0.9118800E+02  0.7818608E-02  0.1130116E+00
         25   -1    0    0    0    0  0.00000000000E+00  0.00000000000E+00  0.99999998245E-14  0.12500000000E+03  0.12500000000E+03 0.  0.
        -11    1    3    3    0    0  0.45632080180E+02  0.18984521454E+02  0.29728193957E+02  0.57675508776E+02  0.51100000000E-03 0. -1.
         23    2    1    0    0    0  0.27253756923E+02  0.11273966457E+02 -0.23198979539E+01  0.95415350051E+02  0.90712940161E+02 0.  0.
         11    1    3    3    0    0 -0.18378323256E+02 -0.77105549968E+01 -0.32048091911E+02  0.37739841275E+02  0.51100000000E-03 0.  1.
         22    1    1    0    0    0 -0.27253756923E+02 -0.11273966457E+02  0.23198979539E+01  0.29584649949E+02  0.00000000000E+00 0.  1.
</event>
<event>
 5    1  0.8962567E-005  0.9118800E+02  0.7818608E-02  0.1130116E+00
         25   -1    0    0    0    0  0.00000000000E+00  0.00000000000E+00  0.99999998245E-14  0.12500000000E+03  0.12500000000E+03 0.  0.
        -11    1    3    3    0    0 -0.38674294205E+02 -0.18807613803E+02  0.99707178479E+01  0.44145697230E+02  0.51100000000E-03 0.  1.
         23    2    1    0    0    0 -0.68017235696E+01  0.20076000737E+02  0.20497893927E+02  0.95513174052E+02  0.90847639006E+02 0.  0.
         11    1    3    3    0    0  0.31872570636E+02  0.38883614540E+02  0.10527176079E+02  0.51367476822E+02  0.51100000000E-03 0. -1.
         22    1    1    0    0    0  0.68017235696E+01 -0.20076000737E+02 -0.20497893927E+02  0.29486825948E+02  0.00000000000E+00 0. -1.
</event>
<event>
 5    1  0.8962567E-005  0.9118800E+02  0.7818608E-02  0.1130116E+00
         25   -1    0    0    0    0  0.00000000000E+00  0.00000000000E+00  0.99999998245E-14  0.12500000000E+03  0.12500000000E+03 0.  0.
        -11    1    3    3    0    0 -0.31368802992E+02 -0.52082057230E+00  0.21902715434E+02  0.38262279060E+02  0.51100000000E-03 0. -1.
         23    2    1    0    0    0 -0.81139384770E+01 -0.38459083204E+02  0.12615173974E+02  0.83719499847E+02  0.72834572572E+02 0.  0.
         11    1    3    3    0    0  0.23254864515E+02 -0.37938262631E+02 -0.92875414598E+01  0.45457220787E+02  0.51100000000E-03 0.  1.
         22    1    1    0    0    0  0.81139384770E+01  0.38459083204E+02 -0.12615173974E+02  0.41280500153E+02  0.00000000000E+00 0. -1.
</event>
<event>
 5    1  0.8962567E-005  0.9118800E+02  0.7818608E-02  0.1130116E+00
         25   -1    0    0    0    0  0.00000000000E+00  0.00000000000E+00  0.99999998245E-14  0.12500000000E+03  0.12500000000E+03 0.  0.
        -11    1    3    3    0    0  0.79985013240E+01  0.30669165847E+00  0.33455167814E+02  0.34399394427E+02  0.51100000000E-03 0.  1.
         23    2    1    0    0    0 -0.65544033429E+01  0.23964891174E+02 -0.18978523113E+02  0.93735634475E+02  0.88368029392E+02 0.  0.
         11    1    3    3    0    0 -0.14552904667E+02  0.23658199515E+02 -0.52433690927E+02  0.59336240048E+02  0.51100000000E-03 0. -1.
         22    1    1    0    0    0  0.65544033429E+01 -0.23964891174E+02  0.18978523113E+02  0.31264365525E+02  0.00000000000E+00 0. -1.
</event>
<event>
 5    1  0.8962567E-005  0.9118800E+02  0.7818608E-02  0.1130116E+00
         25   -1    0    0    0    0  0.00000000000E+00  0.00000000000E+00  0.99999998245E-14  0.12500000000E+03  0.12500000000E+03 0.  0.
        -11    1    3    3    0    0  0.10155610987E+02 -0.54785465483E+02 -0.20889081435E+02  0.59505776074E+02  0.51100000000E-03 0.  1.
         23    2    1    0    0    0  0.11008411585E+02 -0.26661413774E+02  0.24345526784E+01  0.96052752172E+02  0.91587051722E+02 0.  0.
         11    1    3    3    0    0  0.85280059762E+00  0.28124051709E+02  0.23323634114E+02  0.36546976098E+02  0.51100000000E-03 0. -1.
         22    1    1    0    0    0 -0.11008411585E+02  0.26661413774E+02 -0.24345526784E+01  0.28947247828E+02  0.00000000000E+00 0.  1.
</event>
<event>
 5    1  0.8962567E-005  0.9118800E+02  0.7818608E-02  0.1130116E+00
         25   -1    0    0    0    0  0.00000000000E+00  0.00000000000E+00  0.99999998245E-14  0.12500000000E+03  0.12500000000E+03 0.  0.
        -11    1    3    3    0    0  0.11143047220E+02 -0.26958626942E+02  0.23224238720E+02  0.37286731317E+02  0.51100000000E-03 0. -1.
         23    2    1    0    0    0 -0.24458068196E+02 -0.69262413770E+01 -0.16842837736E+02  0.94506540005E+02  0.89451858568E+02 0.  0.
         11    1    3    3    0    0 -0.35601115416E+02  0.20032385565E+02 -0.40067076456E+02  0.57219808688E+02  0.51100000000E-03 0.  1.
         22    1    1    0    0    0  0.24458068196E+02  0.69262413770E+01  0.16842837736E+02  0.30493459995E+02  0.00000000000E+00 0.  1.
</event>
<event>
 5    1  0.8962567E-005  0.9118800E+02  0.7818608E-02  0.1130116E+00
         25   -1    0    0    0    0  0.00000000000E+00  0.00000000000E+00  0.99999998245E-14  0.12500000000E+03  0.12500000000E+03 0.  0.
        -11    1    3    3    0    0  0.20969142326E+01  0.42832931060E+02  0.33111387269E+01  0.43011866647E+02  0.51100000000E-03 0. -1.
         23    2    1    0    0    0 -0.26812639852E+02 -0.79635420068E+00  0.11181435197E+02  0.95938404570E+02  0.91430854434E+02 0.  0.
         11    1    3    3    0    0 -0.28909554085E+02 -0.43629285261E+02  0.78702964699E+01  0.52926537923E+02  0.51100000000E-03 0.  1.
         22    1    1    0    0    0  0.26812639852E+02  0.79635420068E+00 -0.11181435197E+02  0.29061595430E+02  0.00000000000E+00 0.  1.
</event>
<event>
 5    1  0.8962567E-005  0.9118800E+02  0.7818608E-02  0.1130116E+00
         25   -1    0    0    0    0  0.00000000000E+00  0.00000000000E+00  0.99999998245E-14  0.12500000000E+03  0.12500000000E+03 0.  0.
        -11    1    3    3    0    0 -0.30608980887E+02 -0.20975836090E+02  0.13086750763E+02  0.39346644792E+02  0.51100000000E-03 0.  1.
         23    2    1    0    0    0  0.63520374688E+01  0.19348643917E+02 -0.13901524692E+02  0.10034293630E+03  0.97266304935E+02 0.  0.
         11    1    3    3    0    0  0.36961018356E+02  0.40324480007E+02 -0.26988275455E+02  0.60996291510E+02  0.51100000000E-03 0. -1.
         22    1    1    0    0    0 -0.63520374688E+01 -0.19348643917E+02  0.13901524692E+02  0.24657063698E+02  0.00000000000E+00 0. -1.
</event>
<event>
 5    1  0.8962567E-005  0.9118800E+02  0.7818608E-02  0.1130116E+00
         25   -1    0    0    0    0  0.00000000000E+00  0.00000000000E+00  0.99999998245E-14  0.12500000000E+03  0.12500000000E+03 0.  0.
        -11    1    3    3    0    0 -0.42316520592E+02  0.27059079782E+02 -0.14477373277E+02  0.52273091079E+02  0.51100000000E-03 0. -1.
         23    2    1    0    0    0 -0.14608296203E+02 -0.43049304420E+01 -0.25272724611E+02  0.95493299857E+02  0.90820289386E+02 0.  0.
         11    1    3    3    0    0  0.27708224389E+02 -0.31364010224E+02 -0.10795351334E+02  0.43220208778E+02  0.51100000000E-03 0.  1.
         22    1    1    0    0    0  0.14608296203E+02  0.43049304420E+01  0.25272724611E+02  0.29506700143E+02  0.00000000000E+00 0. -1.
</event>
<event>
 5    1  0.8962567E-005  0.9118800E+02  0.7818608E-02  0.1130116E+00
         25   -1    0    0    0    0  0.00000000000E+00  0.00000000000E+00  0.99999998245E-14  0.12500000000E+03  0.12500000000E+03 0.  0.
        -11    1    3    3    0    0 -0.35056052761E+02 -0.42312725653E+02 -0.26006350074E+02  0.60791642779E+02  0.51100000000E-03 0. -1.
         23    2    1    0    0    0 -0.59918013162E+00 -0.11074382927E+02 -0.10252394057E+02  0.10989660442E+03  0.10885380612E+03 0.  0.
         11    1    3    3    0    0  0.34456872629E+02  0.31238342726E+02  0.15753956017E+02  0.49104961644E+02  0.51100000000E-03 0.  1.
         22    1    1    0    0    0  0.59918013162E+00  0.11074382927E+02  0.10252394057E+02  0.15103395577E+02  0.00000000000E+00 0. -1.
</event>
<event>
 5    1  0.8962567E-005  0.9118800E+02  0.7818608E-02  0.1130116E+00
         25   -1    0    0    0    0  0.00000000000E+00  0.00000000000E+00  0.99999998245E-14  0.12500000000E+03  0.12500000000E+03 0.  0.
        -11    1    3    3    0    0 -0.70749014148E+01  0.44494269841E+02 -0.10032125909E+02  0.46156666141E+02  0.51100000000E-03 0. -1.
         23    2    1    0    0    0  0.13077629870E+02  0.44853619806E+02  0.12745311104E+02  0.76571552081E+02  0.59311786520E+02 0.  0.
         11    1    3    3    0    0  0.20152531285E+02  0.35934996469E+00  0.22777437013E+02  0.30414885940E+02  0.51100000000E-03 0.  1.
         22    1    1    0    0    0 -0.13077629870E+02 -0.44853619806E+02 -0.12745311104E+02  0.48428447919E+02  0.00000000000E+00 0. -1.
</event>
<event>
 5    1  0.8962567E-005  0.9118800E+02  0.7818608E-02  0.1130116E+00
         25   -1    0    0    0    0  0.00000000000E+00  0.00000000000E+00  0.99999998245E-14  0.12500000000E+03  0.12500000000E+03 0.  0.
        -11    1    3    3    0    0 -0.39996187208E+02 -0.29525543204E+01 -0.40407561760E+02  0.56931393939E+02  0.51100000000E-03 0.  1.
         23    2    1    0    0    0 -0.57304200245E+01  0.10615628965E+02 -0.25695355917E+02  0.96613725012E+02  0.92349505971E+02 0.  0.
         11    1    3    3    0    0  0.34265767184E+02  0.13568183286E+02  0.14712205843E+02  0.39682331073E+02  0.51100000000E-03 0. -1.
         22    1    1    0    0    0  0.57304200245E+01 -0.10615628965E+02  0.25695355917E+02  0.28386274988E+02  0.00000000000E+00 0.  1.
</event>
<event>
 5    1  0.8962567E-005  0.9118800E+02  0.7818608E-02  0.1130116E+00
         25   -1    0    0    0    0  0.00000000000E+00  0.00000000000E+00  0.99999998245E-14  0.12500000000E+03  0.12500000000E+03 0.  0.
        -11    1    3    3    0    0 -0.11939997506E+02  0.13178900279E+02  0.51142782551E+02  0.54146386401E+02  0.51100000000E-03 0. -1.
         23    2    1    0    0    0 -0.19201127046E+02 -0.11697602532E+02  0.18119216312E+02  0.96124003314E+02  0.91684245258E+02 0.  0.
         11    1    3    3    0    0 -0.72611295403E+01 -0.24876502811E+02 -0.33023566239E+02  0.41977616913E+02  0.51100000000E-03 0.  1.
         22    1    1    0    0    0  0.19201127046E+02  0.11697602532E+02 -0.18119216312E+02  0.28875996686E+02  0.00000000000E+00 0. -1.
</event>
<event>
 5    1  0.8962567E-005  0.9118800E+02  0.7818608E-02  0.1130116E+00
         25   -1    0    0    0    0  0.00000000000E+00  0.00000000000E+00  0.99999998245E-14  0.12500000000E+03  0.12500000000E+03 0.  0.
        -11    1    3    3    0    0 -0.38971957818E+01 -0.35214904642E+02 -0.61968452048E+01  0.35967742975E+02  0.51100000000E-03 0.  1.
         23    2    1    0    0    0  0.59483315127E+00  0.14930513345E+02  0.25488317128E+02  0.95454638854E+02  0.90767062933E+02 0.  0.
         11    1    3    3    0    0  0.44920289331E+01  0.50145417987E+02  0.31685162333E+02  0.59486895880E+02  0.51100000000E-03 0. -1.
         22    1    1    0    0    0 -0.59483315127E+00 -0.14930513345E+02 -0.25488317128E+02  0.29545361146E+02  0.00000000000E+00 0. -1.
</event>
<event>
 5    1  0.8962567E-005  0.9118800E+02  0.7818608E-02  0.1130116E+00
         25   -1    0    0    0    0  0.00000000000E+00  0.00000000000E+00  0.99999998245E-14  0.12500000000E+03  0.12500000000E+03 0.  0.
        -11    1    3    3    0    0 -0.57204243154E+01  0.43910999995E+02 -0.93078532612E+01  0.45249699529E+02  0.51100000000E-03 0. -1.
         23    2    1    0    0    0  0.18826804085E+02  0.10832400972E+02  0.19736767049E+02  0.95651585453E+02  0.91037884220E+02 0.  0.
         11    1    3    3    0    0  0.24547228400E+02 -0.33078599022E+02  0.29044620310E+02  0.50401885924E+02  0.51100000000E-03 0.  1.
         22    1    1    0    0    0 -0.18826804085E+02 -0.10832400972E+02 -0.19736767049E+02  0.29348414547E+02  0.00000000000E+00 0. -1.
</event>
<event>
 5    1  0.8962567E-005  0.9118800E+02  0.7818608E-02  0.1130116E+00
         25   -1    0    0    0    0  0.00000000000E+00  0.00000000000E+00  0.99999998245E-14  0.12500000000E+03  0.12500000000E+03 0.  0.
        -11    1    3    3    0    0 -0.29513535002E+02  0.68469266144E+01 -0.35375741666E+02  0.46576520384E+02  0.51100000000E-03 0.  1.
         23    2    1    0    0    0  0.68433471350E+01  0.26814726292E+02 -0.83105132825E+01  0.96104921230E+02  0.91658225531E+02 0.  0.
         11    1    3    3    0    0  0.36356882137E+02  0.19967799677E+02  0.27065228384E+02  0.49528400846E+02  0.51100000000E-03 0. -1.
         22    1    1    0    0    0 -0.68433471350E+01 -0.26814726292E+02  0.83105132825E+01  0.28895078770E+02  0.00000000000E+00 0.  1.
</event>
<event>
 5    1  0.8962567E-005  0.9118800E+02  0.7818608E-02  0.1130116E+00
         25   -1    0    0    0    0  0.00000000000E+00  0.00000000000E+00  0.99999998245E-14  0.12500000000E+03  0.12500000000E+03 0.  0.
        -11    1    3    3    0    0 -0.11552600181E+02 -0.12026227057E+02  0.35931147808E+02  0.39612372957E+02  0.51100000000E-03 0.  1.
         23    2    1    0    0    0  0.29316382926E+02 -0.47560508222E+01 -0.11567476131E+01  0.95277813130E+02  0.90523219577E+02 0.  0.
         11    1    3    3    0    0  0.40868983107E+02  0.72701762345E+01 -0.37087895422E+02  0.55665440174E+02  0.51100000000E-03 0. -1.
         22    1    1    0    0    0 -0.29316382926E+02  0.47560508222E+01  0.11567476131E+01  0.29722186870E+02  0.00000000000E+00 0. -1.
</event>
<event>
 5    1  0.8962567E-005  0.9118800E+02  0.7818608E-02  0.1130116E+00
         25   -1    0    0    0    0  0.00000000000E+00  0.00000000000E+00  0.99999998245E-14  0.12500000000E+03  0.12500000000E+03 0.  0.
        -11    1    3    3    0    0  0.38713459813E+02 -0.40076242185E+02 -0.14752770804E+02  0.57640969848E+02  0.51100000000E-03 0. -1.
         23    2    1    0    0    0  0.17704548564E+02 -0.89306097778E+01 -0.21435008289E+02  0.95799547757E+02  0.91240818383E+02 0.  0.
         11    1    3    3    0    0 -0.21008911250E+02  0.31145632407E+02 -0.66822374849E+01  0.38158577909E+02  0.51100000000E-03 0.  1.
         22    1    1    0    0    0 -0.17704548564E+02  0.89306097778E+01  0.21435008289E+02  0.29200452243E+02  0.00000000000E+00 0. -1.
</event>
<event>
 5    1  0.8962567E-005  0.9118800E+02  0.7818608E-02  0.1130116E+00
         25   -1    0    0    0    0  0.00000000000E+00  0.00000000000E+00  0.99999998245E-14  0.12500000000E+03  0.12500000000E+03 0.  0.
        -11    1    3    3    0    0 -0.90930843552E+01  0.13303861417E+02 -0.50060986730E+02  0.52590676972E+02  0.51100000000E-03 0.  1.
         23    2    1    0    0    0 -0.25857984636E+02 -0.11838636141E+01 -0.12372452531E+02  0.96310028161E+02  0.91937517044E+02 0.  0.
         11    1    3    3    0    0 -0.16764900281E+02 -0.14487725031E+02  0.37688534200E+02  0.43719351189E+02  0.51100000000E-03 0. -1.
         22    1    1    0    0    0  0.25857984636E+02  0.11838636141E+01  0.12372452531E+02  0.28689971839E+02  0.00000000000E+00 0. -1.
</event>
<event>
 5    1  0.8962567E-005  0.9118800E+02  0.7818608E-02  0.1130116E+00
         25   -1    0    0    0    0  0.00000000000E+00  0.00000000000E+00  0.99999998245E-14  0.12500000000E+03  0.12500000000E+03 0.  0.
        -11    1    3    3    0    0  0.25768044528E+02 -0.26699698019E+02  0.55723245255E+00  0.37110328769E+02  0.51100000000E-03 0. -1.
         23    2    1    0    0    0 -0.13920431898E+02  0.12154654142E+02 -0.21302677642E+02  0.96798614994E+02  0.92599426286E+02 0.  0.
         11    1    3    3    0    0 -0.39688476426E+02  0.38854352161E+02 -0.21859910094E+02  0.59688286225E+02  0.51100000000E-03 0.  1.
         22    1    1    0    0    0  0.13920431898E+02 -0.12154654142E+02  0.21302677642E+02  0.28201385006E+02  0.00000000000E+00 0.  1.
</event>
<event>
 5    1  0.8962567E-005  0.9118800E+02  0.7818608E-02  0.1130116E+00
         25   -1    0    0    0    0  0.00000000000E+00  0.00000000000E+00  0.99999998245E-14  0.12500000000E+03  0.12500000000E+03 0.  0.
        -11    1    3    3    0    0 -0.12742227327E+02  0.47079110940E+02  0.10505151978E+01  0.48784327674E+02  0.51100000000E-03 0. -1.
         23    2    1    0    0    0 -0.23494214330E+01  0.69315032742E+01  0.26544666940E+02  0.97464843170E+02  0.93494442575E+02 0.  0.
         11    1    3    3    0    0  0.10392805894E+02 -0.40147607666E+02  0.25494151742E+02  0.48680515496E+02  0.51100000000E-03 0.  1.
         22    1    1    0    0    0  0.23494214330E+01 -0.69315032742E+01 -0.26544666940E+02  0.27535156830E+02  0.00000000000E+00 0.  1.
</event>
<event>
 5    1  0.8962567E-005  0.9118800E+02  0.7818608E-02  0.1130116E+00
         25   -1    0    0    0    0  0.00000000000E+00  0.00000000000E+00  0.99999998245E-14  0.12500000000E+03  0.12500000000E+03 0.  0.
        -11    1    3    3    0    0 -0.79194607489E+01  0.38224596697E+02 -0.35320297510E+02  0.52643718216E+02  0.51100000000E-03 0.  1.
         23    2    1    0    0    0 -0.25506883477E+02  0.65224505583E+01 -0.10126358012E+02  0.96792082803E+02  0.92590608059E+02 0.  0.
         11    1    3    3    0    0 -0.17587422728E+02 -0.31702146139E+02  0.25193939498E+02  0.44148364587E+02  0.51100000000E-03 0. -1.
         22    1    1    0    0    0  0.25506883477E+02 -0.65224505583E+01  0.10126358012E+02  0.28207917197E+02  0.00000000000E+00 0.  1.
</event>
<event>
 5    1  0.8962567E-005  0.9118800E+02  0.7818608E-02  0.1130116E+00
         25   -1    0    0    0    0  0.00000000000E+00  0.00000000000E+00  0.99999998245E-14  0.12500000000E+03  0.12500000000E+03 0.  0.
        -11    1    3    3    0    0 -0.26364249197E+02  0.31226424539E+02  0.11014807369E+02  0.42325987370E+02  0.51100000000E-03 0.  1.
         23    2    1    0    0    0  0.14155016158E+02 -0.93239570350E+01  0.18235116002E+02  0.10010381329E+03  0.96958513405E+02 0.  0.
         11    1    3    3    0    0  0.40519265356E+02 -0.40550381574E+02  0.72203086333E+01  0.57777825917E+02  0.51100000000E-03 0. -1.
         22    1    1    0    0    0 -0.14155016158E+02  0.93239570350E+01 -0.18235116002E+02  0.24896186713E+02  0.00000000000E+00 0. -1.
</event>
<event>
 5    1  0.8962567E-005  0.9118800E+02  0.7818608E-02  0.1130116E+00
         25   -1    0    0    0    0  0.00000000000E+00  0.00000000000E+00  0.99999998245E-14  0.12500000000E+03  0.12500000000E+03 0.  0.
        -11    1    3    3    0    0 -0.52514363479E+02 -0.18905879112E+02  0.25219252491E+02  0.61247051627E+02  0.51100000000E-03 0. -1.
         23    2    1    0    0    0 -0.23842594899E+02 -0.81055607231E+00  0.15622551241E+02  0.96483505827E+02  0.92173078807E+02 0.  0.
         11    1    3    3    0    0  0.28671768580E+02  0.18095323039E+02 -0.95967012499E+01  0.35236454199E+02  0.51100000000E-03 0.  1.
         22    1    1    0    0    0  0.23842594899E+02  0.81055607231E+00 -0.15622551241E+02  0.28516494173E+02  0.00000000000E+00 0. -1.
</event>
<event>
 5    1  0.8962567E-005  0.9118800E+02  0.7818608E-02  0.1130116E+00
         25   -1    0    0    0    0  0.00000000000E+00  0.00000000000E+00  0.99999998245E-14  0.12500000000E+03  0.12500000000E+03 0.  0.
        -11    1    3    3    0    0 -0.43281455969E+02 -0.10340695067E+02  0.13716955384E+02  0.46565752121E+02  0.51100000000E-03 0.  1.
         23    2    1    0    0    0 -0.99182048604E+01  0.25682873636E+02  0.29574019360E+00  0.97466960791E+02  0.93497273745E+02 0.  0.
         11    1    3    3    0    0  0.33363251109E+02  0.36023568702E+02 -0.13421215191E+02  0.50901208670E+02  0.51100000000E-03 0. -1.
         22    1    1    0    0    0  0.99182048604E+01 -0.25682873636E+02 -0.29574019360E+00  0.27533039209E+02  0.00000000000E+00 0. -1.
</event>
<event>
 5    1  0.8962567E-005  0.9118800E+02  0.7818608E-02  0.1130116E+00
         25   -1    0    0    0    0  0.00000000000E+00  0.00000000000E+00  0.99999998245E-14  0.12500000000E+03  0.12500000000E+03 0.  0.
        -11    1    3    3    0    0  0.20457982972E+02 -0.38414616004E+02  0.25399552293E+02  0.50391954189E+02  0.51100000000E-03 0.  1.
         23    2    1    0    0    0 -0.15670125373E+02 -0.23848240423E+02  0.82014073851E+00  0.96452425124E+02  0.92130919246E+02 0.  0.
         11    1    3    3    0    0 -0.36128108345E+02  0.14566375582E+02 -0.24579411554E+02  0.46060470935E+02  0.51100000000E-03 0. -1.
         22    1    1    0    0    0  0.15670125373E+02  0.23848240423E+02 -0.82014073851E+00  0.28547574876E+02  0.00000000000E+00 0.  1.
</event>
<event>
 5    1  0.8962567E-005  0.9118800E+02  0.7818608E-02  0.1130116E+00
         25   -1    0    0    0    0  0.00000000000E+00  0.00000000000E+00  0.99999998245E-14  0.12500000000E+03  0.12500000000E+03 0.  0.
        -11    1    3    3    0    0  0.41161653423E+02  0.75623900558E+01  0.28782046641E+02  0.50792496149E+02  0.51100000000E-03 0. -1.
         23    2    1    0    0    0  0.12950634563E+02  0.26696154394E+02  0.12087681778E+00  0.95328158025E+02  0.90592712214E+02 0.  0.
         11    1    3    3    0    0 -0.28211018860E+02  0.19133764338E+02 -0.28661169824E+02  0.44535661876E+02  0.51100000000E-03 0.  1.
         22    1    1    0    0    0 -0.12950634563E+02 -0.26696154394E+02 -0.12087681778E+00  0.29671841975E+02  0.00000000000E+00 0.  1.
</event>
<event>
 5    1  0.8962567E-005  0.9118800E+02  0.7818608E-02  0.1130116E+00
         25   -1    0    0    0    0  0.00000000000E+00  0.00000000000E+00  0.99999998245E-14  0.12500000000E+03  0.12500000000E+03 0.  0.
        -11    1    3    3    0    0  0.41239782147E+02 -0.14943432958E+02  0.40948787863E+02  0.60006908334E+02  0.51100000000E-03 0.  1.
         23    2    1    0    0    0  0.25530618066E+02  0.28308344675E+01  0.14627734442E+02  0.95439947607E+02  0.90746828604E+02 0.  0.
         11    1    3    3    0    0 -0.15709164081E+02  0.17774267426E+02 -0.26321053421E+02  0.35433039273E+02  0.51100000000E-03 0. -1.
         22    1    1    0    0    0 -0.25530618066E+02 -0.28308344675E+01 -0.14627734442E+02  0.29560052393E+02  0.00000000000E+00 0.  1.
</event>
<event>
 5    1  0.8962567E-005  0.9118800E+02  0.7818608E-02  0.1130116E+00
         25   -1    0    0    0    0  0.00000000000E+00  0.00000000000E+00  0.99999998245E-14  0.12500000000E+03  0.12500000000E+03 0.  0.
        -11    1    3    3    0    0 -0.10094013908E+02 -0.24963551016E+02  0.32566218808E+02  0.42256675257E+02  0.51100000000E-03 0. -1.
         23    2    1    0    0    0 -0.25855076041E+02  0.12139450193E+02 -0.33417133976E+01  0.96242074892E+02  0.91845080016E+02 0.  0.
         11    1    3    3    0    0 -0.15761062133E+02  0.37103001209E+02 -0.35907932205E+02  0.53985399635E+02  0.51100000000E-03 0.  1.
         22    1    1    0    0    0  0.25855076041E+02 -0.12139450193E+02  0.33417133976E+01  0.28757925108E+02  0.00000000000E+00 0.  1.
</event>
<event>
 5    1  0.8962567E-005  0.9118800E+02  0.7818608E-02  0.1130116E+00
         25   -1    0    0    0    0  0.00000000000E+00  0.00000000000E+00  0.99999998245E-14  0.12500000000E+03  0.12500000000E+03 0.  0.
        -11    1    3    3    0    0 -0.13324266311E+01  0.10725857107E+02 -0.29528526034E+02  0.31444446591E+02  0.51100000000E-03 0.  1.
         23    2    1    0    0    0  0.19448361057E+02 -0.11948156512E+02  0.23178822771E+02  0.92469168211E+02  0.86558027085E+02 0.  0.
         11    1    3    3    0    0  0.20780787688E+02 -0.22674013618E+02  0.52707348805E+02  0.61024721620E+02  0.51100000000E-03 0. -1.
         22    1    1    0    0    0 -0.19448361057E+02  0.11948156512E+02 -0.23178822771E+02  0.32530831789E+02  0.00000000000E+00 0. -1.
</event>
<event>
 5    1  0.8962567E-005  0.9118800E+02  0.7818608E-02  0.1130116E+00
         25   -1    0    0    0    0  0.00000000000E+00  0.00000000000E+00  0.99999998245E-14  0.12500000000E+03  0.12500000000E+03 0.  0.
        -11    1    3    3    0    0  0.21749951552E+02 -0.16506105091E+01 -0.37637717727E+02  0.43501525301E+02  0.51100000000E-03 0. -1.
         23    2    1    0    0    0 -0.13731232275E+01 -0.29176519110E+02  0.33147814214E+00  0.95789306538E+02  0.91226786826E+02 0.  0.
         11    1    3    3    0    0 -0.23123074779E+02 -0.27525908601E+02  0.37969195869E+02  0.52287781237E+02  0.51100000000E-03 0.  1.
         22    1    1    0    0    0  0.13731232275E+01  0.29176519110E+02 -0.33147814214E+00  0.29210693462E+02  0.00000000000E+00 0.  1.
</event>
<event>
 5    1  0.8962567E-005  0.9118800E+02  0.7818608E-02  0.1130116E+00
         25   -1    0    0    0    0  0.00000000000E+00  0.00000000000E+00  0.99999998245E-14  0.12500000000E+03  0.12500000000E+03 0.  0.
        -11    1    3    3    0    0  0.44098230262E+02  0.98452530621E+01  0.41348465271E+02  0.61247681593E+02  0.51100000000E-03 0. -1.
         23    2    1    0    0    0  0.25599794286E+02  0.69627358606E+01  0.35135815734E+02  0.80973250115E+02  0.67958167490E+02 0.  0.
         11    1    3    3    0    0 -0.18498435976E+02 -0.28825172016E+01 -0.62126495365E+01  0.19725568521E+02  0.51100000000E-03 0.  1.
         22    1    1    0    0    0 -0.25599794286E+02 -0.69627358606E+01 -0.35135815734E+02  0.44026749885E+02  0.00000000000E+00 0. -1.
</event>
<event>
 5    1  0.8962567E-005  0.9118800E+02  0.7818608E-02  0.1130116E+00
         25   -1    0    0    0    0  0.00000000000E+00  0.00000000000E+00  0.99999998245E-14  0.12500000000E+03  0.12500000000E+03 0.  0.
        -11    1    3    3    0    0  0.40015956666E+02 -0.37206030265E+01 -0.19959800707E+02  0.44872188706E+02  0.51100000000E-03 0.  1.
         23    2    1    0    0    0 -0.25557760751E+01 -0.28318616570E+02 -0.75180534614E+01  0.95589165880E+02  0.90952138348E+02 0.  0.
         11    1    3    3    0    0 -0.42571732741E+02 -0.24598013543E+02  0.12441747245E+02  0.50716977174E+02  0.51100000000E-03 0. -1.
         22    1    1    0    0    0  0.25557760751E+01  0.28318616570E+02  0.75180534614E+01  0.29410834120E+02  0.00000000000E+00 0. -1.
</event>
<event>
 5    1  0.8962567E-005  0.9118800E+02  0.7818608E-02  0.1130116E+00
         25   -1    0    0    0    0  0.00000000000E+00  0.00000000000E+00  0.99999998245E-14  0.12500000000E+03  0.12500000000E+03 0.  0.
        -11    1    3    3    0    0 -0.24030795995E+02  0.16709695909E+02  0.50249307991E+02  0.58152266055E+02  0.51100000000E-03 0. -1.
         23    2    1    0    0    0 -0.10835986365E+02 -0.77633834390E+01  0.28789253886E+02  0.93274460411E+02  0.87713255000E+02 0.  0.
         11    1    3    3    0    0  0.13194809629E+02 -0.24473079348E+02 -0.21460054105E+02  0.35122194356E+02  0.51100000000E-03 0.  1.
         22    1    1    0    0    0  0.10835986365E+02  0.77633834390E+01 -0.28789253886E+02  0.31725539589E+02  0.00000000000E+00 0. -1.
</event>
<event>
 5    1  0.8962567E-005  0.9118800E+02  0.7818608E-02  0.1130116E+00
         25   -1    0    0    0    0  0.00000000000E+00  0.00000000000E+00  0.99999998245E-14  0.12500000000E+03  0.12500000000E+03 0.  0.
        -11    1    3    3    0    0  0.51900323553E+02 -0.12556073275E+02  0.21386582718E+00  0.53397980298E+02  0.51100000000E-03 0.  1.
         23    2    1    0    0    0  0.14426975059E+02 -0.99522411798E+01 -0.21870907506E+02  0.96972846934E+02  0.92834324113E+02 0.  0.
         11    1    3    3    0    0 -0.37473348494E+02  0.26038320954E+01 -0.22084773333E+02  0.43574866636E+02  0.51100000000E-03 0. -1.
         22    1    1    0    0    0 -0.14426975059E+02  0.99522411798E+01  0.21870907506E+02  0.28027153066E+02  0.00000000000E+00 0. -1.
</event>
<event>
 5    1  0.8962567E-005  0.9118800E+02  0.7818608E-02  0.1130116E+00
         25   -1    0    0    0    0  0.00000000000E+00  0.00000000000E+00  0.99999998245E-14  0.12500000000E+03  0.12500000000E+03 0.  0.
        -11    1    3    3    0    0  0.20028451680E+02 -0.33993376943E+02  0.31943496358E+02  0.50764904338E+02  0.51100000000E-03 0.  1.
         23    2    1    0    0    0  0.29035113076E+02  0.84582305971E+00  0.54615194850E+01  0.95443589476E+02  0.90751844989E+02 0.  0.
         11    1    3    3    0    0  0.90066613964E+01  0.34839200002E+02 -0.26481976873E+02  0.44678685138E+02  0.51100000000E-03 0. -1.
         22    1    1    0    0    0 -0.29035113076E+02 -0.84582305971E+00 -0.54615194850E+01  0.29556410524E+02  0.00000000000E+00 0.  1.
</event>
<event>
 5    1  0.8962567E-005  0.9118800E+02  0.7818608E-02  0.1130116E+00
         25   -1    0    0    0    0  0.00000000000E+00  0.00000000000E+00  0.99999998245E-14  0.12500000000E+03  0.12500000000E+03 0.  0.
        -11    1    3    3    0    0 -0.27928855751E+02 -0.38805206723E+02 -0.29702980349E+02  0.56286162547E+02  0.51100000000E-03 0. -1.
         23    2    1    0    0    0 -0.30111317750E+02 -0.85155781642E+01 -0.11685142985E+02  0.91597169361E+02  0.85289462070E+02 0.  0.
         11    1    3    3    0    0 -0.21824619989E+01  0.30289628559E+02  0.18017837364E+02  0.35311006814E+02  0.51100000000E-03 0.  1.
         22    1    1    0    0    0  0.30111317750E+02  0.85155781642E+01  0.11685142985E+02  0.33402830639E+02  0.00000000000E+00 0. -1.
</event>
<event>
 5    1  0.8962567E-005  0.9118800E+02  0.7818608E-02  0.1130116E+00
         25   -1    0    0    0    0  0.00000000000E+00  0.00000000000E+00  0.99999998245E-14  0.12500000000E+03  0.12500000000E+03 0.  0.
        -11    1    3    3    0    0  0.19997408845E+02  0.31869333632E+02 -0.29794558302E+02  0.47992358676E+02  0.51100000000E-03 0.  1.
         23    2    1    0    0    0  0.24515097146E+02 -0.95360372451E+01 -0.90847963424E+00  0.98679830364E+02  0.95104981946E+02 0.  0.
         11    1    3    3    0    0  0.45176883010E+01 -0.41405370877E+02  0.28886078668E+02  0.50687471688E+02  0.51100000000E-03 0. -1.
         22    1    1    0    0    0 -0.24515097146E+02  0.95360372451E+01  0.90847963424E+00  0.26320169636E+02  0.00000000000E+00 0. -1.
</event>
<event>
 5    1  0.8962567E-005  0.9118800E+02  0.7818608E-02  0.1130116E+00
         25   -1    0    0    0    0  0.00000000000E+00  0.00000000000E+00  0.99999998245E-14  0.12500000000E+03  0.12500000000E+03 0.  0.
        -11    1    3    3    0    0  0.45137480060E+01 -0.34645654310E+01  0.48346301225E+02  0.48679995656E+02  0.51100000000E-03 0.  1.
         23    2    1    0    0    0 -0.72692316807E+01 -0.26241748924E+02  0.77658432475E+01  0.96684289923E+02  0.92444970013E+02 0.  0.
         11    1    3    3    0    0 -0.11782979687E+02 -0.22777183493E+02 -0.40580457977E+02  0.48004294267E+02  0.51100000000E-03 0. -1.
         22    1    1    0    0    0  0.72692316807E+01  0.26241748924E+02 -0.77658432475E+01  0.28315710077E+02  0.00000000000E+00 0.  1.
</event>
<event>
 5    1  0.8962567E-005  0.9118800E+02  0.7818608E-02  0.1130116E+00
         25   -1    0    0    0    0  0.00000000000E+00  0.00000000000E+00  0.99999998245E-14  0.12500000000E+03  0.12500000000E+03 0.  0.
        -11    1    3    3    0    0  0.56167766427E+02 -0.66508949644E+01 -0.25961928414E+02  0.62234026999E+02  0.51100000000E-03 0.  1.
         23    2    1    0    0    0  0.23605492110E+02  0.64355985160E+00 -0.13093575342E+02  0.97998608512E+02  0.94205372076E+02 0.  0.
         11    1    3    3    0    0 -0.32562274317E+02  0.72944548160E+01  0.12868353072E+02  0.35764581513E+02  0.51100000000E-03 0. -1.
         22    1    1    0    0    0 -0.23605492110E+02 -0.64355985160E+00  0.13093575342E+02  0.27001391488E+02  0.00000000000E+00 0.  1.
</event>
<event>
 5    1  0.8962567E-005  0.9118800E+02  0.7818608E-02  0.1130116E+00
         25   -1    0    0    0    0  0.00000000000E+00  0.00000000000E+00  0.99999998245E-14  0.12500000000E+03  0.12500000000E+03 0.  0.
        -11    1    3    3    0    0 -0.43585892934E+02  0.34645734211E+02 -0.15886960970E+02  0.57900366933E+02  0.51100000000E-03 0.  1.
         23    2    1    0    0    0 -0.19727291824E+02  0.34754908306E+01 -0.19148414315E+02  0.97288867761E+02  0.93258870571E+02 0.  0.
         11    1    3    3    0    0  0.23858601110E+02 -0.31170243380E+02 -0.32614533450E+01  0.39388500828E+02  0.51100000000E-03 0. -1.
         22    1    1    0    0    0  0.19727291824E+02 -0.34754908306E+01  0.19148414315E+02  0.27711132239E+02  0.00000000000E+00 0.  1.
</event>
<event>
 5    1  0.8962567E-005  0.9118800E+02  0.7818608E-02  0.1130116E+00
         25   -1    0    0    0    0  0.00000000000E+00  0.00000000000E+00  0.99999998245E-14  0.12500000000E+03  0.12500000000E+03 0.  0.
        -11    1    3    3    0    0  0.36080000678E+02  0.24376191837E+02  0.33204842692E+02  0.54758805282E+02  0.51100000000E-03 0. -1.
         23    2    1    0    0    0  0.20985902957E+02  0.20992246112E+02 -0.39975287176E+01  0.95048994080E+02  0.90206698865E+02 0.  0.
         11    1    3    3    0    0 -0.15094097721E+02 -0.33839457252E+01 -0.37202371409E+02  0.40290188799E+02  0.51100000000E-03 0.  1.
         22    1    1    0    0    0 -0.20985902957E+02 -0.20992246112E+02  0.39975287176E+01  0.29951005920E+02  0.00000000000E+00 0.  1.
</event>
<event>
 5    1  0.8962567E-005  0.9118800E+02  0.7818608E-02  0.1130116E+00
         25   -1    0    0    0    0  0.00000000000E+00  0.00000000000E+00  0.99999998245E-14  0.12500000000E+03  0.12500000000E+03 0.  0.
        -11    1    3    3    0    0 -0.25995443412E+02 -0.41988231512E+02  0.10713122420E+02  0.50532619722E+02  0.51100000000E-03 0.  1.
         23    2    1    0    0    0 -0.21091732963E+02  0.12625005254E+01  0.20946820454E+02  0.95247279215E+02  0.90481046655E+02 0.  0.
         11    1    3    3    0    0  0.49037104489E+01  0.43250732038E+02  0.10233698034E+02  0.44714659494E+02  0.51100000000E-03 0. -1.
         22    1    1    0    0    0  0.21091732963E+02 -0.12625005254E+01 -0.20946820454E+02  0.29752720785E+02  0.00000000000E+00 0.  1.
</event>
<event>
 5    1  0.8962567E-005  0.9118800E+02  0.7818608E-02  0.1130116E+00
         25   -1    0    0    0    0  0.00000000000E+00  0.00000000000E+00  0.99999998245E-14  0.12500000000E+03  0.12500000000E+03 0.  0.
        -11    1    3    3    0    0  0.99839912088E+01 -0.88837949990E+01 -0.31203776746E+02  0.33945214354E+02  0.51100000000E-03 0.  1.
         23    2    1    0    0    0  0.20896579596E+01  0.10175282577E+02  0.27199310683E+02  0.95884616652E+02  0.91357288504E+02 0.  0.
         11    1    3    3    0    0 -0.78943332492E+01  0.19059077576E+02  0.58403087429E+02  0.61939402298E+02  0.51100000000E-03 0. -1.
         22    1    1    0    0    0 -0.20896579596E+01 -0.10175282577E+02 -0.27199310683E+02  0.29115383348E+02  0.00000000000E+00 0. -1.
</event>
<event>
 5    1  0.8962567E-005  0.9118800E+02  0.7818608E-02  0.1130116E+00
         25   -1    0    0    0    0  0.00000000000E+00  0.00000000000E+00  0.99999998245E-14  0.12500000000E+03  0.12500000000E+03 0.  0.
        -11    1    3    3    0    0  0.45510840794E+02  0.12080457433E+02 -0.31470065741E+02  0.56635140324E+02  0.51100000000E-03 0. -1.
         23    2    1    0    0    0  0.28132379283E+02 -0.76566367148E+01 -0.25361232197E+01  0.95734204762E+02  0.91151254465E+02 0.  0.
         11    1    3    3    0    0 -0.17378461510E+02 -0.19737094148E+02  0.28933942521E+02  0.39099064438E+02  0.51100000000E-03 0.  1.
         22    1    1    0    0    0 -0.28132379283E+02  0.76566367148E+01  0.25361232197E+01  0.29265795238E+02  0.00000000000E+00 0. -1.
</event>
<event>
 5    1  0.8962567E-005  0.9118800E+02  0.7818608E-02  0.1130116E+00
         25   -1    0    0    0    0  0.00000000000E+00  0.00000000000E+00  0.99999998245E-14  0.12500000000E+03  0.12500000000E+03 0.  0.
        -11    1    3    3    0    0  0.42446610236E+02 -0.22262362702E+02  0.20203935784E+02  0.52014676150E+02  0.51100000000E-03 0. -1.
         23    2    1    0    0    0  0.26287615825E+02  0.89494585836E+01 -0.68858456695E+01  0.96389749647E+02  0.92045844076E+02 0.  0.
         11    1    3    3    0    0 -0.16158994411E+02  0.31211821286E+02 -0.27089781454E+02  0.44375073497E+02  0.51100000000E-03 0.  1.
         22    1    1    0    0    0 -0.26287615825E+02 -0.89494585836E+01  0.68858456695E+01  0.28610250353E+02  0.00000000000E+00 0.  1.
</event>
<event>
 5    1  0.8962567E-005  0.9118800E+02  0.7818608E-02  0.1130116E+00
         25   -1    0    0    0    0  0.00000000000E+00  0.00000000000E+00  0.99999998245E-14  0.12500000000E+03  0.12500000000E+03 0.  0.
        -11    1    3    3    0    0  0.17181780024E+02 -0.24286102564E+02 -0.27685210881E+02  0.40638642255E+02  0.51100000000E-03 0. -1.
         23    2    1    0    0    0 -0.28609881712E+02 -0.33469600668E+01 -0.54392295035E+01  0.95685964268E+02  0.91085075985E+02 0.  0.
         11    1    3    3    0    0 -0.45791661737E+02  0.20939142497E+02  0.22245981378E+02  0.55047322013E+02  0.51100000000E-03 0.  1.
         22    1    1    0    0    0  0.28609881712E+02  0.33469600668E+01  0.54392295035E+01  0.29314035732E+02  0.00000000000E+00 0.  1.
</event>
<event>
 5    1  0.8962567E-005  0.9118800E+02  0.7818608E-02  0.1130116E+00
         25   -1    0    0    0    0  0.00000000000E+00  0.00000000000E+00  0.99999998245E-14  0.12500000000E+03  0.12500000000E+03 0.  0.
        -11    1    3    3    0    0  0.12953110692E+02  0.98265560084E+01 -0.32059448606E+02  0.35946523125E+02  0.51100000000E-03 0. -1.
         23    2    1    0    0    0 -0.12356754606E+02  0.19371049875E+02  0.19950826265E+02  0.94570369271E+02  0.89541009140E+02 0.  0.
         11    1    3    3    0    0 -0.25309865298E+02  0.95444938664E+01  0.52010274871E+02  0.58623846146E+02  0.51100000000E-03 0.  1.
         22    1    1    0    0    0  0.12356754606E+02 -0.19371049875E+02 -0.19950826265E+02  0.30429630729E+02  0.00000000000E+00 0.  1.
</event>
<event>
 5    1  0.8962567E-005  0.9118800E+02  0.7818608E-02  0.1130116E+00
         25   -1    0    0    0    0  0.00000000000E+00  0.00000000000E+00  0.99999998245E-14  0.12500000000E+03  0.12500000000E+03 0.  0.
        -11    1    3    3    0    0  0.39254704892E+02  0.22584262796E+02 -0.45609413296E+01  0.45516842688E+02  0.51100000000E-03 0.  1.
         23    2    1    0    0    0  0.18116730809E+02 -0.22740042452E+02  0.14590774562E+01  0.95888930405E+02  0.91363190626E+02 0.  0.
         11    1    3    3    0    0 -0.21137974083E+02 -0.45324305248E+02  0.60200187858E+01  0.50372087717E+02  0.51100000000E-03 0. -1.
         22    1    1    0    0    0 -0.18116730809E+02  0.22740042452E+02 -0.14590774562E+01  0.29111069595E+02  0.00000000000E+00 0. -1.
</event>
<event>
 5    1  0.8962567E-005  0.9118800E+02  0.7818608E-02  0.1130116E+00
         25   -1    0    0    0    0  0.00000000000E+00  0.00000000000E+00  0.99999998245E-14  0.12500000000E+03  0.12500000000E+03 0.  0.
        -11    1    3    3    0    0 -0.11831251185E+02 -0.12509148555E+02  0.29354625688E+02  0.34031622820E+02  0.51100000000E-03 0. -1.
         23    2    1    0    0    0  0.85314734387E+00  0.16888392849E+02 -0.23632469036E+02  0.95940762809E+02  0.91434078451E+02 0.  0.
         11    1    3    3    0    0  0.12684398529E+02  0.29397541404E+02 -0.52987094724E+02  0.61909139989E+02  0.51100000000E-03 0.  1.
         22    1    1    0    0    0 -0.85314734387E+00 -0.16888392849E+02  0.23632469036E+02  0.29059237191E+02  0.00000000000E+00 0.  1.
</event>
<event>
 5    1  0.8962567E-005  0.9118800E+02  0.7818608E-02  0.1130116E+00
         25   -1    0    0    0    0  0.00000000000E+00  0.00000000000E+00  0.99999998245E-14  0.12500000000E+03  0.12500000000E+03 0.  0.
        -11    1    3    3    0    0 -0.21544966077E+02 -0.32134487219E+02 -0.24034300501E+01  0.38763221078E+02  0.51100000000E-03 0. -1.
         23    2    1    0    0    0  0.21011899908E+02 -0.62521263055E+00  0.19744150786E+02  0.96160403629E+02  0.91733859110E+02 0.  0.
         11    1    3    3    0    0  0.42556865985E+02  0.31509274589E+02  0.22147580836E+02  0.57397182551E+02  0.51100000000E-03 0.  1.
         22    1    1    0    0    0 -0.21011899908E+02  0.62521263055E+00 -0.19744150786E+02  0.28839596371E+02  0.00000000000E+00 0.  1.
</event>
<event>
 5    1  0.8962567E-005  0.9118800E+02  0.7818608E-02  0.1130116E+00
         25   -1    0    0    0    0  0.00000000000E+00  0.00000000000E+00  0.99999998245E-14  0.12500000000E+03  0.12500000000E+03 0.  0.
        -11    1    3    3    0    0  0.26868326245E+02 -0.14426227356E+02 -0.15344412801E+02  0.34139039169E+02  0.51100000000E-03 0.  1.
         23    2    1    0    0    0 -0.12581210077E+02  0.18357832042E+02  0.18890661071E+02  0.95808324474E+02  0.91252841701E+02 0.  0.
         11    1    3    3    0    0 -0.39449536322E+02  0.32784059398E+02  0.34235073872E+02  0.61669285305E+02  0.51100000000E-03 0. -1.
         22    1    1    0    0    0  0.12581210077E+02 -0.18357832042E+02 -0.18890661071E+02  0.29191675526E+02  0.00000000000E+00 0. -1.
</event>
<event>
 5    1  0.8962567E-005  0.9118800E+02  0.7818608E-02  0.1130116E+00
         25   -1    0    0    0    0  0.00000000000E+00  0.00000000000E+00  0.99999998245E-14  0.12500000000E+03  0.12500000000E+03 0.  0.
        -11    1    3    3    0    0 -0.40026611747E+02  0.64667284008E+01 -0.60273760701E+01  0.40991187915E+02  0.51100000000E-03 0.  1.
         23    2    1    0    0    0  0.13476537017E+01 -0.65461767329E+00  0.29179346108E+02  0.95782215448E+02  0.91217070015E+02 0.  0.
         11    1    3    3    0    0  0.41374265449E+02 -0.71213460741E+01  0.35206722178E+02  0.54791027533E+02  0.51100000000E-03 0. -1.
         22    1    1    0    0    0 -0.13476537017E+01  0.65461767329E+00 -0.29179346108E+02  0.29217784552E+02  0.00000000000E+00 0. -1.
</event>
<event>
 5    1  0.8962567E-005  0.9118800E+02  0.7818608E-02  0.1130116E+00
         25   -1    0    0    0    0  0.00000000000E+00  0.00000000000E+00  0.99999998245E-14  0.12500000000E+03  0.12500000000E+03 0.  0.
        -11    1    3    3    0    0  0.13455243977E+02  0.14853675100E+02 -0.18856480885E+02  0.27518032744E+02  0.51100000000E-03 0. -1.
         23    2    1    0    0    0 -0.38184371156E+02 -0.77068963772E+01 -0.37186989699E+01  0.85868539838E+02  0.76433860033E+02 0.  0.
         11    1    3    3    0    0 -0.51639615134E+02 -0.22560571478E+02  0.15137781915E+02  0.58350507094E+02  0.51100000000E-03 0.  1.
         22    1    1    0    0    0  0.38184371156E+02  0.77068963772E+01  0.37186989699E+01  0.39131460162E+02  0.00000000000E+00 0.  1.
</event>
<event>
 5    1  0.8962567E-005  0.9118800E+02  0.7818608E-02  0.1130116E+00
         25   -1    0    0    0    0  0.00000000000E+00  0.00000000000E+00  0.99999998245E-14  0.12500000000E+03  0.12500000000E+03 0.  0.
        -11    1    3    3    0    0 -0.60349327074E+00 -0.45841415297E+02  0.14379631952E+02  0.48047615715E+02  0.51100000000E-03 0. -1.
         23    2    1    0    0    0 -0.18258510480E+02 -0.13697043399E+02 -0.17180587379E+02  0.96431577126E+02  0.92102629070E+02 0.  0.
         11    1    3    3    0    0 -0.17655017210E+02  0.32144371898E+02 -0.31560219331E+02  0.48383961411E+02  0.51100000000E-03 0.  1.
         22    1    1    0    0    0  0.18258510480E+02  0.13697043399E+02  0.17180587379E+02  0.28568422874E+02  0.00000000000E+00 0. -1.
</event>
<event>
 5    1  0.8962567E-005  0.9118800E+02  0.7818608E-02  0.1130116E+00
         25   -1    0    0    0    0  0.00000000000E+00  0.00000000000E+00  0.99999998245E-14  0.12500000000E+03  0.12500000000E+03 0.  0.
        -11    1    3    3    0    0 -0.43225999238E+01  0.52332055572E+02  0.57838328477E+01  0.52827849030E+02  0.51100000000E-03 0.  1.
         23    2    1    0    0    0 -0.18377636579E+01  0.46411505065E+01  0.21363913298E+02  0.10306066444E+03  0.10069839180E+03 0.  0.
         11    1    3    3    0    0  0.24848362658E+01 -0.47690905065E+02  0.15580080450E+02  0.50232815413E+02  0.51100000000E-03 0. -1.
         22    1    1    0    0    0  0.18377636579E+01 -0.46411505065E+01 -0.21363913298E+02  0.21939335557E+02  0.00000000000E+00 0.  1.
</event>
<event>
 5    1  0.8962567E-005  0.9118800E+02  0.7818608E-02  0.1130116E+00
         25   -1    0    0    0    0  0.00000000000E+00  0.00000000000E+00  0.99999998245E-14  0.12500000000E+03  0.12500000000E+03 0.  0.
        -11    1    3    3    0    0 -0.32514540572E+01 -0.54534182669E+02  0.87531502668E+00  0.54638038119E+02  0.51100000000E-03 0.  1.
         23    2    1    0    0    0  0.15722163372E+02 -0.26236815697E+02  0.14272440209E+02  0.91247082074E+02  0.84774822433E+02 0.  0.
         11    1    3    3    0    0  0.18973617429E+02  0.28297366972E+02  0.13397125183E+02  0.36609043955E+02  0.51100000000E-03 0. -1.
         22    1    1    0    0    0 -0.15722163372E+02  0.26236815697E+02 -0.14272440209E+02  0.33752917926E+02  0.00000000000E+00 0.  1.
</event>
<event>
 5    1  0.8962567E-005  0.9118800E+02  0.7818608E-02  0.1130116E+00
         25   -1    0    0    0    0  0.00000000000E+00  0.00000000000E+00  0.99999998245E-14  0.12500000000E+03  0.12500000000E+03 0.  0.
        -11    1    3    3    0    0  0.51181261437E+01 -0.46984446789E+01  0.32237781664E+02  0.32977949671E+02  0.51100000000E-03 0. -1.
         23    2    1    0    0    0 -0.77090581315E+01 -0.14700426620E+02 -0.26391849114E+02  0.93822094045E+02  0.88490245289E+02 0.  0.
         11    1    3    3    0    0 -0.12827184275E+02 -0.10001981942E+02 -0.58629630778E+02  0.60844144374E+02  0.51100000000E-03 0.  1.
         22    1    1    0    0    0  0.77090581315E+01  0.14700426620E+02  0.26391849114E+02  0.31177905955E+02  0.00000000000E+00 0.  1.
</event>
<event>
 5    1  0.8962567E-005  0.9118800E+02  0.7818608E-02  0.1130116E+00
         25   -1    0    0    0    0  0.00000000000E+00  0.00000000000E+00  0.99999998245E-14  0.12500000000E+03  0.12500000000E+03 0.  0.
        -11    1    3    3    0    0 -0.15679929828E+02 -0.16640063869E+02  0.26307993748E+02  0.34854877138E+02  0.51100000000E-03 0.  1.
         23    2    1    0    0    0  0.19433548546E+02  0.68420354338E+01 -0.19123175384E+02  0.96890000094E+02  0.92722705005E+02 0.  0.
         11    1    3    3    0    0  0.35113478374E+02  0.23482099303E+02 -0.45431169132E+02  0.62035122956E+02  0.51100000000E-03 0. -1.
         22    1    1    0    0    0 -0.19433548546E+02 -0.68420354338E+01  0.19123175384E+02  0.28109999906E+02  0.00000000000E+00 0. -1.
</event>
<event>
 5    1  0.8962567E-005  0.9118800E+02  0.7818608E-02  0.1130116E+00
         25   -1    0    0    0    0  0.00000000000E+00  0.00000000000E+00  0.99999998245E-14  0.12500000000E+03  0.12500000000E+03 0.  0.
        -11    1    3    3    0    0 -0.19972776118E+02  0.12170405938E+02 -0.48970579627E+02  0.54269219967E+02  0.51100000000E-03 0.  1.
         23    2    1    0    0    0  0.78538513699E+01  0.20500864213E+02 -0.19771105298E+02  0.95455710881E+02  0.90768539265E+02 0.  0.
         11    1    3    3    0    0  0.27826627488E+02  0.83304582758E+01  0.29199474329E+02  0.41186490914E+02  0.51100000000E-03 0. -1.
         22    1    1    0    0    0 -0.78538513699E+01 -0.20500864213E+02  0.19771105298E+02  0.29544289119E+02  0.00000000000E+00 0.  1.
</event>
<event>
 5    1  0.8962567E-005  0.9118800E+02  0.7818608E-02  0.1130116E+00
         25   -1    0    0    0    0  0.00000000000E+00  0.00000000000E+00  0.99999998245E-14  0.12500000000E+03  0.12500000000E+03 0.  0.
        -11    1    3    3    0    0 -0.47484059809E+02 -0.83424840456E+01 -0.20932945724E+02  0.52559691713E+02  0.51100000000E-03 0.  1.
         23    2    1    0    0    0 -0.22444856049E+02 -0.96660674055E+01  0.14962497323E+02  0.96345493403E+02  0.91985723625E+02 0.  0.
         11    1    3    3    0    0  0.25039203760E+02 -0.13235833599E+01  0.35895443048E+02  0.43785801691E+02  0.51100000000E-03 0. -1.
         22    1    1    0    0    0  0.22444856049E+02  0.96660674055E+01 -0.14962497323E+02  0.28654506597E+02  0.00000000000E+00 0.  1.
</event>
<event>
 5    1  0.8962567E-005  0.9118800E+02  0.7818608E-02  0.1130116E+00
         25   -1    0    0    0    0  0.00000000000E+00  0.00000000000E+00  0.99999998245E-14  0.12500000000E+03  0.12500000000E+03 0.  0.
        -11    1    3    3    0    0  0.13677908561E+02  0.83911091062E+01 -0.43481723053E+02  0.46348205301E+02  0.51100000000E-03 0.  1.
         23    2    1    0    0    0  0.27625592103E+02 -0.51244938237E+01  0.30184991638E+01  0.96741459465E+02  0.92522239846E+02 0.  0.
         11    1    3    3    0    0  0.13947683542E+02 -0.13515602930E+02  0.46500222217E+02  0.50393254164E+02  0.51100000000E-03 0. -1.
         22    1    1    0    0    0 -0.27625592103E+02  0.51244938237E+01 -0.30184991638E+01  0.28258540535E+02  0.00000000000E+00 0. -1.
</event>
<event>
 5    1  0.8962567E-005  0.9118800E+02  0.7818608E-02  0.1130116E+00
         25   -1    0    0    0    0  0.00000000000E+00  0.00000000000E+00  0.99999998245E-14  0.12500000000E+03  0.12500000000E+03 0.  0.
        -11    1    3    3    0    0  0.39570921617E+02 -0.81385634466E+00 -0.37183365018E+02  0.54305826889E+02  0.51100000000E-03 0.  1.
         23    2    1    0    0    0 -0.67125251790E+00 -0.10548184666E+02 -0.25608325728E+02  0.97296189319E+02  0.93268683542E+02 0.  0.
         11    1    3    3    0    0 -0.40242174135E+02 -0.97343283210E+01  0.11575039290E+02  0.42990362430E+02  0.51100000000E-03 0. -1.
         22    1    1    0    0    0  0.67125251790E+00  0.10548184666E+02  0.25608325728E+02  0.27703810681E+02  0.00000000000E+00 0.  1.
</event>
<event>
 5    1  0.8962567E-005  0.9118800E+02  0.7818608E-02  0.1130116E+00
         25   -1    0    0    0    0  0.00000000000E+00  0.00000000000E+00  0.99999998245E-14  0.12500000000E+03  0.12500000000E+03 0.  0.
        -11    1    3    3    0    0 -0.24705142732E+02 -0.20945084897E+02  0.16203067113E+02  0.36215743026E+02  0.51100000000E-03 0.  1.
         23    2    1    0    0    0 -0.10609234649E+02  0.19565992568E+02 -0.22036148371E+02  0.93679467437E+02  0.88288543193E+02 0.  0.
         11    1    3    3    0    0  0.14095908083E+02  0.40511077466E+02 -0.38239215484E+02  0.57463724411E+02  0.51100000000E-03 0. -1.
         22    1    1    0    0    0  0.10609234649E+02 -0.19565992568E+02  0.22036148371E+02  0.31320532563E+02  0.00000000000E+00 0. -1.
</event>
<event>
 5    1  0.8962567E-005  0.9118800E+02  0.7818608E-02  0.1130116E+00
         25   -1    0    0    0    0  0.00000000000E+00  0.00000000000E+00  0.99999998245E-14  0.12500000000E+03  0.12500000000E+03 0.  0.
        -11    1    3    3    0    0  0.22546681246E+02 -0.20923294301E+02  0.14989875377E+02  0.34217443559E+02  0.51100000000E-03 0.  1.
         23    2    1    0    0    0 -0.26329851341E+02  0.10134601692E+02 -0.66081886829E+01  0.96023468449E+02  0.91547075935E+02 0.  0.
         11    1    3    3    0    0 -0.48876532587E+02  0.31057895993E+02 -0.21598064060E+02  0.61806024890E+02  0.51100000000E-03 0. -1.
         22    1    1    0    0    0  0.26329851341E+02 -0.10134601692E+02  0.66081886829E+01  0.28976531551E+02  0.00000000000E+00 0. -1.
</event>
<event>
 5    1  0.8962567E-005  0.9118800E+02  0.7818608E-02  0.1130116E+00
         25   -1    0    0    0    0  0.00000000000E+00  0.00000000000E+00  0.99999998245E-14  0.12500000000E+03  0.12500000000E+03 0.  0.
        -11    1    3    3    0    0 -0.10617303010E+02  0.53180459869E+02 -0.30108658935E+01  0.54313476677E+02  0.51100000000E-03 0. -1.
         23    2    1    0    0    0 -0.24994013766E+02  0.13495101328E+02 -0.17524083118E+01  0.96541443837E+02  0.92251617651E+02 0.  0.
         11    1    3    3    0    0 -0.14376710756E+02 -0.39685358541E+02  0.12584575817E+01  0.42227967159E+02  0.51100000000E-03 0.  1.
         22    1    1    0    0    0  0.24994013766E+02 -0.13495101328E+02  0.17524083118E+01  0.28458556163E+02  0.00000000000E+00 0. -1.
</event>
<event>
 5    1  0.8962567E-005  0.9118800E+02  0.7818608E-02  0.1130116E+00
         25   -1    0    0    0    0  0.00000000000E+00  0.00000000000E+00  0.99999998245E-14  0.12500000000E+03  0.12500000000E+03 0.  0.
        -11    1    3    3    0    0  0.50302350424E+02  0.18085823876E+02  0.25676402833E+02  0.59301780295E+02  0.51100000000E-03 0.  1.
         23    2    1    0    0    0  0.16009295006E+02  0.20555907760E+02  0.12200814483E+02  0.96230176495E+02  0.91828885019E+02 0.  0.
         11    1    3    3    0    0 -0.34293055418E+02  0.24700838847E+01 -0.13475588350E+02  0.36928396200E+02  0.51100000000E-03 0. -1.
         22    1    1    0    0    0 -0.16009295006E+02 -0.20555907760E+02 -0.12200814483E+02  0.28769823505E+02  0.00000000000E+00 0.  1.
</event>
<event>
 5    1  0.8962567E-005  0.9118800E+02  0.7818608E-02  0.1130116E+00
         25   -1    0    0    0    0  0.00000000000E+00  0.00000000000E+00  0.99999998245E-14  0.12500000000E+03  0.12500000000E+03 0.  0.
        -11    1    3    3    0    0 -0.10975495080E+02 -0.29313707806E+02  0.79794107379E+01  0.32302104476E+02  0.51100000000E-03 0. -1.
         23    2    1    0    0    0 -0.16346744710E+02  0.28202935072E+02  0.12131177519E+02  0.90218006422E+02  0.83243628017E+02 0.  0.
         11    1    3    3    0    0 -0.53712496305E+01  0.57516642878E+02  0.41517667812E+01  0.57915901946E+02  0.51100000000E-03 0.  1.
         22    1    1    0    0    0  0.16346744710E+02 -0.28202935072E+02 -0.12131177519E+02  0.34781993578E+02  0.00000000000E+00 0.  1.
</event>
<event>
 5    1  0.8962567E-005  0.9118800E+02  0.7818608E-02  0.1130116E+00
         25   -1    0    0    0    0  0.00000000000E+00  0.00000000000E+00  0.99999998245E-14  0.12500000000E+03  0.12500000000E+03 0.  0.
        -11    1    3    3    0    0  0.29587426245E+01 -0.37381168674E+01  0.35032763984E+02  0.35355653413E+02  0.51100000000E-03 0.  1.
         23    2    1    0    0    0  0.89517712954E+00  0.10166012313E+02 -0.25518211135E+02  0.97516764237E+02  0.93563834142E+02 0.  0.
         11    1    3    3    0    0 -0.20635654950E+01  0.13904129181E+02 -0.60550975119E+02  0.62161110825E+02  0.51100000000E-03 0. -1.
         22    1    1    0    0    0 -0.89517712954E+00 -0.10166012313E+02  0.25518211135E+02  0.27483235763E+02  0.00000000000E+00 0. -1.
</event>
<event>
 5    1  0.8962567E-005  0.9118800E+02  0.7818608E-02  0.1130116E+00
         25   -1    0    0    0    0  0.00000000000E+00  0.00000000000E+00  0.99999998245E-14  0.12500000000E+03  0.12500000000E+03 0.  0.
        -11    1    3    3    0    0  0.26599625954E+01 -0.45801530256E+02  0.26147031172E+02  0.52806465647E+02  0.51100000000E-03 0.  1.
         23    2    1    0    0    0 -0.22842057259E+02 -0.15456051163E+02  0.90689934475E+01  0.95967333234E+02  0.91470395804E+02 0.  0.
         11    1    3    3    0    0 -0.25502019855E+02  0.30345479093E+02 -0.17078037724E+02  0.43160867587E+02  0.51100000000E-03 0. -1.
         22    1    1    0    0    0  0.22842057259E+02  0.15456051163E+02 -0.90689934475E+01  0.29032666766E+02  0.00000000000E+00 0.  1.
</event>
<event>
 4    1  0.8962567E-005  0.9118800E+02  0.7818608E-02  0.1130116E+00
         25   -1    0    0    0    0  0.00000000000E+00  0.00000000000E+00  0.99999998245E-14  0.12500000000E+03  0.12500000000E+03 0.  0.
        -11    1    1    0    0    0 -0.36993377585E+02  0.51036205076E+01  0.27935102540E+01  0.37448105789E+02  0.51100000000E-03 0. -1.
         11    1    1    0    0    0 -0.20822630525E+02 -0.18581099640E+02 -0.38783339806E+01  0.28175888283E+02  0.51100000000E-03 0.  1.
         22    1    1    0    0    0  0.57816008109E+02  0.13477479132E+02  0.10848237266E+01  0.59376005928E+02  0.00000000000E+00 0.  1.
</event>
<event>
 5    1  0.8962567E-005  0.9118800E+02  0.7818608E-02  0.1130116E+00
         25   -1    0    0    0    0  0.00000000000E+00  0.00000000000E+00  0.99999998245E-14  0.12500000000E+03  0.12500000000E+03 0.  0.
        -11    1    3    3    0    0 -0.43403869351E+02  0.31026510267E+02 -0.21491458433E+02  0.57518892546E+02  0.51100000000E-03 0.  1.
         23    2    1    0    0    0 -0.23516785170E+02  0.83718602587E+01  0.70801709537E+01  0.99052821932E+02  0.95593961541E+02 0.  0.
         11    1    3    3    0    0  0.19887084180E+02 -0.22654650008E+02  0.28571629386E+02  0.41533929386E+02  0.51100000000E-03 0. -1.
         22    1    1    0    0    0  0.23516785170E+02 -0.83718602587E+01 -0.70801709537E+01  0.25947178068E+02  0.00000000000E+00 0.  1.
</event>
<event>
 5    1  0.8962567E-005  0.9118800E+02  0.7818608E-02  0.1130116E+00
         25   -1    0    0    0    0  0.00000000000E+00  0.00000000000E+00  0.99999998245E-14  0.12500000000E+03  0.12500000000E+03 0.  0.
        -11    1    3    3    0    0  0.40875368214E+01 -0.22716693632E+02 -0.32492614259E+02  0.39856318301E+02  0.51100000000E-03 0. -1.
         23    2    1    0    0    0  0.27432718994E+02  0.11651980344E+02  0.37118677516E+01  0.94965009081E+02  0.90090245144E+02 0.  0.
         11    1    3    3    0    0  0.23345182172E+02  0.34368673976E+02  0.36204482011E+02  0.55108690780E+02  0.51100000000E-03 0.  1.
         22    1    1    0    0    0 -0.27432718994E+02 -0.11651980344E+02 -0.37118677516E+01  0.30034990919E+02  0.00000000000E+00 0.  1.
</event>
<event>
 5    1  0.8962567E-005  0.9118800E+02  0.7818608E-02  0.1130116E+00
         25   -1    0    0    0    0  0.00000000000E+00  0.00000000000E+00  0.99999998245E-14  0.12500000000E+03  0.12500000000E+03 0.  0.
        -11    1    3    3    0    0  0.28618038827E+02 -0.47464779095E+02 -0.27992494187E+02  0.62092488530E+02  0.51100000000E-03 0.  1.
         23    2    1    0    0    0  0.95892780678E+01 -0.23800703184E+02 -0.16120431709E+02  0.94696600118E+02  0.89717055399E+02 0.  0.
         11    1    3    3    0    0 -0.19028760759E+02  0.23664075910E+02  0.11872062477E+02  0.32604111588E+02  0.51100000000E-03 0. -1.
         22    1    1    0    0    0 -0.95892780678E+01  0.23800703184E+02  0.16120431709E+02  0.30303399882E+02  0.00000000000E+00 0.  1.
</event>
<event>
 5    1  0.8962567E-005  0.9118800E+02  0.7818608E-02  0.1130116E+00
         25   -1    0    0    0    0  0.00000000000E+00  0.00000000000E+00  0.99999998245E-14  0.12500000000E+03  0.12500000000E+03 0.  0.
        -11    1    3    3    0    0  0.12749547479E+02  0.15704133717E+02  0.33897044066E+02  0.39473793501E+02  0.51100000000E-03 0.  1.
         23    2    1    0    0    0 -0.28980850379E+02 -0.80013597844E+01  0.17618527479E+02  0.90152848644E+02  0.83145728459E+02 0.  0.
         11    1    3    3    0    0 -0.41730397858E+02 -0.23705493502E+02 -0.16278516587E+02  0.50679055142E+02  0.51100000000E-03 0. -1.
         22    1    1    0    0    0  0.28980850379E+02  0.80013597844E+01 -0.17618527479E+02  0.34847151356E+02  0.00000000000E+00 0. -1.
</event>
<event>
 5    1  0.8962567E-005  0.9118800E+02  0.7818608E-02  0.1130116E+00
         25   -1    0    0    0    0  0.00000000000E+00  0.00000000000E+00  0.99999998245E-14  0.12500000000E+03  0.12500000000E+03 0.  0.
        -11    1    3    3    0    0  0.28063353715E+02 -0.14438589393E+02  0.29495364420E+02  0.43197236114E+02  0.51100000000E-03 0.  1.
         23    2    1    0    0    0  0.61445589547E+01  0.27077464142E+02  0.30844125130E+01  0.97063316775E+02  0.92956060554E+02 0.  0.
         11    1    3    3    0    0 -0.21918794761E+02  0.41516053534E+02 -0.26410951907E+02  0.53866080660E+02  0.51100000000E-03 0. -1.
         22    1    1    0    0    0 -0.61445589547E+01 -0.27077464142E+02 -0.30844125130E+01  0.27936683225E+02  0.00000000000E+00 0. -1.
</event>
<event>
 5    1  0.8962567E-005  0.9118800E+02  0.7818608E-02  0.1130116E+00
         25   -1    0    0    0    0  0.00000000000E+00  0.00000000000E+00  0.99999998245E-14  0.12500000000E+03  0.12500000000E+03 0.  0.
        -11    1    3    3    0    0 -0.23826990908E+02  0.89697146618E+01  0.32414620454E+02  0.41217579942E+02  0.51100000000E-03 0. -1.
         23    2    1    0    0    0  0.21100718918E+02  0.19560441795E+02  0.27287349482E+01  0.96098491104E+02  0.91649455950E+02 0.  0.
         11    1    3    3    0    0  0.44927709826E+02  0.10590727133E+02 -0.29685885506E+02  0.54880911162E+02  0.51100000000E-03 0.  1.
         22    1    1    0    0    0 -0.21100718918E+02 -0.19560441795E+02 -0.27287349482E+01  0.28901508896E+02  0.00000000000E+00 0.  1.
</event>
<event>
 5    1  0.8962567E-005  0.9118800E+02  0.7818608E-02  0.1130116E+00
         25   -1    0    0    0    0  0.00000000000E+00  0.00000000000E+00  0.99999998245E-14  0.12500000000E+03  0.12500000000E+03 0.  0.
        -11    1    3    3    0    0 -0.10157864608E+02 -0.35831339802E+02 -0.86477666070E+01  0.38234160026E+02  0.51100000000E-03 0. -1.
         23    2    1    0    0    0 -0.26960051516E+00  0.62558920882E+01  0.28859070223E+02  0.95469425939E+02  0.90787424706E+02 0.  0.
         11    1    3    3    0    0  0.98882640924E+01  0.42087231890E+02  0.37506836830E+02  0.57235265913E+02  0.51100000000E-03 0.  1.
         22    1    1    0    0    0  0.26960051516E+00 -0.62558920882E+01 -0.28859070223E+02  0.29530574061E+02  0.00000000000E+00 0.  1.
</event>
<event>
 5    1  0.8962567E-005  0.9118800E+02  0.7818608E-02  0.1130116E+00
         25   -1    0    0    0    0  0.00000000000E+00  0.00000000000E+00  0.99999998245E-14  0.12500000000E+03  0.12500000000E+03 0.  0.
        -11    1    3    3    0    0  0.44118975078E+02 -0.34488929690E+02  0.87921125852E+01  0.56685725514E+02  0.51100000000E-03 0.  1.
         23    2    1    0    0    0  0.18237205492E+02 -0.18933953089E+02 -0.14642296456E+02  0.94908687479E+02  0.90012065135E+02 0.  0.
         11    1    3    3    0    0 -0.25881769587E+02  0.15554976601E+02 -0.23434409041E+02  0.38222961965E+02  0.51100000000E-03 0. -1.
         22    1    1    0    0    0 -0.18237205492E+02  0.18933953089E+02  0.14642296456E+02  0.30091312521E+02  0.00000000000E+00 0.  1.
</event>
<event>
 5    1  0.8962567E-005  0.9118800E+02  0.7818608E-02  0.1130116E+00
         25   -1    0    0    0    0  0.00000000000E+00  0.00000000000E+00  0.99999998245E-14  0.12500000000E+03  0.12500000000E+03 0.  0.
        -11    1    3    3    0    0  0.52553466780E+02 -0.19667651907E+02 -0.26661587191E+02  0.62125064458E+02  0.51100000000E-03 0.  1.
         23    2    1    0    0    0  0.23912715640E+02 -0.12311409825E+02 -0.16761672797E+02  0.93308637516E+02  0.87761947215E+02 0.  0.
         11    1    3    3    0    0 -0.28640751139E+02  0.73562420813E+01  0.98999143940E+01  0.31183573058E+02  0.51100000000E-03 0. -1.
         22    1    1    0    0    0 -0.23912715640E+02  0.12311409825E+02  0.16761672797E+02  0.31691362484E+02  0.00000000000E+00 0.  1.
</event>
<event>
 5    1  0.8962567E-005  0.9118800E+02  0.7818608E-02  0.1130116E+00
         25   -1    0    0    0    0  0.00000000000E+00  0.00000000000E+00  0.99999998245E-14  0.12500000000E+03  0.12500000000E+03 0.  0.
        -11    1    3    3    0    0  0.19386106275E+01 -0.39761153848E+02 -0.35745523821E+02  0.53501869500E+02  0.51100000000E-03 0. -1.
         23    2    1    0    0    0  0.18655209385E+02 -0.77226667565E+01 -0.28032611073E+02  0.90453166533E+02  0.83596002495E+02 0.  0.
         11    1    3    3    0    0  0.16716598758E+02  0.32038487091E+02  0.77129127482E+01  0.36951297033E+02  0.51100000000E-03 0.  1.
         22    1    1    0    0    0 -0.18655209385E+02  0.77226667565E+01  0.28032611073E+02  0.34546833467E+02  0.00000000000E+00 0. -1.
</event>
<event>
 5    1  0.8962567E-005  0.9118800E+02  0.7818608E-02  0.1130116E+00
         25   -1    0    0    0    0  0.00000000000E+00  0.00000000000E+00  0.99999998245E-14  0.12500000000E+03  0.12500000000E+03 0.  0.
        -11    1    3    3    0    0  0.90212133818E+00  0.38784288076E+01  0.41965054169E+02  0.42153550320E+02  0.51100000000E-03 0.  1.
         23    2    1    0    0    0  0.16973228095E+01  0.29561818557E+02 -0.43034236952E+01  0.95078411195E+02  0.90247453142E+02 0.  0.
         11    1    3    3    0    0  0.79520147137E+00  0.25683389750E+02 -0.46268477864E+02  0.52924860874E+02  0.51100000000E-03 0. -1.
         22    1    1    0    0    0 -0.16973228095E+01 -0.29561818557E+02  0.43034236952E+01  0.29921588805E+02  0.00000000000E+00 0. -1.
</event>
<event>
 5    1  0.8962567E-005  0.9118800E+02  0.7818608E-02  0.1130116E+00
         25   -1    0    0    0    0  0.00000000000E+00  0.00000000000E+00  0.99999998245E-14  0.12500000000E+03  0.12500000000E+03 0.  0.
        -11    1    3    3    0    0  0.37027938553E+02  0.13792221881E+02 -0.29567139788E+02  0.49350880169E+02  0.51100000000E-03 0. -1.
         23    2    1    0    0    0  0.18054899888E+02 -0.20614254229E+02 -0.16550219784E+01  0.97547022290E+02  0.93604249757E+02 0.  0.
         11    1    3    3    0    0 -0.18973038665E+02 -0.34406476110E+02  0.27912117810E+02  0.48196142121E+02  0.51100000000E-03 0.  1.
         22    1    1    0    0    0 -0.18054899888E+02  0.20614254229E+02  0.16550219784E+01  0.27452977710E+02  0.00000000000E+00 0.  1.
</event>
<event>
 5    1  0.8962567E-005  0.9118800E+02  0.7818608E-02  0.1130116E+00
         25   -1    0    0    0    0  0.00000000000E+00  0.00000000000E+00  0.99999998245E-14  0.12500000000E+03  0.12500000000E+03 0.  0.
        -11    1    3    3    0    0 -0.83354797118E+01  0.18923840698E+02  0.24403602631E+02  0.31986368822E+02  0.51100000000E-03 0. -1.
         23    2    1    0    0    0 -0.79349482198E+01 -0.16944836810E+02 -0.25455134808E+02  0.93407994906E+02  0.87903348779E+02 0.  0.
         11    1    3    3    0    0  0.40053149205E+00 -0.35868677508E+02 -0.49858737439E+02  0.61421626084E+02  0.51100000000E-03 0.  1.
         22    1    1    0    0    0  0.79349482198E+01  0.16944836810E+02  0.25455134808E+02  0.31592005094E+02  0.00000000000E+00 0.  1.
</event>
<event>
 5    1  0.8962567E-005  0.9118800E+02  0.7818608E-02  0.1130116E+00
         25   -1    0    0    0    0  0.00000000000E+00  0.00000000000E+00  0.99999998245E-14  0.12500000000E+03  0.12500000000E+03 0.  0.
        -11    1    3    3    0    0  0.83008491501E+00 -0.20192546441E+02  0.53659550444E+01  0.20909840902E+02  0.51100000000E-03 0. -1.
         23    2    1    0    0    0  0.26334745616E+02  0.34553549631E+02 -0.12871557817E+00  0.81554825510E+02  0.69019608645E+02 0.  0.
         11    1    3    3    0    0  0.25504660701E+02  0.54746096072E+02 -0.54946706225E+01  0.60644984608E+02  0.51100000000E-03 0.  1.
         22    1    1    0    0    0 -0.26334745616E+02 -0.34553549631E+02  0.12871557817E+00  0.43445174490E+02  0.00000000000E+00 0.  1.
</event>
<event>
 5    1  0.8962567E-005  0.9118800E+02  0.7818608E-02  0.1130116E+00
         25   -1    0    0    0    0  0.00000000000E+00  0.00000000000E+00  0.99999998245E-14  0.12500000000E+03  0.12500000000E+03 0.  0.
        -11    1    3    3    0    0 -0.43557609986E+02 -0.18502264634E+01 -0.35807382242E+02  0.56416817962E+02  0.51100000000E-03 0. -1.
         23    2    1    0    0    0 -0.20725141890E+02 -0.18695488446E+02 -0.84351388598E+01  0.95841735954E+02  0.91298597955E+02 0.  0.
         11    1    3    3    0    0  0.22832468096E+02 -0.16845261983E+02  0.27372243383E+02  0.39424917992E+02  0.51100000000E-03 0.  1.
         22    1    1    0    0    0  0.20725141890E+02  0.18695488446E+02  0.84351388598E+01  0.29158264046E+02  0.00000000000E+00 0. -1.
</event>
<event>
 5    1  0.8962567E-005  0.9118800E+02  0.7818608E-02  0.1130116E+00
         25   -1    0    0    0    0  0.00000000000E+00  0.00000000000E+00  0.99999998245E-14  0.12500000000E+03  0.12500000000E+03 0.  0.
        -11    1    3    3    0    0 -0.55465964663E+02  0.23304740792E+02 -0.73401618157E+01  0.60609093007E+02  0.51100000000E-03 0.  1.
         23    2    1    0    0    0 -0.20920926441E+02  0.18053597413E+02 -0.99046395225E+01  0.95644942058E+02  0.91028762018E+02 0.  0.
         11    1    3    3    0    0  0.34545038222E+02 -0.52511433784E+01 -0.25644777068E+01  0.35035849051E+02  0.51100000000E-03 0. -1.
         22    1    1    0    0    0  0.20920926441E+02 -0.18053597413E+02  0.99046395225E+01  0.29355057942E+02  0.00000000000E+00 0.  1.
</event>
<event>
 5    1  0.8962567E-005  0.9118800E+02  0.7818608E-02  0.1130116E+00
         25   -1    0    0    0    0  0.00000000000E+00  0.00000000000E+00  0.99999998245E-14  0.12500000000E+03  0.12500000000E+03 0.  0.
        -11    1    3    3    0    0 -0.67013421832E+01 -0.45893563261E+02  0.52278886669E+01  0.46673953721E+02  0.51100000000E-03 0. -1.
         23    2    1    0    0    0 -0.26557321794E+02 -0.15794501541E+02 -0.17686278881E+02  0.89397161904E+02  0.82001771176E+02 0.  0.
         11    1    3    3    0    0 -0.19855979611E+02  0.30099061720E+02 -0.22914167548E+02  0.42723208183E+02  0.51100000000E-03 0.  1.
         22    1    1    0    0    0  0.26557321794E+02  0.15794501541E+02  0.17686278881E+02  0.35602838096E+02  0.00000000000E+00 0.  1.
</event>
<event>
 5    1  0.8962567E-005  0.9118800E+02  0.7818608E-02  0.1130116E+00
         25   -1    0    0    0    0  0.00000000000E+00  0.00000000000E+00  0.99999998245E-14  0.12500000000E+03  0.12500000000E+03 0.  0.
        -11    1    3    3    0    0  0.39743577615E+02 -0.22649354485E+02 -0.34147792408E+01  0.45871624538E+02  0.51100000000E-03 0. -1.
         23    2    1    0    0    0 -0.20243062073E+01 -0.12597076534E+02  0.24689783932E+02  0.97208462017E+02  0.93151035981E+02 0.  0.
         11    1    3    3    0    0 -0.41767883822E+02  0.10052277951E+02  0.28104563173E+02  0.51336837480E+02  0.51100000000E-03 0.  1.
         22    1    1    0    0    0  0.20243062073E+01  0.12597076534E+02 -0.24689783932E+02  0.27791537983E+02  0.00000000000E+00 0.  1.
</event>
<event>
 5    1  0.8962567E-005  0.9118800E+02  0.7818608E-02  0.1130116E+00
         25   -1    0    0    0    0  0.00000000000E+00  0.00000000000E+00  0.99999998245E-14  0.12500000000E+03  0.12500000000E+03 0.  0.
        -11    1    3    3    0    0  0.22153693284E+01 -0.60019158130E+02 -0.16783422979E+02  0.62360969292E+02  0.51100000000E-03 0.  1.
         23    2    1    0    0    0 -0.70039721890E+00 -0.30421975368E+02 -0.60824099550E+01  0.93968034989E+02  0.88696159710E+02 0.  0.
         11    1    3    3    0    0 -0.29157665473E+01  0.29597182762E+02  0.10701013024E+02  0.31607065697E+02  0.51100000000E-03 0. -1.
         22    1    1    0    0    0  0.70039721890E+00  0.30421975368E+02  0.60824099550E+01  0.31031965011E+02  0.00000000000E+00 0.  1.
</event>
<event>
 5    1  0.8962567E-005  0.9118800E+02  0.7818608E-02  0.1130116E+00
         25   -1    0    0    0    0  0.00000000000E+00  0.00000000000E+00  0.99999998245E-14  0.12500000000E+03  0.12500000000E+03 0.  0.
        -11    1    3    3    0    0 -0.17987648524E+02 -0.30831294158E+02 -0.10010142397E+02  0.37071918617E+02  0.51100000000E-03 0. -1.
         23    2    1    0    0    0  0.20453579991E+00  0.19381408376E+02  0.19007717765E+02  0.97852731995E+02  0.94011610978E+02 0.  0.
         11    1    3    3    0    0  0.18192184324E+02  0.50212702534E+02  0.29017860161E+02  0.60780813378E+02  0.51100000000E-03 0.  1.
         22    1    1    0    0    0 -0.20453579991E+00 -0.19381408376E+02 -0.19007717765E+02  0.27147268005E+02  0.00000000000E+00 0.  1.
</event>
<event>
 5    1  0.8962567E-005  0.9118800E+02  0.7818608E-02  0.1130116E+00
         25   -1    0    0    0    0  0.00000000000E+00  0.00000000000E+00  0.99999998245E-14  0.12500000000E+03  0.12500000000E+03 0.  0.
        -11    1    3    3    0    0 -0.51959620445E+01 -0.26919017518E+02 -0.23035182147E+02  0.35808534493E+02  0.51100000000E-03 0. -1.
         23    2    1    0    0    0  0.13967514797E+02  0.25578168906E+02 -0.11269979632E+01  0.95834878389E+02  0.91289208548E+02 0.  0.
         11    1    3    3    0    0  0.19163476842E+02  0.52497186424E+02  0.21908184184E+02  0.60026343896E+02  0.51100000000E-03 0.  1.
         22    1    1    0    0    0 -0.13967514797E+02 -0.25578168906E+02  0.11269979632E+01  0.29165121611E+02  0.00000000000E+00 0.  1.
</event>
<event>
 5    1  0.8962567E-005  0.9118800E+02  0.7818608E-02  0.1130116E+00
         25   -1    0    0    0    0  0.00000000000E+00  0.00000000000E+00  0.99999998245E-14  0.12500000000E+03  0.12500000000E+03 0.  0.
        -11    1    3    3    0    0 -0.10787924571E+02  0.21911459972E+02  0.21545536871E+02  0.32568413440E+02  0.51100000000E-03 0.  1.
         23    2    1    0    0    0 -0.36388614308E+02 -0.18322794221E+02  0.16948337901E+01  0.84223431963E+02  0.73694355216E+02 0.  0.
         11    1    3    3    0    0 -0.25600689737E+02 -0.40234254194E+02 -0.19850703081E+02  0.51655018523E+02  0.51100000000E-03 0. -1.
         22    1    1    0    0    0  0.36388614308E+02  0.18322794221E+02 -0.16948337901E+01  0.40776568037E+02  0.00000000000E+00 0. -1.
</event>
<event>
 5    1  0.8962567E-005  0.9118800E+02  0.7818608E-02  0.1130116E+00
         25   -1    0    0    0    0  0.00000000000E+00  0.00000000000E+00  0.99999998245E-14  0.12500000000E+03  0.12500000000E+03 0.  0.
        -11    1    3    3    0    0 -0.31598994458E+02  0.48401922395E+02  0.10334350374E+02  0.58720025036E+02  0.51100000000E-03 0.  1.
         23    2    1    0    0    0 -0.18515824975E+02  0.21085538707E+02 -0.10010563223E+02  0.95206593127E+02  0.90424821160E+02 0.  0.
         11    1    3    3    0    0  0.13083169483E+02 -0.27316383688E+02 -0.20344913598E+02  0.36486568091E+02  0.51100000000E-03 0. -1.
         22    1    1    0    0    0  0.18515824975E+02 -0.21085538707E+02  0.10010563223E+02  0.29793406873E+02  0.00000000000E+00 0.  1.
</event>
<event>
 5    1  0.8962567E-005  0.9118800E+02  0.7818608E-02  0.1130116E+00
         25   -1    0    0    0    0  0.00000000000E+00  0.00000000000E+00  0.99999998245E-14  0.12500000000E+03  0.12500000000E+03 0.  0.
        -11    1    3    3    0    0 -0.29249781839E+01 -0.46653745427E+01  0.31894448834E+02  0.32366295489E+02  0.51100000000E-03 0.  1.
         23    2    1    0    0    0 -0.17516087687E+02  0.76842570914E+01 -0.25650370476E+02  0.93003083892E+02  0.87325660449E+02 0.  0.
         11    1    3    3    0    0 -0.14591109503E+02  0.12349631634E+02 -0.57544819310E+02  0.60636788402E+02  0.51100000000E-03 0. -1.
         22    1    1    0    0    0  0.17516087687E+02 -0.76842570914E+01  0.25650370476E+02  0.31996916108E+02  0.00000000000E+00 0. -1.
</event>
<event>
 5    1  0.8962567E-005  0.9118800E+02  0.7818608E-02  0.1130116E+00
         25   -1    0    0    0    0  0.00000000000E+00  0.00000000000E+00  0.99999998245E-14  0.12500000000E+03  0.12500000000E+03 0.  0.
        -11    1    3    3    0    0  0.33411505380E+02  0.85557536318E+01  0.34843327881E+02  0.49026391975E+02  0.51100000000E-03 0. -1.
         23    2    1    0    0    0 -0.96183793269E+01  0.19144643896E+02  0.19808636068E+02  0.95821023430E+02  0.91270235332E+02 0.  0.
         11    1    3    3    0    0 -0.43029884706E+02  0.10588890264E+02 -0.15034691814E+02  0.46794631456E+02  0.51100000000E-03 0.  1.
         22    1    1    0    0    0  0.96183793269E+01 -0.19144643896E+02 -0.19808636068E+02  0.29178976570E+02  0.00000000000E+00 0. -1.
</event>
<event>
 5    1  0.8962567E-005  0.9118800E+02  0.7818608E-02  0.1130116E+00
         25   -1    0    0    0    0  0.00000000000E+00  0.00000000000E+00  0.99999998245E-14  0.12500000000E+03  0.12500000000E+03 0.  0.
        -11    1    3    3    0    0  0.13634028135E+02 -0.47999594694E+01 -0.29706612762E+02  0.33036482502E+02  0.51100000000E-03 0. -1.
         23    2    1    0    0    0 -0.12738417503E+02  0.14504739725E+02  0.22949546594E+02  0.95011061309E+02  0.90154119857E+02 0.  0.
         11    1    3    3    0    0 -0.26372445638E+02  0.19304699194E+02  0.52656159355E+02  0.61974578806E+02  0.51100000000E-03 0.  1.
         22    1    1    0    0    0  0.12738417503E+02 -0.14504739725E+02 -0.22949546594E+02  0.29988938691E+02  0.00000000000E+00 0.  1.
</event>
<event>
 5    1  0.8962567E-005  0.9118800E+02  0.7818608E-02  0.1130116E+00
         25   -1    0    0    0    0  0.00000000000E+00  0.00000000000E+00  0.99999998245E-14  0.12500000000E+03  0.12500000000E+03 0.  0.
        -11    1    3    3    0    0 -0.41537302298E+02 -0.10725291198E+02  0.37233082338E+02  0.56803888724E+02  0.51100000000E-03 0. -1.
         23    2    1    0    0    0 -0.25479050286E+02  0.12039473635E+02  0.12072598660E+02  0.94342560980E+02  0.89222420081E+02 0.  0.
         11    1    3    3    0    0  0.16058252013E+02  0.22764764833E+02 -0.25160483678E+02  0.37538672256E+02  0.51100000000E-03 0.  1.
         22    1    1    0    0    0  0.25479050286E+02 -0.12039473635E+02 -0.12072598660E+02  0.30657439020E+02  0.00000000000E+00 0. -1.
</event>
<event>
 5    1  0.8962567E-005  0.9118800E+02  0.7818608E-02  0.1130116E+00
         25   -1    0    0    0    0  0.00000000000E+00  0.00000000000E+00  0.99999998245E-14  0.12500000000E+03  0.12500000000E+03 0.  0.
        -11    1    3    3    0    0  0.31501587370E+02  0.32481377040E+02  0.18836983489E+02  0.49012465848E+02  0.51100000000E-03 0.  1.
         23    2    1    0    0    0  0.62984966608E+01  0.25617393621E+02 -0.17190518380E+02  0.93512925854E+02  0.88052435875E+02 0.  0.
         11    1    3    3    0    0 -0.25203090709E+02 -0.68639834196E+01 -0.36027501868E+02  0.44500460007E+02  0.51100000000E-03 0. -1.
         22    1    1    0    0    0 -0.62984966608E+01 -0.25617393621E+02  0.17190518380E+02  0.31487074146E+02  0.00000000000E+00 0.  1.
</event>
<event>
 5    1  0.8962567E-005  0.9118800E+02  0.7818608E-02  0.1130116E+00
         25   -1    0    0    0    0  0.00000000000E+00  0.00000000000E+00  0.99999998245E-14  0.12500000000E+03  0.12500000000E+03 0.  0.
        -11    1    3    3    0    0  0.12414162017E+02 -0.17667294193E+02 -0.48254571299E+02  0.52865379542E+02  0.51100000000E-03 0. -1.
         23    2    1    0    0    0 -0.80272771732E+01 -0.25397478690E+02 -0.10742095704E+02  0.96279593966E+02  0.91896128817E+02 0.  0.
         11    1    3    3    0    0 -0.20441439190E+02 -0.77301844975E+01  0.37512475595E+02  0.43414214424E+02  0.51100000000E-03 0.  1.
         22    1    1    0    0    0  0.80272771732E+01  0.25397478690E+02  0.10742095704E+02  0.28720406034E+02  0.00000000000E+00 0. -1.
</event>
<event>
 5    1  0.8962567E-005  0.9118800E+02  0.7818608E-02  0.1130116E+00
         25   -1    0    0    0    0  0.00000000000E+00  0.00000000000E+00  0.99999998245E-14  0.12500000000E+03  0.12500000000E+03 0.  0.
        -11    1    3    3    0    0  0.33412957432E+02  0.51100875217E+02  0.73994396460E+01  0.61501844523E+02  0.51100000000E-03 0. -1.
         23    2    1    0    0    0  0.87909764490E+01  0.24495646904E+02  0.80505961951E+01  0.97757935408E+02  0.93885482647E+02 0.  0.
         11    1    3    3    0    0 -0.24621980983E+02 -0.26605228313E+02  0.65115654911E+00  0.36256090885E+02  0.51100000000E-03 0.  1.
         22    1    1    0    0    0 -0.87909764490E+01 -0.24495646904E+02 -0.80505961951E+01  0.27242064592E+02  0.00000000000E+00 0. -1.
</event>
<event>
 5    1  0.8962567E-005  0.9118800E+02  0.7818608E-02  0.1130116E+00
         25   -1    0    0    0    0  0.00000000000E+00  0.00000000000E+00  0.99999998245E-14  0.12500000000E+03  0.12500000000E+03 0.  0.
        -11    1    3    3    0    0 -0.70625377736E+01  0.46186286353E+02 -0.22028787181E+02  0.51655783333E+02  0.51100000000E-03 0. -1.
         23    2    1    0    0    0 -0.98648960747E+00  0.57641152769E+01 -0.30956779640E+02  0.93495708350E+02  0.88027990364E+02 0.  0.
         11    1    3    3    0    0  0.60760481661E+01 -0.40422171076E+02 -0.89279924594E+01  0.41839925017E+02  0.51100000000E-03 0.  1.
         22    1    1    0    0    0  0.98648960747E+00 -0.57641152769E+01  0.30956779640E+02  0.31504291650E+02  0.00000000000E+00 0. -1.
</event>
<event>
 5    1  0.8962567E-005  0.9118800E+02  0.7818608E-02  0.1130116E+00
         25   -1    0    0    0    0  0.00000000000E+00  0.00000000000E+00  0.99999998245E-14  0.12500000000E+03  0.12500000000E+03 0.  0.
        -11    1    3    3    0    0  0.32256098100E+02 -0.55277571576E+01 -0.22381136743E+02  0.39647537704E+02  0.51100000000E-03 0.  1.
         23    2    1    0    0    0 -0.16033066182E+02 -0.24654208323E+02 -0.17342793832E+01  0.95539909637E+02  0.90884417857E+02 0.  0.
         11    1    3    3    0    0 -0.48289164282E+02 -0.19126451165E+02  0.20646857360E+02  0.55892371933E+02  0.51100000000E-03 0. -1.
         22    1    1    0    0    0  0.16033066182E+02  0.24654208323E+02  0.17342793832E+01  0.29460090363E+02  0.00000000000E+00 0. -1.
</event>
<event>
 5    1  0.8962567E-005  0.9118800E+02  0.7818608E-02  0.1130116E+00
         25   -1    0    0    0    0  0.00000000000E+00  0.00000000000E+00  0.99999998245E-14  0.12500000000E+03  0.12500000000E+03 0.  0.
        -11    1    3    3    0    0  0.50725122484E+02  0.23789939040E+02  0.57324849073E+01  0.56319274090E+02  0.51100000000E-03 0. -1.
         23    2    1    0    0    0  0.10615187128E+02  0.25894998335E+02  0.54639271970E+01  0.96485308402E+02  0.92175523327E+02 0.  0.
         11    1    3    3    0    0 -0.40109935356E+02  0.21050592944E+01 -0.26855771029E+00  0.40166034312E+02  0.51100000000E-03 0.  1.
         22    1    1    0    0    0 -0.10615187128E+02 -0.25894998335E+02 -0.54639271970E+01  0.28514691598E+02  0.00000000000E+00 0.  1.
</event>
<event>
 5    1  0.8962567E-005  0.9118800E+02  0.7818608E-02  0.1130116E+00
         25   -1    0    0    0    0  0.00000000000E+00  0.00000000000E+00  0.99999998245E-14  0.12500000000E+03  0.12500000000E+03 0.  0.
        -11    1    3    3    0    0  0.11617384041E+02  0.31500611993E+02  0.45283489882E+02  0.56372392393E+02  0.51100000000E-03 0.  1.
         23    2    1    0    0    0 -0.13209198346E+02  0.19709988457E+02  0.16989470061E+02  0.95817665294E+02  0.91265636050E+02 0.  0.
         11    1    3    3    0    0 -0.24826582386E+02 -0.11790623536E+02 -0.28294019821E+02  0.39445272901E+02  0.51100000000E-03 0. -1.
         22    1    1    0    0    0  0.13209198346E+02 -0.19709988457E+02 -0.16989470061E+02  0.29182334706E+02  0.00000000000E+00 0.  1.
</event>
<event>
 5    1  0.8962567E-005  0.9118800E+02  0.7818608E-02  0.1130116E+00
         25   -1    0    0    0    0  0.00000000000E+00  0.00000000000E+00  0.99999998245E-14  0.12500000000E+03  0.12500000000E+03 0.  0.
        -11    1    3    3    0    0  0.29323433684E+02 -0.25300677314E+02 -0.25097713360E+02  0.46150658194E+02  0.51100000000E-03 0.  1.
         23    2    1    0    0    0  0.17435324459E+02  0.20793130072E+02 -0.84760163417E+01  0.96571358628E+02  0.92292142987E+02 0.  0.
         11    1    3    3    0    0 -0.11888109224E+02  0.46093807387E+02  0.16621697018E+02  0.50420700435E+02  0.51100000000E-03 0. -1.
         22    1    1    0    0    0 -0.17435324459E+02 -0.20793130072E+02  0.84760163417E+01  0.28428641372E+02  0.00000000000E+00 0. -1.
</event>
<event>
 5    1  0.8962567E-005  0.9118800E+02  0.7818608E-02  0.1130116E+00
         25   -1    0    0    0    0  0.00000000000E+00  0.00000000000E+00  0.99999998245E-14  0.12500000000E+03  0.12500000000E+03 0.  0.
        -11    1    3    3    0    0  0.59753541730E+01 -0.32679079985E+02  0.34134890043E+02  0.47632109387E+02  0.51100000000E-03 0.  1.
         23    2    1    0    0    0  0.19934513436E+02  0.10590840714E+02  0.18827630829E+02  0.95605605711E+02  0.90974729611E+02 0.  0.
         11    1    3    3    0    0  0.13959159263E+02  0.43269920699E+02 -0.15307259214E+02  0.47973496324E+02  0.51100000000E-03 0. -1.
         22    1    1    0    0    0 -0.19934513436E+02 -0.10590840714E+02 -0.18827630829E+02  0.29394394289E+02  0.00000000000E+00 0. -1.
</event>
<event>
 5    1  0.8962567E-005  0.9118800E+02  0.7818608E-02  0.1130116E+00
         25   -1    0    0    0    0  0.00000000000E+00  0.00000000000E+00  0.99999998245E-14  0.12500000000E+03  0.12500000000E+03 0.  0.
        -11    1    3    3    0    0  0.26349943654E+02 -0.92937566159E+01  0.19434788570E+02  0.34035341186E+02  0.51100000000E-03 0.  1.
         23    2    1    0    0    0 -0.27430020178E+02  0.12837916987E+01 -0.94100711993E+01  0.95972365441E+02  0.91477272370E+02 0.  0.
         11    1    3    3    0    0 -0.53779963833E+02  0.10577548315E+02 -0.28844859770E+02  0.61937024255E+02  0.51100000000E-03 0. -1.
         22    1    1    0    0    0  0.27430020178E+02 -0.12837916987E+01  0.94100711993E+01  0.29027634559E+02  0.00000000000E+00 0. -1.
</event>
<event>
 5    1  0.8962567E-005  0.9118800E+02  0.7818608E-02  0.1130116E+00
         25   -1    0    0    0    0  0.00000000000E+00  0.00000000000E+00  0.99999998245E-14  0.12500000000E+03  0.12500000000E+03 0.  0.
        -11    1    3    3    0    0 -0.31570714957E+02  0.23999254643E+02  0.86596097392E+01  0.40591416671E+02  0.51100000000E-03 0.  1.
         23    2    1    0    0    0 -0.56763606569E+01 -0.79447782689E+01 -0.27791879290E+02  0.95542757656E+02  0.90888334861E+02 0.  0.
         11    1    3    3    0    0  0.25894354300E+02 -0.31944032912E+02 -0.36451489030E+02  0.54951340984E+02  0.51100000000E-03 0. -1.
         22    1    1    0    0    0  0.56763606569E+01  0.79447782689E+01  0.27791879290E+02  0.29457242344E+02  0.00000000000E+00 0. -1.
</event>
<event>
 5    1  0.8962567E-005  0.9118800E+02  0.7818608E-02  0.1130116E+00
         25   -1    0    0    0    0  0.00000000000E+00  0.00000000000E+00  0.99999998245E-14  0.12500000000E+03  0.12500000000E+03 0.  0.
        -11    1    3    3    0    0 -0.58674616761E+01  0.34111613307E+02  0.32887056029E+02  0.47745028258E+02  0.51100000000E-03 0.  1.
         23    2    1    0    0    0  0.25705110231E+02  0.13402620997E+02  0.30861547317E+01  0.95846830488E+02  0.91305572787E+02 0.  0.
         11    1    3    3    0    0  0.31572571907E+02 -0.20708992310E+02 -0.29800901297E+02  0.48101802229E+02  0.51100000000E-03 0. -1.
         22    1    1    0    0    0 -0.25705110231E+02 -0.13402620997E+02 -0.30861547317E+01  0.29153169512E+02  0.00000000000E+00 0.  1.
</event>
<event>
 5    1  0.8962567E-005  0.9118800E+02  0.7818608E-02  0.1130116E+00
         25   -1    0    0    0    0  0.00000000000E+00  0.00000000000E+00  0.99999998245E-14  0.12500000000E+03  0.12500000000E+03 0.  0.
        -11    1    3    3    0    0 -0.32239690142E+02  0.66510575529E+01  0.24832367926E+02  0.41234459910E+02  0.51100000000E-03 0. -1.
         23    2    1    0    0    0 -0.15864753748E+02 -0.81204567147E+01 -0.24169478779E+02  0.94970082698E+02  0.90097284501E+02 0.  0.
         11    1    3    3    0    0  0.16374936394E+02 -0.14771514268E+02 -0.49001846704E+02  0.53735622787E+02  0.51100000000E-03 0.  1.
         22    1    1    0    0    0  0.15864753748E+02  0.81204567147E+01  0.24169478779E+02  0.30029917302E+02  0.00000000000E+00 0.  1.
</event>
<event>
 5    1  0.8962567E-005  0.9118800E+02  0.7818608E-02  0.1130116E+00
         25   -1    0    0    0    0  0.00000000000E+00  0.00000000000E+00  0.99999998245E-14  0.12500000000E+03  0.12500000000E+03 0.  0.
        -11    1    3    3    0    0 -0.13925377425E+02 -0.29542987374E+02  0.45994032728E+02  0.56410595514E+02  0.51100000000E-03 0. -1.
         23    2    1    0    0    0 -0.17126135857E+01 -0.26962159325E+02  0.73776946093E+01  0.96994260258E+02  0.92863152350E+02 0.  0.
         11    1    3    3    0    0  0.12212763839E+02  0.25808280492E+01 -0.38616338119E+02  0.40583664743E+02  0.51100000000E-03 0.  1.
         22    1    1    0    0    0  0.17126135857E+01  0.26962159325E+02 -0.73776946093E+01  0.28005739742E+02  0.00000000000E+00 0. -1.
</event>
<event>
 5    1  0.8962567E-005  0.9118800E+02  0.7818608E-02  0.1130116E+00
         25   -1    0    0    0    0  0.00000000000E+00  0.00000000000E+00  0.99999998245E-14  0.12500000000E+03  0.12500000000E+03 0.  0.
        -11    1    3    3    0    0 -0.33890275726E+02 -0.28456199707E+02  0.31466218968E+02  0.54299438551E+02  0.51100000000E-03 0.  1.
         23    2    1    0    0    0 -0.13676617003E+01 -0.18690378647E+01  0.28494499426E+02  0.96411535567E+02  0.92075425016E+02 0.  0.
         11    1    3    3    0    0  0.32522614025E+02  0.26587161842E+02 -0.29717195418E+01  0.42112097017E+02  0.51100000000E-03 0. -1.
         22    1    1    0    0    0  0.13676617003E+01  0.18690378647E+01 -0.28494499426E+02  0.28588464433E+02  0.00000000000E+00 0. -1.
</event>
<event>
 5    1  0.8962567E-005  0.9118800E+02  0.7818608E-02  0.1130116E+00
         25   -1    0    0    0    0  0.00000000000E+00  0.00000000000E+00  0.99999998245E-14  0.12500000000E+03  0.12500000000E+03 0.  0.
        -11    1    3    3    0    0 -0.23506821348E+02 -0.28942121381E+02  0.22256216478E+01  0.37351980294E+02  0.51100000000E-03 0.  1.
         23    2    1    0    0    0 -0.11772742185E+02  0.26697866728E+02 -0.70870343829E+01  0.94973351790E+02  0.90101819891E+02 0.  0.
         11    1    3    3    0    0  0.11734079163E+02  0.55639988108E+02 -0.93126560307E+01  0.57621371496E+02  0.51100000000E-03 0. -1.
         22    1    1    0    0    0  0.11772742185E+02 -0.26697866728E+02  0.70870343829E+01  0.30026648210E+02  0.00000000000E+00 0. -1.
</event>
<event>
 5    1  0.8962567E-005  0.9118800E+02  0.7818608E-02  0.1130116E+00
         25   -1    0    0    0    0  0.00000000000E+00  0.00000000000E+00  0.99999998245E-14  0.12500000000E+03  0.12500000000E+03 0.  0.
        -11    1    3    3    0    0 -0.13235232988E+02 -0.27727271216E+02  0.16859195991E+02  0.35045762241E+02  0.51100000000E-03 0.  1.
         23    2    1    0    0    0 -0.14539204413E+01  0.27612513905E+02 -0.70415101807E+01  0.96466726889E+02  0.92150321336E+02 0.  0.
         11    1    3    3    0    0  0.11781312547E+02  0.55339785121E+02 -0.23900706171E+02  0.61420964648E+02  0.51100000000E-03 0. -1.
         22    1    1    0    0    0  0.14539204413E+01 -0.27612513905E+02  0.70415101807E+01  0.28533273111E+02  0.00000000000E+00 0. -1.
</event>
<event>
 5    1  0.8962567E-005  0.9118800E+02  0.7818608E-02  0.1130116E+00
         25   -1    0    0    0    0  0.00000000000E+00  0.00000000000E+00  0.99999998245E-14  0.12500000000E+03  0.12500000000E+03 0.  0.
        -11    1    3    3    0    0  0.47967971178E+02 -0.37332204844E+02 -0.11836612487E+01  0.60794907942E+02  0.51100000000E-03 0. -1.
         23    2    1    0    0    0  0.23225958855E+02 -0.19792221933E+02 -0.10829131941E+02  0.92620263862E+02  0.86775952692E+02 0.  0.
         11    1    3    3    0    0 -0.24742012323E+02  0.17539982911E+02 -0.96454706920E+01  0.31825355920E+02  0.51100000000E-03 0.  1.
         22    1    1    0    0    0 -0.23225958855E+02  0.19792221933E+02  0.10829131941E+02  0.32379736138E+02  0.00000000000E+00 0. -1.
</event>
<event>
 5    1  0.8962567E-005  0.9118800E+02  0.7818608E-02  0.1130116E+00
         25   -1    0    0    0    0  0.00000000000E+00  0.00000000000E+00  0.99999998245E-14  0.12500000000E+03  0.12500000000E+03 0.  0.
        -11    1    3    3    0    0 -0.15640884438E+02  0.32535739575E+02  0.60601569971E+01  0.36605151534E+02  0.51100000000E-03 0.  1.
         23    2    1    0    0    0  0.96367838648E+00 -0.15103093203E+02 -0.24946768176E+02  0.95821697398E+02  0.91271158366E+02 0.  0.
         11    1    3    3    0    0  0.16604562825E+02 -0.47638832779E+02 -0.31006925173E+02  0.59216545864E+02  0.51100000000E-03 0. -1.
         22    1    1    0    0    0 -0.96367838648E+00  0.15103093203E+02  0.24946768176E+02  0.29178302602E+02  0.00000000000E+00 0. -1.
</event>
<event>
 5    1  0.8962567E-005  0.9118800E+02  0.7818608E-02  0.1130116E+00
         25   -1    0    0    0    0  0.00000000000E+00  0.00000000000E+00  0.99999998245E-14  0.12500000000E+03  0.12500000000E+03 0.  0.
        -11    1    3    3    0    0 -0.17463425028E+02 -0.31895511751E+02  0.37751191543E+02  0.52416098165E+02  0.51100000000E-03 0. -1.
         23    2    1    0    0    0  0.18623644239E+01 -0.30053377805E+02 -0.25317517835E-01  0.94888962826E+02  0.89984669286E+02 0.  0.
         11    1    3    3    0    0  0.19325789452E+02  0.18421339465E+01 -0.37776509061E+02  0.42472864661E+02  0.51100000000E-03 0.  1.
         22    1    1    0    0    0 -0.18623644239E+01  0.30053377805E+02  0.25317517835E-01  0.30111037174E+02  0.00000000000E+00 0. -1.
</event>
<event>
 5    1  0.8962567E-005  0.9118800E+02  0.7818608E-02  0.1130116E+00
         25   -1    0    0    0    0  0.00000000000E+00  0.00000000000E+00  0.99999998245E-14  0.12500000000E+03  0.12500000000E+03 0.  0.
        -11    1    3    3    0    0  0.12417995061E+02  0.28848853117E+01 -0.35735445668E+02  0.37941418555E+02  0.51100000000E-03 0. -1.
         23    2    1    0    0    0  0.25637634076E+01 -0.46346221287E+01  0.24752907883E+02  0.99686781047E+02  0.96419371818E+02 0.  0.
         11    1    3    3    0    0 -0.98542316532E+01 -0.75195074404E+01  0.60488353552E+02  0.61745362492E+02  0.51100000000E-03 0.  1.
         22    1    1    0    0    0 -0.25637634076E+01  0.46346221287E+01 -0.24752907883E+02  0.25313218953E+02  0.00000000000E+00 0.  1.
</event>
<event>
 5    1  0.8962567E-005  0.9118800E+02  0.7818608E-02  0.1130116E+00
         25   -1    0    0    0    0  0.00000000000E+00  0.00000000000E+00  0.99999998245E-14  0.12500000000E+03  0.12500000000E+03 0.  0.
        -11    1    3    3    0    0 -0.18641375422E+02 -0.48187850596E+02  0.11784096343E+02  0.52994667180E+02  0.51100000000E-03 0.  1.
         23    2    1    0    0    0  0.55623300327E+01 -0.16006667676E+02  0.24489991794E+02  0.95218921719E+02  0.90441862153E+02 0.  0.
         11    1    3    3    0    0  0.24203705454E+02  0.32181182920E+02  0.12705895452E+02  0.42224254539E+02  0.51100000000E-03 0. -1.
         22    1    1    0    0    0 -0.55623300327E+01  0.16006667676E+02 -0.24489991794E+02  0.29781078281E+02  0.00000000000E+00 0. -1.
</event>
<event>
 5    1  0.8962567E-005  0.9118800E+02  0.7818608E-02  0.1130116E+00
         25   -1    0    0    0    0  0.00000000000E+00  0.00000000000E+00  0.99999998245E-14  0.12500000000E+03  0.12500000000E+03 0.  0.
        -11    1    3    3    0    0 -0.15388883029E+01 -0.11583907207E+02 -0.31307228886E+02  0.33417026561E+02  0.51100000000E-03 0.  1.
         23    2    1    0    0    0 -0.30497208760E+01  0.20994054305E+02  0.21058719099E+02  0.95108182329E+02  0.90288679148E+02 0.  0.
         11    1    3    3    0    0 -0.15108325731E+01  0.32577961512E+02  0.52365947985E+02  0.61691155768E+02  0.51100000000E-03 0. -1.
         22    1    1    0    0    0  0.30497208760E+01 -0.20994054305E+02 -0.21058719099E+02  0.29891817671E+02  0.00000000000E+00 0. -1.
</event>
<event>
 5    1  0.8962567E-005  0.9118800E+02  0.7818608E-02  0.1130116E+00
         25   -1    0    0    0    0  0.00000000000E+00  0.00000000000E+00  0.99999998245E-14  0.12500000000E+03  0.12500000000E+03 0.  0.
        -11    1    3    3    0    0  0.26275067927E+02 -0.21886737566E+02  0.48286395719E+02  0.59169117685E+02  0.51100000000E-03 0. -1.
         23    2    1    0    0    0  0.10458479558E+02 -0.22950647659E+02  0.16015234512E+02  0.95123591931E+02  0.90310010424E+02 0.  0.
         11    1    3    3    0    0 -0.15816588369E+02 -0.10639100933E+01 -0.32271161207E+02  0.35954474245E+02  0.51100000000E-03 0.  1.
         22    1    1    0    0    0 -0.10458479558E+02  0.22950647659E+02 -0.16015234512E+02  0.29876408069E+02  0.00000000000E+00 0. -1.
</event>
<event>
 5    1  0.8962567E-005  0.9118800E+02  0.7818608E-02  0.1130116E+00
         25   -1    0    0    0    0  0.00000000000E+00  0.00000000000E+00  0.99999998245E-14  0.12500000000E+03  0.12500000000E+03 0.  0.
        -11    1    3    3    0    0 -0.35761272969E+02  0.25007970252E+02  0.24635423850E+01  0.43707393675E+02  0.51100000000E-03 0. -1.
         23    2    1    0    0    0 -0.75075299408E+01  0.49762834560E+01  0.33559340637E+02  0.90252974993E+02  0.83296120847E+02 0.  0.
         11    1    3    3    0    0  0.28253743028E+02 -0.20031686796E+02  0.31095798252E+02  0.46545581318E+02  0.51100000000E-03 0.  1.
         22    1    1    0    0    0  0.75075299408E+01 -0.49762834560E+01 -0.33559340637E+02  0.34747025007E+02  0.00000000000E+00 0.  1.
</event>
<event>
 5    1  0.8962567E-005  0.9118800E+02  0.7818608E-02  0.1130116E+00
         25   -1    0    0    0    0  0.00000000000E+00  0.00000000000E+00  0.99999998245E-14  0.12500000000E+03  0.12500000000E+03 0.  0.
        -11    1    3    3    0    0 -0.96148126519E+01  0.89683893306E+01  0.58426675866E+02  0.59887837518E+02  0.51100000000E-03 0.  1.
         23    2    1    0    0    0 -0.67462991323E+01  0.16320119804E+02  0.24025856955E+02  0.95182208921E+02  0.90391107031E+02 0.  0.
         11    1    3    3    0    0  0.28685135196E+01  0.73517304732E+01 -0.34400818911E+02  0.35294371404E+02  0.51100000000E-03 0. -1.
         22    1    1    0    0    0  0.67462991323E+01 -0.16320119804E+02 -0.24025856955E+02  0.29817791079E+02  0.00000000000E+00 0.  1.
</event>
<event>
 5    1  0.8962567E-005  0.9118800E+02  0.7818608E-02  0.1130116E+00
         25   -1    0    0    0    0  0.00000000000E+00  0.00000000000E+00  0.99999998245E-14  0.12500000000E+03  0.12500000000E+03 0.  0.
        -11    1    3    3    0    0 -0.79243755489E+01  0.32780182805E+02  0.44047839273E+02  0.55475654637E+02  0.51100000000E-03 0.  1.
         23    2    1    0    0    0 -0.93931426986E+01  0.30117561058E+02  0.69534915714E+01  0.92694433005E+02  0.86882727001E+02 0.  0.
         11    1    3    3    0    0 -0.14687671498E+01 -0.26626217472E+01 -0.37094347701E+02  0.37218778367E+02  0.51100000000E-03 0. -1.
         22    1    1    0    0    0  0.93931426986E+01 -0.30117561058E+02 -0.69534915714E+01  0.32305566995E+02  0.00000000000E+00 0. -1.
</event>
<event>
 5    1  0.8962567E-005  0.9118800E+02  0.7818608E-02  0.1130116E+00
         25   -1    0    0    0    0  0.00000000000E+00  0.00000000000E+00  0.99999998245E-14  0.12500000000E+03  0.12500000000E+03 0.  0.
        -11    1    3    3    0    0  0.38249328784E+01  0.45828587847E+02  0.33433538458E+02  0.56856759226E+02  0.51100000000E-03 0.  1.
         23    2    1    0    0    0  0.96519636920E+01  0.11782111068E+02  0.29729202369E+02  0.91596347238E+02  0.85288257161E+02 0.  0.
         11    1    3    3    0    0  0.58270308136E+01 -0.34046476779E+02 -0.37043360886E+01  0.34739588013E+02  0.51100000000E-03 0. -1.
         22    1    1    0    0    0 -0.96519636920E+01 -0.11782111068E+02 -0.29729202369E+02  0.33403652762E+02  0.00000000000E+00 0.  1.
</event>
<event>
 5    1  0.8962567E-005  0.9118800E+02  0.7818608E-02  0.1130116E+00
         25   -1    0    0    0    0  0.00000000000E+00  0.00000000000E+00  0.99999998245E-14  0.12500000000E+03  0.12500000000E+03 0.  0.
        -11    1    3    3    0    0  0.45392851130E+02 -0.47887047849E+01  0.26121595499E+02  0.52590687188E+02  0.51100000000E-03 0.  1.
         23    2    1    0    0    0  0.15857474957E+02 -0.17714187253E+02 -0.83614162432E+01  0.99797515527E+02  0.96562823497E+02 0.  0.
         11    1    3    3    0    0 -0.29535376173E+02 -0.12925482468E+02 -0.34483011742E+02  0.47206828339E+02  0.51100000000E-03 0. -1.
         22    1    1    0    0    0 -0.15857474957E+02  0.17714187253E+02  0.83614162432E+01  0.25202484473E+02  0.00000000000E+00 0.  1.
</event>
<event>
 5    1  0.8962567E-005  0.9118800E+02  0.7818608E-02  0.1130116E+00
         25   -1    0    0    0    0  0.00000000000E+00  0.00000000000E+00  0.99999998245E-14  0.12500000000E+03  0.12500000000E+03 0.  0.
        -11    1    3    3    0    0  0.35691434336E+02 -0.15412634412E+02  0.23970423549E+02  0.45672847402E+02  0.51100000000E-03 0.  1.
         23    2    1    0    0    0  0.18943150451E+02  0.21794466562E+02 -0.49727339548E+01  0.95698638176E+02  0.91102467277E+02 0.  0.
         11    1    3    3    0    0 -0.16748283884E+02  0.37207100975E+02 -0.28943157503E+02  0.50025790774E+02  0.51100000000E-03 0. -1.
         22    1    1    0    0    0 -0.18943150451E+02 -0.21794466562E+02  0.49727339548E+01  0.29301361824E+02  0.00000000000E+00 0. -1.
</event>
<event>
 5    1  0.8962567E-005  0.9118800E+02  0.7818608E-02  0.1130116E+00
         25   -1    0    0    0    0  0.00000000000E+00  0.00000000000E+00  0.99999998245E-14  0.12500000000E+03  0.12500000000E+03 0.  0.
        -11    1    3    3    0    0  0.39102696420E+02 -0.35373747485E+02 -0.17072207045E+02  0.55423669421E+02  0.51100000000E-03 0. -1.
         23    2    1    0    0    0  0.32567164061E+01 -0.21721209340E+02 -0.21778413828E+02  0.94069166745E+02  0.88838570938E+02 0.  0.
         11    1    3    3    0    0 -0.35845980014E+02  0.13652538144E+02 -0.47062067831E+01  0.38645497325E+02  0.51100000000E-03 0.  1.
         22    1    1    0    0    0 -0.32567164061E+01  0.21721209340E+02  0.21778413828E+02  0.30930833255E+02  0.00000000000E+00 0. -1.
</event>
<event>
 5    1  0.8962567E-005  0.9118800E+02  0.7818608E-02  0.1130116E+00
         25   -1    0    0    0    0  0.00000000000E+00  0.00000000000E+00  0.99999998245E-14  0.12500000000E+03  0.12500000000E+03 0.  0.
        -11    1    3    3    0    0  0.26713633599E+02 -0.26847244893E+02 -0.50798564207E+00  0.37876784817E+02  0.51100000000E-03 0.  1.
         23    2    1    0    0    0  0.50529366958E+01  0.22677469491E+02 -0.18978963051E+02  0.94999986162E+02  0.90138762697E+02 0.  0.
         11    1    3    3    0    0 -0.21660696903E+02  0.49524714384E+02 -0.18470977409E+02  0.57123201345E+02  0.51100000000E-03 0. -1.
         22    1    1    0    0    0 -0.50529366958E+01 -0.22677469491E+02  0.18978963051E+02  0.30000013838E+02  0.00000000000E+00 0. -1.
</event>
<event>
 5    1  0.8962567E-005  0.9118800E+02  0.7818608E-02  0.1130116E+00
         25   -1    0    0    0    0  0.00000000000E+00  0.00000000000E+00  0.99999998245E-14  0.12500000000E+03  0.12500000000E+03 0.  0.
        -11    1    3    3    0    0 -0.17733287622E+02 -0.16194990213E+02 -0.15509586709E+02  0.28588362633E+02  0.51100000000E-03 0.  1.
         23    2    1    0    0    0  0.26900445098E+02  0.19713159612E+02  0.83128780173E+01  0.90629277731E+02  0.83858925779E+02 0.  0.
         11    1    3    3    0    0  0.44633732720E+02  0.35908149825E+02  0.23822464726E+02  0.62040915098E+02  0.51100000000E-03 0. -1.
         22    1    1    0    0    0 -0.26900445098E+02 -0.19713159612E+02 -0.83128780173E+01  0.34370722269E+02  0.00000000000E+00 0. -1.
</event>
<event>
 5    1  0.8962567E-005  0.9118800E+02  0.7818608E-02  0.1130116E+00
         25   -1    0    0    0    0  0.00000000000E+00  0.00000000000E+00  0.99999998245E-14  0.12500000000E+03  0.12500000000E+03 0.  0.
        -11    1    3    3    0    0 -0.13844085844E+02 -0.48081260383E+02 -0.36717047657E+02  0.62061323719E+02  0.51100000000E-03 0.  1.
         23    2    1    0    0    0 -0.41101952986E+01 -0.21396914493E+02 -0.21939453321E+02  0.94079759586E+02  0.88853474307E+02 0.  0.
         11    1    3    3    0    0  0.97338905452E+01  0.26684345890E+02  0.14777594336E+02  0.32018435866E+02  0.51100000000E-03 0. -1.
         22    1    1    0    0    0  0.41101952986E+01  0.21396914493E+02  0.21939453321E+02  0.30920240414E+02  0.00000000000E+00 0.  1.
</event>
<event>
 5    1  0.8962567E-005  0.9118800E+02  0.7818608E-02  0.1130116E+00
         25   -1    0    0    0    0  0.00000000000E+00  0.00000000000E+00  0.99999998245E-14  0.12500000000E+03  0.12500000000E+03 0.  0.
        -11    1    3    3    0    0  0.44504218848E+02 -0.19143883501E+02 -0.33307722018E+02  0.58792160337E+02  0.51100000000E-03 0.  1.
         23    2    1    0    0    0  0.27050115910E+02  0.30118241883E+01 -0.81449087025E+01  0.96590153230E+02  0.92317594789E+02 0.  0.
         11    1    3    3    0    0 -0.17454102938E+02  0.22155707689E+02  0.25162813315E+02  0.37797992894E+02  0.51100000000E-03 0. -1.
         22    1    1    0    0    0 -0.27050115910E+02 -0.30118241883E+01  0.81449087025E+01  0.28409846770E+02  0.00000000000E+00 0.  1.
</event>
<event>
 5    1  0.8962567E-005  0.9118800E+02  0.7818608E-02  0.1130116E+00
         25   -1    0    0    0    0  0.00000000000E+00  0.00000000000E+00  0.99999998245E-14  0.12500000000E+03  0.12500000000E+03 0.  0.
        -11    1    3    3    0    0 -0.20890162565E+02 -0.24768429007E+02  0.18768015661E+02  0.37444791087E+02  0.51100000000E-03 0.  1.
         23    2    1    0    0    0 -0.27905868800E+01  0.27792215994E+01 -0.29139085726E+02  0.95595956660E+02  0.90961470771E+02 0.  0.
         11    1    3    3    0    0  0.18099575685E+02  0.27547650606E+02 -0.47907101386E+02  0.58151165572E+02  0.51100000000E-03 0. -1.
         22    1    1    0    0    0  0.27905868800E+01 -0.27792215994E+01  0.29139085726E+02  0.29404043340E+02  0.00000000000E+00 0. -1.
</event>
<event>
 5    1  0.8962567E-005  0.9118800E+02  0.7818608E-02  0.1130116E+00
         25   -1    0    0    0    0  0.00000000000E+00  0.00000000000E+00  0.99999998245E-14  0.12500000000E+03  0.12500000000E+03 0.  0.
        -11    1    3    3    0    0 -0.30395101652E+02  0.20977925004E+02 -0.51074670785E+01  0.37282995616E+02  0.51100000000E-03 0.  1.
         23    2    1    0    0    0  0.78046927802E+01 -0.24154650900E+02 -0.12201593428E+02  0.96835496247E+02  0.92649198926E+02 0.  0.
         11    1    3    3    0    0  0.38199794432E+02 -0.45132575904E+02 -0.70941263495E+01  0.59552500630E+02  0.51100000000E-03 0. -1.
         22    1    1    0    0    0 -0.78046927802E+01  0.24154650900E+02  0.12201593428E+02  0.28164503753E+02  0.00000000000E+00 0. -1.
</event>
<event>
 5    1  0.8962567E-005  0.9118800E+02  0.7818608E-02  0.1130116E+00
         25   -1    0    0    0    0  0.00000000000E+00  0.00000000000E+00  0.99999998245E-14  0.12500000000E+03  0.12500000000E+03 0.  0.
        -11    1    3    3    0    0  0.53242016177E+01 -0.39144209684E+02  0.47438839666E+02  0.61733781545E+02  0.51100000000E-03 0. -1.
         23    2    1    0    0    0  0.82407650855E+01 -0.14082905961E+02  0.22470821619E+02  0.97229939256E+02  0.93179851974E+02 0.  0.
         11    1    3    3    0    0  0.29165634677E+01  0.25061303723E+02 -0.24968018047E+02  0.35496157711E+02  0.51100000000E-03 0.  1.
         22    1    1    0    0    0 -0.82407650855E+01  0.14082905961E+02 -0.22470821619E+02  0.27770060744E+02  0.00000000000E+00 0. -1.
</event>
<event>
 5    1  0.8962567E-005  0.9118800E+02  0.7818608E-02  0.1130116E+00
         25   -1    0    0    0    0  0.00000000000E+00  0.00000000000E+00  0.99999998245E-14  0.12500000000E+03  0.12500000000E+03 0.  0.
        -11    1    3    3    0    0  0.36659696881E+02  0.37849773867E+02 -0.20360691848E+02  0.56489791379E+02  0.51100000000E-03 0.  1.
         23    2    1    0    0    0  0.46043148051E+00  0.26839549104E+02 -0.13535203612E+02  0.94937147007E+02  0.90051578286E+02 0.  0.
         11    1    3    3    0    0 -0.36199265401E+02 -0.11010224763E+02  0.68254882361E+01  0.38447355628E+02  0.51100000000E-03 0. -1.
         22    1    1    0    0    0 -0.46043148051E+00 -0.26839549104E+02  0.13535203612E+02  0.30062852993E+02  0.00000000000E+00 0.  1.
</event>
<event>
 5    1  0.8962567E-005  0.9118800E+02  0.7818608E-02  0.1130116E+00
         25   -1    0    0    0    0  0.00000000000E+00  0.00000000000E+00  0.99999998245E-14  0.12500000000E+03  0.12500000000E+03 0.  0.
        -11    1    3    3    0    0  0.36238693843E+02 -0.72070383005E+01  0.30592024835E+02  0.47969326828E+02  0.51100000000E-03 0.  1.
         23    2    1    0    0    0  0.33338478983E+01 -0.28128791147E+02  0.14714101325E+01  0.96636141289E+02  0.92379842618E+02 0.  0.
         11    1    3    3    0    0 -0.32904845945E+02 -0.20921752847E+02 -0.29120614703E+02  0.48666814461E+02  0.51100000000E-03 0. -1.
         22    1    1    0    0    0 -0.33338478983E+01  0.28128791147E+02 -0.14714101325E+01  0.28363858711E+02  0.00000000000E+00 0. -1.
</event>
<event>
 5    1  0.8962567E-005  0.9118800E+02  0.7818608E-02  0.1130116E+00
         25   -1    0    0    0    0  0.00000000000E+00  0.00000000000E+00  0.99999998245E-14  0.12500000000E+03  0.12500000000E+03 0.  0.
        -11    1    3    3    0    0 -0.18169651965E+02 -0.36481909856E+02  0.24877323136E+02  0.47748792717E+02  0.51100000000E-03 0.  1.
         23    2    1    0    0    0  0.83330483236E+01 -0.25791884426E+02 -0.12789531838E+02  0.95029462447E+02  0.90179629693E+02 0.  0.
         11    1    3    3    0    0  0.26502700289E+02  0.10690025430E+02 -0.37666854973E+02  0.47280669730E+02  0.51100000000E-03 0. -1.
         22    1    1    0    0    0 -0.83330483236E+01  0.25791884426E+02  0.12789531838E+02  0.29970537553E+02  0.00000000000E+00 0. -1.
</event>
<event>
 5    1  0.8962567E-005  0.9118800E+02  0.7818608E-02  0.1130116E+00
         25   -1    0    0    0    0  0.00000000000E+00  0.00000000000E+00  0.99999998245E-14  0.12500000000E+03  0.12500000000E+03 0.  0.
        -11    1    3    3    0    0  0.15649016126E+01 -0.25256738909E+02  0.76684748626E+01  0.26441582486E+02  0.51100000000E-03 0.  1.
         23    2    1    0    0    0 -0.13977046625E+02  0.15531060704E+02 -0.32896099392E+02  0.86029177143E+02  0.76696116497E+02 0.  0.
         11    1    3    3    0    0 -0.15541948237E+02  0.40787799613E+02 -0.40564574255E+02  0.59587594657E+02  0.51100000000E-03 0. -1.
         22    1    1    0    0    0  0.13977046625E+02 -0.15531060704E+02  0.32896099392E+02  0.38970822857E+02  0.00000000000E+00 0. -1.
</event>
<event>
 5    1  0.8962567E-005  0.9118800E+02  0.7818608E-02  0.1130116E+00
         25   -1    0    0    0    0  0.00000000000E+00  0.00000000000E+00  0.99999998245E-14  0.12500000000E+03  0.12500000000E+03 0.  0.
        -11    1    3    3    0    0  0.27939045797E+02 -0.24544173763E+02 -0.83964326605E+01  0.38124884622E+02  0.51100000000E-03 0. -1.
         23    2    1    0    0    0  0.65929138801E+01  0.28011024390E+02  0.32743422461E+01  0.96037864064E+02  0.91566729854E+02 0.  0.
         11    1    3    3    0    0 -0.21346131917E+02  0.52555198153E+02  0.11670774907E+02  0.57912979442E+02  0.51100000000E-03 0.  1.
         22    1    1    0    0    0 -0.65929138801E+01 -0.28011024390E+02 -0.32743422461E+01  0.28962135936E+02  0.00000000000E+00 0.  1.
</event>
<event>
 5    1  0.8962567E-005  0.9118800E+02  0.7818608E-02  0.1130116E+00
         25   -1    0    0    0    0  0.00000000000E+00  0.00000000000E+00  0.99999998245E-14  0.12500000000E+03  0.12500000000E+03 0.  0.
        -11    1    3    3    0    0  0.38765363022E+02 -0.36444052913E+02  0.65382859087E+01  0.53606637143E+02  0.51100000000E-03 0.  1.
         23    2    1    0    0    0 -0.29862004218E+01 -0.22792017245E+02  0.13887101204E+02  0.98143994658E+02  0.94398086127E+02 0.  0.
         11    1    3    3    0    0 -0.41751563444E+02  0.13652035667E+02  0.73488152954E+01  0.44537357515E+02  0.51100000000E-03 0. -1.
         22    1    1    0    0    0  0.29862004218E+01  0.22792017245E+02 -0.13887101204E+02  0.26856005342E+02  0.00000000000E+00 0.  1.
</event>
<event>
 5    1  0.8962567E-005  0.9118800E+02  0.7818608E-02  0.1130116E+00
         25   -1    0    0    0    0  0.00000000000E+00  0.00000000000E+00  0.99999998245E-14  0.12500000000E+03  0.12500000000E+03 0.  0.
        -11    1    3    3    0    0  0.22020558758E+01  0.19413831102E+02  0.38490593719E+02  0.43165630927E+02  0.51100000000E-03 0.  1.
         23    2    1    0    0    0 -0.25828282340E+02 -0.74673205743E+01  0.33071357736E+02  0.82378693736E+02  0.70495910760E+02 0.  0.
         11    1    3    3    0    0 -0.28030338216E+02 -0.26881151677E+02 -0.54192359835E+01  0.39213062809E+02  0.51100000000E-03 0. -1.
         22    1    1    0    0    0  0.25828282340E+02  0.74673205743E+01 -0.33071357736E+02  0.42621306264E+02  0.00000000000E+00 0. -1.
</event>
<event>
 5    1  0.8962567E-005  0.9118800E+02  0.7818608E-02  0.1130116E+00
         25   -1    0    0    0    0  0.00000000000E+00  0.00000000000E+00  0.99999998245E-14  0.12500000000E+03  0.12500000000E+03 0.  0.
        -11    1    3    3    0    0 -0.11176993483E+02  0.27483680239E+02  0.45098385728E+02  0.53982795947E+02  0.51100000000E-03 0. -1.
         23    2    1    0    0    0  0.23886645930E+01 -0.84139393611E+01  0.27390961786E+02  0.96246480535E+02  0.91851075844E+02 0.  0.
         11    1    3    3    0    0  0.13565658076E+02 -0.35897619600E+02 -0.17707423942E+02  0.42263684587E+02  0.51100000000E-03 0.  1.
         22    1    1    0    0    0 -0.23886645930E+01  0.84139393611E+01 -0.27390961786E+02  0.28753519465E+02  0.00000000000E+00 0. -1.
</event>
<event>
 5    1  0.8962567E-005  0.9118800E+02  0.7818608E-02  0.1130116E+00
         25   -1    0    0    0    0  0.00000000000E+00  0.00000000000E+00  0.99999998245E-14  0.12500000000E+03  0.12500000000E+03 0.  0.
        -11    1    3    3    0    0  0.20403932084E+02 -0.26509826094E+02 -0.42034192832E+02  0.53721175446E+02  0.51100000000E-03 0. -1.
         23    2    1    0    0    0  0.78581621107E+01 -0.33177882100E+02 -0.89168496120E+01  0.89757514568E+02  0.82549249797E+02 0.  0.
         11    1    3    3    0    0 -0.12545769973E+02 -0.66680560069E+01  0.33117343220E+02  0.36036339122E+02  0.51100000000E-03 0.  1.
         22    1    1    0    0    0 -0.78581621107E+01  0.33177882100E+02  0.89168496120E+01  0.35242485432E+02  0.00000000000E+00 0. -1.
</event>
<event>
 5    1  0.8962567E-005  0.9118800E+02  0.7818608E-02  0.1130116E+00
         25   -1    0    0    0    0  0.00000000000E+00  0.00000000000E+00  0.99999998245E-14  0.12500000000E+03  0.12500000000E+03 0.  0.
        -11    1    3    3    0    0  0.11867150028E+02 -0.21386350511E+02  0.54641209011E+02  0.59865407043E+02  0.51100000000E-03 0. -1.
         23    2    1    0    0    0  0.14896862181E+02 -0.12076525143E+01  0.25559133814E+02  0.95391821252E+02  0.90680512311E+02 0.  0.
         11    1    3    3    0    0  0.30297121526E+01  0.20178697997E+02 -0.29082075197E+02  0.35526414210E+02  0.51100000000E-03 0.  1.
         22    1    1    0    0    0 -0.14896862181E+02  0.12076525143E+01 -0.25559133814E+02  0.29608178748E+02  0.00000000000E+00 0. -1.
</event>
<event>
 5    1  0.8962567E-005  0.9118800E+02  0.7818608E-02  0.1130116E+00
         25   -1    0    0    0    0  0.00000000000E+00  0.00000000000E+00  0.99999998245E-14  0.12500000000E+03  0.12500000000E+03 0.  0.
        -11    1    3    3    0    0  0.99019381811E+01  0.35823242599E+02 -0.37095953802E+02  0.52511549956E+02  0.51100000000E-03 0.  1.
         23    2    1    0    0    0  0.23840933266E+02  0.14647272570E+02 -0.52040268782E+00  0.97014226620E+02  0.92890024518E+02 0.  0.
         11    1    3    3    0    0  0.13938995085E+02 -0.21175970030E+02  0.36575551114E+02  0.44502676664E+02  0.51100000000E-03 0. -1.
         22    1    1    0    0    0 -0.23840933266E+02 -0.14647272570E+02  0.52040268782E+00  0.27985773380E+02  0.00000000000E+00 0.  1.
</event>
<event>
 5    1  0.8962567E-005  0.9118800E+02  0.7818608E-02  0.1130116E+00
         25   -1    0    0    0    0  0.00000000000E+00  0.00000000000E+00  0.99999998245E-14  0.12500000000E+03  0.12500000000E+03 0.  0.
        -11    1    3    3    0    0 -0.24406872504E+02 -0.24726533104E+02 -0.40869791009E+02  0.53641743839E+02  0.51100000000E-03 0. -1.
         23    2    1    0    0    0  0.11394529808E+02 -0.82800565735E+01 -0.25375702111E+02  0.95977234728E+02  0.91483925812E+02 0.  0.
         11    1    3    3    0    0  0.35801402312E+02  0.16446476530E+02  0.15494088898E+02  0.42335490889E+02  0.51100000000E-03 0.  1.
         22    1    1    0    0    0 -0.11394529808E+02  0.82800565735E+01  0.25375702111E+02  0.29022765272E+02  0.00000000000E+00 0.  1.
</event>
<event>
 5    1  0.8962567E-005  0.9118800E+02  0.7818608E-02  0.1130116E+00
         25   -1    0    0    0    0  0.00000000000E+00  0.00000000000E+00  0.99999998245E-14  0.12500000000E+03  0.12500000000E+03 0.  0.
        -11    1    3    3    0    0 -0.27601898201E+02 -0.75612263217E+01 -0.45401880420E+02  0.53669056949E+02  0.51100000000E-03 0. -1.
         23    2    1    0    0    0 -0.96450010470E+01 -0.25097460826E+02 -0.11731411680E+02  0.95665129877E+02  0.91056479557E+02 0.  0.
         11    1    3    3    0    0  0.17956897154E+02 -0.17536234504E+02  0.33670468741E+02  0.41996072929E+02  0.51100000000E-03 0.  1.
         22    1    1    0    0    0  0.96450010470E+01  0.25097460826E+02  0.11731411680E+02  0.29334870123E+02  0.00000000000E+00 0. -1.
</event>
<event>
 5    1  0.8962567E-005  0.9118800E+02  0.7818608E-02  0.1130116E+00
         25   -1    0    0    0    0  0.00000000000E+00  0.00000000000E+00  0.99999998245E-14  0.12500000000E+03  0.12500000000E+03 0.  0.
        -11    1    3    3    0    0 -0.13010043066E+02 -0.29783844521E+02  0.26015873183E+02  0.41631289588E+02  0.51100000000E-03 0.  1.
         23    2    1    0    0    0  0.19173987694E+02  0.14675191765E+02  0.10519893571E+02  0.98662361188E+02  0.95082018789E+02 0.  0.
         11    1    3    3    0    0  0.32184030760E+02  0.44459036286E+02 -0.15495979612E+02  0.57031071600E+02  0.51100000000E-03 0. -1.
         22    1    1    0    0    0 -0.19173987694E+02 -0.14675191765E+02 -0.10519893571E+02  0.26337638812E+02  0.00000000000E+00 0. -1.
</event>
<event>
 5    1  0.8962567E-005  0.9118800E+02  0.7818608E-02  0.1130116E+00
         25   -1    0    0    0    0  0.00000000000E+00  0.00000000000E+00  0.99999998245E-14  0.12500000000E+03  0.12500000000E+03 0.  0.
        -11    1    3    3    0    0  0.41887648340E+02 -0.21565157759E+02 -0.94530405345E+01  0.48051962377E+02  0.51100000000E-03 0.  1.
         23    2    1    0    0    0  0.62928861800E+01  0.10995669660E+02 -0.23505211015E+02  0.98297938046E+02  0.94601715161E+02 0.  0.
         11    1    3    3    0    0 -0.35594762160E+02  0.32560827419E+02 -0.14052170480E+02  0.50245975669E+02  0.51100000000E-03 0. -1.
         22    1    1    0    0    0 -0.62928861800E+01 -0.10995669660E+02  0.23505211015E+02  0.26702061954E+02  0.00000000000E+00 0.  1.
</event>
<event>
 5    1  0.8962567E-005  0.9118800E+02  0.7818608E-02  0.1130116E+00
         25   -1    0    0    0    0  0.00000000000E+00  0.00000000000E+00  0.99999998245E-14  0.12500000000E+03  0.12500000000E+03 0.  0.
        -11    1    3    3    0    0 -0.26811129810E+02  0.44627622739E+02 -0.32318077879E+02  0.61277398370E+02  0.51100000000E-03 0. -1.
         23    2    1    0    0    0 -0.13724339651E+02  0.12758208005E+02 -0.19281222580E+02  0.98113294837E+02  0.94357425300E+02 0.  0.
         11    1    3    3    0    0  0.13086790160E+02 -0.31869414734E+02  0.13036855298E+02  0.36835896467E+02  0.51100000000E-03 0.  1.
         22    1    1    0    0    0  0.13724339651E+02 -0.12758208005E+02  0.19281222580E+02  0.26886705163E+02  0.00000000000E+00 0. -1.
</event>
<event>
 5    1  0.8962567E-005  0.9118800E+02  0.7818608E-02  0.1130116E+00
         25   -1    0    0    0    0  0.00000000000E+00  0.00000000000E+00  0.99999998245E-14  0.12500000000E+03  0.12500000000E+03 0.  0.
        -11    1    3    3    0    0  0.64354498341E+00 -0.30700005352E+02 -0.24396980932E+02  0.39218836771E+02  0.51100000000E-03 0. -1.
         23    2    1    0    0    0 -0.25005288717E+02  0.13405805245E+02  0.17963003793E+01  0.96571022298E+02  0.92291687462E+02 0.  0.
         11    1    3    3    0    0 -0.25648833701E+02  0.44105810598E+02  0.26193281311E+02  0.57352185528E+02  0.51100000000E-03 0.  1.
         22    1    1    0    0    0  0.25005288717E+02 -0.13405805245E+02 -0.17963003793E+01  0.28428977702E+02  0.00000000000E+00 0.  1.
</event>
<event>
 5    1  0.8962567E-005  0.9118800E+02  0.7818608E-02  0.1130116E+00
         25   -1    0    0    0    0  0.00000000000E+00  0.00000000000E+00  0.99999998245E-14  0.12500000000E+03  0.12500000000E+03 0.  0.
        -11    1    3    3    0    0 -0.24654795267E+01  0.21504912999E+02  0.41410857651E+02  0.46726855276E+02  0.51100000000E-03 0.  1.
         23    2    1    0    0    0  0.27538480041E+02  0.14096287601E+01  0.71304664634E+01  0.96518453550E+02  0.92220460785E+02 0.  0.
         11    1    3    3    0    0  0.30003959568E+02 -0.20095284239E+02 -0.34280391187E+02  0.49791598273E+02  0.51100000000E-03 0. -1.
         22    1    1    0    0    0 -0.27538480041E+02 -0.14096287601E+01 -0.71304664634E+01  0.28481546450E+02  0.00000000000E+00 0. -1.
</event>
<event>
 5    1  0.8962567E-005  0.9118800E+02  0.7818608E-02  0.1130116E+00
         25   -1    0    0    0    0  0.00000000000E+00  0.00000000000E+00  0.99999998245E-14  0.12500000000E+03  0.12500000000E+03 0.  0.
        -11    1    3    3    0    0 -0.27055125558E+02  0.40520284981E+01  0.36508800811E+02  0.45621171519E+02  0.51100000000E-03 0.  1.
         23    2    1    0    0    0 -0.11236010471E+02  0.25181249642E+02 -0.70369724121E+01  0.96541921260E+02  0.92252264552E+02 0.  0.
         11    1    3    3    0    0  0.15819115086E+02  0.21129221144E+02 -0.43545773223E+02  0.50920749740E+02  0.51100000000E-03 0. -1.
         22    1    1    0    0    0  0.11236010471E+02 -0.25181249642E+02  0.70369724121E+01  0.28458078740E+02  0.00000000000E+00 0.  1.
</event>
<event>
 5    1  0.8962567E-005  0.9118800E+02  0.7818608E-02  0.1130116E+00
         25   -1    0    0    0    0  0.00000000000E+00  0.00000000000E+00  0.99999998245E-14  0.12500000000E+03  0.12500000000E+03 0.  0.
        -11    1    3    3    0    0  0.39881571607E+02  0.47286313858E+02 -0.44720140249E+00  0.61860611228E+02  0.51100000000E-03 0.  1.
         23    2    1    0    0    0  0.17888275639E+02  0.22265355584E+02 -0.64740031919E+01  0.95714351947E+02  0.91124025299E+02 0.  0.
         11    1    3    3    0    0 -0.21993295969E+02 -0.25020958275E+02 -0.60268017894E+01  0.33853740718E+02  0.51100000000E-03 0. -1.
         22    1    1    0    0    0 -0.17888275639E+02 -0.22265355584E+02  0.64740031919E+01  0.29285648053E+02  0.00000000000E+00 0.  1.
</event>
<event>
 5    1  0.8962567E-005  0.9118800E+02  0.7818608E-02  0.1130116E+00
         25   -1    0    0    0    0  0.00000000000E+00  0.00000000000E+00  0.99999998245E-14  0.12500000000E+03  0.12500000000E+03 0.  0.
        -11    1    3    3    0    0  0.28434496069E+02 -0.47253027634E+02 -0.54166755683E+01  0.55413983449E+02  0.51100000000E-03 0.  1.
         23    2    1    0    0    0  0.10898059312E+01 -0.21597913057E+02 -0.19902147365E+02  0.95610325026E+02  0.90981213755E+02 0.  0.
         11    1    3    3    0    0 -0.27344690138E+02  0.25655114577E+02 -0.14485471796E+02  0.40196341576E+02  0.51100000000E-03 0. -1.
         22    1    1    0    0    0 -0.10898059312E+01  0.21597913057E+02  0.19902147365E+02  0.29389674974E+02  0.00000000000E+00 0.  1.
</event>
<event>
 5    1  0.8962567E-005  0.9118800E+02  0.7818608E-02  0.1130116E+00
         25   -1    0    0    0    0  0.00000000000E+00  0.00000000000E+00  0.99999998245E-14  0.12500000000E+03  0.12500000000E+03 0.  0.
        -11    1    3    3    0    0 -0.11536423867E+02 -0.14941812749E+02 -0.10347586023E+02  0.21527177721E+02  0.51100000000E-03 0. -1.
         23    2    1    0    0    0  0.18251461698E+02  0.37962623417E+02 -0.18059734085E+01  0.82839139350E+02  0.71307677268E+02 0.  0.
         11    1    3    3    0    0  0.29787885564E+02  0.52904436166E+02  0.85416126149E+01  0.61311961629E+02  0.51100000000E-03 0.  1.
         22    1    1    0    0    0 -0.18251461698E+02 -0.37962623417E+02  0.18059734085E+01  0.42160860650E+02  0.00000000000E+00 0.  1.
</event>
<event>
 5    1  0.8962567E-005  0.9118800E+02  0.7818608E-02  0.1130116E+00
         25   -1    0    0    0    0  0.00000000000E+00  0.00000000000E+00  0.99999998245E-14  0.12500000000E+03  0.12500000000E+03 0.  0.
        -11    1    3    3    0    0  0.18630710142E+02 -0.42105205703E+02 -0.32573427802E+02  0.56400176478E+02  0.51100000000E-03 0.  1.
         23    2    1    0    0    0  0.24201088711E+02 -0.75270931966E+01 -0.14090421532E+02  0.96001899963E+02  0.91517621204E+02 0.  0.
         11    1    3    3    0    0  0.55703785697E+01  0.34578112507E+02  0.18483006270E+02  0.39601723485E+02  0.51100000000E-03 0. -1.
         22    1    1    0    0    0 -0.24201088711E+02  0.75270931966E+01  0.14090421532E+02  0.28998100037E+02  0.00000000000E+00 0.  1.
</event>
<event>
 5    1  0.8962567E-005  0.9118800E+02  0.7818608E-02  0.1130116E+00
         25   -1    0    0    0    0  0.00000000000E+00  0.00000000000E+00  0.99999998245E-14  0.12500000000E+03  0.12500000000E+03 0.  0.
        -11    1    3    3    0    0  0.31185258634E+02 -0.26415946050E+02 -0.34850523211E+02  0.53711093176E+02  0.51100000000E-03 0.  1.
         23    2    1    0    0    0 -0.80656545573E+01 -0.31142913990E+01  0.55976965399E+01  0.11470010675E+03  0.11423671340E+03 0.  0.
         11    1    3    3    0    0 -0.39250913191E+02  0.23301654651E+02  0.40448219750E+02  0.60989013577E+02  0.51100000000E-03 0. -1.
         22    1    1    0    0    0  0.80656545573E+01  0.31142913990E+01 -0.55976965399E+01  0.10299893247E+02  0.00000000000E+00 0. -1.
</event>
<event>
 5    1  0.8962567E-005  0.9118800E+02  0.7818608E-02  0.1130116E+00
         25   -1    0    0    0    0  0.00000000000E+00  0.00000000000E+00  0.99999998245E-14  0.12500000000E+03  0.12500000000E+03 0.  0.
        -11    1    3    3    0    0  0.10577138602E+02 -0.47376500950E+02 -0.25549407787E+02  0.54856001876E+02  0.51100000000E-03 0. -1.
         23    2    1    0    0    0 -0.51153445531E+01 -0.90067515704E+01 -0.26736003341E+02  0.96327675393E+02  0.91961507427E+02 0.  0.
         11    1    3    3    0    0 -0.15692483155E+02  0.38369749380E+02 -0.11865955536E+01  0.41471673517E+02  0.51100000000E-03 0.  1.
         22    1    1    0    0    0  0.51153445531E+01  0.90067515704E+01  0.26736003341E+02  0.28672324607E+02  0.00000000000E+00 0. -1.
</event>
<event>
 5    1  0.8962567E-005  0.9118800E+02  0.7818608E-02  0.1130116E+00
         25   -1    0    0    0    0  0.00000000000E+00  0.00000000000E+00  0.99999998245E-14  0.12500000000E+03  0.12500000000E+03 0.  0.
        -11    1    3    3    0    0 -0.21726778795E+02  0.27268973495E+02  0.21181301654E+02  0.40795800915E+02  0.51100000000E-03 0. -1.
         23    2    1    0    0    0  0.68678809822E+01 -0.30484778430E+01  0.38388235092E+02  0.85883282349E+02  0.76457966146E+02 0.  0.
         11    1    3    3    0    0  0.28594659778E+02 -0.30317451338E+02  0.17206933438E+02  0.45087481434E+02  0.51100000000E-03 0.  1.
         22    1    1    0    0    0 -0.68678809822E+01  0.30484778430E+01 -0.38388235092E+02  0.39116717651E+02  0.00000000000E+00 0.  1.
</event>
<event>
 5    1  0.8962567E-005  0.9118800E+02  0.7818608E-02  0.1130116E+00
         25   -1    0    0    0    0  0.00000000000E+00  0.00000000000E+00  0.99999998245E-14  0.12500000000E+03  0.12500000000E+03 0.  0.
        -11    1    3    3    0    0  0.27010314388E+02 -0.21285964124E+02  0.93381667158E+00  0.34402345354E+02  0.51100000000E-03 0.  1.
         23    2    1    0    0    0 -0.24606350226E+02  0.98350986781E+01  0.12378948559E+02  0.95752094009E+02  0.91175783529E+02 0.  0.
         11    1    3    3    0    0 -0.51616664614E+02  0.31121062802E+02  0.11445131888E+02  0.61349748655E+02  0.51100000000E-03 0. -1.
         22    1    1    0    0    0  0.24606350226E+02 -0.98350986781E+01 -0.12378948559E+02  0.29247905991E+02  0.00000000000E+00 0. -1.
</event>
<event>
 5    1  0.8962567E-005  0.9118800E+02  0.7818608E-02  0.1130116E+00
         25   -1    0    0    0    0  0.00000000000E+00  0.00000000000E+00  0.99999998245E-14  0.12500000000E+03  0.12500000000E+03 0.  0.
        -11    1    3    3    0    0  0.16608918054E+02 -0.46010410325E+02  0.87535024881E+01  0.49693438433E+02  0.51100000000E-03 0. -1.
         23    2    1    0    0    0 -0.12977500919E+02 -0.16850710730E+02 -0.16299125714E+02  0.98204039834E+02  0.94477563254E+02 0.  0.
         11    1    3    3    0    0 -0.29586418973E+02  0.29159699596E+02 -0.25052628202E+02  0.48510601401E+02  0.51100000000E-03 0.  1.
         22    1    1    0    0    0  0.12977500919E+02  0.16850710730E+02  0.16299125714E+02  0.26795960166E+02  0.00000000000E+00 0. -1.
</event>
<event>
 5    1  0.8962567E-005  0.9118800E+02  0.7818608E-02  0.1130116E+00
         25   -1    0    0    0    0  0.00000000000E+00  0.00000000000E+00  0.99999998245E-14  0.12500000000E+03  0.12500000000E+03 0.  0.
        -11    1    3    3    0    0 -0.35499805921E+02 -0.91816593950E+01  0.53686375195E+01  0.37058890414E+02  0.51100000000E-03 0.  1.
         23    2    1    0    0    0  0.16298929976E+02 -0.16181623122E+02 -0.19433270870E+02  0.94914254838E+02  0.90019796209E+02 0.  0.
         11    1    3    3    0    0  0.51798735896E+02 -0.69999637272E+01 -0.24801908390E+02  0.57855364424E+02  0.51100000000E-03 0. -1.
         22    1    1    0    0    0 -0.16298929976E+02  0.16181623122E+02  0.19433270870E+02  0.30085745162E+02  0.00000000000E+00 0. -1.
</event>
<event>
 5    1  0.8962567E-005  0.9118800E+02  0.7818608E-02  0.1130116E+00
         25   -1    0    0    0    0  0.00000000000E+00  0.00000000000E+00  0.99999998245E-14  0.12500000000E+03  0.12500000000E+03 0.  0.
        -11    1    3    3    0    0  0.47879191233E+02 -0.22982695769E+02 -0.19380824821E+02  0.56535277738E+02  0.51100000000E-03 0.  1.
         23    2    1    0    0    0  0.19146000683E+02  0.82638158666E+01 -0.15210226732E+02  0.99188936634E+02  0.95771781640E+02 0.  0.
         11    1    3    3    0    0 -0.28733190549E+02  0.31246511636E+02  0.41705980885E+01  0.42653658896E+02  0.51100000000E-03 0. -1.
         22    1    1    0    0    0 -0.19146000683E+02 -0.82638158666E+01  0.15210226732E+02  0.25811063366E+02  0.00000000000E+00 0.  1.
</event>
<event>
 5    1  0.8962567E-005  0.9118800E+02  0.7818608E-02  0.1130116E+00
         25   -1    0    0    0    0  0.00000000000E+00  0.00000000000E+00  0.99999998245E-14  0.12500000000E+03  0.12500000000E+03 0.  0.
        -11    1    3    3    0    0 -0.36484706000E+02  0.81248451876E+01 -0.19600542543E+02  0.42205783365E+02  0.51100000000E-03 0. -1.
         23    2    1    0    0    0  0.46897290020E+00 -0.26621658660E+02  0.38665219840E+01  0.98094932863E+02  0.94333097139E+02 0.  0.
         11    1    3    3    0    0  0.36953678900E+02 -0.34746503847E+02  0.23467064527E+02  0.55889149498E+02  0.51100000000E-03 0.  1.
         22    1    1    0    0    0 -0.46897290020E+00  0.26621658660E+02 -0.38665219840E+01  0.26905067137E+02  0.00000000000E+00 0.  1.
</event>
<event>
 5    1  0.8962567E-005  0.9118800E+02  0.7818608E-02  0.1130116E+00
         25   -1    0    0    0    0  0.00000000000E+00  0.00000000000E+00  0.99999998245E-14  0.12500000000E+03  0.12500000000E+03 0.  0.
        -11    1    3    3    0    0  0.15388642103E+02 -0.58584356629E+02  0.60446584547E+01  0.60872613247E+02  0.51100000000E-03 0. -1.
         23    2    1    0    0    0 -0.10664089744E+01 -0.35369078965E+02  0.35435781734E+01  0.89437858315E+02  0.82063783600E+02 0.  0.
         11    1    3    3    0    0 -0.16455051078E+02  0.23215277664E+02 -0.25010802812E+01  0.28565245068E+02  0.51100000000E-03 0.  1.
         22    1    1    0    0    0  0.10664089744E+01  0.35369078965E+02 -0.35435781734E+01  0.35562141685E+02  0.00000000000E+00 0. -1.
</event>
<event>
 5    1  0.8962567E-005  0.9118800E+02  0.7818608E-02  0.1130116E+00
         25   -1    0    0    0    0  0.00000000000E+00  0.00000000000E+00  0.99999998245E-14  0.12500000000E+03  0.12500000000E+03 0.  0.
        -11    1    3    3    0    0  0.37286077709E+01 -0.18163327910E+02 -0.31006038052E+02  0.36127321968E+02  0.51100000000E-03 0.  1.
         23    2    1    0    0    0  0.16629843155E+02 -0.21865057359E+01  0.24499023360E+02  0.95309351029E+02  0.90566758567E+02 0.  0.
         11    1    3    3    0    0  0.12901235384E+02  0.15976822174E+02  0.55505061412E+02  0.59182029061E+02  0.51100000000E-03 0. -1.
         22    1    1    0    0    0 -0.16629843155E+02  0.21865057359E+01 -0.24499023360E+02  0.29690648971E+02  0.00000000000E+00 0. -1.
</event>
<event>
 5    1  0.8962567E-005  0.9118800E+02  0.7818608E-02  0.1130116E+00
         25   -1    0    0    0    0  0.00000000000E+00  0.00000000000E+00  0.99999998245E-14  0.12500000000E+03  0.12500000000E+03 0.  0.
        -11    1    3    3    0    0 -0.17924409461E+02  0.24112915826E+02  0.16650141700E+02  0.34350318529E+02  0.51100000000E-03 0.  1.
         23    2    1    0    0    0  0.27596822243E+02 -0.12855836369E+02  0.47527419313E+01  0.94186923514E+02  0.89004105964E+02 0.  0.
         11    1    3    3    0    0  0.45521231704E+02 -0.36968752194E+02 -0.11897399769E+02  0.59836604985E+02  0.51100000000E-03 0. -1.
         22    1    1    0    0    0 -0.27596822243E+02  0.12855836369E+02 -0.47527419313E+01  0.30813076486E+02  0.00000000000E+00 0. -1.
</event>
<event>
 5    1  0.8962567E-005  0.9118800E+02  0.7818608E-02  0.1130116E+00
         25   -1    0    0    0    0  0.00000000000E+00  0.00000000000E+00  0.99999998245E-14  0.12500000000E+03  0.12500000000E+03 0.  0.
        -11    1    3    3    0    0 -0.68034562026E+00 -0.39209903656E+02 -0.36582473348E+02  0.53629812337E+02  0.51100000000E-03 0.  1.
         23    2    1    0    0    0 -0.91737907201E+01 -0.39502625322E+02 -0.77194715078E+01  0.83717968996E+02  0.72831945250E+02 0.  0.
         11    1    3    3    0    0 -0.84934450999E+01 -0.29272166589E+00  0.28863001840E+02  0.30088156658E+02  0.51100000000E-03 0. -1.
         22    1    1    0    0    0  0.91737907201E+01  0.39502625322E+02  0.77194715078E+01  0.41282031004E+02  0.00000000000E+00 0.  1.
</event>
<event>
 5    1  0.8962567E-005  0.9118800E+02  0.7818608E-02  0.1130116E+00
         25   -1    0    0    0    0  0.00000000000E+00  0.00000000000E+00  0.99999998245E-14  0.12500000000E+03  0.12500000000E+03 0.  0.
        -11    1    3    3    0    0  0.39079154162E+02  0.46640724081E+02 -0.33595994227E+01  0.60941154743E+02  0.51100000000E-03 0.  1.
         23    2    1    0    0    0  0.23488160985E+02  0.15030018441E+02  0.36464069604E+01  0.96877207740E+02  0.92705457957E+02 0.  0.
         11    1    3    3    0    0 -0.15590993177E+02 -0.31610705640E+02  0.70060063831E+01  0.35936052997E+02  0.51100000000E-03 0. -1.
         22    1    1    0    0    0 -0.23488160985E+02 -0.15030018441E+02 -0.36464069604E+01  0.28122792260E+02  0.00000000000E+00 0.  1.
</event>
<event>
 5    1  0.8962567E-005  0.9118800E+02  0.7818608E-02  0.1130116E+00
         25   -1    0    0    0    0  0.00000000000E+00  0.00000000000E+00  0.99999998245E-14  0.12500000000E+03  0.12500000000E+03 0.  0.
        -11    1    3    3    0    0 -0.16621024876E+02  0.11942589909E+02 -0.41900797880E+02  0.46632186147E+02  0.51100000000E-03 0.  1.
         23    2    1    0    0    0 -0.56951373017E+01  0.28742197233E+02  0.27463141850E+01  0.95570580497E+02  0.90926591953E+02 0.  0.
         11    1    3    3    0    0  0.10925887574E+02  0.16799607325E+02  0.44647112065E+02  0.48938394350E+02  0.51100000000E-03 0. -1.
         22    1    1    0    0    0  0.56951373017E+01 -0.28742197233E+02 -0.27463141850E+01  0.29429419503E+02  0.00000000000E+00 0. -1.
</event>
<event>
 5    1  0.8962567E-005  0.9118800E+02  0.7818608E-02  0.1130116E+00
         25   -1    0    0    0    0  0.00000000000E+00  0.00000000000E+00  0.99999998245E-14  0.12500000000E+03  0.12500000000E+03 0.  0.
        -11    1    3    3    0    0 -0.32884872388E+02 -0.62444966258E+01 -0.10520064685E+02  0.35086754358E+02  0.51100000000E-03 0.  1.
         23    2    1    0    0    0  0.17425036808E+02  0.23946971242E+02  0.27960376743E+01  0.95252610768E+02  0.90488411922E+02 0.  0.
         11    1    3    3    0    0  0.50309909197E+02  0.30191467867E+02  0.13316102360E+02  0.60165856411E+02  0.51100000000E-03 0. -1.
         22    1    1    0    0    0 -0.17425036808E+02 -0.23946971242E+02 -0.27960376743E+01  0.29747389232E+02  0.00000000000E+00 0. -1.
</event>
<event>
 5    1  0.8962567E-005  0.9118800E+02  0.7818608E-02  0.1130116E+00
         25   -1    0    0    0    0  0.00000000000E+00  0.00000000000E+00  0.99999998245E-14  0.12500000000E+03  0.12500000000E+03 0.  0.
        -11    1    3    3    0    0 -0.35356382278E+02  0.35992664846E+01  0.28240042540E+00  0.35540234064E+02  0.51100000000E-03 0.  1.
         23    2    1    0    0    0  0.24692554084E+02  0.11030408684E+02  0.86114406203E+01  0.96617803952E+02  0.92355026869E+02 0.  0.
         11    1    3    3    0    0  0.60048936363E+02  0.74311421990E+01  0.83290401949E+01  0.61077569889E+02  0.51100000000E-03 0. -1.
         22    1    1    0    0    0 -0.24692554084E+02 -0.11030408684E+02 -0.86114406203E+01  0.28382196048E+02  0.00000000000E+00 0. -1.
</event>
<event>
 5    1  0.8962567E-005  0.9118800E+02  0.7818608E-02  0.1130116E+00
         25   -1    0    0    0    0  0.00000000000E+00  0.00000000000E+00  0.99999998245E-14  0.12500000000E+03  0.12500000000E+03 0.  0.
        -11    1    3    3    0    0  0.41806495644E+01  0.35861617746E+02  0.34801882979E+02  0.50146829583E+02  0.51100000000E-03 0. -1.
         23    2    1    0    0    0 -0.14753063871E+02 -0.56169891600E+01 -0.24495264183E+01  0.10902490562E+03  0.10784816366E+03 0.  0.
         11    1    3    3    0    0 -0.18933713436E+02 -0.41478606906E+02 -0.37251409397E+02  0.58878076035E+02  0.51100000000E-03 0.  1.
         22    1    1    0    0    0  0.14753063871E+02  0.56169891600E+01  0.24495264183E+01  0.15975094381E+02  0.00000000000E+00 0.  1.
</event>
<event>
 5    1  0.8962567E-005  0.9118800E+02  0.7818608E-02  0.1130116E+00
         25   -1    0    0    0    0  0.00000000000E+00  0.00000000000E+00  0.99999998245E-14  0.12500000000E+03  0.12500000000E+03 0.  0.
        -11    1    3    3    0    0 -0.43360795159E+02  0.22814465896E+02 -0.33926410359E+02  0.59595802965E+02  0.51100000000E-03 0. -1.
         23    2    1    0    0    0 -0.16609142141E+02  0.13189350312E+01 -0.24828763011E+02  0.95098985553E+02  0.90275945790E+02 0.  0.
         11    1    3    3    0    0  0.26751653018E+02 -0.21495530865E+02  0.90976473477E+01  0.35503182588E+02  0.51100000000E-03 0.  1.
         22    1    1    0    0    0  0.16609142141E+02 -0.13189350312E+01  0.24828763011E+02  0.29901014447E+02  0.00000000000E+00 0. -1.
</event>
<event>
 5    1  0.8962567E-005  0.9118800E+02  0.7818608E-02  0.1130116E+00
         25   -1    0    0    0    0  0.00000000000E+00  0.00000000000E+00  0.99999998245E-14  0.12500000000E+03  0.12500000000E+03 0.  0.
        -11    1    3    3    0    0  0.48682389820E+02 -0.27536281375E+01  0.31590586007E+02  0.58099248454E+02  0.51100000000E-03 0. -1.
         23    2    1    0    0    0  0.13453384815E+02  0.10884512968E+02  0.21879382790E+02  0.97104237297E+02  0.93011070976E+02 0.  0.
         11    1    3    3    0    0 -0.35229005004E+02  0.13638141105E+02 -0.97112032169E+01  0.39004988842E+02  0.51100000000E-03 0.  1.
         22    1    1    0    0    0 -0.13453384815E+02 -0.10884512968E+02 -0.21879382790E+02  0.27895762703E+02  0.00000000000E+00 0. -1.
</event>
<event>
 5    1  0.8962567E-005  0.9118800E+02  0.7818608E-02  0.1130116E+00
         25   -1    0    0    0    0  0.00000000000E+00  0.00000000000E+00  0.99999998245E-14  0.12500000000E+03  0.12500000000E+03 0.  0.
        -11    1    3    3    0    0 -0.30464664102E+02  0.25781477912E+02 -0.45586078096E+00  0.39912255905E+02  0.51100000000E-03 0. -1.
         23    2    1    0    0    0  0.11989962706E+02  0.21074846515E+00 -0.26509916809E+02  0.95903964019E+02  0.91383756789E+02 0.  0.
         11    1    3    3    0    0  0.42454626807E+02 -0.25570729446E+02 -0.26054056028E+02  0.55991708114E+02  0.51100000000E-03 0.  1.
         22    1    1    0    0    0 -0.11989962706E+02 -0.21074846515E+00  0.26509916809E+02  0.29096035981E+02  0.00000000000E+00 0.  1.
</event>
<event>
 5    1  0.8962567E-005  0.9118800E+02  0.7818608E-02  0.1130116E+00
         25   -1    0    0    0    0  0.00000000000E+00  0.00000000000E+00  0.99999998245E-14  0.12500000000E+03  0.12500000000E+03 0.  0.
        -11    1    3    3    0    0  0.37340862457E+02  0.30301099564E+02 -0.29489677539E+02  0.56410439862E+02  0.51100000000E-03 0. -1.
         23    2    1    0    0    0  0.29995214172E+02  0.64486520634E+01 -0.97624343070E+00  0.94303892138E+02  0.89168228840E+02 0.  0.
         11    1    3    3    0    0 -0.73456482850E+01 -0.23852447500E+02  0.28513434108E+02  0.37893452276E+02  0.51100000000E-03 0.  1.
         22    1    1    0    0    0 -0.29995214172E+02 -0.64486520634E+01  0.97624343070E+00  0.30696107862E+02  0.00000000000E+00 0. -1.
</event>
<event>
 5    1  0.8962567E-005  0.9118800E+02  0.7818608E-02  0.1130116E+00
         25   -1    0    0    0    0  0.00000000000E+00  0.00000000000E+00  0.99999998245E-14  0.12500000000E+03  0.12500000000E+03 0.  0.
        -11    1    3    3    0    0  0.39150415620E+02  0.24158393889E+02 -0.37895154153E+02  0.59602229380E+02  0.51100000000E-03 0. -1.
         23    2    1    0    0    0  0.13418849430E+02  0.21553717659E+02 -0.98114568688E+01  0.97780651168E+02  0.93915721751E+02 0.  0.
         11    1    3    3    0    0 -0.25731566190E+02 -0.26046762297E+01  0.28083697284E+02  0.38178421789E+02  0.51100000000E-03 0.  1.
         22    1    1    0    0    0 -0.13418849430E+02 -0.21553717659E+02  0.98114568688E+01  0.27219348832E+02  0.00000000000E+00 0. -1.
</event>
<event>
 5    1  0.8962567E-005  0.9118800E+02  0.7818608E-02  0.1130116E+00
         25   -1    0    0    0    0  0.00000000000E+00  0.00000000000E+00  0.99999998245E-14  0.12500000000E+03  0.12500000000E+03 0.  0.
        -11    1    3    3    0    0  0.20856828857E+02  0.27763447652E+02 -0.15615558884E+02  0.38074427311E+02  0.51100000000E-03 0.  1.
         23    2    1    0    0    0  0.33613562401E+01 -0.27259057312E+02 -0.85055804408E+01  0.96247611926E+02  0.91852615540E+02 0.  0.
         11    1    3    3    0    0 -0.17495472617E+02 -0.55022504964E+02  0.71099784427E+01  0.58173184616E+02  0.51100000000E-03 0. -1.
         22    1    1    0    0    0 -0.33613562401E+01  0.27259057312E+02  0.85055804408E+01  0.28752388074E+02  0.00000000000E+00 0. -1.
</event>
<event>
 5    1  0.8962567E-005  0.9118800E+02  0.7818608E-02  0.1130116E+00
         25   -1    0    0    0    0  0.00000000000E+00  0.00000000000E+00  0.99999998245E-14  0.12500000000E+03  0.12500000000E+03 0.  0.
        -11    1    3    3    0    0 -0.65271155636E+00  0.14211622224E+01 -0.40142375808E+02  0.40172827510E+02  0.51100000000E-03 0.  1.
         23    2    1    0    0    0  0.85846956614E+01  0.27526951670E+02  0.74349977579E+01  0.95222336232E+02  0.90446581240E+02 0.  0.
         11    1    3    3    0    0  0.92374072178E+01  0.26105789448E+02  0.47577373566E+02  0.55049508721E+02  0.51100000000E-03 0. -1.
         22    1    1    0    0    0 -0.85846956614E+01 -0.27526951670E+02 -0.74349977579E+01  0.29777663768E+02  0.00000000000E+00 0. -1.
</event>
<event>
 5    1  0.8962567E-005  0.9118800E+02  0.7818608E-02  0.1130116E+00
         25   -1    0    0    0    0  0.00000000000E+00  0.00000000000E+00  0.99999998245E-14  0.12500000000E+03  0.12500000000E+03 0.  0.
        -11    1    3    3    0    0  0.17492193958E+02 -0.31922267016E+01  0.34892386968E+02  0.39161790426E+02  0.51100000000E-03 0.  1.
         23    2    1    0    0    0 -0.19399508746E+02 -0.23727737808E+02 -0.63839767108E+00  0.94344592114E+02  0.89225265640E+02 0.  0.
         11    1    3    3    0    0 -0.36891702704E+02 -0.20535511106E+02 -0.35530784639E+02  0.55182801688E+02  0.51100000000E-03 0. -1.
         22    1    1    0    0    0  0.19399508746E+02  0.23727737808E+02  0.63839767108E+00  0.30655407886E+02  0.00000000000E+00 0. -1.
</event>
<event>
 5    1  0.8962567E-005  0.9118800E+02  0.7818608E-02  0.1130116E+00
         25   -1    0    0    0    0  0.00000000000E+00  0.00000000000E+00  0.99999998245E-14  0.12500000000E+03  0.12500000000E+03 0.  0.
        -11    1    3    3    0    0  0.43714547383E+02  0.30601652527E+02 -0.23613052932E+02  0.58352369783E+02  0.51100000000E-03 0. -1.
         23    2    1    0    0    0  0.24927797799E+02 -0.48251405118E+00 -0.15735643237E+02  0.95517150900E+02  0.90853110707E+02 0.  0.
         11    1    3    3    0    0 -0.18786749583E+02 -0.31084166578E+02  0.78774096946E+01  0.37164781118E+02  0.51100000000E-03 0.  1.
         22    1    1    0    0    0 -0.24927797799E+02  0.48251405118E+00  0.15735643237E+02  0.29482849100E+02  0.00000000000E+00 0.  1.
</event>
<event>
 5    1  0.8962567E-005  0.9118800E+02  0.7818608E-02  0.1130116E+00
         25   -1    0    0    0    0  0.00000000000E+00  0.00000000000E+00  0.99999998245E-14  0.12500000000E+03  0.12500000000E+03 0.  0.
        -11    1    3    3    0    0  0.39135330021E+02  0.36138114849E+02  0.62863637919E+00  0.53272249668E+02  0.51100000000E-03 0. -1.
         23    2    1    0    0    0  0.22290261220E+02 -0.11922280895E+01 -0.16064135136E+02  0.97498480210E+02  0.93539403742E+02 0.  0.
         11    1    3    3    0    0 -0.16845068801E+02 -0.37330342939E+02 -0.16692771515E+02  0.44226230542E+02  0.51100000000E-03 0.  1.
         22    1    1    0    0    0 -0.22290261220E+02  0.11922280895E+01  0.16064135136E+02  0.27501519790E+02  0.00000000000E+00 0. -1.
</event>
<event>
 5    1  0.8962567E-005  0.9118800E+02  0.7818608E-02  0.1130116E+00
         25   -1    0    0    0    0  0.00000000000E+00  0.00000000000E+00  0.99999998245E-14  0.12500000000E+03  0.12500000000E+03 0.  0.
        -11    1    3    3    0    0 -0.51257179984E+02  0.13815695375E+02  0.11358548754E+02  0.54288014963E+02  0.51100000000E-03 0. -1.
         23    2    1    0    0    0 -0.15070091024E+02  0.90380538823E+01  0.26002004193E+02  0.93616910867E+02  0.88199930368E+02 0.  0.
         11    1    3    3    0    0  0.36187088959E+02 -0.47776414928E+01  0.14643455438E+02  0.39328895904E+02  0.51100000000E-03 0.  1.
         22    1    1    0    0    0  0.15070091024E+02 -0.90380538823E+01 -0.26002004193E+02  0.31383089133E+02  0.00000000000E+00 0. -1.
</event>
<event>
 5    1  0.8962567E-005  0.9118800E+02  0.7818608E-02  0.1130116E+00
         25   -1    0    0    0    0  0.00000000000E+00  0.00000000000E+00  0.99999998245E-14  0.12500000000E+03  0.12500000000E+03 0.  0.
        -11    1    3    3    0    0 -0.39364344941E+01 -0.57843661875E+02 -0.11812698219E+02  0.59168611401E+02  0.51100000000E-03 0.  1.
         23    2    1    0    0    0 -0.13887926199E+02 -0.22865538743E+02 -0.12339549285E+02  0.95538638309E+02  0.90882669290E+02 0.  0.
         11    1    3    3    0    0 -0.99514917044E+01  0.34978123132E+02 -0.52685106565E+00  0.36370026908E+02  0.51100000000E-03 0. -1.
         22    1    1    0    0    0  0.13887926199E+02  0.22865538743E+02  0.12339549285E+02  0.29461361691E+02  0.00000000000E+00 0.  1.
</event>
<event>
 5    1  0.8962567E-005  0.9118800E+02  0.7818608E-02  0.1130116E+00
         25   -1    0    0    0    0  0.00000000000E+00  0.00000000000E+00  0.99999998245E-14  0.12500000000E+03  0.12500000000E+03 0.  0.
        -11    1    3    3    0    0 -0.99425471010E-01  0.42500805008E+02 -0.35744714103E+02  0.55533889638E+02  0.51100000000E-03 0.  1.
         23    2    1    0    0    0  0.19510854297E+02  0.19961012985E+02 -0.88898311555E+01  0.95705895256E+02  0.91112424037E+02 0.  0.
         11    1    3    3    0    0  0.19610279768E+02 -0.22539792023E+02  0.26854882947E+02  0.40172005618E+02  0.51100000000E-03 0. -1.
         22    1    1    0    0    0 -0.19510854297E+02 -0.19961012985E+02  0.88898311555E+01  0.29294104744E+02  0.00000000000E+00 0.  1.
</event>
<event>
 5    1  0.8962567E-005  0.9118800E+02  0.7818608E-02  0.1130116E+00
         25   -1    0    0    0    0  0.00000000000E+00  0.00000000000E+00  0.99999998245E-14  0.12500000000E+03  0.12500000000E+03 0.  0.
        -11    1    3    3    0    0  0.24073580722E+02 -0.36822140753E+02 -0.98648426584E+01  0.45085723454E+02  0.51100000000E-03 0.  1.
         23    2    1    0    0    0 -0.10318704582E+02 -0.14095965424E+02  0.21798517690E+02  0.97065303313E+02  0.92958731856E+02 0.  0.
         11    1    3    3    0    0 -0.34392285305E+02  0.22726175328E+02  0.31663360349E+02  0.51979579859E+02  0.51100000000E-03 0. -1.
         22    1    1    0    0    0  0.10318704582E+02  0.14095965424E+02 -0.21798517690E+02  0.27934696687E+02  0.00000000000E+00 0. -1.
</event>
<event>
 5    1  0.8962567E-005  0.9118800E+02  0.7818608E-02  0.1130116E+00
         25   -1    0    0    0    0  0.00000000000E+00  0.00000000000E+00  0.99999998245E-14  0.12500000000E+03  0.12500000000E+03 0.  0.
        -11    1    3    3    0    0  0.16139395937E+02  0.54490622485E+01  0.55009459000E+02  0.57586569271E+02  0.51100000000E-03 0.  1.
         23    2    1    0    0    0  0.22867760677E+02 -0.25426301926E+01  0.18756051751E+02  0.95315173507E+02  0.90574794378E+02 0.  0.
         11    1    3    3    0    0  0.67283647396E+01 -0.79916924411E+01 -0.36253407249E+02  0.37728604236E+02  0.51100000000E-03 0. -1.
         22    1    1    0    0    0 -0.22867760677E+02  0.25426301926E+01 -0.18756051751E+02  0.29684826493E+02  0.00000000000E+00 0.  1.
</event>
<event>
 4    1  0.8962567E-005  0.9118800E+02  0.7818608E-02  0.1130116E+00
         25   -1    0    0    0    0  0.00000000000E+00  0.00000000000E+00  0.99999998245E-14  0.12500000000E+03  0.12500000000E+03 0.  0.
        -11    1    1    0    0    0 -0.17050264175E+02  0.21400631043E+01 -0.17444916705E+02  0.24487067967E+02  0.51100000000E-03 0.  1.
         11    1    1    0    0    0 -0.55533030291E+01 -0.46784138967E+02 -0.11578803667E+01  0.47126802572E+02  0.51100000000E-03 0. -1.
         22    1    1    0    0    0  0.22603567204E+02  0.44644075863E+02  0.18602797072E+02  0.53386129461E+02  0.00000000000E+00 0. -1.
</event>
<event>
 5    1  0.8962567E-005  0.9118800E+02  0.7818608E-02  0.1130116E+00
         25   -1    0    0    0    0  0.00000000000E+00  0.00000000000E+00  0.99999998245E-14  0.12500000000E+03  0.12500000000E+03 0.  0.
        -11    1    3    3    0    0 -0.46294774098E+02  0.15145458963E+02 -0.31667008348E+02  0.58098110588E+02  0.51100000000E-03 0.  1.
         23    2    1    0    0    0 -0.22180605274E+02 -0.90373149066E+01 -0.18643330555E+02  0.94648293537E+02  0.89649726069E+02 0.  0.
         11    1    3    3    0    0  0.24114168823E+02 -0.24182773870E+02  0.13023677793E+02  0.36550182949E+02  0.51100000000E-03 0. -1.
         22    1    1    0    0    0  0.22180605274E+02  0.90373149066E+01  0.18643330555E+02  0.30351706463E+02  0.00000000000E+00 0.  1.
</event>
<event>
 5    1  0.8962567E-005  0.9118800E+02  0.7818608E-02  0.1130116E+00
         25   -1    0    0    0    0  0.00000000000E+00  0.00000000000E+00  0.99999998245E-14  0.12500000000E+03  0.12500000000E+03 0.  0.
        -11    1    3    3    0    0 -0.78903340980E+01 -0.87375190078E+01  0.58451831600E+02  0.59625650757E+02  0.51100000000E-03 0. -1.
         23    2    1    0    0    0 -0.16226199701E+02  0.25846537333E+00  0.25626649025E+02  0.94667154744E+02  0.89676020686E+02 0.  0.
         11    1    3    3    0    0 -0.83358656026E+01  0.89959843812E+01 -0.32825182575E+02  0.35041503987E+02  0.51100000000E-03 0.  1.
         22    1    1    0    0    0  0.16226199701E+02 -0.25846537333E+00 -0.25626649025E+02  0.30332845256E+02  0.00000000000E+00 0. -1.
</event>
<event>
 5    1  0.8962567E-005  0.9118800E+02  0.7818608E-02  0.1130116E+00
         25   -1    0    0    0    0  0.00000000000E+00  0.00000000000E+00  0.99999998245E-14  0.12500000000E+03  0.12500000000E+03 0.  0.
        -11    1    3    3    0    0  0.16928533919E+02 -0.56707296595E+02  0.72528393692E+01  0.59622952182E+02  0.51100000000E-03 0. -1.
         23    2    1    0    0    0  0.16341374319E+01 -0.29911739713E+02 -0.79332307660E+01  0.94010990203E+02  0.88756676091E+02 0.  0.
         11    1    3    3    0    0 -0.15294396487E+02  0.26795556882E+02 -0.15186070135E+02  0.34388038021E+02  0.51100000000E-03 0.  1.
         22    1    1    0    0    0 -0.16341374319E+01  0.29911739713E+02  0.79332307660E+01  0.30989009797E+02  0.00000000000E+00 0. -1.
</event>
<event>
 5    1  0.8962567E-005  0.9118800E+02  0.7818608E-02  0.1130116E+00
         25   -1    0    0    0    0  0.00000000000E+00  0.00000000000E+00  0.99999998245E-14  0.12500000000E+03  0.12500000000E+03 0.  0.
        -11    1    3    3    0    0  0.27068920698E+02 -0.46539149572E+02 -0.94243070692E+01  0.54657446653E+02  0.51100000000E-03 0.  1.
         23    2    1    0    0    0  0.45118925562E+00 -0.28019119648E+02  0.13026297147E+02  0.94097588202E+02  0.88878552252E+02 0.  0.
         11    1    3    3    0    0 -0.26617731442E+02  0.18520029923E+02  0.22450604216E+02  0.39440141549E+02  0.51100000000E-03 0. -1.
         22    1    1    0    0    0 -0.45118925562E+00  0.28019119648E+02 -0.13026297147E+02  0.30902411798E+02  0.00000000000E+00 0.  1.
</event>
<event>
 5    1  0.8962567E-005  0.9118800E+02  0.7818608E-02  0.1130116E+00
         25   -1    0    0    0    0  0.00000000000E+00  0.00000000000E+00  0.99999998245E-14  0.12500000000E+03  0.12500000000E+03 0.  0.
        -11    1    3    3    0    0  0.31495531166E+02  0.64802461363E+01 -0.13273241378E+02  0.34787081084E+02  0.51100000000E-03 0. -1.
         23    2    1    0    0    0 -0.13588356293E+02 -0.17747785718E+02  0.19311406442E+02  0.95460911602E+02  0.90775701046E+02 0.  0.
         11    1    3    3    0    0 -0.45083887458E+02 -0.24228031855E+02  0.32584647820E+02  0.60673830518E+02  0.51100000000E-03 0.  1.
         22    1    1    0    0    0  0.13588356293E+02  0.17747785718E+02 -0.19311406442E+02  0.29539088398E+02  0.00000000000E+00 0.  1.
</event>
<event>
 5    1  0.8962567E-005  0.9118800E+02  0.7818608E-02  0.1130116E+00
         25   -1    0    0    0    0  0.00000000000E+00  0.00000000000E+00  0.99999998245E-14  0.12500000000E+03  0.12500000000E+03 0.  0.
        -11    1    3    3    0    0 -0.39742950753E+02 -0.13040509644E+01 -0.14385830745E+02  0.42286579549E+02  0.51100000000E-03 0.  1.
         23    2    1    0    0    0  0.13376398910E+01 -0.30058541724E+02  0.14641720572E+01  0.94876105649E+02  0.89966807281E+02 0.  0.
         11    1    3    3    0    0  0.41080590643E+02 -0.28754490759E+02  0.15850002802E+02  0.52589526101E+02  0.51100000000E-03 0. -1.
         22    1    1    0    0    0 -0.13376398910E+01  0.30058541724E+02 -0.14641720572E+01  0.30123894351E+02  0.00000000000E+00 0.  1.
</event>
<event>
 5    1  0.8962567E-005  0.9118800E+02  0.7818608E-02  0.1130116E+00
         25   -1    0    0    0    0  0.00000000000E+00  0.00000000000E+00  0.99999998245E-14  0.12500000000E+03  0.12500000000E+03 0.  0.
        -11    1    3    3    0    0  0.46739844897E+02  0.35475139959E+02 -0.20272264584E+02  0.62081103145E+02  0.51100000000E-03 0. -1.
         23    2    1    0    0    0  0.27288390161E+02  0.16881735431E+02 -0.66957526005E+01  0.92220702697E+02  0.86198466775E+02 0.  0.
         11    1    3    3    0    0 -0.19451454736E+02 -0.18593404528E+02  0.13576511984E+02  0.30139599552E+02  0.51100000000E-03 0.  1.
         22    1    1    0    0    0 -0.27288390161E+02 -0.16881735431E+02  0.66957526005E+01  0.32779297303E+02  0.00000000000E+00 0. -1.
</event>
<event>
 5    1  0.8962567E-005  0.9118800E+02  0.7818608E-02  0.1130116E+00
         25   -1    0    0    0    0  0.00000000000E+00  0.00000000000E+00  0.99999998245E-14  0.12500000000E+03  0.12500000000E+03 0.  0.
        -11    1    3    3    0    0  0.75389232550E+01  0.11621694843E+02  0.39402738079E+02  0.41766911823E+02  0.51100000000E-03 0. -1.
         23    2    1    0    0    0  0.93039539885E+01  0.10212404158E+02 -0.19714243372E+02  0.10092702448E+03  0.98014060832E+02 0.  0.
         11    1    3    3    0    0  0.17650307335E+01 -0.14092906843E+01 -0.59116981451E+02  0.59160112660E+02  0.51100000000E-03 0.  1.
         22    1    1    0    0    0 -0.93039539885E+01 -0.10212404158E+02  0.19714243372E+02  0.24072975517E+02  0.00000000000E+00 0. -1.
</event>
<event>
 5    1  0.8962567E-005  0.9118800E+02  0.7818608E-02  0.1130116E+00
         25   -1    0    0    0    0  0.00000000000E+00  0.00000000000E+00  0.99999998245E-14  0.12500000000E+03  0.12500000000E+03 0.  0.
        -11    1    3    3    0    0 -0.43945809014E+02 -0.32485814850E+02 -0.29063948705E+02  0.61897297283E+02  0.51100000000E-03 0.  1.
         23    2    1    0    0    0 -0.21209061675E+02 -0.10676555817E+02 -0.17678073178E+02  0.95397172221E+02  0.90687888140E+02 0.  0.
         11    1    3    3    0    0  0.22736747339E+02  0.21809259033E+02  0.11385875527E+02  0.33499874938E+02  0.51100000000E-03 0. -1.
         22    1    1    0    0    0  0.21209061675E+02  0.10676555817E+02  0.17678073178E+02  0.29602827779E+02  0.00000000000E+00 0.  1.
</event>
<event>
 5    1  0.8962567E-005  0.9118800E+02  0.7818608E-02  0.1130116E+00
         25   -1    0    0    0    0  0.00000000000E+00  0.00000000000E+00  0.99999998245E-14  0.12500000000E+03  0.12500000000E+03 0.  0.
        -11    1    3    3    0    0  0.23123271740E+02  0.12818326382E+02  0.33208072465E+02  0.42447276289E+02  0.51100000000E-03 0.  1.
         23    2    1    0    0    0 -0.14743057591E+02  0.25894023665E+02 -0.10883259975E+01  0.95183181555E+02  0.90392452057E+02 0.  0.
         11    1    3    3    0    0 -0.37866329332E+02  0.13075697282E+02 -0.34296398463E+02  0.52735905266E+02  0.51100000000E-03 0. -1.
         22    1    1    0    0    0  0.14743057591E+02 -0.25894023665E+02  0.10883259975E+01  0.29816818445E+02  0.00000000000E+00 0. -1.
</event>
<event>
 5    1  0.8962567E-005  0.9118800E+02  0.7818608E-02  0.1130116E+00
         25   -1    0    0    0    0  0.00000000000E+00  0.00000000000E+00  0.99999998245E-14  0.12500000000E+03  0.12500000000E+03 0.  0.
        -11    1    3    3    0    0 -0.18464941498E+02 -0.20763111750E+02  0.27524724489E+02  0.39111012931E+02  0.51100000000E-03 0.  1.
         23    2    1    0    0    0  0.84015425254E+00  0.28091811052E+02  0.42149457771E+01  0.96581318200E+02  0.92305631194E+02 0.  0.
         11    1    3    3    0    0  0.19305095750E+02  0.48854922802E+02 -0.23309778712E+02  0.57470305269E+02  0.51100000000E-03 0. -1.
         22    1    1    0    0    0 -0.84015425254E+00 -0.28091811052E+02 -0.42149457771E+01  0.28418681800E+02  0.00000000000E+00 0. -1.
</event>
<event>
 5    1  0.8962567E-005  0.9118800E+02  0.7818608E-02  0.1130116E+00
         25   -1    0    0    0    0  0.00000000000E+00  0.00000000000E+00  0.99999998245E-14  0.12500000000E+03  0.12500000000E+03 0.  0.
        -11    1    3    3    0    0  0.14096029001E+01 -0.48251921263E+02 -0.38040031340E+02  0.61459571025E+02  0.51100000000E-03 0. -1.
         23    2    1    0    0    0 -0.39822050036E+01 -0.17945523588E+02 -0.22511379013E+02  0.95936931363E+02  0.91428840311E+02 0.  0.
         11    1    3    3    0    0 -0.53918079038E+01  0.30306397675E+02  0.15528652328E+02  0.34477360338E+02  0.51100000000E-03 0.  1.
         22    1    1    0    0    0  0.39822050036E+01  0.17945523588E+02  0.22511379013E+02  0.29063068637E+02  0.00000000000E+00 0. -1.
</event>
<event>
 5    1  0.8962567E-005  0.9118800E+02  0.7818608E-02  0.1130116E+00
         25   -1    0    0    0    0  0.00000000000E+00  0.00000000000E+00  0.99999998245E-14  0.12500000000E+03  0.12500000000E+03 0.  0.
        -11    1    3    3    0    0  0.52386333078E+01  0.32366096447E+02 -0.19372517136E+02  0.38082829446E+02  0.51100000000E-03 0. -1.
         23    2    1    0    0    0 -0.26129969368E+02 -0.12884355890E+02 -0.20905394734E+01  0.95791229379E+02  0.91229421486E+02 0.  0.
         11    1    3    3    0    0 -0.31368602676E+02 -0.45250452338E+02  0.17281977662E+02  0.57708399933E+02  0.51100000000E-03 0.  1.
         22    1    1    0    0    0  0.26129969368E+02  0.12884355890E+02  0.20905394734E+01  0.29208770621E+02  0.00000000000E+00 0.  1.
</event>
<event>
 5    1  0.8962567E-005  0.9118800E+02  0.7818608E-02  0.1130116E+00
         25   -1    0    0    0    0  0.00000000000E+00  0.00000000000E+00  0.99999998245E-14  0.12500000000E+03  0.12500000000E+03 0.  0.
        -11    1    3    3    0    0 -0.29940984400E+02  0.37205477543E+02 -0.84138829596E+01  0.48492303851E+02  0.51100000000E-03 0. -1.
         23    2    1    0    0    0  0.11476312492E+02  0.28634842116E+02  0.67461938632E+01  0.93421984497E+02  0.87923239956E+02 0.  0.
         11    1    3    3    0    0  0.41417296892E+02 -0.85706354271E+01  0.15160076823E+02  0.44929680646E+02  0.51100000000E-03 0.  1.
         22    1    1    0    0    0 -0.11476312492E+02 -0.28634842116E+02 -0.67461938632E+01  0.31578015503E+02  0.00000000000E+00 0. -1.
</event>
<event>
 5    1  0.8962567E-005  0.9118800E+02  0.7818608E-02  0.1130116E+00
         25   -1    0    0    0    0  0.00000000000E+00  0.00000000000E+00  0.99999998245E-14  0.12500000000E+03  0.12500000000E+03 0.  0.
        -11    1    3    3    0    0  0.10274383351E+02  0.46569548379E+02 -0.12386991094E+02  0.49271932559E+02  0.51100000000E-03 0.  1.
         23    2    1    0    0    0  0.22972727964E+02  0.13183757854E+02  0.15251860951E+02  0.94435691343E+02  0.89352799820E+02 0.  0.
         11    1    3    3    0    0  0.12698344613E+02 -0.33385790525E+02  0.27638852044E+02  0.45163758784E+02  0.51100000000E-03 0. -1.
         22    1    1    0    0    0 -0.22972727964E+02 -0.13183757854E+02 -0.15251860951E+02  0.30564308657E+02  0.00000000000E+00 0.  1.
</event>
<event>
 5    1  0.8962567E-005  0.9118800E+02  0.7818608E-02  0.1130116E+00
         25   -1    0    0    0    0  0.00000000000E+00  0.00000000000E+00  0.99999998245E-14  0.12500000000E+03  0.12500000000E+03 0.  0.
        -11    1    3    3    0    0 -0.36290659877E+02 -0.36291835853E+02 -0.11085118790E+02  0.52507039554E+02  0.51100000000E-03 0.  1.
         23    2    1    0    0    0 -0.18167542303E+02 -0.12980266196E+02  0.19743166252E+02  0.95194974962E+02  0.90408759202E+02 0.  0.
         11    1    3    3    0    0  0.18123117574E+02  0.23311569656E+02  0.30828285042E+02  0.42687935408E+02  0.51100000000E-03 0. -1.
         22    1    1    0    0    0  0.18167542303E+02  0.12980266196E+02 -0.19743166252E+02  0.29805025038E+02  0.00000000000E+00 0. -1.
</event>
<event>
 5    1  0.8962567E-005  0.9118800E+02  0.7818608E-02  0.1130116E+00
         25   -1    0    0    0    0  0.00000000000E+00  0.00000000000E+00  0.99999998245E-14  0.12500000000E+03  0.12500000000E+03 0.  0.
        -11    1    3    3    0    0  0.11500627737E+02  0.26693204108E+02  0.15378161593E+02  0.32882813719E+02  0.51100000000E-03 0. -1.
         23    2    1    0    0    0 -0.32900385550E+02 -0.86006828280E+01  0.36872425646E+01  0.90794695263E+02  0.84105135489E+02 0.  0.
         11    1    3    3    0    0 -0.44401013287E+02 -0.35293886936E+02 -0.11690919028E+02  0.57911881543E+02  0.51100000000E-03 0.  1.
         22    1    1    0    0    0  0.32900385550E+02  0.86006828280E+01 -0.36872425646E+01  0.34205304737E+02  0.00000000000E+00 0.  1.
</event>
<event>
 5    1  0.8962567E-005  0.9118800E+02  0.7818608E-02  0.1130116E+00
         25   -1    0    0    0    0  0.00000000000E+00  0.00000000000E+00  0.99999998245E-14  0.12500000000E+03  0.12500000000E+03 0.  0.
        -11    1    3    3    0    0  0.20797830222E+02  0.18237059452E+02 -0.34045267065E+02  0.43865935407E+02  0.51100000000E-03 0.  1.
         23    2    1    0    0    0  0.21257979390E+02  0.72920271700E+01  0.17470984649E+02  0.96534043972E+02  0.92241590365E+02 0.  0.
         11    1    3    3    0    0  0.46014916843E+00 -0.10945032282E+02  0.51516251713E+02  0.52668108565E+02  0.51100000000E-03 0. -1.
         22    1    1    0    0    0 -0.21257979390E+02 -0.72920271700E+01 -0.17470984649E+02  0.28465956028E+02  0.00000000000E+00 0. -1.
</event>
<event>
 5    1  0.8962567E-005  0.9118800E+02  0.7818608E-02  0.1130116E+00
         25   -1    0    0    0    0  0.00000000000E+00  0.00000000000E+00  0.99999998245E-14  0.12500000000E+03  0.12500000000E+03 0.  0.
        -11    1    3    3    0    0  0.54053629392E+02  0.14371659341E+02  0.27073399242E+02  0.62139427013E+02  0.51100000000E-03 0. -1.
         23    2    1    0    0    0  0.24633830103E+02  0.74901887564E+01  0.17631480130E+02  0.93794269681E+02  0.88450932275E+02 0.  0.
         11    1    3    3    0    0 -0.29419799289E+02 -0.68814705848E+01 -0.94419191125E+01  0.31654842669E+02  0.51100000000E-03 0.  1.
         22    1    1    0    0    0 -0.24633830103E+02 -0.74901887564E+01 -0.17631480130E+02  0.31205730319E+02  0.00000000000E+00 0. -1.
</event>
<event>
 5    1  0.8962567E-005  0.9118800E+02  0.7818608E-02  0.1130116E+00
         25   -1    0    0    0    0  0.00000000000E+00  0.00000000000E+00  0.99999998245E-14  0.12500000000E+03  0.12500000000E+03 0.  0.
        -11    1    3    3    0    0 -0.19255844743E+02 -0.29577802931E+02 -0.43778170854E+02  0.56233106144E+02  0.51100000000E-03 0. -1.
         23    2    1    0    0    0  0.37360015397E+01 -0.12306032739E+00 -0.27930067411E+02  0.96820902837E+02  0.92629507767E+02 0.  0.
         11    1    3    3    0    0  0.22991846283E+02  0.29454742604E+02  0.15848103443E+02  0.40587796693E+02  0.51100000000E-03 0.  1.
         22    1    1    0    0    0 -0.37360015397E+01  0.12306032739E+00  0.27930067411E+02  0.28179097163E+02  0.00000000000E+00 0. -1.
</event>
<event>
 5    1  0.8962567E-005  0.9118800E+02  0.7818608E-02  0.1130116E+00
         25   -1    0    0    0    0  0.00000000000E+00  0.00000000000E+00  0.99999998245E-14  0.12500000000E+03  0.12500000000E+03 0.  0.
        -11    1    3    3    0    0 -0.14918709565E+02 -0.35681971327E+02  0.45704926067E+02  0.59872458108E+02  0.51100000000E-03 0.  1.
         23    2    1    0    0    0  0.15585953723E-01 -0.79470076234E+01  0.27758700362E+02  0.96126125669E+02  0.91687138778E+02 0.  0.
         11    1    3    3    0    0  0.14934295519E+02  0.27734963704E+02 -0.17946225705E+02  0.36253667561E+02  0.51100000000E-03 0. -1.
         22    1    1    0    0    0 -0.15585953723E-01  0.79470076234E+01 -0.27758700362E+02  0.28873874331E+02  0.00000000000E+00 0.  1.
</event>
<event>
 5    1  0.8962567E-005  0.9118800E+02  0.7818608E-02  0.1130116E+00
         25   -1    0    0    0    0  0.00000000000E+00  0.00000000000E+00  0.99999998245E-14  0.12500000000E+03  0.12500000000E+03 0.  0.
        -11    1    3    3    0    0  0.37440414652E+02 -0.48943986405E+02 -0.21551221319E+01  0.61659897877E+02  0.51100000000E-03 0.  1.
         23    2    1    0    0    0  0.21916654801E+02 -0.20084641791E+02  0.40059017621E+01  0.95003669516E+02  0.90143870446E+02 0.  0.
         11    1    3    3    0    0 -0.15523759851E+02  0.28859344614E+02  0.61610238940E+01  0.33343771639E+02  0.51100000000E-03 0. -1.
         22    1    1    0    0    0 -0.21916654801E+02  0.20084641791E+02 -0.40059017621E+01  0.29996330484E+02  0.00000000000E+00 0.  1.
</event>
<event>
 5    1  0.8962567E-005  0.9118800E+02  0.7818608E-02  0.1130116E+00
         25   -1    0    0    0    0  0.00000000000E+00  0.00000000000E+00  0.99999998245E-14  0.12500000000E+03  0.12500000000E+03 0.  0.
        -11    1    3    3    0    0 -0.31588952940E+01  0.49432078054E+02  0.15803090822E+02  0.51992755650E+02  0.51100000000E-03 0. -1.
         23    2    1    0    0    0 -0.95667296778E+01  0.85718791967E+01  0.27221859215E+02  0.94899683576E+02  0.89999560521E+02 0.  0.
         11    1    3    3    0    0 -0.64078343838E+01 -0.40860198858E+02  0.11418768393E+02  0.42906927926E+02  0.51100000000E-03 0.  1.
         22    1    1    0    0    0  0.95667296778E+01 -0.85718791967E+01 -0.27221859215E+02  0.30100316424E+02  0.00000000000E+00 0. -1.
</event>
<event>
 5    1  0.8962567E-005  0.9118800E+02  0.7818608E-02  0.1130116E+00
         25   -1    0    0    0    0  0.00000000000E+00  0.00000000000E+00  0.99999998245E-14  0.12500000000E+03  0.12500000000E+03 0.  0.
        -11    1    3    3    0    0 -0.16308283228E+01 -0.32762030877E+02 -0.22727546261E+02  0.39906786735E+02  0.51100000000E-03 0. -1.
         23    2    1    0    0    0  0.24702322930E+02 -0.99438987886E+00  0.15221890160E+02  0.95967268310E+02  0.91470307081E+02 0.  0.
         11    1    3    3    0    0  0.26333151252E+02  0.31767640998E+02  0.37949436421E+02  0.56060481575E+02  0.51100000000E-03 0.  1.
         22    1    1    0    0    0 -0.24702322930E+02  0.99438987886E+00 -0.15221890160E+02  0.29032731690E+02  0.00000000000E+00 0.  1.
</event>
<event>
 5    1  0.8962567E-005  0.9118800E+02  0.7818608E-02  0.1130116E+00
         25   -1    0    0    0    0  0.00000000000E+00  0.00000000000E+00  0.99999998245E-14  0.12500000000E+03  0.12500000000E+03 0.  0.
        -11    1    3    3    0    0  0.55828112237E+02 -0.23289036017E+02  0.12069423283E+02  0.61683290227E+02  0.51100000000E-03 0. -1.
         23    2    1    0    0    0  0.27599318292E+02 -0.58351499067E+01  0.64576221522E+00  0.96783190233E+02  0.92578602054E+02 0.  0.
         11    1    3    3    0    0 -0.28228793945E+02  0.17453886111E+02 -0.11423661068E+02  0.35099900006E+02  0.51100000000E-03 0.  1.
         22    1    1    0    0    0 -0.27599318292E+02  0.58351499067E+01 -0.64576221522E+00  0.28216809767E+02  0.00000000000E+00 0. -1.
</event>
<event>
 5    1  0.8962567E-005  0.9118800E+02  0.7818608E-02  0.1130116E+00
         25   -1    0    0    0    0  0.00000000000E+00  0.00000000000E+00  0.99999998245E-14  0.12500000000E+03  0.12500000000E+03 0.  0.
        -11    1    3    3    0    0  0.25918050994E+02 -0.48334962340E+02 -0.40161246468E+01  0.54992210441E+02  0.51100000000E-03 0. -1.
         23    2    1    0    0    0  0.82491159132E+01 -0.17602206446E+02 -0.22740401574E+02  0.95083258050E+02  0.90254166179E+02 0.  0.
         11    1    3    3    0    0 -0.17668935081E+02  0.30732755894E+02 -0.18724276927E+02  0.40091047610E+02  0.51100000000E-03 0.  1.
         22    1    1    0    0    0 -0.82491159132E+01  0.17602206446E+02  0.22740401574E+02  0.29916741950E+02  0.00000000000E+00 0. -1.
</event>
<event>
 5    1  0.8962567E-005  0.9118800E+02  0.7818608E-02  0.1130116E+00
         25   -1    0    0    0    0  0.00000000000E+00  0.00000000000E+00  0.99999998245E-14  0.12500000000E+03  0.12500000000E+03 0.  0.
        -11    1    3    3    0    0 -0.55717735899E+02  0.23102296586E+02 -0.44487272135E+01  0.60481181994E+02  0.51100000000E-03 0.  1.
         23    2    1    0    0    0 -0.22419102143E+02  0.91100620702E+01 -0.12901856361E+02  0.97576155095E+02  0.93643145899E+02 0.  0.
         11    1    3    3    0    0  0.33298633756E+02 -0.13992234516E+02 -0.84531291472E+01  0.37094973102E+02  0.51100000000E-03 0. -1.
         22    1    1    0    0    0  0.22419102143E+02 -0.91100620702E+01  0.12901856361E+02  0.27423844905E+02  0.00000000000E+00 0.  1.
</event>
<event>
 5    1  0.8962567E-005  0.9118800E+02  0.7818608E-02  0.1130116E+00
         25   -1    0    0    0    0  0.00000000000E+00  0.00000000000E+00  0.99999998245E-14  0.12500000000E+03  0.12500000000E+03 0.  0.
        -11    1    3    3    0    0  0.10542884032E+02 -0.37838485970E+02 -0.13995562060E+02  0.41698671224E+02  0.51100000000E-03 0.  1.
         23    2    1    0    0    0  0.28192175268E+02  0.10417850167E+02 -0.33122469138E-01  0.94944527195E+02  0.90061822093E+02 0.  0.
         11    1    3    3    0    0  0.17649291236E+02  0.48256336137E+02  0.13962439591E+02  0.53245855971E+02  0.51100000000E-03 0. -1.
         22    1    1    0    0    0 -0.28192175268E+02 -0.10417850167E+02  0.33122469138E-01  0.30055472805E+02  0.00000000000E+00 0. -1.
</event>
<event>
 5    1  0.8962567E-005  0.9118800E+02  0.7818608E-02  0.1130116E+00
         25   -1    0    0    0    0  0.00000000000E+00  0.00000000000E+00  0.99999998245E-14  0.12500000000E+03  0.12500000000E+03 0.  0.
        -11    1    3    3    0    0 -0.47175681842E+02 -0.15827924258E+02 -0.18772099758E+02  0.53183266853E+02  0.51100000000E-03 0. -1.
         23    2    1    0    0    0 -0.13777843561E+02  0.80282334760E+01 -0.25648686757E+02  0.94798400070E+02  0.89858778189E+02 0.  0.
         11    1    3    3    0    0  0.33397838281E+02  0.23856157734E+02 -0.68765869997E+01  0.41615133218E+02  0.51100000000E-03 0.  1.
         22    1    1    0    0    0  0.13777843561E+02 -0.80282334760E+01  0.25648686757E+02  0.30201599930E+02  0.00000000000E+00 0. -1.
</event>
<event>
 5    1  0.8962567E-005  0.9118800E+02  0.7818608E-02  0.1130116E+00
         25   -1    0    0    0    0  0.00000000000E+00  0.00000000000E+00  0.99999998245E-14  0.12500000000E+03  0.12500000000E+03 0.  0.
        -11    1    3    3    0    0 -0.31368741046E+02 -0.66530277335E+01  0.39248127205E+02  0.50682109094E+02  0.51100000000E-03 0.  1.
         23    2    1    0    0    0 -0.10137103637E+02 -0.26486074030E+02  0.40022553868E+01  0.96359276618E+02  0.92004451819E+02 0.  0.
         11    1    3    3    0    0  0.21231637410E+02 -0.19833046297E+02 -0.35245871818E+02  0.45677167524E+02  0.51100000000E-03 0. -1.
         22    1    1    0    0    0  0.10137103637E+02  0.26486074030E+02 -0.40022553868E+01  0.28640723382E+02  0.00000000000E+00 0. -1.
</event>
<event>
 5    1  0.8962567E-005  0.9118800E+02  0.7818608E-02  0.1130116E+00
         25   -1    0    0    0    0  0.00000000000E+00  0.00000000000E+00  0.99999998245E-14  0.12500000000E+03  0.12500000000E+03 0.  0.
        -11    1    3    3    0    0 -0.37702461336E+02 -0.11623054864E+02 -0.26965672973E+01  0.39545448165E+02  0.51100000000E-03 0. -1.
         23    2    1    0    0    0  0.59816433236E+01  0.78447648299E+01  0.27281295060E+02  0.95989838811E+02  0.91501145909E+02 0.  0.
         11    1    3    3    0    0  0.43684104659E+02  0.19467819694E+02  0.29977862357E+02  0.56444390645E+02  0.51100000000E-03 0.  1.
         22    1    1    0    0    0 -0.59816433236E+01 -0.78447648299E+01 -0.27281295060E+02  0.29010161189E+02  0.00000000000E+00 0.  1.
</event>
<event>
 5    1  0.8962567E-005  0.9118800E+02  0.7818608E-02  0.1130116E+00
         25   -1    0    0    0    0  0.00000000000E+00  0.00000000000E+00  0.99999998245E-14  0.12500000000E+03  0.12500000000E+03 0.  0.
        -11    1    3    3    0    0 -0.31782725567E+02 -0.22351679285E+02  0.18952214758E+02  0.43231072804E+02  0.51100000000E-03 0. -1.
         23    2    1    0    0    0 -0.16367221169E+02  0.23538216928E+02 -0.25821798439E+01  0.96214565529E+02  0.91807632484E+02 0.  0.
         11    1    3    3    0    0  0.15415504398E+02  0.45889896212E+02 -0.21534394602E+02  0.52983492725E+02  0.51100000000E-03 0.  1.
         22    1    1    0    0    0  0.16367221169E+02 -0.23538216928E+02  0.25821798439E+01  0.28785434471E+02  0.00000000000E+00 0.  1.
</event>
<event>
 5    1  0.8962567E-005  0.9118800E+02  0.7818608E-02  0.1130116E+00
         25   -1    0    0    0    0  0.00000000000E+00  0.00000000000E+00  0.99999998245E-14  0.12500000000E+03  0.12500000000E+03 0.  0.
        -11    1    3    3    0    0 -0.18340400200E+02  0.51654607580E+02  0.45232803904E+01  0.55000262086E+02  0.51100000000E-03 0. -1.
         23    2    1    0    0    0 -0.15732725887E+02  0.20393333669E+02 -0.17964088790E+02  0.93597528632E+02  0.88172456913E+02 0.  0.
         11    1    3    3    0    0  0.26076743136E+01 -0.31261273912E+02 -0.22487369180E+02  0.38597266546E+02  0.51100000000E-03 0.  1.
         22    1    1    0    0    0  0.15732725887E+02 -0.20393333669E+02  0.17964088790E+02  0.31402471368E+02  0.00000000000E+00 0. -1.
</event>
<event>
 5    1  0.8962567E-005  0.9118800E+02  0.7818608E-02  0.1130116E+00
         25   -1    0    0    0    0  0.00000000000E+00  0.00000000000E+00  0.99999998245E-14  0.12500000000E+03  0.12500000000E+03 0.  0.
        -11    1    3    3    0    0 -0.15786755773E+02  0.60775786900E+01 -0.32499172382E+02  0.36638160793E+02  0.51100000000E-03 0. -1.
         23    2    1    0    0    0  0.13750355638E+02  0.95217394389E+01  0.21185134274E+02  0.98008413971E+02  0.94218381926E+02 0.  0.
         11    1    3    3    0    0  0.29537111411E+02  0.34441607490E+01  0.53684306656E+02  0.61370253178E+02  0.51100000000E-03 0.  1.
         22    1    1    0    0    0 -0.13750355638E+02 -0.95217394389E+01 -0.21185134274E+02  0.26991586029E+02  0.00000000000E+00 0.  1.
</event>
<event>
 5    1  0.8962567E-005  0.9118800E+02  0.7818608E-02  0.1130116E+00
         25   -1    0    0    0    0  0.00000000000E+00  0.00000000000E+00  0.99999998245E-14  0.12500000000E+03  0.12500000000E+03 0.  0.
        -11    1    3    3    0    0  0.24786005833E+02 -0.94899219701E+01 -0.46462324356E+02  0.53508431942E+02  0.51100000000E-03 0. -1.
         23    2    1    0    0    0  0.25560799236E+02 -0.17411302565E+02 -0.76337548577E+01  0.93144354852E+02  0.87527645421E+02 0.  0.
         11    1    3    3    0    0  0.77479340375E+00 -0.79213805946E+01  0.38828569498E+02  0.39635922909E+02  0.51100000000E-03 0.  1.
         22    1    1    0    0    0 -0.25560799236E+02  0.17411302565E+02  0.76337548577E+01  0.31855645148E+02  0.00000000000E+00 0. -1.
</event>
<event>
 5    1  0.8962567E-005  0.9118800E+02  0.7818608E-02  0.1130116E+00
         25   -1    0    0    0    0  0.00000000000E+00  0.00000000000E+00  0.99999998245E-14  0.12500000000E+03  0.12500000000E+03 0.  0.
        -11    1    3    3    0    0  0.17582352239E+02  0.38339221369E+02  0.39846142651E+02  0.58023702828E+02  0.51100000000E-03 0.  1.
         23    2    1    0    0    0  0.45471662423E+01  0.63361729039E+01  0.30068869162E+02  0.93936183419E+02  0.88651259747E+02 0.  0.
         11    1    3    3    0    0 -0.13035185997E+02 -0.32003048466E+02 -0.97772734889E+01  0.35912480591E+02  0.51100000000E-03 0. -1.
         22    1    1    0    0    0 -0.45471662423E+01 -0.63361729039E+01 -0.30068869162E+02  0.31063816581E+02  0.00000000000E+00 0.  1.
</event>
<event>
 5    1  0.8962567E-005  0.9118800E+02  0.7818608E-02  0.1130116E+00
         25   -1    0    0    0    0  0.00000000000E+00  0.00000000000E+00  0.99999998245E-14  0.12500000000E+03  0.12500000000E+03 0.  0.
        -11    1    3    3    0    0  0.26666979848E+02  0.15937593047E+02 -0.28039795833E+02  0.41849311069E+02  0.51100000000E-03 0.  1.
         23    2    1    0    0    0 -0.10104022430E+02 -0.21381501386E+02  0.16655701818E+00  0.10135073760E+03  0.98552952265E+02 0.  0.
         11    1    3    3    0    0 -0.36771002278E+02 -0.37319094433E+02  0.28206352851E+02  0.59501426531E+02  0.51100000000E-03 0. -1.
         22    1    1    0    0    0  0.10104022430E+02  0.21381501386E+02 -0.16655701818E+00  0.23649262400E+02  0.00000000000E+00 0. -1.
</event>
<event>
 5    1  0.8962567E-005  0.9118800E+02  0.7818608E-02  0.1130116E+00
         25   -1    0    0    0    0  0.00000000000E+00  0.00000000000E+00  0.99999998245E-14  0.12500000000E+03  0.12500000000E+03 0.  0.
        -11    1    3    3    0    0 -0.16463911847E+02  0.55920062102E+02 -0.15816163924E+02  0.60400867381E+02  0.51100000000E-03 0.  1.
         23    2    1    0    0    0 -0.17177390331E+02  0.24869817835E+02 -0.11375788853E+01  0.94753270202E+02  0.89795977363E+02 0.  0.
         11    1    3    3    0    0 -0.71347848427E+00 -0.31050244268E+02  0.14678585039E+02  0.34352402822E+02  0.51100000000E-03 0. -1.
         22    1    1    0    0    0  0.17177390331E+02 -0.24869817835E+02  0.11375788853E+01  0.30246729798E+02  0.00000000000E+00 0.  1.
</event>
<event>
 5    1  0.8962567E-005  0.9118800E+02  0.7818608E-02  0.1130116E+00
         25   -1    0    0    0    0  0.00000000000E+00  0.00000000000E+00  0.99999998245E-14  0.12500000000E+03  0.12500000000E+03 0.  0.
        -11    1    3    3    0    0  0.40873936200E+02 -0.67046338127E+00 -0.73120129935E+01  0.41528227941E+02  0.51100000000E-03 0. -1.
         23    2    1    0    0    0 -0.87943192767E+01 -0.67208575782E+01 -0.27402598878E+02  0.95446448549E+02  0.90755782941E+02 0.  0.
         11    1    3    3    0    0 -0.49668255477E+02 -0.60503941969E+01 -0.20090585884E+02  0.53918220608E+02  0.51100000000E-03 0.  1.
         22    1    1    0    0    0  0.87943192767E+01  0.67208575782E+01  0.27402598878E+02  0.29553551451E+02  0.00000000000E+00 0.  1.
</event>
<event>
 5    1  0.8962567E-005  0.9118800E+02  0.7818608E-02  0.1130116E+00
         25   -1    0    0    0    0  0.00000000000E+00  0.00000000000E+00  0.99999998245E-14  0.12500000000E+03  0.12500000000E+03 0.  0.
        -11    1    3    3    0    0 -0.33480254399E+02 -0.15169927723E+02 -0.27636563404E+02  0.45987321936E+02  0.51100000000E-03 0. -1.
         23    2    1    0    0    0  0.61474614054E+01  0.45110359232E+01 -0.33520948930E+02  0.90622758342E+02  0.83849207424E+02 0.  0.
         11    1    3    3    0    0  0.39627715804E+02  0.19680963647E+02 -0.58843855260E+01  0.44635436407E+02  0.51100000000E-03 0.  1.
         22    1    1    0    0    0 -0.61474614054E+01 -0.45110359232E+01  0.33520948930E+02  0.34377241658E+02  0.00000000000E+00 0.  1.
</event>
<event>
 5    1  0.8962567E-005  0.9118800E+02  0.7818608E-02  0.1130116E+00
         25   -1    0    0    0    0  0.00000000000E+00  0.00000000000E+00  0.99999998245E-14  0.12500000000E+03  0.12500000000E+03 0.  0.
        -11    1    3    3    0    0 -0.41591470313E+02 -0.39883778185E+02  0.10997465096E+02  0.58664387868E+02  0.51100000000E-03 0.  1.
         23    2    1    0    0    0 -0.16913230262E+02 -0.24099427642E+02 -0.90925753382E+01  0.94185803648E+02  0.89002533177E+02 0.  0.
         11    1    3    3    0    0  0.24678240052E+02  0.15784350543E+02 -0.20090040434E+02  0.35521415780E+02  0.51100000000E-03 0. -1.
         22    1    1    0    0    0  0.16913230262E+02  0.24099427642E+02  0.90925753382E+01  0.30814196352E+02  0.00000000000E+00 0.  1.
</event>
<event>
 5    1  0.8962567E-005  0.9118800E+02  0.7818608E-02  0.1130116E+00
         25   -1    0    0    0    0  0.00000000000E+00  0.00000000000E+00  0.99999998245E-14  0.12500000000E+03  0.12500000000E+03 0.  0.
        -11    1    3    3    0    0 -0.25997986214E+01  0.35593789864E+02  0.15821473510E+02  0.39038389491E+02  0.51100000000E-03 0.  1.
         23    2    1    0    0    0  0.22752751510E+02 -0.95307739360E+01 -0.11742777439E+02  0.97679381868E+02  0.93780837419E+02 0.  0.
         11    1    3    3    0    0  0.25352550132E+02 -0.45124563800E+02 -0.27564250950E+02  0.58640992377E+02  0.51100000000E-03 0. -1.
         22    1    1    0    0    0 -0.22752751510E+02  0.95307739360E+01  0.11742777439E+02  0.27320618132E+02  0.00000000000E+00 0. -1.
</event>
<event>
 5    1  0.8962567E-005  0.9118800E+02  0.7818608E-02  0.1130116E+00
         25   -1    0    0    0    0  0.00000000000E+00  0.00000000000E+00  0.99999998245E-14  0.12500000000E+03  0.12500000000E+03 0.  0.
        -11    1    3    3    0    0 -0.33347504957E+02 -0.26098680389E+01  0.52131048797E+01  0.33853271050E+02  0.51100000000E-03 0.  1.
         23    2    1    0    0    0  0.28608052154E+02  0.26576257893E+01  0.35045947762E+01  0.96055815654E+02  0.91591232733E+02 0.  0.
         11    1    3    3    0    0  0.61955557111E+02  0.52674938282E+01 -0.17085101036E+01  0.62202544604E+02  0.51100000000E-03 0. -1.
         22    1    1    0    0    0 -0.28608052154E+02 -0.26576257893E+01 -0.35045947762E+01  0.28944184346E+02  0.00000000000E+00 0. -1.
</event>
<event>
 5    1  0.8962567E-005  0.9118800E+02  0.7818608E-02  0.1130116E+00
         25   -1    0    0    0    0  0.00000000000E+00  0.00000000000E+00  0.99999998245E-14  0.12500000000E+03  0.12500000000E+03 0.  0.
        -11    1    3    3    0    0 -0.33474960558E+02  0.84647727786E+01 -0.39062525485E+00  0.34530826097E+02  0.51100000000E-03 0.  1.
         23    2    1    0    0    0  0.27715813039E+02  0.78997725919E+01  0.41065557817E+01  0.95889237388E+02  0.91363610629E+02 0.  0.
         11    1    3    3    0    0  0.61190773598E+02 -0.56500018672E+00  0.44971810366E+01  0.61358411292E+02  0.51100000000E-03 0. -1.
         22    1    1    0    0    0 -0.27715813039E+02 -0.78997725919E+01 -0.41065557817E+01  0.29110762612E+02  0.00000000000E+00 0. -1.
</event>
<event>
 5    1  0.8962567E-005  0.9118800E+02  0.7818608E-02  0.1130116E+00
         25   -1    0    0    0    0  0.00000000000E+00  0.00000000000E+00  0.99999998245E-14  0.12500000000E+03  0.12500000000E+03 0.  0.
        -11    1    3    3    0    0 -0.13124795605E+02  0.49371136136E-01 -0.40201405226E+02  0.42289663981E+02  0.51100000000E-03 0. -1.
         23    2    1    0    0    0 -0.20588696010E+02  0.17711267190E+02  0.10024011463E+02  0.96050661585E+02  0.91584198398E+02 0.  0.
         11    1    3    3    0    0 -0.74639004050E+01  0.17661896054E+02  0.50225416689E+02  0.53760997603E+02  0.51100000000E-03 0.  1.
         22    1    1    0    0    0  0.20588696010E+02 -0.17711267190E+02 -0.10024011463E+02  0.28949338415E+02  0.00000000000E+00 0.  1.
</event>
<event>
 5    1  0.8962567E-005  0.9118800E+02  0.7818608E-02  0.1130116E+00
         25   -1    0    0    0    0  0.00000000000E+00  0.00000000000E+00  0.99999998245E-14  0.12500000000E+03  0.12500000000E+03 0.  0.
        -11    1    3    3    0    0  0.47253039370E+02  0.13207997603E+02 -0.37598087878E+02  0.61813567627E+02  0.51100000000E-03 0. -1.
         23    2    1    0    0    0  0.18351740336E+02  0.40318198798E+01 -0.22496497395E+02  0.95689006501E+02  0.91089250876E+02 0.  0.
         11    1    3    3    0    0 -0.28901299034E+02 -0.91761777229E+01  0.15101590484E+02  0.33875438873E+02  0.51100000000E-03 0.  1.
         22    1    1    0    0    0 -0.18351740336E+02 -0.40318198798E+01  0.22496497395E+02  0.29310993499E+02  0.00000000000E+00 0. -1.
</event>
<event>
 5    1  0.8962567E-005  0.9118800E+02  0.7818608E-02  0.1130116E+00
         25   -1    0    0    0    0  0.00000000000E+00  0.00000000000E+00  0.99999998245E-14  0.12500000000E+03  0.12500000000E+03 0.  0.
        -11    1    3    3    0    0  0.30462052950E+02  0.13901281925E+02 -0.14325620523E+02  0.36419853277E+02  0.51100000000E-03 0.  1.
         23    2    1    0    0    0 -0.27801582150E+02  0.60002866888E+01 -0.73105268450E+01  0.95633774278E+02  0.91013425216E+02 0.  0.
         11    1    3    3    0    0 -0.58263635100E+02 -0.79009952359E+01  0.70150936783E+01  0.59213921001E+02  0.51100000000E-03 0. -1.
         22    1    1    0    0    0  0.27801582150E+02 -0.60002866888E+01  0.73105268450E+01  0.29366225722E+02  0.00000000000E+00 0. -1.
</event>
<event>
 5    1  0.8962567E-005  0.9118800E+02  0.7818608E-02  0.1130116E+00
         25   -1    0    0    0    0  0.00000000000E+00  0.00000000000E+00  0.99999998245E-14  0.12500000000E+03  0.12500000000E+03 0.  0.
        -11    1    3    3    0    0 -0.57142300311E+01 -0.18013763788E+02 -0.28098624277E+02  0.33862675576E+02  0.51100000000E-03 0. -1.
         23    2    1    0    0    0  0.29175916461E+02  0.37105296815E+01  0.13762796029E+02  0.92528217074E+02  0.86643258644E+02 0.  0.
         11    1    3    3    0    0  0.34890146492E+02  0.21724293469E+02  0.41861420306E+02  0.58665541498E+02  0.51100000000E-03 0.  1.
         22    1    1    0    0    0 -0.29175916461E+02 -0.37105296815E+01 -0.13762796029E+02  0.32471782926E+02  0.00000000000E+00 0.  1.
</event>
<event>
 5    1  0.8962567E-005  0.9118800E+02  0.7818608E-02  0.1130116E+00
         25   -1    0    0    0    0  0.00000000000E+00  0.00000000000E+00  0.99999998245E-14  0.12500000000E+03  0.12500000000E+03 0.  0.
        -11    1    3    3    0    0 -0.47884867317E+02 -0.11700808147E+02  0.23932519247E+02  0.54796303772E+02  0.51100000000E-03 0.  1.
         23    2    1    0    0    0 -0.26197396811E+02 -0.83393290067E+01 -0.10451841973E+02  0.95587604508E+02  0.90949992452E+02 0.  0.
         11    1    3    3    0    0  0.21687470507E+02  0.33614791398E+01 -0.34384361220E+02  0.40791300736E+02  0.51100000000E-03 0. -1.
         22    1    1    0    0    0  0.26197396811E+02  0.83393290067E+01  0.10451841973E+02  0.29412395492E+02  0.00000000000E+00 0.  1.
</event>
<event>
 5    1  0.8962567E-005  0.9118800E+02  0.7818608E-02  0.1130116E+00
         25   -1    0    0    0    0  0.00000000000E+00  0.00000000000E+00  0.99999998245E-14  0.12500000000E+03  0.12500000000E+03 0.  0.
        -11    1    3    3    0    0 -0.45199475977E+02  0.12965158509E+02 -0.20037005541E+02  0.51113301156E+02  0.51100000000E-03 0.  1.
         23    2    1    0    0    0 -0.27189702491E+00  0.15166451858E+02 -0.24361265797E+02  0.96302152325E+02  0.91926808284E+02 0.  0.
         11    1    3    3    0    0  0.44927578952E+02  0.22012933482E+01 -0.43242602560E+01  0.45188851169E+02  0.51100000000E-03 0. -1.
         22    1    1    0    0    0  0.27189702491E+00 -0.15166451858E+02  0.24361265797E+02  0.28697847675E+02  0.00000000000E+00 0.  1.
</event>
<event>
 5    1  0.8962567E-005  0.9118800E+02  0.7818608E-02  0.1130116E+00
         25   -1    0    0    0    0  0.00000000000E+00  0.00000000000E+00  0.99999998245E-14  0.12500000000E+03  0.12500000000E+03 0.  0.
        -11    1    3    3    0    0 -0.13231165596E+02 -0.31847379654E+02  0.31288367468E+02  0.46564807237E+02  0.51100000000E-03 0.  1.
         23    2    1    0    0    0 -0.31960028015E+01  0.16063769275E+02  0.23835285445E+02  0.96079765744E+02  0.91623913013E+02 0.  0.
         11    1    3    3    0    0  0.10035162795E+02  0.47911148929E+02 -0.74530820238E+01  0.49514958507E+02  0.51100000000E-03 0. -1.
         22    1    1    0    0    0  0.31960028015E+01 -0.16063769275E+02 -0.23835285445E+02  0.28920234256E+02  0.00000000000E+00 0. -1.
</event>
<event>
 5    1  0.8962567E-005  0.9118800E+02  0.7818608E-02  0.1130116E+00
         25   -1    0    0    0    0  0.00000000000E+00  0.00000000000E+00  0.99999998245E-14  0.12500000000E+03  0.12500000000E+03 0.  0.
        -11    1    3    3    0    0  0.46067661618E+01 -0.23245677208E+02 -0.25209582528E+02  0.34599231998E+02  0.51100000000E-03 0. -1.
         23    2    1    0    0    0 -0.12190317364E+02  0.15224794867E+02  0.20530590768E+02  0.96682101535E+02  0.92442010925E+02 0.  0.
         11    1    3    3    0    0 -0.16797083526E+02  0.38470472075E+02  0.45740173296E+02  0.62082869538E+02  0.51100000000E-03 0.  1.
         22    1    1    0    0    0  0.12190317364E+02 -0.15224794867E+02 -0.20530590768E+02  0.28317898465E+02  0.00000000000E+00 0.  1.
</event>
<event>
 5    1  0.8962567E-005  0.9118800E+02  0.7818608E-02  0.1130116E+00
         25   -1    0    0    0    0  0.00000000000E+00  0.00000000000E+00  0.99999998245E-14  0.12500000000E+03  0.12500000000E+03 0.  0.
        -11    1    3    3    0    0 -0.39193351994E+02 -0.38700489991E+02 -0.52049656996E+01  0.55325748384E+02  0.51100000000E-03 0. -1.
         23    2    1    0    0    0 -0.28163806736E+02 -0.20081479799E+01  0.76633296197E+01  0.95743218067E+02  0.91163613996E+02 0.  0.
         11    1    3    3    0    0  0.11029545258E+02  0.36692342011E+02  0.12868295319E+02  0.40417469683E+02  0.51100000000E-03 0.  1.
         22    1    1    0    0    0  0.28163806736E+02  0.20081479799E+01 -0.76633296197E+01  0.29256781933E+02  0.00000000000E+00 0. -1.
</event>
<event>
 5    1  0.8962567E-005  0.9118800E+02  0.7818608E-02  0.1130116E+00
         25   -1    0    0    0    0  0.00000000000E+00  0.00000000000E+00  0.99999998245E-14  0.12500000000E+03  0.12500000000E+03 0.  0.
        -11    1    3    3    0    0  0.14603373686E+02  0.24739622302E+02 -0.17997990444E+02  0.33900370130E+02  0.51100000000E-03 0.  1.
         23    2    1    0    0    0 -0.66034501046E+01 -0.23712591849E+02  0.14937932415E+02  0.96207042696E+02  0.91797389254E+02 0.  0.
         11    1    3    3    0    0 -0.21206823790E+02 -0.48452214151E+02  0.32935922858E+02  0.62306672566E+02  0.51100000000E-03 0. -1.
         22    1    1    0    0    0  0.66034501046E+01  0.23712591849E+02 -0.14937932415E+02  0.28792957304E+02  0.00000000000E+00 0. -1.
</event>
<event>
 5    1  0.8962567E-005  0.9118800E+02  0.7818608E-02  0.1130116E+00
         25   -1    0    0    0    0  0.00000000000E+00  0.00000000000E+00  0.99999998245E-14  0.12500000000E+03  0.12500000000E+03 0.  0.
        -11    1    3    3    0    0 -0.47914612240E+02 -0.37395969915E+02  0.12465885514E+02  0.62045684249E+02  0.51100000000E-03 0.  1.
         23    2    1    0    0    0 -0.19219964466E+02 -0.21563567671E+02  0.70949325331E+01  0.95255545854E+02  0.90492466336E+02 0.  0.
         11    1    3    3    0    0  0.28694647774E+02  0.15832402244E+02 -0.53709529808E+01  0.33209861606E+02  0.51100000000E-03 0. -1.
         22    1    1    0    0    0  0.19219964466E+02  0.21563567671E+02 -0.70949325331E+01  0.29744454146E+02  0.00000000000E+00 0.  1.
</event>
<event>
 5    1  0.8962567E-005  0.9118800E+02  0.7818608E-02  0.1130116E+00
         25   -1    0    0    0    0  0.00000000000E+00  0.00000000000E+00  0.99999998245E-14  0.12500000000E+03  0.12500000000E+03 0.  0.
        -11    1    3    3    0    0 -0.37983390855E+02  0.75636305315E+01 -0.22162226345E+02  0.44621864198E+02  0.51100000000E-03 0.  1.
         23    2    1    0    0    0  0.11188237828E+02  0.11199385799E+02 -0.26514283276E+02  0.94119421547E+02  0.88909253662E+02 0.  0.
         11    1    3    3    0    0  0.49171628683E+02  0.36357552679E+01 -0.43520569304E+01  0.49497557349E+02  0.51100000000E-03 0. -1.
         22    1    1    0    0    0 -0.11188237828E+02 -0.11199385799E+02  0.26514283276E+02  0.30880578453E+02  0.00000000000E+00 0. -1.
</event>
<event>
 5    1  0.8962567E-005  0.9118800E+02  0.7818608E-02  0.1130116E+00
         25   -1    0    0    0    0  0.00000000000E+00  0.00000000000E+00  0.99999998245E-14  0.12500000000E+03  0.12500000000E+03 0.  0.
        -11    1    3    3    0    0  0.18116657884E+02  0.18161620249E+02 -0.18571526318E+02  0.31669533198E+02  0.51100000000E-03 0.  1.
         23    2    1    0    0    0 -0.13681521106E+02 -0.34349302206E+01  0.28953111764E+02  0.92793394369E+02  0.87024988321E+02 0.  0.
         11    1    3    3    0    0 -0.31798178990E+02 -0.21596550470E+02  0.47524638082E+02  0.61123861171E+02  0.51100000000E-03 0. -1.
         22    1    1    0    0    0  0.13681521106E+02  0.34349302206E+01 -0.28953111764E+02  0.32206605631E+02  0.00000000000E+00 0. -1.
</event>
<event>
 5    1  0.8962567E-005  0.9118800E+02  0.7818608E-02  0.1130116E+00
         25   -1    0    0    0    0  0.00000000000E+00  0.00000000000E+00  0.99999998245E-14  0.12500000000E+03  0.12500000000E+03 0.  0.
        -11    1    3    3    0    0 -0.32741711021E+02 -0.43770402231E+02 -0.33433834841E+01  0.54763545954E+02  0.51100000000E-03 0.  1.
         23    2    1    0    0    0 -0.26538762879E+02 -0.26623660321E+01 -0.92822627549E+01  0.96758992053E+02  0.92545923806E+02 0.  0.
         11    1    3    3    0    0  0.62029481421E+01  0.41108036199E+02 -0.59388792708E+01  0.41995446099E+02  0.51100000000E-03 0. -1.
         22    1    1    0    0    0  0.26538762879E+02  0.26623660321E+01  0.92822627549E+01  0.28241007947E+02  0.00000000000E+00 0.  1.
</event>
<event>
 5    1  0.8962567E-005  0.9118800E+02  0.7818608E-02  0.1130116E+00
         25   -1    0    0    0    0  0.00000000000E+00  0.00000000000E+00  0.99999998245E-14  0.12500000000E+03  0.12500000000E+03 0.  0.
        -11    1    3    3    0    0 -0.38423123525E+02 -0.48823754965E+02 -0.42458714932E+01  0.62274576637E+02  0.51100000000E-03 0.  1.
         23    2    1    0    0    0 -0.18540205308E+02 -0.20809812496E+02  0.14270532135E+01  0.97092581813E+02  0.92995405549E+02 0.  0.
         11    1    3    3    0    0  0.19882918217E+02  0.28013942469E+02  0.56729247067E+01  0.34818005176E+02  0.51100000000E-03 0. -1.
         22    1    1    0    0    0  0.18540205308E+02  0.20809812496E+02 -0.14270532135E+01  0.27907418187E+02  0.00000000000E+00 0.  1.
</event>
<event>
 5    1  0.8962567E-005  0.9118800E+02  0.7818608E-02  0.1130116E+00
         25   -1    0    0    0    0  0.00000000000E+00  0.00000000000E+00  0.99999998245E-14  0.12500000000E+03  0.12500000000E+03 0.  0.
        -11    1    3    3    0    0 -0.23158561056E+02 -0.10165401468E+02  0.49101536689E+02  0.55232374950E+02  0.51100000000E-03 0. -1.
         23    2    1    0    0    0 -0.28435727329E+02 -0.84257843747E+01  0.11582337703E+02  0.93160794958E+02  0.87551120721E+02 0.  0.
         11    1    3    3    0    0 -0.52771662727E+01  0.17396170933E+01 -0.37519198986E+02  0.37928420008E+02  0.51100000000E-03 0.  1.
         22    1    1    0    0    0  0.28435727329E+02  0.84257843747E+01 -0.11582337703E+02  0.31839205042E+02  0.00000000000E+00 0.  1.
</event>
<event>
 5    1  0.8962567E-005  0.9118800E+02  0.7818608E-02  0.1130116E+00
         25   -1    0    0    0    0  0.00000000000E+00  0.00000000000E+00  0.99999998245E-14  0.12500000000E+03  0.12500000000E+03 0.  0.
        -11    1    3    3    0    0 -0.36084083822E+02 -0.12926658174E+00  0.43921141770E+02  0.56843157106E+02  0.51100000000E-03 0.  1.
         23    2    1    0    0    0 -0.32684793302E+01  0.11057457916E+02  0.27449648885E+02  0.95226965948E+02  0.90452979426E+02 0.  0.
         11    1    3    3    0    0  0.32815604492E+02  0.11186724498E+02 -0.16471492884E+02  0.38383808843E+02  0.51100000000E-03 0. -1.
         22    1    1    0    0    0  0.32684793302E+01 -0.11057457916E+02 -0.27449648885E+02  0.29773034052E+02  0.00000000000E+00 0.  1.
</event>
<event>
 5    1  0.8962567E-005  0.9118800E+02  0.7818608E-02  0.1130116E+00
         25   -1    0    0    0    0  0.00000000000E+00  0.00000000000E+00  0.99999998245E-14  0.12500000000E+03  0.12500000000E+03 0.  0.
        -11    1    3    3    0    0 -0.25985311169E+02  0.47764342050E+02  0.14781978804E+01  0.54395347569E+02  0.51100000000E-03 0.  1.
         23    2    1    0    0    0 -0.27951634696E+02  0.63167735571E+01 -0.32576770720E+01  0.96158918705E+02  0.91731835675E+02 0.  0.
         11    1    3    3    0    0 -0.19663235277E+01 -0.41447568493E+02 -0.47358749524E+01  0.41763571136E+02  0.51100000000E-03 0. -1.
         22    1    1    0    0    0  0.27951634696E+02 -0.63167735571E+01  0.32576770720E+01  0.28841081295E+02  0.00000000000E+00 0.  1.
</event>
<event>
 5    1  0.8962567E-005  0.9118800E+02  0.7818608E-02  0.1130116E+00
         25   -1    0    0    0    0  0.00000000000E+00  0.00000000000E+00  0.99999998245E-14  0.12500000000E+03  0.12500000000E+03 0.  0.
        -11    1    3    3    0    0  0.27162871068E+02 -0.81416404625E+01 -0.22304648972E+02  0.36077766562E+02  0.51100000000E-03 0.  1.
         23    2    1    0    0    0 -0.17011080512E+02  0.11787007008E+01  0.20530502398E+02  0.98311655648E+02  0.94619838892E+02 0.  0.
         11    1    3    3    0    0 -0.44173951580E+02  0.93203411633E+01  0.42835151371E+02  0.62233889086E+02  0.51100000000E-03 0. -1.
         22    1    1    0    0    0  0.17011080512E+02 -0.11787007008E+01 -0.20530502398E+02  0.26688344352E+02  0.00000000000E+00 0. -1.
</event>
<event>
 5    1  0.8962567E-005  0.9118800E+02  0.7818608E-02  0.1130116E+00
         25   -1    0    0    0    0  0.00000000000E+00  0.00000000000E+00  0.99999998245E-14  0.12500000000E+03  0.12500000000E+03 0.  0.
        -11    1    3    3    0    0 -0.64744697065E+01 -0.14306483783E+02 -0.59458594747E+02  0.61497306654E+02  0.51100000000E-03 0. -1.
         23    2    1    0    0    0 -0.10177463196E+02 -0.33683611053E+01 -0.26950139511E+02  0.95995920402E+02  0.91509453613E+02 0.  0.
         11    1    3    3    0    0 -0.37029934895E+01  0.10938122677E+02  0.32508455236E+02  0.34498613748E+02  0.51100000000E-03 0.  1.
         22    1    1    0    0    0  0.10177463196E+02  0.33683611053E+01  0.26950139511E+02  0.29004079598E+02  0.00000000000E+00 0. -1.
</event>
<event>
 5    1  0.8962567E-005  0.9118800E+02  0.7818608E-02  0.1130116E+00
         25   -1    0    0    0    0  0.00000000000E+00  0.00000000000E+00  0.99999998245E-14  0.12500000000E+03  0.12500000000E+03 0.  0.
        -11    1    3    3    0    0  0.77788803019E+01 -0.37652019868E+02 -0.40722827719E+02  0.56004770124E+02  0.51100000000E-03 0. -1.
         23    2    1    0    0    0 -0.10962078615E+02 -0.57318149029E+01 -0.26675599021E+02  0.95595774916E+02  0.90961221018E+02 0.  0.
         11    1    3    3    0    0 -0.18740958917E+02  0.31920204965E+02  0.14047228698E+02  0.39591004793E+02  0.51100000000E-03 0.  1.
         22    1    1    0    0    0  0.10962078615E+02  0.57318149029E+01  0.26675599021E+02  0.29404225084E+02  0.00000000000E+00 0. -1.
</event>
<event>
 5    1  0.8962567E-005  0.9118800E+02  0.7818608E-02  0.1130116E+00
         25   -1    0    0    0    0  0.00000000000E+00  0.00000000000E+00  0.99999998245E-14  0.12500000000E+03  0.12500000000E+03 0.  0.
        -11    1    3    3    0    0  0.92425330453E+01 -0.50128960731E+02  0.14430105482E+02  0.52977023940E+02  0.51100000000E-03 0.  1.
         23    2    1    0    0    0  0.51393078771E+01 -0.22255500025E+02 -0.17987396874E+02  0.95926537648E+02  0.91414629092E+02 0.  0.
         11    1    3    3    0    0 -0.41032251681E+01  0.27873460706E+02 -0.32417502356E+02  0.42949513708E+02  0.51100000000E-03 0. -1.
         22    1    1    0    0    0 -0.51393078771E+01  0.22255500025E+02  0.17987396874E+02  0.29073462352E+02  0.00000000000E+00 0.  1.
</event>
<event>
 5    1  0.8962567E-005  0.9118800E+02  0.7818608E-02  0.1130116E+00
         25   -1    0    0    0    0  0.00000000000E+00  0.00000000000E+00  0.99999998245E-14  0.12500000000E+03  0.12500000000E+03 0.  0.
        -11    1    3    3    0    0  0.52476543452E+02  0.13089359068E+02 -0.55570235095E+01  0.54369103763E+02  0.51100000000E-03 0. -1.
         23    2    1    0    0    0  0.14279240932E+02  0.22071710145E+02 -0.15006847127E+02  0.94730170614E+02  0.89763815948E+02 0.  0.
         11    1    3    3    0    0 -0.38197302520E+02  0.89823510774E+01 -0.94498236180E+01  0.40361066851E+02  0.51100000000E-03 0.  1.
         22    1    1    0    0    0 -0.14279240932E+02 -0.22071710145E+02  0.15006847127E+02  0.30269829386E+02  0.00000000000E+00 0. -1.
</event>
<event>
 5    1  0.8962567E-005  0.9118800E+02  0.7818608E-02  0.1130116E+00
         25   -1    0    0    0    0  0.00000000000E+00  0.00000000000E+00  0.99999998245E-14  0.12500000000E+03  0.12500000000E+03 0.  0.
        -11    1    3    3    0    0  0.22300991405E+02  0.42317983770E+02 -0.19369708860E+02  0.51607476102E+02  0.51100000000E-03 0.  1.
         23    2    1    0    0    0  0.88060821370E+01  0.18172809465E+01 -0.28372971871E+02  0.95236345563E+02  0.90465940502E+02 0.  0.
         11    1    3    3    0    0 -0.13494909268E+02 -0.40500702824E+02 -0.90032630109E+01  0.43628869461E+02  0.51100000000E-03 0. -1.
         22    1    1    0    0    0 -0.88060821370E+01 -0.18172809465E+01  0.28372971871E+02  0.29763654437E+02  0.00000000000E+00 0.  1.
</event>
<event>
 5    1  0.8962567E-005  0.9118800E+02  0.7818608E-02  0.1130116E+00
         25   -1    0    0    0    0  0.00000000000E+00  0.00000000000E+00  0.99999998245E-14  0.12500000000E+03  0.12500000000E+03 0.  0.
        -11    1    3    3    0    0 -0.50999716414E+02  0.13207111523E+02 -0.15757825380E+02  0.54988252655E+02  0.51100000000E-03 0.  1.
         23    2    1    0    0    0 -0.12645143363E+02  0.21416275718E+02 -0.18036285942E+02  0.94277628235E+02  0.89131403325E+02 0.  0.
         11    1    3    3    0    0  0.38354573051E+02  0.82091641946E+01 -0.22784605622E+01  0.39289375580E+02  0.51100000000E-03 0. -1.
         22    1    1    0    0    0  0.12645143363E+02 -0.21416275718E+02  0.18036285942E+02  0.30722371765E+02  0.00000000000E+00 0.  1.
</event>
<event>
 5    1  0.8962567E-005  0.9118800E+02  0.7818608E-02  0.1130116E+00
         25   -1    0    0    0    0  0.00000000000E+00  0.00000000000E+00  0.99999998245E-14  0.12500000000E+03  0.12500000000E+03 0.  0.
        -11    1    3    3    0    0  0.12729672976E+02  0.10705147693E+02  0.24498566524E+02  0.29611222926E+02  0.51100000000E-03 0.  1.
         23    2    1    0    0    0  0.26477171853E+02 -0.28867151294E+02 -0.10773004005E+02  0.84374753312E+02  0.73950580309E+02 0.  0.
         11    1    3    3    0    0  0.13747498877E+02 -0.39572298987E+02 -0.35271570529E+02  0.54763530386E+02  0.51100000000E-03 0. -1.
         22    1    1    0    0    0 -0.26477171853E+02  0.28867151294E+02  0.10773004005E+02  0.40625246688E+02  0.00000000000E+00 0. -1.
</event>
<event>
 5    1  0.8962567E-005  0.9118800E+02  0.7818608E-02  0.1130116E+00
         25   -1    0    0    0    0  0.00000000000E+00  0.00000000000E+00  0.99999998245E-14  0.12500000000E+03  0.12500000000E+03 0.  0.
        -11    1    3    3    0    0 -0.47333986204E+02  0.38455490788E+02 -0.91816740901E+01  0.61673609924E+02  0.51100000000E-03 0.  1.
         23    2    1    0    0    0 -0.21204071047E+02  0.19929120740E+02  0.25576754321E+01  0.95788286834E+02  0.91225389605E+02 0.  0.
         11    1    3    3    0    0  0.26129915157E+02 -0.18526370048E+02  0.11739349522E+02  0.34114676910E+02  0.51100000000E-03 0. -1.
         22    1    1    0    0    0  0.21204071047E+02 -0.19929120740E+02 -0.25576754321E+01  0.29211713166E+02  0.00000000000E+00 0.  1.
</event>
<event>
 5    1  0.8962567E-005  0.9118800E+02  0.7818608E-02  0.1130116E+00
         25   -1    0    0    0    0  0.00000000000E+00  0.00000000000E+00  0.99999998245E-14  0.12500000000E+03  0.12500000000E+03 0.  0.
        -11    1    3    3    0    0 -0.12266459365E+01 -0.57087312294E+01  0.41128763202E+02  0.41541177586E+02  0.51100000000E-03 0.  1.
         23    2    1    0    0    0 -0.21420365543E+02  0.19217498479E+02 -0.29654723655E+01  0.96070113479E+02  0.91610743746E+02 0.  0.
         11    1    3    3    0    0 -0.20193719607E+02  0.24926229708E+02 -0.44094235567E+02  0.54528935892E+02  0.51100000000E-03 0. -1.
         22    1    1    0    0    0  0.21420365543E+02 -0.19217498479E+02  0.29654723655E+01  0.28929886521E+02  0.00000000000E+00 0. -1.
</event>
<event>
 5    1  0.8962567E-005  0.9118800E+02  0.7818608E-02  0.1130116E+00
         25   -1    0    0    0    0  0.00000000000E+00  0.00000000000E+00  0.99999998245E-14  0.12500000000E+03  0.12500000000E+03 0.  0.
        -11    1    3    3    0    0  0.53532576704E+02 -0.16553415992E+02 -0.18022348781E+02  0.58860491040E+02  0.51100000000E-03 0. -1.
         23    2    1    0    0    0  0.18489379416E+02 -0.19755852448E+02 -0.10691552683E+01  0.97920599155E+02  0.94101805449E+02 0.  0.
         11    1    3    3    0    0 -0.35043197288E+02 -0.32024364558E+01  0.16953193513E+02  0.39060108115E+02  0.51100000000E-03 0.  1.
         22    1    1    0    0    0 -0.18489379416E+02  0.19755852448E+02  0.10691552683E+01  0.27079400845E+02  0.00000000000E+00 0. -1.
</event>
<event>
 5    1  0.8962567E-005  0.9118800E+02  0.7818608E-02  0.1130116E+00
         25   -1    0    0    0    0  0.00000000000E+00  0.00000000000E+00  0.99999998245E-14  0.12500000000E+03  0.12500000000E+03 0.  0.
        -11    1    3    3    0    0 -0.18476337833E+02 -0.91430797449E+00 -0.22990493829E+02  0.29508877064E+02  0.51100000000E-03 0. -1.
         23    2    1    0    0    0  0.24378446602E+02  0.14281425511E+02  0.18635227044E+02  0.91154181051E+02  0.84637729546E+02 0.  0.
         11    1    3    3    0    0  0.42854784435E+02  0.15195733485E+02  0.41625720874E+02  0.61645303987E+02  0.51100000000E-03 0.  1.
         22    1    1    0    0    0 -0.24378446602E+02 -0.14281425511E+02 -0.18635227044E+02  0.33845818949E+02  0.00000000000E+00 0.  1.
</event>
<event>
 5    1  0.8962567E-005  0.9118800E+02  0.7818608E-02  0.1130116E+00
         25   -1    0    0    0    0  0.00000000000E+00  0.00000000000E+00  0.99999998245E-14  0.12500000000E+03  0.12500000000E+03 0.  0.
        -11    1    3    3    0    0  0.33809506319E+01  0.24208478756E+02 -0.38424684115E+02  0.45540505272E+02  0.51100000000E-03 0.  1.
         23    2    1    0    0    0 -0.16980054052E+02 -0.16559141418E+02 -0.16482581893E+02  0.96117429027E+02  0.91675281602E+02 0.  0.
         11    1    3    3    0    0 -0.20361004684E+02 -0.40767620174E+02  0.21942102221E+02  0.50576923755E+02  0.51100000000E-03 0. -1.
         22    1    1    0    0    0  0.16980054052E+02  0.16559141418E+02  0.16482581893E+02  0.28882570973E+02  0.00000000000E+00 0.  1.
</event>
<event>
 5    1  0.8962567E-005  0.9118800E+02  0.7818608E-02  0.1130116E+00
         25   -1    0    0    0    0  0.00000000000E+00  0.00000000000E+00  0.99999998245E-14  0.12500000000E+03  0.12500000000E+03 0.  0.
        -11    1    3    3    0    0 -0.35348690763E+02 -0.19987850961E+01  0.48036845098E+02  0.59674647613E+02  0.51100000000E-03 0. -1.
         23    2    1    0    0    0 -0.13384800521E+02 -0.13420994188E+02  0.26041687467E+02  0.92790599879E+02  0.87020974310E+02 0.  0.
         11    1    3    3    0    0  0.21963890242E+02 -0.11422209092E+02 -0.21995157630E+02  0.33115952267E+02  0.51100000000E-03 0.  1.
         22    1    1    0    0    0  0.13384800521E+02  0.13420994188E+02 -0.26041687467E+02  0.32209400121E+02  0.00000000000E+00 0. -1.
</event>
<event>
 5    1  0.8962567E-005  0.9118800E+02  0.7818608E-02  0.1130116E+00
         25   -1    0    0    0    0  0.00000000000E+00  0.00000000000E+00  0.99999998245E-14  0.12500000000E+03  0.12500000000E+03 0.  0.
        -11    1    3    3    0    0 -0.37634930994E+02  0.14312626530E+02 -0.27096815176E+02  0.48533253570E+02  0.51100000000E-03 0. -1.
         23    2    1    0    0    0 -0.18756170920E+02  0.15877750284E+02  0.16045352326E+02  0.95651231151E+02  0.91037397743E+02 0.  0.
         11    1    3    3    0    0  0.18878760074E+02  0.15651237541E+01  0.43142167502E+02  0.47117977581E+02  0.51100000000E-03 0.  1.
         22    1    1    0    0    0  0.18756170920E+02 -0.15877750284E+02 -0.16045352326E+02  0.29348768849E+02  0.00000000000E+00 0. -1.
</event>
<event>
 5    1  0.8962567E-005  0.9118800E+02  0.7818608E-02  0.1130116E+00
         25   -1    0    0    0    0  0.00000000000E+00  0.00000000000E+00  0.99999998245E-14  0.12500000000E+03  0.12500000000E+03 0.  0.
        -11    1    3    3    0    0 -0.37646514818E+01 -0.57944484639E+02 -0.16746140975E+02  0.60433179121E+02  0.51100000000E-03 0.  1.
         23    2    1    0    0    0 -0.14854071672E+01 -0.26603380989E+02  0.39554859318E+01  0.98063181638E+02  0.94291014468E+02 0.  0.
         11    1    3    3    0    0  0.22792443146E+01  0.31341103649E+02  0.20701626906E+02  0.37630002517E+02  0.51100000000E-03 0. -1.
         22    1    1    0    0    0  0.14854071672E+01  0.26603380989E+02 -0.39554859318E+01  0.26936818362E+02  0.00000000000E+00 0.  1.
</event>
<event>
 5    1  0.8962567E-005  0.9118800E+02  0.7818608E-02  0.1130116E+00
         25   -1    0    0    0    0  0.00000000000E+00  0.00000000000E+00  0.99999998245E-14  0.12500000000E+03  0.12500000000E+03 0.  0.
        -11    1    3    3    0    0 -0.16512220689E+02 -0.12174655685E+02 -0.31032814211E+02  0.37200957397E+02  0.51100000000E-03 0.  1.
         23    2    1    0    0    0  0.26126107122E+02 -0.96886797145E+01  0.89775303511E+01  0.95724753816E+02  0.91138293016E+02 0.  0.
         11    1    3    3    0    0  0.42638327811E+02  0.24859759701E+01  0.40010344562E+02  0.58523796419E+02  0.51100000000E-03 0. -1.
         22    1    1    0    0    0 -0.26126107122E+02  0.96886797145E+01 -0.89775303511E+01  0.29275246184E+02  0.00000000000E+00 0. -1.
</event>
<event>
 5    1  0.8962567E-005  0.9118800E+02  0.7818608E-02  0.1130116E+00
         25   -1    0    0    0    0  0.00000000000E+00  0.00000000000E+00  0.99999998245E-14  0.12500000000E+03  0.12500000000E+03 0.  0.
        -11    1    3    3    0    0  0.31843219060E+02  0.38252565900E+02  0.27663767490E+02  0.56943247449E+02  0.51100000000E-03 0. -1.
         23    2    1    0    0    0  0.27993632375E+02  0.14557854053E+02  0.16369094367E+00  0.93446848606E+02  0.87958582023E+02 0.  0.
         11    1    3    3    0    0 -0.38495866847E+01 -0.23694711847E+02 -0.27500076546E+02  0.36503601157E+02  0.51100000000E-03 0.  1.
         22    1    1    0    0    0 -0.27993632375E+02 -0.14557854053E+02 -0.16369094367E+00  0.31553151394E+02  0.00000000000E+00 0. -1.
</event>
<event>
 5    1  0.8962567E-005  0.9118800E+02  0.7818608E-02  0.1130116E+00
         25   -1    0    0    0    0  0.00000000000E+00  0.00000000000E+00  0.99999998245E-14  0.12500000000E+03  0.12500000000E+03 0.  0.
        -11    1    3    3    0    0 -0.11766672691E+02  0.41443072514E+02 -0.19838991617E+02  0.47429615582E+02  0.51100000000E-03 0.  1.
         23    2    1    0    0    0  0.84655439157E+00  0.16778114052E+02  0.21822013791E+02  0.97460536473E+02  0.93488684439E+02 0.  0.
         11    1    3    3    0    0  0.12613227083E+02 -0.24664958462E+02  0.41661005407E+02  0.50030920891E+02  0.51100000000E-03 0. -1.
         22    1    1    0    0    0 -0.84655439157E+00 -0.16778114052E+02 -0.21822013791E+02  0.27539463527E+02  0.00000000000E+00 0.  1.
</event>
<event>
 5    1  0.8962567E-005  0.9118800E+02  0.7818608E-02  0.1130116E+00
         25   -1    0    0    0    0  0.00000000000E+00  0.00000000000E+00  0.99999998245E-14  0.12500000000E+03  0.12500000000E+03 0.  0.
        -11    1    3    3    0    0 -0.70907561053E+01  0.19095621872E+02  0.36145880876E+02  0.41490315755E+02  0.51100000000E-03 0. -1.
         23    2    1    0    0    0 -0.53515559120E+01 -0.27667099260E+02  0.99733729051E+01  0.95107263437E+02  0.90287406980E+02 0.  0.
         11    1    3    3    0    0  0.17392001933E+01 -0.46762721132E+02 -0.26172507971E+02  0.53616947682E+02  0.51100000000E-03 0.  1.
         22    1    1    0    0    0  0.53515559120E+01  0.27667099260E+02 -0.99733729051E+01  0.29892736563E+02  0.00000000000E+00 0.  1.
</event>
<event>
 5    1  0.8962567E-005  0.9118800E+02  0.7818608E-02  0.1130116E+00
         25   -1    0    0    0    0  0.00000000000E+00  0.00000000000E+00  0.99999998245E-14  0.12500000000E+03  0.12500000000E+03 0.  0.
        -11    1    3    3    0    0 -0.16214888274E+02  0.12536740235E+01 -0.29347362080E+02  0.33552376393E+02  0.51100000000E-03 0.  1.
         23    2    1    0    0    0  0.11309850848E+02  0.74240276600E+01  0.26009818169E+02  0.95682094991E+02  0.91079765853E+02 0.  0.
         11    1    3    3    0    0  0.27524739122E+02  0.61703536365E+01  0.55357180249E+02  0.62129718599E+02  0.51100000000E-03 0. -1.
         22    1    1    0    0    0 -0.11309850848E+02 -0.74240276600E+01 -0.26009818169E+02  0.29317905009E+02  0.00000000000E+00 0. -1.
</event>
<event>
 5    1  0.8962567E-005  0.9118800E+02  0.7818608E-02  0.1130116E+00
         25   -1    0    0    0    0  0.00000000000E+00  0.00000000000E+00  0.99999998245E-14  0.12500000000E+03  0.12500000000E+03 0.  0.
        -11    1    3    3    0    0  0.15184351575E+02 -0.46214677919E+02  0.30134066432E+02  0.57222573762E+02  0.51100000000E-03 0.  1.
         23    2    1    0    0    0 -0.44356051987E+01 -0.29961248265E+02  0.28096896583E+01  0.94582154135E+02  0.89557459398E+02 0.  0.
         11    1    3    3    0    0 -0.19619956774E+02  0.16253429654E+02 -0.27324376774E+02  0.37359580373E+02  0.51100000000E-03 0. -1.
         22    1    1    0    0    0  0.44356051987E+01  0.29961248265E+02 -0.28096896583E+01  0.30417845865E+02  0.00000000000E+00 0.  1.
</event>
<event>
 5    1  0.8962567E-005  0.9118800E+02  0.7818608E-02  0.1130116E+00
         25   -1    0    0    0    0  0.00000000000E+00  0.00000000000E+00  0.99999998245E-14  0.12500000000E+03  0.12500000000E+03 0.  0.
        -11    1    3    3    0    0  0.45535942641E+02 -0.55026417411E+01  0.32683234747E+02  0.56320466725E+02  0.51100000000E-03 0.  1.
         23    2    1    0    0    0  0.28639067166E+02 -0.48699733620E+01 -0.29882546025E+01  0.95796533181E+02  0.91236688318E+02 0.  0.
         11    1    3    3    0    0 -0.16896875475E+02  0.63266837915E+00 -0.35671489350E+02  0.39476066455E+02  0.51100000000E-03 0. -1.
         22    1    1    0    0    0 -0.28639067166E+02  0.48699733620E+01  0.29882546025E+01  0.29203466819E+02  0.00000000000E+00 0.  1.
</event>
<event>
 5    1  0.8962567E-005  0.9118800E+02  0.7818608E-02  0.1130116E+00
         25   -1    0    0    0    0  0.00000000000E+00  0.00000000000E+00  0.99999998245E-14  0.12500000000E+03  0.12500000000E+03 0.  0.
        -11    1    3    3    0    0  0.77858031281E+01 -0.25108703800E+02  0.28949643299E+02  0.39104316696E+02  0.51100000000E-03 0. -1.
         23    2    1    0    0    0 -0.17755068108E+01  0.27411594205E+02  0.10686802429E+02  0.95525338552E+02  0.90864374966E+02 0.  0.
         11    1    3    3    0    0 -0.95613099388E+01  0.52520298006E+02 -0.18262840870E+02  0.56421021856E+02  0.51100000000E-03 0.  1.
         22    1    1    0    0    0  0.17755068108E+01 -0.27411594205E+02 -0.10686802429E+02  0.29474661448E+02  0.00000000000E+00 0.  1.
</event>
<event>
 5    1  0.8962567E-005  0.9118800E+02  0.7818608E-02  0.1130116E+00
         25   -1    0    0    0    0  0.00000000000E+00  0.00000000000E+00  0.99999998245E-14  0.12500000000E+03  0.12500000000E+03 0.  0.
        -11    1    3    3    0    0 -0.56727453600E+01  0.34062769908E+01 -0.33595900469E+02  0.34241309722E+02  0.51100000000E-03 0.  1.
         23    2    1    0    0    0  0.18202738591E+02 -0.75848255359E+01  0.21829048610E+02  0.95582715390E+02  0.90943272690E+02 0.  0.
         11    1    3    3    0    0  0.23875483951E+02 -0.10991102527E+02  0.55424949079E+02  0.61341405668E+02  0.51100000000E-03 0. -1.
         22    1    1    0    0    0 -0.18202738591E+02  0.75848255359E+01 -0.21829048610E+02  0.29417284610E+02  0.00000000000E+00 0. -1.
</event>
<event>
 5    1  0.8962567E-005  0.9118800E+02  0.7818608E-02  0.1130116E+00
         25   -1    0    0    0    0  0.00000000000E+00  0.00000000000E+00  0.99999998245E-14  0.12500000000E+03  0.12500000000E+03 0.  0.
        -11    1    3    3    0    0  0.22199443994E+02  0.14531734278E+02 -0.21197473937E+02  0.33960558246E+02  0.51100000000E-03 0.  1.
         23    2    1    0    0    0 -0.16987296178E+02 -0.15220055712E+02  0.17250638656E+02  0.96402747311E+02  0.92063493458E+02 0.  0.
         11    1    3    3    0    0 -0.39186740173E+02 -0.29751789990E+02  0.38448112594E+02  0.62442189065E+02  0.51100000000E-03 0. -1.
         22    1    1    0    0    0  0.16987296178E+02  0.15220055712E+02 -0.17250638656E+02  0.28597252689E+02  0.00000000000E+00 0. -1.
</event>
<event>
 5    1  0.8962567E-005  0.9118800E+02  0.7818608E-02  0.1130116E+00
         25   -1    0    0    0    0  0.00000000000E+00  0.00000000000E+00  0.99999998245E-14  0.12500000000E+03  0.12500000000E+03 0.  0.
        -11    1    3    3    0    0 -0.12579315730E+02 -0.44372646034E+02 -0.38197272210E+02  0.59884910493E+02  0.51100000000E-03 0.  1.
         23    2    1    0    0    0  0.71717925534E+01 -0.17414000914E+02 -0.96437789196E+01  0.10384144362E+03  0.10166297706E+03 0.  0.
         11    1    3    3    0    0  0.19751108283E+02  0.26958645120E+02  0.28553493290E+02  0.43956533126E+02  0.51100000000E-03 0. -1.
         22    1    1    0    0    0 -0.71717925534E+01  0.17414000914E+02  0.96437789196E+01  0.21158556380E+02  0.00000000000E+00 0.  1.
</event>
<event>
 5    1  0.8962567E-005  0.9118800E+02  0.7818608E-02  0.1130116E+00
         25   -1    0    0    0    0  0.00000000000E+00  0.00000000000E+00  0.99999998245E-14  0.12500000000E+03  0.12500000000E+03 0.  0.
        -11    1    3    3    0    0  0.33014168377E+02 -0.17782618244E+02 -0.65506045699E+01  0.38066615896E+02  0.51100000000E-03 0.  1.
         23    2    1    0    0    0 -0.82812788220E+01  0.16323665221E+02 -0.24378507752E+02  0.94514704112E+02  0.89463266362E+02 0.  0.
         11    1    3    3    0    0 -0.41295447199E+02  0.34106283465E+02 -0.17827903182E+02  0.56448088217E+02  0.51100000000E-03 0. -1.
         22    1    1    0    0    0  0.82812788220E+01 -0.16323665221E+02  0.24378507752E+02  0.30485295888E+02  0.00000000000E+00 0. -1.
</event>
<event>
 5    1  0.8962567E-005  0.9118800E+02  0.7818608E-02  0.1130116E+00
         25   -1    0    0    0    0  0.00000000000E+00  0.00000000000E+00  0.99999998245E-14  0.12500000000E+03  0.12500000000E+03 0.  0.
        -11    1    3    3    0    0 -0.31927443100E+02  0.30975295940E+02 -0.10714903538E+02  0.45756308194E+02  0.51100000000E-03 0. -1.
         23    2    1    0    0    0 -0.18995486582E+01  0.13989245134E+02  0.25549603174E+02  0.95809428116E+02  0.91254353480E+02 0.  0.
         11    1    3    3    0    0  0.30027894442E+02 -0.16986050806E+02  0.36264506712E+02  0.50053119922E+02  0.51100000000E-03 0.  1.
         22    1    1    0    0    0  0.18995486582E+01 -0.13989245134E+02 -0.25549603174E+02  0.29190571884E+02  0.00000000000E+00 0. -1.
</event>
<event>
 5    1  0.8962567E-005  0.9118800E+02  0.7818608E-02  0.1130116E+00
         25   -1    0    0    0    0  0.00000000000E+00  0.00000000000E+00  0.99999998245E-14  0.12500000000E+03  0.12500000000E+03 0.  0.
        -11    1    3    3    0    0 -0.57987389289E+00  0.45377601167E+02  0.24784892145E+02  0.51708353487E+02  0.51100000000E-03 0. -1.
         23    2    1    0    0    0  0.22637112723E+02  0.16233553854E+02 -0.11716047156E+01  0.97119185794E+02  0.93031158482E+02 0.  0.
         11    1    3    3    0    0  0.23216986616E+02 -0.29144047313E+02 -0.25956496861E+02  0.45410832307E+02  0.51100000000E-03 0.  1.
         22    1    1    0    0    0 -0.22637112723E+02 -0.16233553854E+02  0.11716047156E+01  0.27880814206E+02  0.00000000000E+00 0. -1.
</event>
<event>
 5    1  0.8962567E-005  0.9118800E+02  0.7818608E-02  0.1130116E+00
         25   -1    0    0    0    0  0.00000000000E+00  0.00000000000E+00  0.99999998245E-14  0.12500000000E+03  0.12500000000E+03 0.  0.
        -11    1    3    3    0    0 -0.38152836179E+02  0.14500665150E+02  0.28604432564E+01  0.40915649013E+02  0.51100000000E-03 0.  1.
         23    2    1    0    0    0 -0.65778626680E+01 -0.26423438072E+02  0.14859958261E+02  0.93979285690E+02  0.88712013969E+02 0.  0.
         11    1    3    3    0    0  0.31574973511E+02 -0.40924103222E+02  0.11999515004E+02  0.53063636676E+02  0.51100000000E-03 0. -1.
         22    1    1    0    0    0  0.65778626680E+01  0.26423438072E+02 -0.14859958261E+02  0.31020714310E+02  0.00000000000E+00 0. -1.
</event>
<event>
 5    1  0.8962567E-005  0.9118800E+02  0.7818608E-02  0.1130116E+00
         25   -1    0    0    0    0  0.00000000000E+00  0.00000000000E+00  0.99999998245E-14  0.12500000000E+03  0.12500000000E+03 0.  0.
        -11    1    3    3    0    0  0.15368206592E+01 -0.18210376781E+02  0.55422418235E+02  0.58357725140E+02  0.51100000000E-03 0. -1.
         23    2    1    0    0    0  0.97183549241E+01 -0.19850805804E+02  0.18602438658E+02  0.96111392600E+02  0.91667050514E+02 0.  0.
         11    1    3    3    0    0  0.81815342649E+01 -0.16404290234E+01 -0.36819979578E+02  0.37753667460E+02  0.51100000000E-03 0.  1.
         22    1    1    0    0    0 -0.97183549241E+01  0.19850805804E+02 -0.18602438658E+02  0.28888607400E+02  0.00000000000E+00 0. -1.
</event>
<event>
 5    1  0.8962567E-005  0.9118800E+02  0.7818608E-02  0.1130116E+00
         25   -1    0    0    0    0  0.00000000000E+00  0.00000000000E+00  0.99999998245E-14  0.12500000000E+03  0.12500000000E+03 0.  0.
        -11    1    3    3    0    0 -0.42230231849E+02  0.42935189786E+02 -0.37168747459E+01  0.60337701001E+02  0.51100000000E-03 0.  1.
         23    2    1    0    0    0 -0.12122111923E+02  0.28555538485E+02  0.53580696584E+00  0.93973374906E+02  0.88703684965E+02 0.  0.
         11    1    3    3    0    0  0.30108119926E+02 -0.14379651301E+02  0.42526817117E+01  0.33635673905E+02  0.51100000000E-03 0. -1.
         22    1    1    0    0    0  0.12122111923E+02 -0.28555538485E+02 -0.53580696584E+00  0.31026625094E+02  0.00000000000E+00 0.  1.
</event>
<event>
 5    1  0.8962567E-005  0.9118800E+02  0.7818608E-02  0.1130116E+00
         25   -1    0    0    0    0  0.00000000000E+00  0.00000000000E+00  0.99999998245E-14  0.12500000000E+03  0.12500000000E+03 0.  0.
        -11    1    3    3    0    0 -0.18796460909E+02  0.39383730541E+02  0.22274866972E+02  0.48995457676E+02  0.51100000000E-03 0.  1.
         23    2    1    0    0    0  0.20359324400E+02  0.20923648096E+02  0.63323889793E+01  0.95126930358E+02  0.90314631093E+02 0.  0.
         11    1    3    3    0    0  0.39155785308E+02 -0.18460082445E+02 -0.15942477992E+02  0.46131472682E+02  0.51100000000E-03 0. -1.
         22    1    1    0    0    0 -0.20359324400E+02 -0.20923648096E+02 -0.63323889793E+01  0.29873069642E+02  0.00000000000E+00 0.  1.
</event>
<event>
 5    1  0.8962567E-005  0.9118800E+02  0.7818608E-02  0.1130116E+00
         25   -1    0    0    0    0  0.00000000000E+00  0.00000000000E+00  0.99999998245E-14  0.12500000000E+03  0.12500000000E+03 0.  0.
        -11    1    3    3    0    0 -0.35305256765E+02  0.20875124036E+02 -0.83258151796E+01  0.41851537097E+02  0.51100000000E-03 0. -1.
         23    2    1    0    0    0 -0.50500033975E+01 -0.25950223101E+02 -0.71493399767E+01  0.97613330334E+02  0.93692756302E+02 0.  0.
         11    1    3    3    0    0  0.30255253367E+02 -0.46825347137E+02  0.11764752029E+01  0.55761793237E+02  0.51100000000E-03 0.  1.
         22    1    1    0    0    0  0.50500033975E+01  0.25950223101E+02  0.71493399767E+01  0.27386669666E+02  0.00000000000E+00 0.  1.
</event>
<event>
 5    1  0.8962567E-005  0.9118800E+02  0.7818608E-02  0.1130116E+00
         25   -1    0    0    0    0  0.00000000000E+00  0.00000000000E+00  0.99999998245E-14  0.12500000000E+03  0.12500000000E+03 0.  0.
        -11    1    3    3    0    0  0.12370315388E+02 -0.30952160850E+01 -0.47319623900E+02  0.49007671559E+02  0.51100000000E-03 0. -1.
         23    2    1    0    0    0 -0.22775072664E+02 -0.74263669075E+01 -0.17000702635E+02  0.95625202122E+02  0.91001651251E+02 0.  0.
         11    1    3    3    0    0 -0.35145388053E+02 -0.43311508224E+01  0.30318921264E+02  0.46617530562E+02  0.51100000000E-03 0.  1.
         22    1    1    0    0    0  0.22775072664E+02  0.74263669075E+01  0.17000702635E+02  0.29374797878E+02  0.00000000000E+00 0.  1.
</event>
<event>
 5    1  0.8962567E-005  0.9118800E+02  0.7818608E-02  0.1130116E+00
         25   -1    0    0    0    0  0.00000000000E+00  0.00000000000E+00  0.99999998245E-14  0.12500000000E+03  0.12500000000E+03 0.  0.
        -11    1    3    3    0    0 -0.50479924139E+02  0.33663951215E+02  0.14453364841E+02  0.62372943717E+02  0.51100000000E-03 0.  1.
         23    2    1    0    0    0 -0.24773719399E+02  0.15537020758E+02  0.41961379104E+01  0.95457763113E+02  0.90771365410E+02 0.  0.
         11    1    3    3    0    0  0.25706204740E+02 -0.18126930457E+02 -0.10257226930E+02  0.33084819396E+02  0.51100000000E-03 0. -1.
         22    1    1    0    0    0  0.24773719399E+02 -0.15537020758E+02 -0.41961379104E+01  0.29542236887E+02  0.00000000000E+00 0.  1.
</event>
<event>
 5    1  0.8962567E-005  0.9118800E+02  0.7818608E-02  0.1130116E+00
         25   -1    0    0    0    0  0.00000000000E+00  0.00000000000E+00  0.99999998245E-14  0.12500000000E+03  0.12500000000E+03 0.  0.
        -11    1    3    3    0    0 -0.11183954185E+02  0.14587806740E+02 -0.32330735510E+02  0.37190877854E+02  0.51100000000E-03 0.  1.
         23    2    1    0    0    0 -0.83880622726E+01  0.18751176583E+02  0.23809050866E+02  0.93554219440E+02  0.88111037106E+02 0.  0.
         11    1    3    3    0    0  0.27958919125E+01  0.41633698429E+01  0.56139786376E+02  0.56363341585E+02  0.51100000000E-03 0. -1.
         22    1    1    0    0    0  0.83880622726E+01 -0.18751176583E+02 -0.23809050866E+02  0.31445780560E+02  0.00000000000E+00 0. -1.
</event>
<event>
 5    1  0.8962567E-005  0.9118800E+02  0.7818608E-02  0.1130116E+00
         25   -1    0    0    0    0  0.00000000000E+00  0.00000000000E+00  0.99999998245E-14  0.12500000000E+03  0.12500000000E+03 0.  0.
        -11    1    3    3    0    0  0.30213214049E+02 -0.33966852624E+02 -0.23506799031E+02  0.51177680499E+02  0.51100000000E-03 0. -1.
         23    2    1    0    0    0  0.10349470766E+02 -0.25833499596E+02  0.13584540665E+02  0.94031935941E+02  0.88786170010E+02 0.  0.
         11    1    3    3    0    0 -0.19863743283E+02  0.81333530277E+01  0.37091339697E+02  0.42854255441E+02  0.51100000000E-03 0.  1.
         22    1    1    0    0    0 -0.10349470766E+02  0.25833499596E+02 -0.13584540665E+02  0.30968064059E+02  0.00000000000E+00 0. -1.
</event>
<event>
 5    1  0.8962567E-005  0.9118800E+02  0.7818608E-02  0.1130116E+00
         25   -1    0    0    0    0  0.00000000000E+00  0.00000000000E+00  0.99999998245E-14  0.12500000000E+03  0.12500000000E+03 0.  0.
        -11    1    3    3    0    0 -0.34056804668E+02  0.13126443474E+02  0.38659333371E+02  0.53166846055E+02  0.51100000000E-03 0.  1.
         23    2    1    0    0    0 -0.73826079306E+00 -0.11382551421E+02  0.26295349026E+02  0.96337256128E+02  0.91974529257E+02 0.  0.
         11    1    3    3    0    0  0.33318543875E+02 -0.24508994895E+02 -0.12363984345E+02  0.43170410073E+02  0.51100000000E-03 0. -1.
         22    1    1    0    0    0  0.73826079306E+00  0.11382551421E+02 -0.26295349026E+02  0.28662743872E+02  0.00000000000E+00 0.  1.
</event>
<event>
 5    1  0.8962567E-005  0.9118800E+02  0.7818608E-02  0.1130116E+00
         25   -1    0    0    0    0  0.00000000000E+00  0.00000000000E+00  0.99999998245E-14  0.12500000000E+03  0.12500000000E+03 0.  0.
        -11    1    3    3    0    0  0.24185754904E+01 -0.44817180577E+02 -0.14743942268E+02  0.47242068288E+02  0.51100000000E-03 0.  1.
         23    2    1    0    0    0  0.28389428733E+02 -0.50686190884E+01 -0.45499737094E+01  0.95804917812E+02  0.91248175066E+02 0.  0.
         11    1    3    3    0    0  0.25970853242E+02  0.39748561489E+02  0.10193968559E+02  0.48562849523E+02  0.51100000000E-03 0. -1.
         22    1    1    0    0    0 -0.28389428733E+02  0.50686190884E+01  0.45499737094E+01  0.29195082188E+02  0.00000000000E+00 0.  1.
</event>
<event>
 5    1  0.8962567E-005  0.9118800E+02  0.7818608E-02  0.1130116E+00
         25   -1    0    0    0    0  0.00000000000E+00  0.00000000000E+00  0.99999998245E-14  0.12500000000E+03  0.12500000000E+03 0.  0.
        -11    1    3    3    0    0  0.27966596572E+02 -0.26965974331E+02  0.30473496867E+02  0.49375381589E+02  0.51100000000E-03 0.  1.
         23    2    1    0    0    0  0.29181894901E+02 -0.77654814151E+00 -0.68767439036E+01  0.95008740878E+02  0.90150902489E+02 0.  0.
         11    1    3    3    0    0  0.12152983282E+01  0.26189426189E+02 -0.37350240771E+02  0.45633359289E+02  0.51100000000E-03 0. -1.
         22    1    1    0    0    0 -0.29181894901E+02  0.77654814151E+00  0.68767439036E+01  0.29991259122E+02  0.00000000000E+00 0.  1.
</event>
<event>
 5    1  0.8962567E-005  0.9118800E+02  0.7818608E-02  0.1130116E+00
         25   -1    0    0    0    0  0.00000000000E+00  0.00000000000E+00  0.99999998245E-14  0.12500000000E+03  0.12500000000E+03 0.  0.
        -11    1    3    3    0    0 -0.33915864119E+01  0.43131064899E+02 -0.40274800042E+02  0.59108807605E+02  0.51100000000E-03 0.  1.
         23    2    1    0    0    0 -0.14611775436E+02  0.27332497943E+02 -0.16151936688E+02  0.90050686931E+02  0.82991998005E+02 0.  0.
         11    1    3    3    0    0 -0.11220189024E+02 -0.15798566957E+02  0.24122863354E+02  0.30941879327E+02  0.51100000000E-03 0. -1.
         22    1    1    0    0    0  0.14611775436E+02 -0.27332497943E+02  0.16151936688E+02  0.34949313069E+02  0.00000000000E+00 0.  1.
</event>
<event>
 5    1  0.8962567E-005  0.9118800E+02  0.7818608E-02  0.1130116E+00
         25   -1    0    0    0    0  0.00000000000E+00  0.00000000000E+00  0.99999998245E-14  0.12500000000E+03  0.12500000000E+03 0.  0.
        -11    1    3    3    0    0 -0.10104375466E+01  0.11168998125E+01 -0.36680334823E+02  0.36711243676E+02  0.51100000000E-03 0.  1.
         23    2    1    0    0    0  0.14458778307E+02 -0.22666662689E+02  0.13921296236E+02  0.94723997020E+02  0.89755218538E+02 0.  0.
         11    1    3    3    0    0  0.15469215853E+02 -0.23783562502E+02  0.50601631059E+02  0.58012753344E+02  0.51100000000E-03 0. -1.
         22    1    1    0    0    0 -0.14458778307E+02  0.22666662689E+02 -0.13921296236E+02  0.30276002980E+02  0.00000000000E+00 0. -1.
</event>
<event>
 5    1  0.8962567E-005  0.9118800E+02  0.7818608E-02  0.1130116E+00
         25   -1    0    0    0    0  0.00000000000E+00  0.00000000000E+00  0.99999998245E-14  0.12500000000E+03  0.12500000000E+03 0.  0.
        -11    1    3    3    0    0 -0.19547607582E+02 -0.17679155410E+02 -0.17339231239E+02  0.31548540987E+02  0.51100000000E-03 0.  1.
         23    2    1    0    0    0  0.18963180747E+02 -0.12881343645E+02  0.26408793890E+02  0.90029217440E+02  0.82959655014E+02 0.  0.
         11    1    3    3    0    0  0.38510788329E+02  0.47978117651E+01  0.43748025129E+02  0.58480676453E+02  0.51100000000E-03 0. -1.
         22    1    1    0    0    0 -0.18963180747E+02  0.12881343645E+02 -0.26408793890E+02  0.34970782560E+02  0.00000000000E+00 0. -1.
</event>
<event>
 5    1  0.8962567E-005  0.9118800E+02  0.7818608E-02  0.1130116E+00
         25   -1    0    0    0    0  0.00000000000E+00  0.00000000000E+00  0.99999998245E-14  0.12500000000E+03  0.12500000000E+03 0.  0.
        -11    1    3    3    0    0  0.21576140496E+02 -0.55358558792E+01 -0.55820953542E+02  0.60101201266E+02  0.51100000000E-03 0. -1.
         23    2    1    0    0    0  0.18531328812E+02 -0.11137534475E+02 -0.23409770637E+02  0.93133525721E+02  0.87512178754E+02 0.  0.
         11    1    3    3    0    0 -0.30448116846E+01 -0.56016785962E+01  0.32411182906E+02  0.33032324455E+02  0.51100000000E-03 0.  1.
         22    1    1    0    0    0 -0.18531328812E+02  0.11137534475E+02  0.23409770637E+02  0.31866474279E+02  0.00000000000E+00 0. -1.
</event>
<event>
 5    1  0.8962567E-005  0.9118800E+02  0.7818608E-02  0.1130116E+00
         25   -1    0    0    0    0  0.00000000000E+00  0.00000000000E+00  0.99999998245E-14  0.12500000000E+03  0.12500000000E+03 0.  0.
        -11    1    3    3    0    0 -0.25838109479E+02 -0.17084192151E+02  0.30290996903E+02  0.43324612134E+02  0.51100000000E-03 0.  1.
         23    2    1    0    0    0  0.28450726425E+01 -0.26220004355E+02 -0.12636484942E+02  0.95755106114E+02  0.91179912966E+02 0.  0.
         11    1    3    3    0    0  0.28683182121E+02 -0.91358122039E+01 -0.42927481845E+02  0.52430493980E+02  0.51100000000E-03 0. -1.
         22    1    1    0    0    0 -0.28450726425E+01  0.26220004355E+02  0.12636484942E+02  0.29244893886E+02  0.00000000000E+00 0.  1.
</event>
<event>
 5    1  0.8962567E-005  0.9118800E+02  0.7818608E-02  0.1130116E+00
         25   -1    0    0    0    0  0.00000000000E+00  0.00000000000E+00  0.99999998245E-14  0.12500000000E+03  0.12500000000E+03 0.  0.
        -11    1    3    3    0    0 -0.11917619691E+02 -0.46452476289E+02 -0.60916785570E+01  0.48342225439E+02  0.51100000000E-03 0.  1.
         23    2    1    0    0    0 -0.29335519543E+02 -0.36541837885E+01  0.24667349666E+01  0.95335028276E+02  0.90602191303E+02 0.  0.
         11    1    3    3    0    0 -0.17417899851E+02  0.42798292500E+02  0.85584135236E+01  0.46992802837E+02  0.51100000000E-03 0. -1.
         22    1    1    0    0    0  0.29335519543E+02  0.36541837885E+01 -0.24667349666E+01  0.29664971724E+02  0.00000000000E+00 0.  1.
</event>
<event>
 5    1  0.8962567E-005  0.9118800E+02  0.7818608E-02  0.1130116E+00
         25   -1    0    0    0    0  0.00000000000E+00  0.00000000000E+00  0.99999998245E-14  0.12500000000E+03  0.12500000000E+03 0.  0.
        -11    1    3    3    0    0  0.62150533943E+01 -0.30806714566E+02  0.43786686323E+02  0.53897629358E+02  0.51100000000E-03 0.  1.
         23    2    1    0    0    0 -0.19467167307E+02 -0.65389852144E+01  0.18634331881E+02  0.97269741161E+02  0.93233230612E+02 0.  0.
         11    1    3    3    0    0 -0.25682220701E+02  0.24267729352E+02 -0.25152354442E+02  0.43372111803E+02  0.51100000000E-03 0. -1.
         22    1    1    0    0    0  0.19467167307E+02  0.65389852144E+01 -0.18634331881E+02  0.27730258839E+02  0.00000000000E+00 0.  1.
</event>
<event>
 5    1  0.8962567E-005  0.9118800E+02  0.7818608E-02  0.1130116E+00
         25   -1    0    0    0    0  0.00000000000E+00  0.00000000000E+00  0.99999998245E-14  0.12500000000E+03  0.12500000000E+03 0.  0.
        -11    1    3    3    0    0  0.25276545940E+02  0.34671560243E+02  0.16067965494E+02  0.45817031546E+02  0.51100000000E-03 0.  1.
         23    2    1    0    0    0  0.27271128116E+02 -0.12095074745E+02  0.44759921260E+00  0.95163686440E+02  0.90365489043E+02 0.  0.
         11    1    3    3    0    0  0.19945821756E+01 -0.46766634988E+02 -0.15620366281E+02  0.49346654894E+02  0.51100000000E-03 0. -1.
         22    1    1    0    0    0 -0.27271128116E+02  0.12095074745E+02 -0.44759921260E+00  0.29836313560E+02  0.00000000000E+00 0. -1.
</event>
<event>
 5    1  0.8962567E-005  0.9118800E+02  0.7818608E-02  0.1130116E+00
         25   -1    0    0    0    0  0.00000000000E+00  0.00000000000E+00  0.99999998245E-14  0.12500000000E+03  0.12500000000E+03 0.  0.
        -11    1    3    3    0    0 -0.80864898849E+01 -0.30627789985E+02  0.22298781989E+02  0.38738721152E+02  0.51100000000E-03 0.  1.
         23    2    1    0    0    0 -0.19750758002E+02  0.21658764184E+02  0.36599288937E+01  0.95460372596E+02  0.90774958822E+02 0.  0.
         11    1    3    3    0    0 -0.11664268117E+02  0.52286554170E+02 -0.18638853095E+02  0.56721651445E+02  0.51100000000E-03 0. -1.
         22    1    1    0    0    0  0.19750758002E+02 -0.21658764184E+02 -0.36599288937E+01  0.29539627404E+02  0.00000000000E+00 0. -1.
</event>
<event>
 5    1  0.8962567E-005  0.9118800E+02  0.7818608E-02  0.1130116E+00
         25   -1    0    0    0    0  0.00000000000E+00  0.00000000000E+00  0.99999998245E-14  0.12500000000E+03  0.12500000000E+03 0.  0.
        -11    1    3    3    0    0  0.33604010937E+02  0.22724673158E+02  0.11586597099E+02  0.42188737286E+02  0.51100000000E-03 0.  1.
         23    2    1    0    0    0  0.29644232061E+01  0.25398807491E+01 -0.28327686945E+02  0.96404604447E+02  0.92066014966E+02 0.  0.
         11    1    3    3    0    0 -0.30639587731E+02 -0.20184792409E+02 -0.39914284045E+02  0.54215867161E+02  0.51100000000E-03 0. -1.
         22    1    1    0    0    0 -0.29644232061E+01 -0.25398807491E+01  0.28327686945E+02  0.28595395553E+02  0.00000000000E+00 0.  1.
</event>
<event>
 5    1  0.8962567E-005  0.9118800E+02  0.7818608E-02  0.1130116E+00
         25   -1    0    0    0    0  0.00000000000E+00  0.00000000000E+00  0.99999998245E-14  0.12500000000E+03  0.12500000000E+03 0.  0.
        -11    1    3    3    0    0 -0.27125753225E+02 -0.17058723375E+02 -0.18868707071E+02  0.37186484615E+02  0.51100000000E-03 0.  1.
         23    2    1    0    0    0 -0.29198016782E+02  0.19638147561E+02  0.14606431174E+02  0.86901064906E+02  0.78104201082E+02 0.  0.
         11    1    3    3    0    0 -0.20722635563E+01  0.36696870937E+02  0.33475138244E+02  0.49714580291E+02  0.51100000000E-03 0. -1.
         22    1    1    0    0    0  0.29198016782E+02 -0.19638147561E+02 -0.14606431174E+02  0.38098935094E+02  0.00000000000E+00 0. -1.
</event>
<event>
 5    1  0.8962567E-005  0.9118800E+02  0.7818608E-02  0.1130116E+00
         25   -1    0    0    0    0  0.00000000000E+00  0.00000000000E+00  0.99999998245E-14  0.12500000000E+03  0.12500000000E+03 0.  0.
        -11    1    3    3    0    0  0.53642420285E+02 -0.27941095779E+01  0.41876183927E+01  0.53878125899E+02  0.51100000000E-03 0.  1.
         23    2    1    0    0    0  0.16805979191E+02 -0.12646602991E+02  0.20753087044E+02  0.95452273765E+02  0.90763805789E+02 0.  0.
         11    1    3    3    0    0 -0.36836441094E+02 -0.98524934130E+01  0.16565468651E+02  0.41574147866E+02  0.51100000000E-03 0. -1.
         22    1    1    0    0    0 -0.16805979191E+02  0.12646602991E+02 -0.20753087044E+02  0.29547726235E+02  0.00000000000E+00 0.  1.
</event>
<event>
 5    1  0.8962567E-005  0.9118800E+02  0.7818608E-02  0.1130116E+00
         25   -1    0    0    0    0  0.00000000000E+00  0.00000000000E+00  0.99999998245E-14  0.12500000000E+03  0.12500000000E+03 0.  0.
        -11    1    3    3    0    0  0.38191580882E+02 -0.25925245556E+02  0.19126879018E+01  0.46199281192E+02  0.51100000000E-03 0.  1.
         23    2    1    0    0    0  0.78748391038E+01 -0.43342259208E+01 -0.29035770726E+02  0.94604694657E+02  0.89588914851E+02 0.  0.
         11    1    3    3    0    0 -0.30316741778E+02  0.21591019635E+02 -0.30948458628E+02  0.48405413464E+02  0.51100000000E-03 0. -1.
         22    1    1    0    0    0 -0.78748391038E+01  0.43342259208E+01  0.29035770726E+02  0.30395305343E+02  0.00000000000E+00 0. -1.
</event>
<event>
 5    1  0.8962567E-005  0.9118800E+02  0.7818608E-02  0.1130116E+00
         25   -1    0    0    0    0  0.00000000000E+00  0.00000000000E+00  0.99999998245E-14  0.12500000000E+03  0.12500000000E+03 0.  0.
        -11    1    3    3    0    0  0.54616690300E+02  0.10206812378E+02  0.17347067731E+02  0.58207238703E+02  0.51100000000E-03 0.  1.
         23    2    1    0    0    0  0.29332994894E+02 -0.41192622066E+00 -0.69572422825E+01  0.94850414716E+02  0.89931105180E+02 0.  0.
         11    1    3    3    0    0 -0.25283695407E+02 -0.10618738598E+02 -0.24304310013E+02  0.36643176013E+02  0.51100000000E-03 0. -1.
         22    1    1    0    0    0 -0.29332994894E+02  0.41192622066E+00  0.69572422825E+01  0.30149585284E+02  0.00000000000E+00 0.  1.
</event>
<event>
 5    1  0.8962567E-005  0.9118800E+02  0.7818608E-02  0.1130116E+00
         25   -1    0    0    0    0  0.00000000000E+00  0.00000000000E+00  0.99999998245E-14  0.12500000000E+03  0.12500000000E+03 0.  0.
        -11    1    3    3    0    0 -0.16884251872E+02  0.46816122606E+02  0.35241433862E+02  0.60981849415E+02  0.51100000000E-03 0. -1.
         23    2    1    0    0    0 -0.15322985272E+02  0.22884299040E+02  0.10264267604E+02  0.95608841301E+02  0.90979175229E+02 0.  0.
         11    1    3    3    0    0  0.15612665999E+01 -0.23931823566E+02 -0.24977166258E+02  0.34626991887E+02  0.51100000000E-03 0.  1.
         22    1    1    0    0    0  0.15322985272E+02 -0.22884299040E+02 -0.10264267604E+02  0.29391158699E+02  0.00000000000E+00 0. -1.
</event>
<event>
 5    1  0.8962567E-005  0.9118800E+02  0.7818608E-02  0.1130116E+00
         25   -1    0    0    0    0  0.00000000000E+00  0.00000000000E+00  0.99999998245E-14  0.12500000000E+03  0.12500000000E+03 0.  0.
        -11    1    3    3    0    0 -0.28881729494E+02 -0.39728259182E+02  0.24297452152E+02  0.54798312543E+02  0.51100000000E-03 0.  1.
         23    2    1    0    0    0  0.71105361165E+01 -0.25475420601E+02  0.14933129464E+02  0.94626407288E+02  0.89619204538E+02 0.  0.
         11    1    3    3    0    0  0.35992265610E+02  0.14252838581E+02 -0.93643226886E+01  0.39828094746E+02  0.51100000000E-03 0. -1.
         22    1    1    0    0    0 -0.71105361165E+01  0.25475420601E+02 -0.14933129464E+02  0.30373592712E+02  0.00000000000E+00 0.  1.
</event>
<event>
 5    1  0.8962567E-005  0.9118800E+02  0.7818608E-02  0.1130116E+00
         25   -1    0    0    0    0  0.00000000000E+00  0.00000000000E+00  0.99999998245E-14  0.12500000000E+03  0.12500000000E+03 0.  0.
        -11    1    3    3    0    0 -0.10728203010E+02 -0.58627737864E+02 -0.93791883232E+01  0.60334692845E+02  0.51100000000E-03 0.  1.
         23    2    1    0    0    0  0.36544890891E+01 -0.29897366866E+02  0.29226666323E+01  0.94738641533E+02  0.89775611294E+02 0.  0.
         11    1    3    3    0    0  0.14382692099E+02  0.28730370998E+02  0.12301854956E+02  0.34403948688E+02  0.51100000000E-03 0. -1.
         22    1    1    0    0    0 -0.36544890891E+01  0.29897366866E+02 -0.29226666323E+01  0.30261358467E+02  0.00000000000E+00 0.  1.
</event>
<event>
 5    1  0.8962567E-005  0.9118800E+02  0.7818608E-02  0.1130116E+00
         25   -1    0    0    0    0  0.00000000000E+00  0.00000000000E+00  0.99999998245E-14  0.12500000000E+03  0.12500000000E+03 0.  0.
        -11    1    3    3    0    0 -0.48853953972E+02 -0.30209043661E+02 -0.22713557020E+02  0.61767311828E+02  0.51100000000E-03 0.  1.
         23    2    1    0    0    0 -0.25529288675E+02 -0.19398085975E+02 -0.61411414582E+01  0.92354266157E+02  0.86391935615E+02 0.  0.
         11    1    3    3    0    0  0.23324665297E+02  0.10810957687E+02  0.16572415562E+02  0.30586954330E+02  0.51100000000E-03 0. -1.
         22    1    1    0    0    0  0.25529288675E+02  0.19398085975E+02  0.61411414582E+01  0.32645733843E+02  0.00000000000E+00 0.  1.
</event>
<event>
 5    1  0.8962567E-005  0.9118800E+02  0.7818608E-02  0.1130116E+00
         25   -1    0    0    0    0  0.00000000000E+00  0.00000000000E+00  0.99999998245E-14  0.12500000000E+03  0.12500000000E+03 0.  0.
        -11    1    3    3    0    0  0.33649265182E+02 -0.23195822811E+01 -0.35829301626E+02  0.49207645387E+02  0.51100000000E-03 0.  1.
         23    2    1    0    0    0  0.31617487759E+02  0.93881139383E+01  0.49191686130E+01  0.91653329471E+02  0.85371730495E+02 0.  0.
         11    1    3    3    0    0 -0.20317774228E+01  0.11707696219E+02  0.40748470239E+02  0.42445684084E+02  0.51100000000E-03 0. -1.
         22    1    1    0    0    0 -0.31617487759E+02 -0.93881139383E+01 -0.49191686130E+01  0.33346670529E+02  0.00000000000E+00 0. -1.
</event>
<event>
 5    1  0.8962567E-005  0.9118800E+02  0.7818608E-02  0.1130116E+00
         25   -1    0    0    0    0  0.00000000000E+00  0.00000000000E+00  0.99999998245E-14  0.12500000000E+03  0.12500000000E+03 0.  0.
        -11    1    3    3    0    0  0.22732343625E+01 -0.24175956860E+01 -0.33525641333E+02  0.33689478928E+02  0.51100000000E-03 0.  1.
         23    2    1    0    0    0  0.10456805557E+02  0.18347610975E+02  0.22587076229E+02  0.94078233823E+02  0.88851327821E+02 0.  0.
         11    1    3    3    0    0  0.81835711943E+01  0.20765206661E+02  0.56112717563E+02  0.60388754894E+02  0.51100000000E-03 0. -1.
         22    1    1    0    0    0 -0.10456805557E+02 -0.18347610975E+02 -0.22587076229E+02  0.30921766177E+02  0.00000000000E+00 0. -1.
</event>
<event>
 5    1  0.8962567E-005  0.9118800E+02  0.7818608E-02  0.1130116E+00
         25   -1    0    0    0    0  0.00000000000E+00  0.00000000000E+00  0.99999998245E-14  0.12500000000E+03  0.12500000000E+03 0.  0.
        -11    1    3    3    0    0  0.33131114966E+02  0.64406130435E+00 -0.13213468717E+02  0.35674659769E+02  0.51100000000E-03 0.  1.
         23    2    1    0    0    0 -0.29786712889E+01 -0.17059443801E+01  0.31566192996E+02  0.93247720253E+02  0.87675139368E+02 0.  0.
         11    1    3    3    0    0 -0.36109786255E+02 -0.23500056844E+01  0.44779661713E+02  0.57573060484E+02  0.51100000000E-03 0. -1.
         22    1    1    0    0    0  0.29786712889E+01  0.17059443801E+01 -0.31566192996E+02  0.31752279747E+02  0.00000000000E+00 0. -1.
</event>
<event>
 5    1  0.8962567E-005  0.9118800E+02  0.7818608E-02  0.1130116E+00
         25   -1    0    0    0    0  0.00000000000E+00  0.00000000000E+00  0.99999998245E-14  0.12500000000E+03  0.12500000000E+03 0.  0.
        -11    1    3    3    0    0 -0.46621965019E+02  0.52812850684E+00 -0.38378990330E+02  0.60389017553E+02  0.51100000000E-03 0. -1.
         23    2    1    0    0    0 -0.18974839514E+02  0.11479389698E+02 -0.17976419214E+02  0.96452275569E+02  0.92130716334E+02 0.  0.
         11    1    3    3    0    0  0.27647125505E+02  0.10951261191E+02  0.20402571116E+02  0.36063258016E+02  0.51100000000E-03 0.  1.
         22    1    1    0    0    0  0.18974839514E+02 -0.11479389698E+02  0.17976419214E+02  0.28547724431E+02  0.00000000000E+00 0. -1.
</event>
<event>
 5    1  0.8962567E-005  0.9118800E+02  0.7818608E-02  0.1130116E+00
         25   -1    0    0    0    0  0.00000000000E+00  0.00000000000E+00  0.99999998245E-14  0.12500000000E+03  0.12500000000E+03 0.  0.
        -11    1    3    3    0    0  0.25463030063E+02 -0.46011843706E+02  0.25287639231E+00  0.52588207879E+02  0.51100000000E-03 0.  1.
         23    2    1    0    0    0  0.28832041267E+02 -0.28428160679E+01  0.23010517137E+01  0.95936912659E+02  0.91428814740E+02 0.  0.
         11    1    3    3    0    0  0.33690112043E+01  0.43169027638E+02  0.20481753214E+01  0.43348704780E+02  0.51100000000E-03 0. -1.
         22    1    1    0    0    0 -0.28832041267E+02  0.28428160679E+01 -0.23010517137E+01  0.29063087341E+02  0.00000000000E+00 0.  1.
</event>
<event>
 5    1  0.8962567E-005  0.9118800E+02  0.7818608E-02  0.1130116E+00
         25   -1    0    0    0    0  0.00000000000E+00  0.00000000000E+00  0.99999998245E-14  0.12500000000E+03  0.12500000000E+03 0.  0.
        -11    1    3    3    0    0  0.71667526475E+01  0.36367583178E+02  0.17123347254E+02  0.40831023391E+02  0.51100000000E-03 0.  1.
         23    2    1    0    0    0  0.22255276106E+02  0.49814126849E+01 -0.22072017944E+02  0.93262234436E+02  0.87695830054E+02 0.  0.
         11    1    3    3    0    0  0.15088523459E+02 -0.31386170493E+02 -0.39195365198E+02  0.52431211045E+02  0.51100000000E-03 0. -1.
         22    1    1    0    0    0 -0.22255276106E+02 -0.49814126849E+01  0.22072017944E+02  0.31737765564E+02  0.00000000000E+00 0. -1.
</event>
<event>
 5    1  0.8962567E-005  0.9118800E+02  0.7818608E-02  0.1130116E+00
         25   -1    0    0    0    0  0.00000000000E+00  0.00000000000E+00  0.99999998245E-14  0.12500000000E+03  0.12500000000E+03 0.  0.
        -11    1    3    3    0    0  0.47544094873E+02 -0.15398081706E+02  0.24087712895E+00  0.49975993232E+02  0.51100000000E-03 0.  1.
         23    2    1    0    0    0  0.56147650511E+01 -0.26791891298E+02 -0.11991340677E+02  0.95114831820E+02  0.90297884555E+02 0.  0.
         11    1    3    3    0    0 -0.41929329822E+02 -0.11393809592E+02 -0.12232217806E+02  0.45138838588E+02  0.51100000000E-03 0. -1.
         22    1    1    0    0    0 -0.56147650511E+01  0.26791891298E+02  0.11991340677E+02  0.29885168180E+02  0.00000000000E+00 0.  1.
</event>
<event>
 5    1  0.8962567E-005  0.9118800E+02  0.7818608E-02  0.1130116E+00
         25   -1    0    0    0    0  0.00000000000E+00  0.00000000000E+00  0.99999998245E-14  0.12500000000E+03  0.12500000000E+03 0.  0.
        -11    1    3    3    0    0  0.31621356635E+02  0.46560891479E+02  0.25938161578E+02  0.61972695900E+02  0.51100000000E-03 0.  1.
         23    2    1    0    0    0  0.11622546433E+02  0.20685260473E+02  0.16796652222E+02  0.95929549155E+02  0.91418746922E+02 0.  0.
         11    1    3    3    0    0 -0.19998810202E+02 -0.25875631006E+02 -0.91415093568E+01  0.33956853255E+02  0.51100000000E-03 0. -1.
         22    1    1    0    0    0 -0.11622546433E+02 -0.20685260473E+02 -0.16796652222E+02  0.29070450845E+02  0.00000000000E+00 0.  1.
</event>
<event>
 5    1  0.8962567E-005  0.9118800E+02  0.7818608E-02  0.1130116E+00
         25   -1    0    0    0    0  0.00000000000E+00  0.00000000000E+00  0.99999998245E-14  0.12500000000E+03  0.12500000000E+03 0.  0.
        -11    1    3    3    0    0  0.27933639992E+02  0.43591750962E+02  0.33777136361E+02  0.61817666861E+02  0.51100000000E-03 0.  1.
         23    2    1    0    0    0  0.13969966671E+02  0.23120301347E+02  0.98991631125E+01  0.96230194066E+02  0.91828908937E+02 0.  0.
         11    1    3    3    0    0 -0.13963673321E+02 -0.20471449615E+02 -0.23877973248E+02  0.34412527206E+02  0.51100000000E-03 0. -1.
         22    1    1    0    0    0 -0.13969966671E+02 -0.23120301347E+02 -0.98991631125E+01  0.28769805934E+02  0.00000000000E+00 0.  1.
</event>
<event>
 5    1  0.8962567E-005  0.9118800E+02  0.7818608E-02  0.1130116E+00
         25   -1    0    0    0    0  0.00000000000E+00  0.00000000000E+00  0.99999998245E-14  0.12500000000E+03  0.12500000000E+03 0.  0.
        -11    1    3    3    0    0 -0.20507734660E+02 -0.21388596519E+02 -0.19521399770E+02  0.35484141404E+02  0.51100000000E-03 0. -1.
         23    2    1    0    0    0 -0.30027644610E+00  0.30075707357E+02  0.20971540302E+01  0.94849769587E+02  0.89930208477E+02 0.  0.
         11    1    3    3    0    0  0.20207458213E+02  0.51464303876E+02  0.21618553800E+02  0.59365628183E+02  0.51100000000E-03 0.  1.
         22    1    1    0    0    0  0.30027644610E+00 -0.30075707357E+02 -0.20971540302E+01  0.30150230413E+02  0.00000000000E+00 0.  1.
</event>
<event>
 5    1  0.8962567E-005  0.9118800E+02  0.7818608E-02  0.1130116E+00
         25   -1    0    0    0    0  0.00000000000E+00  0.00000000000E+00  0.99999998245E-14  0.12500000000E+03  0.12500000000E+03 0.  0.
        -11    1    3    3    0    0 -0.31978797314E+02 -0.41596607882E+02 -0.72277815798E+01  0.52963780943E+02  0.51100000000E-03 0. -1.
         23    2    1    0    0    0  0.89456945618E+01 -0.24862507510E+02 -0.86412351276E+01  0.97199987852E+02  0.93139663748E+02 0.  0.
         11    1    3    3    0    0  0.40924491875E+02  0.16734100372E+02 -0.14134535478E+01  0.44236206909E+02  0.51100000000E-03 0.  1.
         22    1    1    0    0    0 -0.89456945618E+01  0.24862507510E+02  0.86412351276E+01  0.27800012148E+02  0.00000000000E+00 0. -1.
</event>
<event>
 5    1  0.8962567E-005  0.9118800E+02  0.7818608E-02  0.1130116E+00
         25   -1    0    0    0    0  0.00000000000E+00  0.00000000000E+00  0.99999998245E-14  0.12500000000E+03  0.12500000000E+03 0.  0.
        -11    1    3    3    0    0 -0.11591894402E+02 -0.29760400000E+02  0.92811510198E+01  0.33259482685E+02  0.51100000000E-03 0.  1.
         23    2    1    0    0    0  0.82785954619E+01  0.25282550664E+02 -0.12376790465E+02  0.95658434719E+02  0.91047288151E+02 0.  0.
         11    1    3    3    0    0  0.19870489864E+02  0.55042950664E+02 -0.21657941485E+02  0.62398952034E+02  0.51100000000E-03 0. -1.
         22    1    1    0    0    0 -0.82785954619E+01 -0.25282550664E+02  0.12376790465E+02  0.29341565281E+02  0.00000000000E+00 0. -1.
</event>
<event>
 5    1  0.8962567E-005  0.9118800E+02  0.7818608E-02  0.1130116E+00
         25   -1    0    0    0    0  0.00000000000E+00  0.00000000000E+00  0.99999998245E-14  0.12500000000E+03  0.12500000000E+03 0.  0.
        -11    1    3    3    0    0  0.30669074693E+02 -0.36819885974E+02  0.42900410136E+01  0.48111335440E+02  0.51100000000E-03 0.  1.
         23    2    1    0    0    0 -0.73966247756E+01 -0.20815574825E+02 -0.19298296952E+02  0.95667041087E+02  0.91059103179E+02 0.  0.
         11    1    3    3    0    0 -0.38065699468E+02  0.16004311149E+02 -0.23588337965E+02  0.47555705647E+02  0.51100000000E-03 0. -1.
         22    1    1    0    0    0  0.73966247756E+01  0.20815574825E+02  0.19298296952E+02  0.29332958913E+02  0.00000000000E+00 0. -1.
</event>
<event>
 5    1  0.8962567E-005  0.9118800E+02  0.7818608E-02  0.1130116E+00
         25   -1    0    0    0    0  0.00000000000E+00  0.00000000000E+00  0.99999998245E-14  0.12500000000E+03  0.12500000000E+03 0.  0.
        -11    1    3    3    0    0 -0.82065056275E+01 -0.17259521067E+02  0.51059365913E+02  0.54518773370E+02  0.51100000000E-03 0.  1.
         23    2    1    0    0    0 -0.52382630344E+01  0.14650152958E+02  0.23662864154E+02  0.96680439246E+02  0.92439763152E+02 0.  0.
         11    1    3    3    0    0  0.29682425931E+01  0.31909674026E+02 -0.27396501759E+02  0.42161665876E+02  0.51100000000E-03 0. -1.
         22    1    1    0    0    0  0.52382630344E+01 -0.14650152958E+02 -0.23662864154E+02  0.28319560754E+02  0.00000000000E+00 0.  1.
</event>
<event>
 5    1  0.8962567E-005  0.9118800E+02  0.7818608E-02  0.1130116E+00
         25   -1    0    0    0    0  0.00000000000E+00  0.00000000000E+00  0.99999998245E-14  0.12500000000E+03  0.12500000000E+03 0.  0.
        -11    1    3    3    0    0  0.29337900713E+02  0.32906719206E+02  0.18070452626E+02  0.47645627769E+02  0.51100000000E-03 0.  1.
         23    2    1    0    0    0  0.11712132370E+02  0.10112181159E+02 -0.22674049647E+02  0.97549266315E+02  0.93607246401E+02 0.  0.
         11    1    3    3    0    0 -0.17625768343E+02 -0.22794538047E+02 -0.40744502272E+02  0.49903638546E+02  0.51100000000E-03 0. -1.
         22    1    1    0    0    0 -0.11712132370E+02 -0.10112181159E+02  0.22674049647E+02  0.27450733685E+02  0.00000000000E+00 0. -1.
</event>
<event>
 5    1  0.8962567E-005  0.9118800E+02  0.7818608E-02  0.1130116E+00
         25   -1    0    0    0    0  0.00000000000E+00  0.00000000000E+00  0.99999998245E-14  0.12500000000E+03  0.12500000000E+03 0.  0.
        -11    1    3    3    0    0  0.40651405057E+02  0.92461349501E+01 -0.16652693093E+02  0.44892537600E+02  0.51100000000E-03 0. -1.
         23    2    1    0    0    0 -0.67355155951E+01 -0.10709974342E+02 -0.24997738264E+02  0.96982904522E+02  0.92847865514E+02 0.  0.
         11    1    3    3    0    0 -0.47386920652E+02 -0.19956109292E+02 -0.83450451702E+01  0.52090366922E+02  0.51100000000E-03 0.  1.
         22    1    1    0    0    0  0.67355155951E+01  0.10709974342E+02  0.24997738264E+02  0.28017095478E+02  0.00000000000E+00 0. -1.
</event>
<event>
 5    1  0.8962567E-005  0.9118800E+02  0.7818608E-02  0.1130116E+00
         25   -1    0    0    0    0  0.00000000000E+00  0.00000000000E+00  0.99999998245E-14  0.12500000000E+03  0.12500000000E+03 0.  0.
        -11    1    3    3    0    0  0.11414100489E+02 -0.15984268354E+01 -0.16234116012E+02  0.19909374206E+02  0.51100000000E-03 0. -1.
         23    2    1    0    0    0 -0.12786879637E+02  0.14796889921E+02  0.38419643646E+02  0.81889429834E+02  0.69622966458E+02 0.  0.
         11    1    3    3    0    0 -0.24200980126E+02  0.16395316756E+02  0.54653759658E+02  0.61980055628E+02  0.51100000000E-03 0.  1.
         22    1    1    0    0    0  0.12786879637E+02 -0.14796889921E+02 -0.38419643646E+02  0.43110570166E+02  0.00000000000E+00 0.  1.
</event>
<event>
 5    1  0.8962567E-005  0.9118800E+02  0.7818608E-02  0.1130116E+00
         25   -1    0    0    0    0  0.00000000000E+00  0.00000000000E+00  0.99999998245E-14  0.12500000000E+03  0.12500000000E+03 0.  0.
        -11    1    3    3    0    0 -0.24480878281E+02 -0.28217711972E+02  0.13076405394E+02  0.39579603948E+02  0.51100000000E-03 0.  1.
         23    2    1    0    0    0  0.26261438514E+02 -0.11924923176E+02 -0.47364865206E+01  0.95771567779E+02  0.91202477733E+02 0.  0.
         11    1    3    3    0    0  0.50742316795E+02  0.16292788797E+02 -0.17812891914E+02  0.56191963831E+02  0.51100000000E-03 0. -1.
         22    1    1    0    0    0 -0.26261438514E+02  0.11924923176E+02  0.47364865206E+01  0.29228432221E+02  0.00000000000E+00 0. -1.
</event>
<event>
 5    1  0.8962567E-005  0.9118800E+02  0.7818608E-02  0.1130116E+00
         25   -1    0    0    0    0  0.00000000000E+00  0.00000000000E+00  0.99999998245E-14  0.12500000000E+03  0.12500000000E+03 0.  0.
        -11    1    3    3    0    0  0.20704941530E+02 -0.27306756267E+02  0.69846736456E+01  0.34973407151E+02  0.51100000000E-03 0.  1.
         23    2    1    0    0    0 -0.26866678247E+02  0.87027769753E+01 -0.62230935163E+01  0.96081431225E+02  0.91626185156E+02 0.  0.
         11    1    3    3    0    0 -0.47571619777E+02  0.36009533242E+02 -0.13207767162E+02  0.61108024073E+02  0.51100000000E-03 0. -1.
         22    1    1    0    0    0  0.26866678247E+02 -0.87027769753E+01  0.62230935163E+01  0.28918568775E+02  0.00000000000E+00 0. -1.
</event>
<event>
 5    1  0.8962567E-005  0.9118800E+02  0.7818608E-02  0.1130116E+00
         25   -1    0    0    0    0  0.00000000000E+00  0.00000000000E+00  0.99999998245E-14  0.12500000000E+03  0.12500000000E+03 0.  0.
        -11    1    3    3    0    0  0.62949672498E+01 -0.12583872377E+02  0.35228303156E+02  0.37934335373E+02  0.51100000000E-03 0.  1.
         23    2    1    0    0    0 -0.57724942808E+00 -0.20564970874E+02 -0.21271441156E+02  0.95407341235E+02  0.90701903556E+02 0.  0.
         11    1    3    3    0    0 -0.68722166779E+01 -0.79810984970E+01 -0.56499744312E+02  0.57473005862E+02  0.51100000000E-03 0. -1.
         22    1    1    0    0    0  0.57724942808E+00  0.20564970874E+02  0.21271441156E+02  0.29592658765E+02  0.00000000000E+00 0. -1.
</event>
<event>
 5    1  0.8962567E-005  0.9118800E+02  0.7818608E-02  0.1130116E+00
         25   -1    0    0    0    0  0.00000000000E+00  0.00000000000E+00  0.99999998245E-14  0.12500000000E+03  0.12500000000E+03 0.  0.
        -11    1    3    3    0    0  0.13680972167E+02 -0.16900996194E+02  0.48663936149E+02  0.53300950775E+02  0.51100000000E-03 0. -1.
         23    2    1    0    0    0  0.12561548164E+02  0.15175641308E+02  0.12429336936E+02  0.10170663189E+03  0.99003323034E+02 0.  0.
         11    1    3    3    0    0 -0.11194240035E+01  0.32076637502E+02 -0.36234599213E+02  0.48405681112E+02  0.51100000000E-03 0.  1.
         22    1    1    0    0    0 -0.12561548164E+02 -0.15175641308E+02 -0.12429336936E+02  0.23293368113E+02  0.00000000000E+00 0. -1.
</event>
<event>
 5    1  0.8962567E-005  0.9118800E+02  0.7818608E-02  0.1130116E+00
         25   -1    0    0    0    0  0.00000000000E+00  0.00000000000E+00  0.99999998245E-14  0.12500000000E+03  0.12500000000E+03 0.  0.
        -11    1    3    3    0    0 -0.13628049699E+02 -0.20881920934E+02  0.29730589823E+02  0.38803174252E+02  0.51100000000E-03 0.  1.
         23    2    1    0    0    0  0.30158202307E+02 -0.71684435006E+00  0.12220950734E+01  0.94808535170E+02  0.89872875733E+02 0.  0.
         11    1    3    3    0    0  0.43786252006E+02  0.20165076584E+02 -0.28508494750E+02  0.56005360918E+02  0.51100000000E-03 0. -1.
         22    1    1    0    0    0 -0.30158202307E+02  0.71684435006E+00 -0.12220950734E+01  0.30191464830E+02  0.00000000000E+00 0.  1.
</event>
<event>
 5    1  0.8962567E-005  0.9118800E+02  0.7818608E-02  0.1130116E+00
         25   -1    0    0    0    0  0.00000000000E+00  0.00000000000E+00  0.99999998245E-14  0.12500000000E+03  0.12500000000E+03 0.  0.
        -11    1    3    3    0    0  0.49343363693E+01  0.38587264196E+02  0.18105141430E+02  0.42908283349E+02  0.51100000000E-03 0.  1.
         23    2    1    0    0    0  0.28751174972E+02  0.58875491301E+01 -0.11957777515E+02  0.93309595457E+02  0.87763311607E+02 0.  0.
         11    1    3    3    0    0  0.23816838602E+02 -0.32699715066E+02 -0.30062918945E+02  0.50401312107E+02  0.51100000000E-03 0. -1.
         22    1    1    0    0    0 -0.28751174972E+02 -0.58875491301E+01  0.11957777515E+02  0.31690404543E+02  0.00000000000E+00 0. -1.
</event>
<event>
 5    1  0.8962567E-005  0.9118800E+02  0.7818608E-02  0.1130116E+00
         25   -1    0    0    0    0  0.00000000000E+00  0.00000000000E+00  0.99999998245E-14  0.12500000000E+03  0.12500000000E+03 0.  0.
        -11    1    3    3    0    0  0.11591106359E+01 -0.55079885566E+02 -0.28268876481E+02  0.61921455968E+02  0.51100000000E-03 0.  1.
         23    2    1    0    0    0  0.63079059350E+01 -0.24778428876E+02 -0.11117847411E+02  0.97118702579E+02  0.93030509214E+02 0.  0.
         11    1    3    3    0    0  0.51487952991E+01  0.30301456690E+02  0.17151029070E+02  0.35197246611E+02  0.51100000000E-03 0. -1.
         22    1    1    0    0    0 -0.63079059350E+01  0.24778428876E+02  0.11117847411E+02  0.27881297421E+02  0.00000000000E+00 0.  1.
</event>
<event>
 5    1  0.8962567E-005  0.9118800E+02  0.7818608E-02  0.1130116E+00
         25   -1    0    0    0    0  0.00000000000E+00  0.00000000000E+00  0.99999998245E-14  0.12500000000E+03  0.12500000000E+03 0.  0.
        -11    1    3    3    0    0  0.75232941510E+01  0.43603591093E+02  0.14740211314E+02  0.46638470611E+02  0.51100000000E-03 0.  1.
         23    2    1    0    0    0  0.28544090480E+02  0.73818116988E-01  0.71906526468E+01  0.95564034992E+02  0.90917593172E+02 0.  0.
         11    1    3    3    0    0  0.21020796329E+02 -0.43529772976E+02 -0.75495586669E+01  0.48925564381E+02  0.51100000000E-03 0. -1.
         22    1    1    0    0    0 -0.28544090480E+02 -0.73818116988E-01 -0.71906526468E+01  0.29435965008E+02  0.00000000000E+00 0. -1.
</event>
<event>
 5    1  0.8962567E-005  0.9118800E+02  0.7818608E-02  0.1130116E+00
         25   -1    0    0    0    0  0.00000000000E+00  0.00000000000E+00  0.99999998245E-14  0.12500000000E+03  0.12500000000E+03 0.  0.
        -11    1    3    3    0    0 -0.32161283533E+02  0.24084332303E+02 -0.24941363164E+02  0.47291382065E+02  0.51100000000E-03 0.  1.
         23    2    1    0    0    0 -0.17828386267E+02  0.11317881465E+02  0.19847330805E+02  0.96019621503E+02  0.91541823096E+02 0.  0.
         11    1    3    3    0    0  0.14332897266E+02 -0.12766450838E+02  0.44788693969E+02  0.48728239438E+02  0.51100000000E-03 0. -1.
         22    1    1    0    0    0  0.17828386267E+02 -0.11317881465E+02 -0.19847330805E+02  0.28980378497E+02  0.00000000000E+00 0. -1.
</event>
<event>
 5    1  0.8962567E-005  0.9118800E+02  0.7818608E-02  0.1130116E+00
         25   -1    0    0    0    0  0.00000000000E+00  0.00000000000E+00  0.99999998245E-14  0.12500000000E+03  0.12500000000E+03 0.  0.
        -11    1    3    3    0    0  0.92071399839E+01 -0.49682043892E+00 -0.32853633862E+02  0.34123005662E+02  0.51100000000E-03 0.  1.
         23    2    1    0    0    0 -0.11944298122E+02  0.28119202532E+01  0.25728855367E+02  0.96494787290E+02  0.92188376830E+02 0.  0.
         11    1    3    3    0    0 -0.21151438106E+02  0.33087406921E+01  0.58582489229E+02  0.62371781628E+02  0.51100000000E-03 0. -1.
         22    1    1    0    0    0  0.11944298122E+02 -0.28119202532E+01 -0.25728855367E+02  0.28505212710E+02  0.00000000000E+00 0. -1.
</event>
<event>
 5    1  0.8962567E-005  0.9118800E+02  0.7818608E-02  0.1130116E+00
         25   -1    0    0    0    0  0.00000000000E+00  0.00000000000E+00  0.99999998245E-14  0.12500000000E+03  0.12500000000E+03 0.  0.
        -11    1    3    3    0    0  0.10689088806E+02  0.24173879907E+02 -0.23978481171E+02  0.35687541927E+02  0.51100000000E-03 0.  1.
         23    2    1    0    0    0  0.47470909412E+01 -0.74823356619E+00  0.29565973638E+02  0.95046009898E+02  0.90202563569E+02 0.  0.
         11    1    3    3    0    0 -0.59419978649E+01 -0.24922113473E+02  0.53544454810E+02  0.59358467970E+02  0.51100000000E-03 0. -1.
         22    1    1    0    0    0 -0.47470909412E+01  0.74823356619E+00 -0.29565973638E+02  0.29953990102E+02  0.00000000000E+00 0. -1.
</event>
<event>
 5    1  0.8962567E-005  0.9118800E+02  0.7818608E-02  0.1130116E+00
         25   -1    0    0    0    0  0.00000000000E+00  0.00000000000E+00  0.99999998245E-14  0.12500000000E+03  0.12500000000E+03 0.  0.
        -11    1    3    3    0    0  0.35242742664E+01 -0.15137355999E+02  0.30142527264E+02  0.33913596180E+02  0.51100000000E-03 0. -1.
         23    2    1    0    0    0  0.22389538728E+00 -0.33854313824E+01 -0.29760030137E+02  0.95047192643E+02  0.90204202567E+02 0.  0.
         11    1    3    3    0    0 -0.33003788791E+01  0.11751924617E+02 -0.59902557402E+02  0.61133596463E+02  0.51100000000E-03 0.  1.
         22    1    1    0    0    0 -0.22389538728E+00  0.33854313824E+01  0.29760030137E+02  0.29952807357E+02  0.00000000000E+00 0.  1.
</event>
<event>
 5    1  0.8962567E-005  0.9118800E+02  0.7818608E-02  0.1130116E+00
         25   -1    0    0    0    0  0.00000000000E+00  0.00000000000E+00  0.99999998245E-14  0.12500000000E+03  0.12500000000E+03 0.  0.
        -11    1    3    3    0    0  0.42467554038E+00 -0.87873122335E+01  0.20665469513E+02  0.22460161087E+02  0.51100000000E-03 0.  1.
         23    2    1    0    0    0  0.11410751305E+02  0.44379661633E+02  0.53734389390E+01  0.78862884160E+02  0.63958744829E+02 0.  0.
         11    1    3    3    0    0  0.10986075764E+02  0.53166973866E+02 -0.15292030574E+02  0.56402723074E+02  0.51100000000E-03 0. -1.
         22    1    1    0    0    0 -0.11410751305E+02 -0.44379661633E+02 -0.53734389390E+01  0.46137115840E+02  0.00000000000E+00 0. -1.
</event>
<event>
 5    1  0.8962567E-005  0.9118800E+02  0.7818608E-02  0.1130116E+00
         25   -1    0    0    0    0  0.00000000000E+00  0.00000000000E+00  0.99999998245E-14  0.12500000000E+03  0.12500000000E+03 0.  0.
        -11    1    3    3    0    0  0.41407875432E+02  0.35318316179E+02  0.23708620261E+02  0.59364082411E+02  0.51100000000E-03 0. -1.
         23    2    1    0    0    0  0.76767395879E+01  0.22625482287E+02  0.16073361541E+02  0.96204206372E+02  0.91793526967E+02 0.  0.
         11    1    3    3    0    0 -0.33731135844E+02 -0.12692833892E+02 -0.76352587201E+01  0.36840123962E+02  0.51100000000E-03 0.  1.
         22    1    1    0    0    0 -0.76767395879E+01 -0.22625482287E+02 -0.16073361541E+02  0.28795793628E+02  0.00000000000E+00 0. -1.
</event>
<event>
 5    1  0.8962567E-005  0.9118800E+02  0.7818608E-02  0.1130116E+00
         25   -1    0    0    0    0  0.00000000000E+00  0.00000000000E+00  0.99999998245E-14  0.12500000000E+03  0.12500000000E+03 0.  0.
        -11    1    3    3    0    0 -0.19169155620E+02  0.43632694656E+02 -0.13312946227E+02  0.49482351476E+02  0.51100000000E-03 0. -1.
         23    2    1    0    0    0 -0.18995676439E+02  0.11088525270E+02  0.19432888053E+02  0.95649901975E+02  0.91035572683E+02 0.  0.
         11    1    3    3    0    0  0.17347918163E+00 -0.32544169386E+02  0.32745834280E+02  0.46167550498E+02  0.51100000000E-03 0.  1.
         22    1    1    0    0    0  0.18995676439E+02 -0.11088525270E+02 -0.19432888053E+02  0.29350098025E+02  0.00000000000E+00 0. -1.
</event>
<event>
 5    1  0.8962567E-005  0.9118800E+02  0.7818608E-02  0.1130116E+00
         25   -1    0    0    0    0  0.00000000000E+00  0.00000000000E+00  0.99999998245E-14  0.12500000000E+03  0.12500000000E+03 0.  0.
        -11    1    3    3    0    0 -0.28255269027E+02 -0.29453541626E+02 -0.60689677030E+01  0.41263830546E+02  0.51100000000E-03 0.  1.
         23    2    1    0    0    0 -0.10038441268E+02  0.14646065810E+02  0.22083017939E+02  0.96663852978E+02  0.92417331948E+02 0.  0.
         11    1    3    3    0    0  0.18216827760E+02  0.44099607435E+02  0.28151985642E+02  0.55400022432E+02  0.51100000000E-03 0. -1.
         22    1    1    0    0    0  0.10038441268E+02 -0.14646065810E+02 -0.22083017939E+02  0.28336147022E+02  0.00000000000E+00 0. -1.
</event>
<event>
 5    1  0.8962567E-005  0.9118800E+02  0.7818608E-02  0.1130116E+00
         25   -1    0    0    0    0  0.00000000000E+00  0.00000000000E+00  0.99999998245E-14  0.12500000000E+03  0.12500000000E+03 0.  0.
        -11    1    3    3    0    0  0.51245577410E+02 -0.27373794739E+01 -0.11883174239E+02  0.52676486981E+02  0.51100000000E-03 0.  1.
         23    2    1    0    0    0  0.18722780844E+02 -0.67661172429E+01  0.18835227776E+02  0.97594003020E+02  0.93666967257E+02 0.  0.
         11    1    3    3    0    0 -0.32522796566E+02 -0.40287377690E+01  0.30718402015E+02  0.44917516039E+02  0.51100000000E-03 0. -1.
         22    1    1    0    0    0 -0.18722780844E+02  0.67661172429E+01 -0.18835227776E+02  0.27405996980E+02  0.00000000000E+00 0.  1.
</event>
<event>
 5    1  0.8962567E-005  0.9118800E+02  0.7818608E-02  0.1130116E+00
         25   -1    0    0    0    0  0.00000000000E+00  0.00000000000E+00  0.99999998245E-14  0.12500000000E+03  0.12500000000E+03 0.  0.
        -11    1    3    3    0    0 -0.14893491866E+02  0.56804121166E+00 -0.59394969092E+02  0.61236436249E+02  0.51100000000E-03 0. -1.
         23    2    1    0    0    0 -0.35058913761E+01 -0.48390413772E+01 -0.41183217369E+02  0.83385519483E+02  0.72259116178E+02 0.  0.
         11    1    3    3    0    0  0.11387600489E+02 -0.54070825888E+01  0.18211751723E+02  0.22149083234E+02  0.51100000000E-03 0.  1.
         22    1    1    0    0    0  0.35058913761E+01  0.48390413772E+01  0.41183217369E+02  0.41614480517E+02  0.00000000000E+00 0. -1.
</event>
<event>
 5    1  0.8962567E-005  0.9118800E+02  0.7818608E-02  0.1130116E+00
         25   -1    0    0    0    0  0.00000000000E+00  0.00000000000E+00  0.99999998245E-14  0.12500000000E+03  0.12500000000E+03 0.  0.
        -11    1    3    3    0    0 -0.52193069613E+02  0.23877951093E+02 -0.72256920947E+01  0.57848800251E+02  0.51100000000E-03 0. -1.
         23    2    1    0    0    0 -0.23594891947E+02  0.31328290720E+01 -0.18412391949E+02  0.94907646797E+02  0.90010619925E+02 0.  0.
         11    1    3    3    0    0  0.28598177666E+02 -0.20745122021E+02 -0.11186699854E+02  0.37058846546E+02  0.51100000000E-03 0.  1.
         22    1    1    0    0    0  0.23594891947E+02 -0.31328290720E+01  0.18412391949E+02  0.30092353203E+02  0.00000000000E+00 0. -1.
</event>
<event>
 5    1  0.8962567E-005  0.9118800E+02  0.7818608E-02  0.1130116E+00
         25   -1    0    0    0    0  0.00000000000E+00  0.00000000000E+00  0.99999998245E-14  0.12500000000E+03  0.12500000000E+03 0.  0.
        -11    1    3    3    0    0  0.10674276751E+02  0.32274518897E+02 -0.47572991988E+01  0.34325160599E+02  0.51100000000E-03 0. -1.
         23    2    1    0    0    0 -0.10144111564E+02 -0.21006174687E+02  0.17636790615E+02  0.95755876529E+02  0.91180969134E+02 0.  0.
         11    1    3    3    0    0 -0.20818388315E+02 -0.53280693584E+02  0.22394089813E+02  0.61430715930E+02  0.51100000000E-03 0.  1.
         22    1    1    0    0    0  0.10144111564E+02  0.21006174687E+02 -0.17636790615E+02  0.29244123471E+02  0.00000000000E+00 0.  1.
</event>
<event>
 5    1  0.8962567E-005  0.9118800E+02  0.7818608E-02  0.1130116E+00
         25   -1    0    0    0    0  0.00000000000E+00  0.00000000000E+00  0.99999998245E-14  0.12500000000E+03  0.12500000000E+03 0.  0.
        -11    1    3    3    0    0 -0.96349677638E+01  0.45116609040E+02  0.10844043363E+02  0.47391289198E+02  0.51100000000E-03 0.  1.
         23    2    1    0    0    0  0.12745579986E+02  0.43867215796E+00  0.22893868880E+02  0.98793674910E+02  0.95254494526E+02 0.  0.
         11    1    3    3    0    0  0.22380547749E+02 -0.44677936883E+02  0.12049825517E+02  0.51402385712E+02  0.51100000000E-03 0. -1.
         22    1    1    0    0    0 -0.12745579986E+02 -0.43867215796E+00 -0.22893868880E+02  0.26206325090E+02  0.00000000000E+00 0. -1.
</event>
<event>
 5    1  0.8962567E-005  0.9118800E+02  0.7818608E-02  0.1130116E+00
         25   -1    0    0    0    0  0.00000000000E+00  0.00000000000E+00  0.99999998245E-14  0.12500000000E+03  0.12500000000E+03 0.  0.
        -11    1    3    3    0    0 -0.43517896329E+02  0.23698493361E+01  0.82363641303E+01  0.44353818112E+02  0.51100000000E-03 0. -1.
         23    2    1    0    0    0  0.22558694714E+01  0.24517580968E+02  0.15773230753E+02  0.95759693367E+02  0.91186201488E+02 0.  0.
         11    1    3    3    0    0  0.45773765801E+02  0.22147731632E+02  0.75368666225E+01  0.51405875255E+02  0.51100000000E-03 0.  1.
         22    1    1    0    0    0 -0.22558694714E+01 -0.24517580968E+02 -0.15773230753E+02  0.29240306633E+02  0.00000000000E+00 0.  1.
</event>
<event>
 5    1  0.8962567E-005  0.9118800E+02  0.7818608E-02  0.1130116E+00
         25   -1    0    0    0    0  0.00000000000E+00  0.00000000000E+00  0.99999998245E-14  0.12500000000E+03  0.12500000000E+03 0.  0.
        -11    1    3    3    0    0 -0.17739330016E+02 -0.12015674853E+02 -0.25189794680E+02  0.33069412269E+02  0.51100000000E-03 0.  1.
         23    2    1    0    0    0  0.94757459652E+01  0.24257711206E+01  0.28443294638E+02  0.94921849509E+02  0.90030341425E+02 0.  0.
         11    1    3    3    0    0  0.27215075981E+02  0.14441445973E+02  0.53633089317E+02  0.61852437239E+02  0.51100000000E-03 0. -1.
         22    1    1    0    0    0 -0.94757459652E+01 -0.24257711206E+01 -0.28443294638E+02  0.30078150491E+02  0.00000000000E+00 0. -1.
</event>
<event>
 5    1  0.8962567E-005  0.9118800E+02  0.7818608E-02  0.1130116E+00
         25   -1    0    0    0    0  0.00000000000E+00  0.00000000000E+00  0.99999998245E-14  0.12500000000E+03  0.12500000000E+03 0.  0.
        -11    1    3    3    0    0  0.41508427516E+02  0.37546747544E+02 -0.20476297734E+02  0.59598545076E+02  0.51100000000E-03 0. -1.
         23    2    1    0    0    0  0.28086357007E+02  0.73747401495E+01 -0.82443625182E+01  0.94813914538E+02  0.89880357334E+02 0.  0.
         11    1    3    3    0    0 -0.13422070509E+02 -0.30172007394E+02  0.12231935216E+02  0.35215369462E+02  0.51100000000E-03 0.  1.
         22    1    1    0    0    0 -0.28086357007E+02 -0.73747401495E+01  0.82443625182E+01  0.30186085462E+02  0.00000000000E+00 0. -1.
</event>
<event>
 5    1  0.8962567E-005  0.9118800E+02  0.7818608E-02  0.1130116E+00
         25   -1    0    0    0    0  0.00000000000E+00  0.00000000000E+00  0.99999998245E-14  0.12500000000E+03  0.12500000000E+03 0.  0.
        -11    1    3    3    0    0 -0.35132919108E+02 -0.25483606038E+02 -0.39283200911E+01  0.43579443328E+02  0.51100000000E-03 0.  1.
         23    2    1    0    0    0 -0.77937175672E+01  0.23698242857E+01  0.29145650219E+02  0.94737365823E+02  0.89773835029E+02 0.  0.
         11    1    3    3    0    0  0.27339201541E+02  0.27853430324E+02  0.33073970310E+02  0.51157922495E+02  0.51100000000E-03 0. -1.
         22    1    1    0    0    0  0.77937175672E+01 -0.23698242857E+01 -0.29145650219E+02  0.30262634177E+02  0.00000000000E+00 0.  1.
</event>
<event>
 5    1  0.8962567E-005  0.9118800E+02  0.7818608E-02  0.1130116E+00
         25   -1    0    0    0    0  0.00000000000E+00  0.00000000000E+00  0.99999998245E-14  0.12500000000E+03  0.12500000000E+03 0.  0.
        -11    1    3    3    0    0 -0.96908414749E+01  0.37305932647E+02  0.43839212828E+02  0.58373980511E+02  0.51100000000E-03 0. -1.
         23    2    1    0    0    0 -0.80560180902E+01  0.38309810386E+01  0.28321305774E+02  0.95307034437E+02  0.90563561156E+02 0.  0.
         11    1    3    3    0    0  0.16348233847E+01 -0.33474951608E+02 -0.15517907054E+02  0.36933053925E+02  0.51100000000E-03 0.  1.
         22    1    1    0    0    0  0.80560180902E+01 -0.38309810386E+01 -0.28321305774E+02  0.29692965563E+02  0.00000000000E+00 0. -1.
</event>
<event>
 5    1  0.8962567E-005  0.9118800E+02  0.7818608E-02  0.1130116E+00
         25   -1    0    0    0    0  0.00000000000E+00  0.00000000000E+00  0.99999998245E-14  0.12500000000E+03  0.12500000000E+03 0.  0.
        -11    1    3    3    0    0  0.24837463638E+02 -0.68034921674E+01  0.42150445857E+02  0.49394809362E+02  0.51100000000E-03 0.  1.
         23    2    1    0    0    0 -0.38920030262E+01 -0.19424681599E+02  0.39406378830E+02  0.80894120173E+02  0.67812462301E+02 0.  0.
         11    1    3    3    0    0 -0.28729466664E+02 -0.12621189432E+02 -0.27440670270E+01  0.31499310812E+02  0.51100000000E-03 0. -1.
         22    1    1    0    0    0  0.38920030262E+01  0.19424681599E+02 -0.39406378830E+02  0.44105879827E+02  0.00000000000E+00 0.  1.
</event>
<event>
 5    1  0.8962567E-005  0.9118800E+02  0.7818608E-02  0.1130116E+00
         25   -1    0    0    0    0  0.00000000000E+00  0.00000000000E+00  0.99999998245E-14  0.12500000000E+03  0.12500000000E+03 0.  0.
        -11    1    3    3    0    0 -0.39335830115E+02  0.13353419241E+02  0.34858613257E+02  0.54228629474E+02  0.51100000000E-03 0. -1.
         23    2    1    0    0    0 -0.11063131719E+00  0.19301297659E+01  0.29503971667E+02  0.95432754874E+02  0.90736920371E+02 0.  0.
         11    1    3    3    0    0  0.39225198797E+02 -0.11423289475E+02 -0.53546415893E+01  0.41204125399E+02  0.51100000000E-03 0.  1.
         22    1    1    0    0    0  0.11063131719E+00 -0.19301297659E+01 -0.29503971667E+02  0.29567245126E+02  0.00000000000E+00 0.  1.
</event>
<event>
 5    1  0.8962567E-005  0.9118800E+02  0.7818608E-02  0.1130116E+00
         25   -1    0    0    0    0  0.00000000000E+00  0.00000000000E+00  0.99999998245E-14  0.12500000000E+03  0.12500000000E+03 0.  0.
        -11    1    3    3    0    0  0.45156364712E+02  0.17354992807E+02  0.74648232796E+00  0.48382334435E+02  0.51100000000E-03 0.  1.
         23    2    1    0    0    0  0.58370084174E+01  0.80975868409E+01  0.26767139759E+02  0.96432162302E+02  0.92103423256E+02 0.  0.
         11    1    3    3    0    0 -0.39319356294E+02 -0.92574059657E+01  0.26020657431E+02  0.48049827866E+02  0.51100000000E-03 0. -1.
         22    1    1    0    0    0 -0.58370084174E+01 -0.80975868409E+01 -0.26767139759E+02  0.28567837698E+02  0.00000000000E+00 0. -1.
</event>
<event>
 5    1  0.8962567E-005  0.9118800E+02  0.7818608E-02  0.1130116E+00
         25   -1    0    0    0    0  0.00000000000E+00  0.00000000000E+00  0.99999998245E-14  0.12500000000E+03  0.12500000000E+03 0.  0.
        -11    1    3    3    0    0 -0.98085724885E+01  0.11935141211E+02  0.42053975976E+02  0.44801702933E+02  0.51100000000E-03 0.  1.
         23    2    1    0    0    0  0.19668466808E+02  0.22179723888E+02  0.24053836249E+01  0.95258200984E+02  0.90496133873E+02 0.  0.
         11    1    3    3    0    0  0.29477039296E+02  0.10244582677E+02 -0.39648592352E+02  0.50456498052E+02  0.51100000000E-03 0. -1.
         22    1    1    0    0    0 -0.19668466808E+02 -0.22179723888E+02 -0.24053836249E+01  0.29741799016E+02  0.00000000000E+00 0. -1.
</event>
<event>
 5    1  0.8962567E-005  0.9118800E+02  0.7818608E-02  0.1130116E+00
         25   -1    0    0    0    0  0.00000000000E+00  0.00000000000E+00  0.99999998245E-14  0.12500000000E+03  0.12500000000E+03 0.  0.
        -11    1    3    3    0    0 -0.11565198924E+02  0.20155006329E+02 -0.24135109511E+02  0.33503456802E+02  0.51100000000E-03 0. -1.
         23    2    1    0    0    0 -0.11184272905E+02 -0.18676426727E+02  0.22164745196E+02  0.93932769590E+02  0.88646446052E+02 0.  0.
         11    1    3    3    0    0  0.38092601900E+00 -0.38831433056E+02  0.46299854708E+02  0.60429312788E+02  0.51100000000E-03 0.  1.
         22    1    1    0    0    0  0.11184272905E+02  0.18676426727E+02 -0.22164745196E+02  0.31067230410E+02  0.00000000000E+00 0.  1.
</event>
<event>
 5    1  0.8962567E-005  0.9118800E+02  0.7818608E-02  0.1130116E+00
         25   -1    0    0    0    0  0.00000000000E+00  0.00000000000E+00  0.99999998245E-14  0.12500000000E+03  0.12500000000E+03 0.  0.
        -11    1    3    3    0    0 -0.27622469276E+01  0.54931943455E+02 -0.17337633256E+02  0.57669246111E+02  0.51100000000E-03 0.  1.
         23    2    1    0    0    0  0.14964411945E+01  0.13271270776E+02 -0.21432684414E+02  0.99746764060E+02  0.96497103661E+02 0.  0.
         11    1    3    3    0    0  0.42586881221E+01 -0.41660672679E+02 -0.40950511575E+01  0.42077517950E+02  0.51100000000E-03 0. -1.
         22    1    1    0    0    0 -0.14964411945E+01 -0.13271270776E+02  0.21432684414E+02  0.25253235940E+02  0.00000000000E+00 0.  1.
</event>
<event>
 4    1  0.8962567E-005  0.9118800E+02  0.7818608E-02  0.1130116E+00
         25   -1    0    0    0    0  0.00000000000E+00  0.00000000000E+00  0.99999998245E-14  0.12500000000E+03  0.12500000000E+03 0.  0.
        -11    1    1    0    0    0  0.13557915770E+02 -0.44665809551E+01 -0.18997822205E+02  0.23763094795E+02  0.51100000000E-03 0.  1.
         11    1    1    0    0    0 -0.36222738061E+02 -0.22664643201E+02 -0.21204878816E+02  0.47701359414E+02  0.51100000000E-03 0. -1.
         22    1    1    0    0    0  0.22664822291E+02  0.27131224156E+02  0.40202701021E+02  0.53535545791E+02  0.00000000000E+00 0. -1.
</event>
<event>
 5    1  0.8962567E-005  0.9118800E+02  0.7818608E-02  0.1130116E+00
         25   -1    0    0    0    0  0.00000000000E+00  0.00000000000E+00  0.99999998245E-14  0.12500000000E+03  0.12500000000E+03 0.  0.
        -11    1    3    3    0    0 -0.58115152959E+02  0.17535383977E+02 -0.10506460476E+02  0.61605571231E+02  0.51100000000E-03 0.  1.
         23    2    1    0    0    0 -0.26973762538E+02  0.78336837398E+00 -0.22270798556E+01  0.97923120265E+02  0.94105154303E+02 0.  0.
         11    1    3    3    0    0  0.31141390421E+02 -0.16752015603E+02  0.82793806208E+01  0.36317549034E+02  0.51100000000E-03 0. -1.
         22    1    1    0    0    0  0.26973762538E+02 -0.78336837398E+00  0.22270798556E+01  0.27076879735E+02  0.00000000000E+00 0.  1.
</event>
<event>
 5    1  0.8962567E-005  0.9118800E+02  0.7818608E-02  0.1130116E+00
         25   -1    0    0    0    0  0.00000000000E+00  0.00000000000E+00  0.99999998245E-14  0.12500000000E+03  0.12500000000E+03 0.  0.
        -11    1    3    3    0    0  0.12357120810E+02  0.35995663130E+02 -0.10361989499E+02  0.39443085903E+02  0.51100000000E-03 0.  1.
         23    2    1    0    0    0  0.20919122862E+02 -0.18985415204E+02 -0.98279404470E+01  0.95089398113E+02  0.90262669627E+02 0.  0.
         11    1    3    3    0    0  0.85620020527E+01 -0.54981078334E+02  0.53404905173E+00  0.55646312210E+02  0.51100000000E-03 0. -1.
         22    1    1    0    0    0 -0.20919122862E+02  0.18985415204E+02  0.98279404470E+01  0.29910601887E+02  0.00000000000E+00 0. -1.
</event>
<event>
 5    1  0.8962567E-005  0.9118800E+02  0.7818608E-02  0.1130116E+00
         25   -1    0    0    0    0  0.00000000000E+00  0.00000000000E+00  0.99999998245E-14  0.12500000000E+03  0.12500000000E+03 0.  0.
        -11    1    3    3    0    0 -0.18139309821E+02 -0.27291249574E+02  0.36952962549E+02  0.49389961586E+02  0.51100000000E-03 0. -1.
         23    2    1    0    0    0 -0.28434984441E+02 -0.86658439750E+01 -0.34691764458E+01  0.95072080307E+02  0.90238683926E+02 0.  0.
         11    1    3    3    0    0 -0.10295674620E+02  0.18625405599E+02 -0.40422138995E+02  0.45682118720E+02  0.51100000000E-03 0.  1.
         22    1    1    0    0    0  0.28434984441E+02  0.86658439750E+01  0.34691764458E+01  0.29927919693E+02  0.00000000000E+00 0. -1.
</event>
<event>
 5    1  0.8962567E-005  0.9118800E+02  0.7818608E-02  0.1130116E+00
         25   -1    0    0    0    0  0.00000000000E+00  0.00000000000E+00  0.99999998245E-14  0.12500000000E+03  0.12500000000E+03 0.  0.
        -11    1    3    3    0    0  0.23875413623E+02  0.82245310823E+01  0.51731421256E+02  0.57565773100E+02  0.51100000000E-03 0. -1.
         23    2    1    0    0    0  0.20165297059E+02 -0.10423479612E+02  0.19095058995E+02  0.95336732973E+02  0.90604543171E+02 0.  0.
         11    1    3    3    0    0 -0.37101165638E+01 -0.18648010694E+02 -0.32636362262E+02  0.37770959873E+02  0.51100000000E-03 0.  1.
         22    1    1    0    0    0 -0.20165297059E+02  0.10423479612E+02 -0.19095058995E+02  0.29663267027E+02  0.00000000000E+00 0. -1.
</event>
<event>
 5    1  0.8962567E-005  0.9118800E+02  0.7818608E-02  0.1130116E+00
         25   -1    0    0    0    0  0.00000000000E+00  0.00000000000E+00  0.99999998245E-14  0.12500000000E+03  0.12500000000E+03 0.  0.
        -11    1    3    3    0    0 -0.30550647505E+02 -0.18589115562E+02  0.88480857599E+01  0.36840004102E+02  0.51100000000E-03 0. -1.
         23    2    1    0    0    0  0.16850599123E+02  0.15032952279E+02  0.18571404395E+02  0.95762534203E+02  0.91190095683E+02 0.  0.
         11    1    3    3    0    0  0.47401246629E+02  0.33622067842E+02  0.97233186348E+01  0.58922530100E+02  0.51100000000E-03 0.  1.
         22    1    1    0    0    0 -0.16850599123E+02 -0.15032952279E+02 -0.18571404395E+02  0.29237465797E+02  0.00000000000E+00 0.  1.
</event>
<event>
 5    1  0.8962567E-005  0.9118800E+02  0.7818608E-02  0.1130116E+00
         25   -1    0    0    0    0  0.00000000000E+00  0.00000000000E+00  0.99999998245E-14  0.12500000000E+03  0.12500000000E+03 0.  0.
        -11    1    3    3    0    0  0.24035166597E+02 -0.39514579509E+02 -0.78062889372E+01  0.46904470729E+02  0.51100000000E-03 0.  1.
         23    2    1    0    0    0  0.23537216475E+02  0.31753123065E+01  0.16545974955E+02  0.96054318892E+02  0.91589189990E+02 0.  0.
         11    1    3    3    0    0 -0.49795012277E+00  0.42689891815E+02  0.24352263892E+02  0.49149848163E+02  0.51100000000E-03 0. -1.
         22    1    1    0    0    0 -0.23537216475E+02 -0.31753123065E+01 -0.16545974955E+02  0.28945681108E+02  0.00000000000E+00 0.  1.
</event>
<event>
 5    1  0.8962567E-005  0.9118800E+02  0.7818608E-02  0.1130116E+00
         25   -1    0    0    0    0  0.00000000000E+00  0.00000000000E+00  0.99999998245E-14  0.12500000000E+03  0.12500000000E+03 0.  0.
        -11    1    3    3    0    0 -0.41261086482E+01  0.38833599153E+01 -0.50997301095E+02  0.51311109675E+02  0.51100000000E-03 0.  1.
         23    2    1    0    0    0 -0.27278905986E+02 -0.41564824703E+01 -0.19543412032E+02  0.91186393092E+02  0.84685289590E+02 0.  0.
         11    1    3    3    0    0 -0.23152797338E+02 -0.80398423856E+01  0.31453889063E+02  0.39875283417E+02  0.51100000000E-03 0. -1.
         22    1    1    0    0    0  0.27278905986E+02  0.41564824703E+01  0.19543412032E+02  0.33813606908E+02  0.00000000000E+00 0.  1.
</event>
<event>
 5    1  0.8962567E-005  0.9118800E+02  0.7818608E-02  0.1130116E+00
         25   -1    0    0    0    0  0.00000000000E+00  0.00000000000E+00  0.99999998245E-14  0.12500000000E+03  0.12500000000E+03 0.  0.
        -11    1    3    3    0    0 -0.33007892747E+02 -0.38953441171E+02  0.91334313607E+01  0.51868209255E+02  0.51100000000E-03 0. -1.
         23    2    1    0    0    0 -0.60651853562E+01 -0.86868317254E+01  0.26881602655E+02  0.96105916174E+02  0.91659582388E+02 0.  0.
         11    1    3    3    0    0  0.26942707391E+02  0.30266609446E+02  0.17748171294E+02  0.44237706919E+02  0.51100000000E-03 0.  1.
         22    1    1    0    0    0  0.60651853562E+01  0.86868317254E+01 -0.26881602655E+02  0.28894083826E+02  0.00000000000E+00 0.  1.
</event>
<event>
 5    1  0.8962567E-005  0.9118800E+02  0.7818608E-02  0.1130116E+00
         25   -1    0    0    0    0  0.00000000000E+00  0.00000000000E+00  0.99999998245E-14  0.12500000000E+03  0.12500000000E+03 0.  0.
        -11    1    3    3    0    0 -0.16594412944E+02  0.11402393288E+02  0.30405906600E+02  0.36467907399E+02  0.51100000000E-03 0. -1.
         23    2    1    0    0    0  0.16242942075E+02 -0.12086835281E+02 -0.16876290569E+02  0.98642193988E+02  0.95055502193E+02 0.  0.
         11    1    3    3    0    0  0.32837355018E+02 -0.23489228569E+02 -0.47282197170E+02  0.62174286589E+02  0.51100000000E-03 0.  1.
         22    1    1    0    0    0 -0.16242942075E+02  0.12086835281E+02  0.16876290569E+02  0.26357806012E+02  0.00000000000E+00 0.  1.
</event>
<event>
 5    1  0.8962567E-005  0.9118800E+02  0.7818608E-02  0.1130116E+00
         25   -1    0    0    0    0  0.00000000000E+00  0.00000000000E+00  0.99999998245E-14  0.12500000000E+03  0.12500000000E+03 0.  0.
        -11    1    3    3    0    0  0.61120843641E+02  0.11182721033E+02 -0.93793273363E+00  0.62142501520E+02  0.51100000000E-03 0. -1.
         23    2    1    0    0    0  0.34159861209E+02  0.31242298824E+01  0.30456913216E+01  0.90562619644E+02  0.83759506392E+02 0.  0.
         11    1    3    3    0    0 -0.26960982432E+02 -0.80584911505E+01  0.39836240552E+01  0.28420118124E+02  0.51100000000E-03 0.  1.
         22    1    1    0    0    0 -0.34159861209E+02 -0.31242298824E+01 -0.30456913216E+01  0.34437380356E+02  0.00000000000E+00 0. -1.
</event>
<event>
 5    1  0.8962567E-005  0.9118800E+02  0.7818608E-02  0.1130116E+00
         25   -1    0    0    0    0  0.00000000000E+00  0.00000000000E+00  0.99999998245E-14  0.12500000000E+03  0.12500000000E+03 0.  0.
        -11    1    3    3    0    0 -0.32581830186E+02  0.33102250509E+02 -0.40633460625E+02  0.61712338876E+02  0.51100000000E-03 0. -1.
         23    2    1    0    0    0 -0.12265491858E+02  0.92657026821E+01 -0.22018389580E+02  0.98146601399E+02  0.94401537857E+02 0.  0.
         11    1    3    3    0    0  0.20316338327E+02 -0.23836547827E+02  0.18615071045E+02  0.36434262523E+02  0.51100000000E-03 0.  1.
         22    1    1    0    0    0  0.12265491858E+02 -0.92657026821E+01  0.22018389580E+02  0.26853398601E+02  0.00000000000E+00 0. -1.
</event>
<event>
 5    1  0.8962567E-005  0.9118800E+02  0.7818608E-02  0.1130116E+00
         25   -1    0    0    0    0  0.00000000000E+00  0.00000000000E+00  0.99999998245E-14  0.12500000000E+03  0.12500000000E+03 0.  0.
        -11    1    3    3    0    0  0.73248508119E+01 -0.34039683509E+02  0.97362869351E+01  0.36154512531E+02  0.51100000000E-03 0.  1.
         23    2    1    0    0    0  0.73508949510E+01  0.20444361289E+02 -0.17533268857E+02  0.97081850314E+02  0.92980979660E+02 0.  0.
         11    1    3    3    0    0  0.26044139065E-01  0.54484044798E+02 -0.27269555792E+02  0.60927337782E+02  0.51100000000E-03 0. -1.
         22    1    1    0    0    0 -0.73508949510E+01 -0.20444361289E+02  0.17533268857E+02  0.27918149686E+02  0.00000000000E+00 0. -1.
</event>
<event>
 5    1  0.8962567E-005  0.9118800E+02  0.7818608E-02  0.1130116E+00
         25   -1    0    0    0    0  0.00000000000E+00  0.00000000000E+00  0.99999998245E-14  0.12500000000E+03  0.12500000000E+03 0.  0.
        -11    1    3    3    0    0  0.53948506453E+02 -0.15276708515E+02  0.51274769810E+01  0.56303731599E+02  0.51100000000E-03 0. -1.
         23    2    1    0    0    0  0.28066461462E+02  0.11081288308E+02 -0.45323550479E+01  0.94486667638E+02  0.89424084616E+02 0.  0.
         11    1    3    3    0    0 -0.25882044991E+02  0.26357996823E+02 -0.96598320290E+01  0.38182936038E+02  0.51100000000E-03 0.  1.
         22    1    1    0    0    0 -0.28066461462E+02 -0.11081288308E+02  0.45323550479E+01  0.30513332362E+02  0.00000000000E+00 0. -1.
</event>
<event>
 5    1  0.8962567E-005  0.9118800E+02  0.7818608E-02  0.1130116E+00
         25   -1    0    0    0    0  0.00000000000E+00  0.00000000000E+00  0.99999998245E-14  0.12500000000E+03  0.12500000000E+03 0.  0.
        -11    1    3    3    0    0 -0.45843544926E+02  0.12969684685E+02  0.14150033312E+02  0.49699766350E+02  0.51100000000E-03 0. -1.
         23    2    1    0    0    0 -0.91223641589E+01 -0.63901193252E+01  0.29115408513E+02  0.93826964124E+02  0.88497124423E+02 0.  0.
         11    1    3    3    0    0  0.36721180767E+02 -0.19359804010E+02  0.14965375201E+02  0.44127197775E+02  0.51100000000E-03 0.  1.
         22    1    1    0    0    0  0.91223641589E+01  0.63901193252E+01 -0.29115408513E+02  0.31173035876E+02  0.00000000000E+00 0. -1.
</event>
<event>
 5    1  0.8962567E-005  0.9118800E+02  0.7818608E-02  0.1130116E+00
         25   -1    0    0    0    0  0.00000000000E+00  0.00000000000E+00  0.99999998245E-14  0.12500000000E+03  0.12500000000E+03 0.  0.
        -11    1    3    3    0    0  0.19679862059E+02 -0.29757146399E+02  0.34351063494E+01  0.35841103336E+02  0.51100000000E-03 0. -1.
         23    2    1    0    0    0 -0.22255353501E+02 -0.68451423851E+01 -0.24505652745E+02  0.91196394420E+02  0.84700050797E+02 0.  0.
         11    1    3    3    0    0 -0.41935215560E+02  0.22912004013E+02 -0.27940759095E+02  0.55355291084E+02  0.51100000000E-03 0.  1.
         22    1    1    0    0    0  0.22255353501E+02  0.68451423851E+01  0.24505652745E+02  0.33803605580E+02  0.00000000000E+00 0.  1.
</event>
<event>
 5    1  0.8962567E-005  0.9118800E+02  0.7818608E-02  0.1130116E+00
         25   -1    0    0    0    0  0.00000000000E+00  0.00000000000E+00  0.99999998245E-14  0.12500000000E+03  0.12500000000E+03 0.  0.
        -11    1    3    3    0    0  0.10935928655E+02 -0.25103148922E+02 -0.23130563065E+02  0.35843905609E+02  0.51100000000E-03 0.  1.
         23    2    1    0    0    0 -0.10660384039E+02  0.24827921111E+02  0.56596898221E+01  0.97393813312E+02  0.93399428949E+02 0.  0.
         11    1    3    3    0    0 -0.21596312694E+02  0.49931070033E+02  0.28790252888E+02  0.61549907703E+02  0.51100000000E-03 0. -1.
         22    1    1    0    0    0  0.10660384039E+02 -0.24827921111E+02 -0.56596898221E+01  0.27606186688E+02  0.00000000000E+00 0. -1.
</event>
<event>
 5    1  0.8962567E-005  0.9118800E+02  0.7818608E-02  0.1130116E+00
         25   -1    0    0    0    0  0.00000000000E+00  0.00000000000E+00  0.99999998245E-14  0.12500000000E+03  0.12500000000E+03 0.  0.
        -11    1    3    3    0    0 -0.50318198962E+02 -0.15861943407E+02 -0.14466855180E+02  0.54706601928E+02  0.51100000000E-03 0.  1.
         23    2    1    0    0    0 -0.22041000123E+02  0.13880854701E+02 -0.13277965287E+02  0.95763239307E+02  0.91191062209E+02 0.  0.
         11    1    3    3    0    0  0.28277198839E+02  0.29742798108E+02  0.11888898927E+01  0.41056637380E+02  0.51100000000E-03 0. -1.
         22    1    1    0    0    0  0.22041000123E+02 -0.13880854701E+02  0.13277965287E+02  0.29236760693E+02  0.00000000000E+00 0. -1.
</event>
<event>
 5    1  0.8962567E-005  0.9118800E+02  0.7818608E-02  0.1130116E+00
         25   -1    0    0    0    0  0.00000000000E+00  0.00000000000E+00  0.99999998245E-14  0.12500000000E+03  0.12500000000E+03 0.  0.
        -11    1    3    3    0    0 -0.18956362914E+02 -0.10414300503E+02  0.25453640110E+02  0.33401933253E+02  0.51100000000E-03 0. -1.
         23    2    1    0    0    0  0.14061831436E+02  0.59526734642E+01 -0.24894196336E+02  0.95795712029E+02  0.91235563281E+02 0.  0.
         11    1    3    3    0    0  0.33018194350E+02  0.16366973967E+02 -0.50347836446E+02  0.62393778776E+02  0.51100000000E-03 0.  1.
         22    1    1    0    0    0 -0.14061831436E+02 -0.59526734642E+01  0.24894196336E+02  0.29204287971E+02  0.00000000000E+00 0.  1.
</event>
<event>
 5    1  0.8962567E-005  0.9118800E+02  0.7818608E-02  0.1130116E+00
         25   -1    0    0    0    0  0.00000000000E+00  0.00000000000E+00  0.99999998245E-14  0.12500000000E+03  0.12500000000E+03 0.  0.
        -11    1    3    3    0    0 -0.27179365850E+02 -0.21564155638E+02 -0.19980608148E+01  0.34752309041E+02  0.51100000000E-03 0.  1.
         23    2    1    0    0    0  0.13972737602E+02  0.19438601184E+02  0.16735847415E+02  0.95790665862E+02  0.91228649368E+02 0.  0.
         11    1    3    3    0    0  0.41152103453E+02  0.41002756822E+02  0.18733908230E+02  0.61038356821E+02  0.51100000000E-03 0. -1.
         22    1    1    0    0    0 -0.13972737602E+02 -0.19438601184E+02 -0.16735847415E+02  0.29209334138E+02  0.00000000000E+00 0. -1.
</event>
<event>
 5    1  0.8962567E-005  0.9118800E+02  0.7818608E-02  0.1130116E+00
         25   -1    0    0    0    0  0.00000000000E+00  0.00000000000E+00  0.99999998245E-14  0.12500000000E+03  0.12500000000E+03 0.  0.
        -11    1    3    3    0    0 -0.11939894524E+02 -0.14404755887E+02 -0.59025145312E+02  0.61919511083E+02  0.51100000000E-03 0. -1.
         23    2    1    0    0    0 -0.99460340299E+01 -0.25995171469E+01 -0.27354609798E+02  0.95777478556E+02  0.91210578548E+02 0.  0.
         11    1    3    3    0    0  0.19938604939E+01  0.11805238740E+02  0.31670535514E+02  0.33857967473E+02  0.51100000000E-03 0.  1.
         22    1    1    0    0    0  0.99460340299E+01  0.25995171469E+01  0.27354609798E+02  0.29222521444E+02  0.00000000000E+00 0. -1.
</event>
<event>
 5    1  0.8962567E-005  0.9118800E+02  0.7818608E-02  0.1130116E+00
         25   -1    0    0    0    0  0.00000000000E+00  0.00000000000E+00  0.99999998245E-14  0.12500000000E+03  0.12500000000E+03 0.  0.
        -11    1    3    3    0    0  0.11289295604E+02  0.27216212887E+02 -0.22323151890E+02  0.36966113533E+02  0.51100000000E-03 0. -1.
         23    2    1    0    0    0 -0.30298368175E+02 -0.72054681524E+01 -0.70785551695E+01  0.93062313348E+02  0.87410401767E+02 0.  0.
         11    1    3    3    0    0 -0.41587663780E+02 -0.34421681040E+02  0.15244596721E+02  0.56096199815E+02  0.51100000000E-03 0.  1.
         22    1    1    0    0    0  0.30298368175E+02  0.72054681524E+01  0.70785551695E+01  0.31937686652E+02  0.00000000000E+00 0.  1.
</event>
<event>
 5    1  0.8962567E-005  0.9118800E+02  0.7818608E-02  0.1130116E+00
         25   -1    0    0    0    0  0.00000000000E+00  0.00000000000E+00  0.99999998245E-14  0.12500000000E+03  0.12500000000E+03 0.  0.
        -11    1    3    3    0    0 -0.87229087803E+01 -0.18861135383E+01 -0.36598634100E+02  0.37671031047E+02  0.51100000000E-03 0.  1.
         23    2    1    0    0    0  0.80587548004E+01 -0.24905680422E+02  0.13683598780E+02  0.95462272907E+02  0.90777575573E+02 0.  0.
         11    1    3    3    0    0  0.16781663581E+02 -0.23019566884E+02  0.50282232881E+02  0.57791241860E+02  0.51100000000E-03 0. -1.
         22    1    1    0    0    0 -0.80587548004E+01  0.24905680422E+02 -0.13683598780E+02  0.29537727093E+02  0.00000000000E+00 0. -1.
</event>
<event>
 5    1  0.8962567E-005  0.9118800E+02  0.7818608E-02  0.1130116E+00
         25   -1    0    0    0    0  0.00000000000E+00  0.00000000000E+00  0.99999998245E-14  0.12500000000E+03  0.12500000000E+03 0.  0.
        -11    1    3    3    0    0  0.46634567042E+01 -0.13813646627E+02 -0.43467893146E+02  0.45847817793E+02  0.51100000000E-03 0.  1.
         23    2    1    0    0    0  0.16682487918E+02 -0.27817387769E+02 -0.55674091787E+00  0.92558939199E+02  0.86687570042E+02 0.  0.
         11    1    3    3    0    0  0.12019031214E+02 -0.14003741142E+02  0.42911152228E+02  0.46711121406E+02  0.51100000000E-03 0. -1.
         22    1    1    0    0    0 -0.16682487918E+02  0.27817387769E+02  0.55674091787E+00  0.32441060801E+02  0.00000000000E+00 0.  1.
</event>
<event>
 5    1  0.8962567E-005  0.9118800E+02  0.7818608E-02  0.1130116E+00
         25   -1    0    0    0    0  0.00000000000E+00  0.00000000000E+00  0.99999998245E-14  0.12500000000E+03  0.12500000000E+03 0.  0.
        -11    1    3    3    0    0 -0.22431833350E+01  0.19228449296E+02  0.31637196875E+02  0.37090124833E+02  0.51100000000E-03 0. -1.
         23    2    1    0    0    0  0.17449728634E+02 -0.21733581677E+02 -0.64531505556E+01  0.96390827450E+02  0.92047307742E+02 0.  0.
         11    1    3    3    0    0  0.19692911969E+02 -0.40962030973E+02 -0.38090347430E+02  0.59300702617E+02  0.51100000000E-03 0.  1.
         22    1    1    0    0    0 -0.17449728634E+02  0.21733581677E+02  0.64531505556E+01  0.28609172550E+02  0.00000000000E+00 0.  1.
</event>
<event>
 5    1  0.8962567E-005  0.9118800E+02  0.7818608E-02  0.1130116E+00
         25   -1    0    0    0    0  0.00000000000E+00  0.00000000000E+00  0.99999998245E-14  0.12500000000E+03  0.12500000000E+03 0.  0.
        -11    1    3    3    0    0  0.16696853957E+02 -0.81749707444E+01  0.44248666926E+02  0.47995412319E+02  0.51100000000E-03 0. -1.
         23    2    1    0    0    0 -0.22388872927E+02  0.22715232970E+01  0.17443433295E+02  0.96527297035E+02  0.92232446887E+02 0.  0.
         11    1    3    3    0    0 -0.39085726883E+02  0.10446494041E+02 -0.26805233631E+02  0.48531884715E+02  0.51100000000E-03 0.  1.
         22    1    1    0    0    0  0.22388872927E+02 -0.22715232970E+01 -0.17443433295E+02  0.28472702965E+02  0.00000000000E+00 0.  1.
</event>
<event>
 5    1  0.8962567E-005  0.9118800E+02  0.7818608E-02  0.1130116E+00
         25   -1    0    0    0    0  0.00000000000E+00  0.00000000000E+00  0.99999998245E-14  0.12500000000E+03  0.12500000000E+03 0.  0.
        -11    1    3    3    0    0 -0.57891671730E+02 -0.40914175622E+01  0.13344013506E+02  0.59550382451E+02  0.51100000000E-03 0. -1.
         23    2    1    0    0    0 -0.27188782139E+02  0.93566820693E+01 -0.14957048736E+01  0.96207387986E+02  0.91797859433E+02 0.  0.
         11    1    3    3    0    0  0.30702889591E+02  0.13448099631E+02 -0.14839718380E+02  0.36657005535E+02  0.51100000000E-03 0.  1.
         22    1    1    0    0    0  0.27188782139E+02 -0.93566820693E+01  0.14957048736E+01  0.28792612014E+02  0.00000000000E+00 0. -1.
</event>
<event>
 5    1  0.8962567E-005  0.9118800E+02  0.7818608E-02  0.1130116E+00
         25   -1    0    0    0    0  0.00000000000E+00  0.00000000000E+00  0.99999998245E-14  0.12500000000E+03  0.12500000000E+03 0.  0.
        -11    1    3    3    0    0 -0.34872915244E+02 -0.25944307158E+02  0.43266255445E+01  0.43680052431E+02  0.51100000000E-03 0.  1.
         23    2    1    0    0    0 -0.18118248868E+02  0.21412100527E+02  0.11992892737E+02  0.94494615767E+02  0.89435194089E+02 0.  0.
         11    1    3    3    0    0  0.16754666376E+02  0.47356407684E+02  0.76662671923E+01  0.50814563336E+02  0.51100000000E-03 0. -1.
         22    1    1    0    0    0  0.18118248868E+02 -0.21412100527E+02 -0.11992892737E+02  0.30505384233E+02  0.00000000000E+00 0. -1.
</event>
<event>
 5    1  0.8962567E-005  0.9118800E+02  0.7818608E-02  0.1130116E+00
         25   -1    0    0    0    0  0.00000000000E+00  0.00000000000E+00  0.99999998245E-14  0.12500000000E+03  0.12500000000E+03 0.  0.
        -11    1    3    3    0    0  0.54186257534E+02 -0.18695851616E+02  0.24390885339E+01  0.57372768160E+02  0.51100000000E-03 0.  1.
         23    2    1    0    0    0  0.21041737226E+02 -0.81424562142E+01 -0.16565027981E+02  0.97009743647E+02  0.92883991688E+02 0.  0.
         11    1    3    3    0    0 -0.33144520309E+02  0.10553395401E+02 -0.19004116515E+02  0.39636975487E+02  0.51100000000E-03 0. -1.
         22    1    1    0    0    0 -0.21041737226E+02  0.81424562142E+01  0.16565027981E+02  0.27990256353E+02  0.00000000000E+00 0.  1.
</event>
<event>
 5    1  0.8962567E-005  0.9118800E+02  0.7818608E-02  0.1130116E+00
         25   -1    0    0    0    0  0.00000000000E+00  0.00000000000E+00  0.99999998245E-14  0.12500000000E+03  0.12500000000E+03 0.  0.
        -11    1    3    3    0    0  0.30734614596E+02 -0.22502768386E+02 -0.28129120970E+02  0.47352281531E+02  0.51100000000E-03 0.  1.
         23    2    1    0    0    0  0.22761751300E+02 -0.67727874660E+01  0.16993187009E+02  0.95798349755E+02  0.91239177105E+02 0.  0.
         11    1    3    3    0    0 -0.79728632956E+01  0.15729980920E+02  0.45122307978E+02  0.48446068225E+02  0.51100000000E-03 0. -1.
         22    1    1    0    0    0 -0.22761751300E+02  0.67727874660E+01 -0.16993187009E+02  0.29201650245E+02  0.00000000000E+00 0. -1.
</event>
<event>
 5    1  0.8962567E-005  0.9118800E+02  0.7818608E-02  0.1130116E+00
         25   -1    0    0    0    0  0.00000000000E+00  0.00000000000E+00  0.99999998245E-14  0.12500000000E+03  0.12500000000E+03 0.  0.
        -11    1    3    3    0    0  0.12676548515E+02 -0.31798317847E+02 -0.32517982400E+02  0.47214903153E+02  0.51100000000E-03 0.  1.
         23    2    1    0    0    0  0.29804758853E+02  0.32381296140E+01 -0.22601147322E+02  0.87455080318E+02  0.78985885318E+02 0.  0.
         11    1    3    3    0    0  0.17128210337E+02  0.35036447460E+02  0.99168350785E+01  0.40240177165E+02  0.51100000000E-03 0. -1.
         22    1    1    0    0    0 -0.29804758853E+02 -0.32381296140E+01  0.22601147322E+02  0.37544919682E+02  0.00000000000E+00 0.  1.
</event>
<event>
 5    1  0.8962567E-005  0.9118800E+02  0.7818608E-02  0.1130116E+00
         25   -1    0    0    0    0  0.00000000000E+00  0.00000000000E+00  0.99999998245E-14  0.12500000000E+03  0.12500000000E+03 0.  0.
        -11    1    3    3    0    0  0.30151655638E+02  0.94379264333E+00  0.23641390057E+02  0.38326601811E+02  0.51100000000E-03 0. -1.
         23    2    1    0    0    0 -0.25915935958E+02  0.55964029011E+01  0.12535699341E+02  0.95672551765E+02  0.91066667564E+02 0.  0.
         11    1    3    3    0    0 -0.56067591596E+02  0.46526102578E+01 -0.11105690716E+02  0.57345949954E+02  0.51100000000E-03 0.  1.
         22    1    1    0    0    0  0.25915935958E+02 -0.55964029011E+01 -0.12535699341E+02  0.29327448235E+02  0.00000000000E+00 0.  1.
</event>
<event>
 5    1  0.8962567E-005  0.9118800E+02  0.7818608E-02  0.1130116E+00
         25   -1    0    0    0    0  0.00000000000E+00  0.00000000000E+00  0.99999998245E-14  0.12500000000E+03  0.12500000000E+03 0.  0.
        -11    1    3    3    0    0 -0.26607851169E+02  0.27416861827E+02  0.89736288412E+01  0.39245229915E+02  0.51100000000E-03 0.  1.
         23    2    1    0    0    0  0.14153338952E+02  0.74524780034E+01 -0.24569319894E+02  0.95682634635E+02  0.91080506470E+02 0.  0.
         11    1    3    3    0    0  0.40761190121E+02 -0.19964383823E+02 -0.33542948735E+02  0.56437404721E+02  0.51100000000E-03 0. -1.
         22    1    1    0    0    0 -0.14153338952E+02 -0.74524780034E+01  0.24569319894E+02  0.29317365365E+02  0.00000000000E+00 0. -1.
</event>
<event>
 5    1  0.8962567E-005  0.9118800E+02  0.7818608E-02  0.1130116E+00
         25   -1    0    0    0    0  0.00000000000E+00  0.00000000000E+00  0.99999998245E-14  0.12500000000E+03  0.12500000000E+03 0.  0.
        -11    1    3    3    0    0  0.56472316772E+02  0.10754008834E+02 -0.13319278477E+02  0.59009952101E+02  0.51100000000E-03 0. -1.
         23    2    1    0    0    0  0.28258127705E+02 -0.82357442885E+01  0.85872221276E-01  0.95566063135E+02  0.90920381564E+02 0.  0.
         11    1    3    3    0    0 -0.28214189067E+02 -0.18989753123E+02  0.13405150698E+02  0.36556111033E+02  0.51100000000E-03 0.  1.
         22    1    1    0    0    0 -0.28258127705E+02  0.82357442885E+01 -0.85872221276E-01  0.29433936865E+02  0.00000000000E+00 0. -1.
</event>
<event>
 5    1  0.8962567E-005  0.9118800E+02  0.7818608E-02  0.1130116E+00
         25   -1    0    0    0    0  0.00000000000E+00  0.00000000000E+00  0.99999998245E-14  0.12500000000E+03  0.12500000000E+03 0.  0.
        -11    1    3    3    0    0  0.44974230820E+01 -0.46456747016E+02  0.34354524905E+02  0.57954202086E+02  0.51100000000E-03 0. -1.
         23    2    1    0    0    0 -0.98647254538E+01 -0.11455886848E+02  0.23040233720E+02  0.97442741036E+02  0.93464887840E+02 0.  0.
         11    1    3    3    0    0 -0.14362148536E+02  0.35000860168E+02 -0.11314291185E+02  0.39488538950E+02  0.51100000000E-03 0.  1.
         22    1    1    0    0    0  0.98647254538E+01  0.11455886848E+02 -0.23040233720E+02  0.27557258964E+02  0.00000000000E+00 0. -1.
</event>
<event>
 5    1  0.8962567E-005  0.9118800E+02  0.7818608E-02  0.1130116E+00
         25   -1    0    0    0    0  0.00000000000E+00  0.00000000000E+00  0.99999998245E-14  0.12500000000E+03  0.12500000000E+03 0.  0.
        -11    1    3    3    0    0 -0.16068752747E+02 -0.53936238632E+02  0.25491428450E+02  0.61782971581E+02  0.51100000000E-03 0.  1.
         23    2    1    0    0    0 -0.99123524492E+01 -0.26623883772E+02  0.58190970336E+01  0.96000899868E+02  0.91516255207E+02 0.  0.
         11    1    3    3    0    0  0.61564002981E+01  0.27312354861E+02 -0.19672331417E+02  0.34217928288E+02  0.51100000000E-03 0. -1.
         22    1    1    0    0    0  0.99123524492E+01  0.26623883772E+02 -0.58190970336E+01  0.28999100132E+02  0.00000000000E+00 0.  1.
</event>
<event>
 5    1  0.8962567E-005  0.9118800E+02  0.7818608E-02  0.1130116E+00
         25   -1    0    0    0    0  0.00000000000E+00  0.00000000000E+00  0.99999998245E-14  0.12500000000E+03  0.12500000000E+03 0.  0.
        -11    1    3    3    0    0 -0.21885235050E+02  0.37935011414E+02  0.44333600125E+02  0.62317707792E+02  0.51100000000E-03 0. -1.
         23    2    1    0    0    0 -0.15762490570E+02  0.23365487299E+02  0.24684818203E+02  0.87533450180E+02  0.79109813203E+02 0.  0.
         11    1    3    3    0    0  0.61227444803E+01 -0.14569524116E+02 -0.19648781921E+02  0.25215742388E+02  0.51100000000E-03 0.  1.
         22    1    1    0    0    0  0.15762490570E+02 -0.23365487299E+02 -0.24684818203E+02  0.37466549820E+02  0.00000000000E+00 0. -1.
</event>
<event>
 5    1  0.8962567E-005  0.9118800E+02  0.7818608E-02  0.1130116E+00
         25   -1    0    0    0    0  0.00000000000E+00  0.00000000000E+00  0.99999998245E-14  0.12500000000E+03  0.12500000000E+03 0.  0.
        -11    1    3    3    0    0  0.14812208469E+02  0.30239682079E+02 -0.70066746981E+01  0.34393798606E+02  0.51100000000E-03 0. -1.
         23    2    1    0    0    0  0.14233988785E+02 -0.24504322639E+02  0.14443499339E+02  0.93193036331E+02  0.87597140836E+02 0.  0.
         11    1    3    3    0    0 -0.57821968437E+00 -0.54744004718E+02  0.21450174037E+02  0.58799237725E+02  0.51100000000E-03 0.  1.
         22    1    1    0    0    0 -0.14233988785E+02  0.24504322639E+02 -0.14443499339E+02  0.31806963669E+02  0.00000000000E+00 0.  1.
</event>
<event>
 5    1  0.8962567E-005  0.9118800E+02  0.7818608E-02  0.1130116E+00
         25   -1    0    0    0    0  0.00000000000E+00  0.00000000000E+00  0.99999998245E-14  0.12500000000E+03  0.12500000000E+03 0.  0.
        -11    1    3    3    0    0  0.27860073806E+02 -0.23613923573E+02  0.13854755397E+02  0.39060918401E+02  0.51100000000E-03 0.  1.
         23    2    1    0    0    0 -0.54685924617E+01  0.21363416846E+02  0.19809612752E+02  0.95356757259E+02  0.90632164902E+02 0.  0.
         11    1    3    3    0    0 -0.33328666268E+02  0.44977340418E+02  0.59548573543E+01  0.56295838858E+02  0.51100000000E-03 0. -1.
         22    1    1    0    0    0  0.54685924617E+01 -0.21363416846E+02 -0.19809612752E+02  0.29643242741E+02  0.00000000000E+00 0. -1.
</event>
<event>
 5    1  0.8962567E-005  0.9118800E+02  0.7818608E-02  0.1130116E+00
         25   -1    0    0    0    0  0.00000000000E+00  0.00000000000E+00  0.99999998245E-14  0.12500000000E+03  0.12500000000E+03 0.  0.
        -11    1    3    3    0    0 -0.14722222031E+02 -0.37561900528E+01  0.56501316569E+02  0.58508559712E+02  0.51100000000E-03 0.  1.
         23    2    1    0    0    0  0.73974402458E+00  0.12246843531E+02  0.25855025700E+02  0.96381566226E+02  0.92034730165E+02 0.  0.
         11    1    3    3    0    0  0.15461966055E+02  0.16003033583E+02 -0.30646290869E+02  0.37873006515E+02  0.51100000000E-03 0. -1.
         22    1    1    0    0    0 -0.73974402458E+00 -0.12246843531E+02 -0.25855025700E+02  0.28618433774E+02  0.00000000000E+00 0.  1.
</event>
<event>
 5    1  0.8962567E-005  0.9118800E+02  0.7818608E-02  0.1130116E+00
         25   -1    0    0    0    0  0.00000000000E+00  0.00000000000E+00  0.99999998245E-14  0.12500000000E+03  0.12500000000E+03 0.  0.
        -11    1    3    3    0    0  0.26718130079E+02 -0.41633871928E+02 -0.65752572892E+01  0.49904626792E+02  0.51100000000E-03 0.  1.
         23    2    1    0    0    0 -0.10365178547E+02 -0.13108726426E+02 -0.20342450147E+02  0.98673380149E+02  0.95096503812E+02 0.  0.
         11    1    3    3    0    0 -0.37083308626E+02  0.28525145502E+02 -0.13767192857E+02  0.48768753357E+02  0.51100000000E-03 0. -1.
         22    1    1    0    0    0  0.10365178547E+02  0.13108726426E+02  0.20342450147E+02  0.26326619851E+02  0.00000000000E+00 0. -1.
</event>
<event>
 5    1  0.8962567E-005  0.9118800E+02  0.7818608E-02  0.1130116E+00
         25   -1    0    0    0    0  0.00000000000E+00  0.00000000000E+00  0.99999998245E-14  0.12500000000E+03  0.12500000000E+03 0.  0.
        -11    1    3    3    0    0  0.32530670940E+01  0.52189616461E+02  0.24724867104E+02  0.57841659429E+02  0.51100000000E-03 0. -1.
         23    2    1    0    0    0  0.42037995518E+01  0.26312307878E+02 -0.56555332508E+01  0.97760423408E+02  0.93888795136E+02 0.  0.
         11    1    3    3    0    0  0.95073245777E+00 -0.25877308583E+02 -0.30380400354E+02  0.39918763980E+02  0.51100000000E-03 0.  1.
         22    1    1    0    0    0 -0.42037995518E+01 -0.26312307878E+02  0.56555332508E+01  0.27239576592E+02  0.00000000000E+00 0. -1.
</event>
<event>
 5    1  0.8962567E-005  0.9118800E+02  0.7818608E-02  0.1130116E+00
         25   -1    0    0    0    0  0.00000000000E+00  0.00000000000E+00  0.99999998245E-14  0.12500000000E+03  0.12500000000E+03 0.  0.
        -11    1    3    3    0    0 -0.21504888410E+02  0.14926063257E+02  0.41412115650E+02  0.48991947427E+02  0.51100000000E-03 0.  1.
         23    2    1    0    0    0 -0.64207132936E+01 -0.22297520646E+02  0.19161930826E+02  0.94907067622E+02  0.90009815606E+02 0.  0.
         11    1    3    3    0    0  0.15084175116E+02 -0.37223583903E+02 -0.22250184823E+02  0.45915120194E+02  0.51100000000E-03 0. -1.
         22    1    1    0    0    0  0.64207132936E+01  0.22297520646E+02 -0.19161930826E+02  0.30092932378E+02  0.00000000000E+00 0. -1.
</event>
<event>
 5    1  0.8962567E-005  0.9118800E+02  0.7818608E-02  0.1130116E+00
         25   -1    0    0    0    0  0.00000000000E+00  0.00000000000E+00  0.99999998245E-14  0.12500000000E+03  0.12500000000E+03 0.  0.
        -11    1    3    3    0    0  0.25418550529E+02  0.31951432362E+02 -0.12248257949E+02  0.42626477266E+02  0.51100000000E-03 0.  1.
         23    2    1    0    0    0  0.17240575567E+02 -0.20923863909E+02 -0.97488013979E+01  0.96188810239E+02  0.91772558860E+02 0.  0.
         11    1    3    3    0    0 -0.81779749624E+01 -0.52875296271E+02  0.24994565513E+01  0.53562332974E+02  0.51100000000E-03 0. -1.
         22    1    1    0    0    0 -0.17240575567E+02  0.20923863909E+02  0.97488013979E+01  0.28811189761E+02  0.00000000000E+00 0.  1.
</event>
<event>
 5    1  0.8962567E-005  0.9118800E+02  0.7818608E-02  0.1130116E+00
         25   -1    0    0    0    0  0.00000000000E+00  0.00000000000E+00  0.99999998245E-14  0.12500000000E+03  0.12500000000E+03 0.  0.
        -11    1    3    3    0    0 -0.16887097294E+01  0.39502432190E+02 -0.29046667306E+02  0.49061214532E+02  0.51100000000E-03 0.  1.
         23    2    1    0    0    0  0.93853725377E+00  0.22119710007E+02  0.16175839557E+02  0.97580659958E+02  0.93649159043E+02 0.  0.
         11    1    3    3    0    0  0.26272469832E+01 -0.17382722183E+02  0.45222506863E+02  0.48519445426E+02  0.51100000000E-03 0. -1.
         22    1    1    0    0    0 -0.93853725377E+00 -0.22119710007E+02 -0.16175839557E+02  0.27419340042E+02  0.00000000000E+00 0. -1.
</event>
<event>
 5    1  0.8962567E-005  0.9118800E+02  0.7818608E-02  0.1130116E+00
         25   -1    0    0    0    0  0.00000000000E+00  0.00000000000E+00  0.99999998245E-14  0.12500000000E+03  0.12500000000E+03 0.  0.
        -11    1    3    3    0    0 -0.26799229808E+02 -0.29656188671E+02 -0.19330467449E+02  0.44399946136E+02  0.51100000000E-03 0. -1.
         23    2    1    0    0    0  0.55174888187E+01  0.96171030972E+01 -0.26978540694E+02  0.95831986478E+02  0.91285248641E+02 0.  0.
         11    1    3    3    0    0  0.32316718627E+02  0.39273291769E+02 -0.76480732446E+01  0.51432040342E+02  0.51100000000E-03 0.  1.
         22    1    1    0    0    0 -0.55174888187E+01 -0.96171030972E+01  0.26978540694E+02  0.29168013522E+02  0.00000000000E+00 0.  1.
</event>
<event>
 5    1  0.8962567E-005  0.9118800E+02  0.7818608E-02  0.1130116E+00
         25   -1    0    0    0    0  0.00000000000E+00  0.00000000000E+00  0.99999998245E-14  0.12500000000E+03  0.12500000000E+03 0.  0.
        -11    1    3    3    0    0  0.33378772142E+02 -0.15370827950E+02  0.28098483157E+02  0.46259372429E+02  0.51100000000E-03 0. -1.
         23    2    1    0    0    0 -0.55279996043E+01  0.10340659530E+02  0.29852488417E+02  0.92927284433E+02  0.87217091836E+02 0.  0.
         11    1    3    3    0    0 -0.38906771746E+02  0.25711487480E+02  0.17540052605E+01  0.46667912004E+02  0.51100000000E-03 0.  1.
         22    1    1    0    0    0  0.55279996043E+01 -0.10340659530E+02 -0.29852488417E+02  0.32072715567E+02  0.00000000000E+00 0. -1.
</event>
<event>
 5    1  0.8962567E-005  0.9118800E+02  0.7818608E-02  0.1130116E+00
         25   -1    0    0    0    0  0.00000000000E+00  0.00000000000E+00  0.99999998245E-14  0.12500000000E+03  0.12500000000E+03 0.  0.
        -11    1    3    3    0    0 -0.57016181377E+01 -0.56918746246E+02  0.14915606954E+02  0.59116219895E+02  0.51100000000E-03 0.  1.
         23    2    1    0    0    0  0.61738594628E+01 -0.36211768995E+02 -0.17421536209E+01  0.88224412260E+02  0.80194158546E+02 0.  0.
         11    1    3    3    0    0  0.11875477600E+02  0.20706977251E+02 -0.16657760575E+02  0.29108192365E+02  0.51100000000E-03 0. -1.
         22    1    1    0    0    0 -0.61738594628E+01  0.36211768995E+02  0.17421536209E+01  0.36775587740E+02  0.00000000000E+00 0.  1.
</event>
<event>
 5    1  0.8962567E-005  0.9118800E+02  0.7818608E-02  0.1130116E+00
         25   -1    0    0    0    0  0.00000000000E+00  0.00000000000E+00  0.99999998245E-14  0.12500000000E+03  0.12500000000E+03 0.  0.
        -11    1    3    3    0    0  0.36806456427E+01 -0.11987713904E+02  0.49119649154E+02  0.50695092171E+02  0.51100000000E-03 0.  1.
         23    2    1    0    0    0  0.12664343351E+02 -0.26225850060E+02  0.85062068890E+01  0.94659657887E+02  0.89665570158E+02 0.  0.
         11    1    3    3    0    0  0.89836977079E+01 -0.14238136156E+02 -0.40613442265E+02  0.43964565716E+02  0.51100000000E-03 0. -1.
         22    1    1    0    0    0 -0.12664343351E+02  0.26225850060E+02 -0.85062068890E+01  0.30340342113E+02  0.00000000000E+00 0. -1.
</event>
<event>
 5    1  0.8962567E-005  0.9118800E+02  0.7818608E-02  0.1130116E+00
         25   -1    0    0    0    0  0.00000000000E+00  0.00000000000E+00  0.99999998245E-14  0.12500000000E+03  0.12500000000E+03 0.  0.
        -11    1    3    3    0    0 -0.33561905563E+02 -0.27712527998E+01 -0.12938713400E+02  0.36076192313E+02  0.51100000000E-03 0.  1.
         23    2    1    0    0    0 -0.72620699603E+00 -0.35862873766E+02 -0.21071876945E+02  0.83398352324E+02  0.72281312115E+02 0.  0.
         11    1    3    3    0    0  0.32835698567E+02 -0.33091620966E+02 -0.81331635452E+01  0.47322160011E+02  0.51100000000E-03 0. -1.
         22    1    1    0    0    0  0.72620699603E+00  0.35862873766E+02  0.21071876945E+02  0.41601647676E+02  0.00000000000E+00 0. -1.
</event>
<event>
 5    1  0.8962567E-005  0.9118800E+02  0.7818608E-02  0.1130116E+00
         25   -1    0    0    0    0  0.00000000000E+00  0.00000000000E+00  0.99999998245E-14  0.12500000000E+03  0.12500000000E+03 0.  0.
        -11    1    3    3    0    0  0.20862288089E+02 -0.44063639897E+01  0.42429274224E+02  0.47485728586E+02  0.51100000000E-03 0.  1.
         23    2    1    0    0    0  0.29883689514E+02 -0.53685125644E+01 -0.36224140692E+01  0.94422594783E+02  0.89334476524E+02 0.  0.
         11    1    3    3    0    0  0.90214014251E+01 -0.96214857476E+00 -0.46051688293E+02  0.46936866197E+02  0.51100000000E-03 0. -1.
         22    1    1    0    0    0 -0.29883689514E+02  0.53685125644E+01  0.36224140692E+01  0.30577405217E+02  0.00000000000E+00 0.  1.
</event>
<event>
 5    1  0.8962567E-005  0.9118800E+02  0.7818608E-02  0.1130116E+00
         25   -1    0    0    0    0  0.00000000000E+00  0.00000000000E+00  0.99999998245E-14  0.12500000000E+03  0.12500000000E+03 0.  0.
        -11    1    3    3    0    0  0.15682088674E+02 -0.40790526155E+02  0.16910758376E+01  0.43733907520E+02  0.51100000000E-03 0.  1.
         23    2    1    0    0    0 -0.26437354548E+02 -0.92426668836E+01  0.53574087111E+01  0.96485750322E+02  0.92176122615E+02 0.  0.
         11    1    3    3    0    0 -0.42119443222E+02  0.31547859272E+02  0.36663328734E+01  0.52751842802E+02  0.51100000000E-03 0. -1.
         22    1    1    0    0    0  0.26437354548E+02  0.92426668836E+01 -0.53574087111E+01  0.28514249678E+02  0.00000000000E+00 0. -1.
</event>
<event>
 5    1  0.8962567E-005  0.9118800E+02  0.7818608E-02  0.1130116E+00
         25   -1    0    0    0    0  0.00000000000E+00  0.00000000000E+00  0.99999998245E-14  0.12500000000E+03  0.12500000000E+03 0.  0.
        -11    1    3    3    0    0 -0.24934089169E+02 -0.27549496002E+02 -0.28042133687E+02  0.46551528381E+02  0.51100000000E-03 0.  1.
         23    2    1    0    0    0 -0.27493428551E+02  0.10325745854E+02  0.28487481310E+01  0.95493644636E+02  0.90820763921E+02 0.  0.
         11    1    3    3    0    0 -0.25593393822E+01  0.37875241856E+02  0.30890881818E+02  0.48942116255E+02  0.51100000000E-03 0. -1.
         22    1    1    0    0    0  0.27493428551E+02 -0.10325745854E+02 -0.28487481310E+01  0.29506355364E+02  0.00000000000E+00 0. -1.
</event>
<event>
 5    1  0.8962567E-005  0.9118800E+02  0.7818608E-02  0.1130116E+00
         25   -1    0    0    0    0  0.00000000000E+00  0.00000000000E+00  0.99999998245E-14  0.12500000000E+03  0.12500000000E+03 0.  0.
        -11    1    3    3    0    0  0.85545350742E+01  0.29558279033E+02  0.14414835330E+02  0.33980279687E+02  0.51100000000E-03 0. -1.
         23    2    1    0    0    0 -0.12857267454E+02 -0.18473533189E+02 -0.18367166929E+02  0.95949465136E+02  0.91445974674E+02 0.  0.
         11    1    3    3    0    0 -0.21411802528E+02 -0.48031812223E+02 -0.32782002259E+02  0.61969185449E+02  0.51100000000E-03 0.  1.
         22    1    1    0    0    0  0.12857267454E+02  0.18473533189E+02  0.18367166929E+02  0.29050534864E+02  0.00000000000E+00 0.  1.
</event>
<event>
 5    1  0.8962567E-005  0.9118800E+02  0.7818608E-02  0.1130116E+00
         25   -1    0    0    0    0  0.00000000000E+00  0.00000000000E+00  0.99999998245E-14  0.12500000000E+03  0.12500000000E+03 0.  0.
        -11    1    3    3    0    0 -0.11004458691E+02 -0.41586419037E+02  0.34541430242E+02  0.55169183090E+02  0.51100000000E-03 0.  1.
         23    2    1    0    0    0  0.17838260884E+01 -0.29792321520E+02 -0.14232642131E+01  0.95120405992E+02  0.90305600591E+02 0.  0.
         11    1    3    3    0    0  0.12788284779E+02  0.11794097517E+02 -0.35964694456E+02  0.39951222902E+02  0.51100000000E-03 0. -1.
         22    1    1    0    0    0 -0.17838260884E+01  0.29792321520E+02  0.14232642131E+01  0.29879594008E+02  0.00000000000E+00 0.  1.
</event>
<event>
 5    1  0.8962567E-005  0.9118800E+02  0.7818608E-02  0.1130116E+00
         25   -1    0    0    0    0  0.00000000000E+00  0.00000000000E+00  0.99999998245E-14  0.12500000000E+03  0.12500000000E+03 0.  0.
        -11    1    3    3    0    0 -0.25841625474E+02 -0.13348717579E+02 -0.25965367006E+02  0.38989462066E+02  0.51100000000E-03 0.  1.
         23    2    1    0    0    0 -0.15417697154E+02  0.99280560127E+00  0.26475542672E+02  0.94346363865E+02  0.89227747738E+02 0.  0.
         11    1    3    3    0    0  0.10423928319E+02  0.14341523180E+02  0.52440909678E+02  0.55356901800E+02  0.51100000000E-03 0. -1.
         22    1    1    0    0    0  0.15417697154E+02 -0.99280560127E+00 -0.26475542672E+02  0.30653636135E+02  0.00000000000E+00 0. -1.
</event>
<event>
 5    1  0.8962567E-005  0.9118800E+02  0.7818608E-02  0.1130116E+00
         25   -1    0    0    0    0  0.00000000000E+00  0.00000000000E+00  0.99999998245E-14  0.12500000000E+03  0.12500000000E+03 0.  0.
        -11    1    3    3    0    0 -0.37954723518E+01 -0.35910959974E+02  0.18472694994E+01  0.36158194943E+02  0.51100000000E-03 0.  1.
         23    2    1    0    0    0 -0.13834738106E+02  0.23608531588E+02  0.70519202584E+01  0.96742393563E+02  0.92523501830E+02 0.  0.
         11    1    3    3    0    0 -0.10039265755E+02  0.59519491562E+02  0.52046507590E+01  0.60584198621E+02  0.51100000000E-03 0. -1.
         22    1    1    0    0    0  0.13834738106E+02 -0.23608531588E+02 -0.70519202584E+01  0.28257606437E+02  0.00000000000E+00 0. -1.
</event>
<event>
 5    1  0.8962567E-005  0.9118800E+02  0.7818608E-02  0.1130116E+00
         25   -1    0    0    0    0  0.00000000000E+00  0.00000000000E+00  0.99999998245E-14  0.12500000000E+03  0.12500000000E+03 0.  0.
        -11    1    3    3    0    0 -0.61032725741E+01 -0.14111223158E+02 -0.35035360930E+02  0.38260332865E+02  0.51100000000E-03 0. -1.
         23    2    1    0    0    0  0.91460039497E+00 -0.15110685938E+02  0.23403304311E+02  0.97127361516E+02  0.93042143027E+02 0.  0.
         11    1    3    3    0    0  0.70178729690E+01 -0.99946277980E+00  0.58438665241E+02  0.58867028652E+02  0.51100000000E-03 0.  1.
         22    1    1    0    0    0 -0.91460039497E+00  0.15110685938E+02 -0.23403304311E+02  0.27872638484E+02  0.00000000000E+00 0.  1.
</event>
<event>
 5    1  0.8962567E-005  0.9118800E+02  0.7818608E-02  0.1130116E+00
         25   -1    0    0    0    0  0.00000000000E+00  0.00000000000E+00  0.99999998245E-14  0.12500000000E+03  0.12500000000E+03 0.  0.
        -11    1    3    3    0    0 -0.38728163148E+02  0.24640185353E+02  0.23404290970E+02  0.51524462065E+02  0.51100000000E-03 0. -1.
         23    2    1    0    0    0 -0.32429521403E+02  0.20498260786E+02 -0.96604632893E+01  0.85437680747E+02  0.75725954513E+02 0.  0.
         11    1    3    3    0    0  0.62986417444E+01 -0.41419245670E+01 -0.33064754259E+02  0.33913218683E+02  0.51100000000E-03 0.  1.
         22    1    1    0    0    0  0.32429521403E+02 -0.20498260786E+02  0.96604632893E+01  0.39562319253E+02  0.00000000000E+00 0. -1.
</event>
<event>
 5    1  0.8962567E-005  0.9118800E+02  0.7818608E-02  0.1130116E+00
         25   -1    0    0    0    0  0.00000000000E+00  0.00000000000E+00  0.99999998245E-14  0.12500000000E+03  0.12500000000E+03 0.  0.
        -11    1    3    3    0    0  0.41796062677E+02 -0.64268561797E+01  0.51782553682E+01  0.42603164960E+02  0.51100000000E-03 0.  1.
         23    2    1    0    0    0 -0.38191709874E-01  0.24193502107E+02 -0.12992583224E+02  0.97538495641E+02  0.93592862497E+02 0.  0.
         11    1    3    3    0    0 -0.41834254387E+02  0.30620358286E+02 -0.18170838593E+02  0.54935330682E+02  0.51100000000E-03 0. -1.
         22    1    1    0    0    0  0.38191709874E-01 -0.24193502107E+02  0.12992583224E+02  0.27461504359E+02  0.00000000000E+00 0. -1.
</event>
<event>
 5    1  0.8962567E-005  0.9118800E+02  0.7818608E-02  0.1130116E+00
         25   -1    0    0    0    0  0.00000000000E+00  0.00000000000E+00  0.99999998245E-14  0.12500000000E+03  0.12500000000E+03 0.  0.
        -11    1    3    3    0    0 -0.65285905194E+01 -0.68036805063E+01 -0.47183467210E+02  0.48116443560E+02  0.51100000000E-03 0.  1.
         23    2    1    0    0    0  0.16349312778E+02  0.19126123262E+02 -0.13257859128E+02  0.96559193964E+02  0.92275665757E+02 0.  0.
         11    1    3    3    0    0  0.22877903297E+02  0.25929803768E+02  0.33925608082E+02  0.48442750404E+02  0.51100000000E-03 0. -1.
         22    1    1    0    0    0 -0.16349312778E+02 -0.19126123262E+02  0.13257859128E+02  0.28440806036E+02  0.00000000000E+00 0. -1.
</event>
<event>
 5    1  0.8962567E-005  0.9118800E+02  0.7818608E-02  0.1130116E+00
         25   -1    0    0    0    0  0.00000000000E+00  0.00000000000E+00  0.99999998245E-14  0.12500000000E+03  0.12500000000E+03 0.  0.
        -11    1    3    3    0    0  0.25772573802E+02  0.13517169170E+02  0.53814834355E+02  0.61179864496E+02  0.51100000000E-03 0. -1.
         23    2    1    0    0    0  0.40814749406E+01  0.62905549840E+01  0.29526098358E+02  0.94536579247E+02  0.89493825552E+02 0.  0.
         11    1    3    3    0    0 -0.21691098862E+02 -0.72266141861E+01 -0.24288735997E+02  0.33356714752E+02  0.51100000000E-03 0.  1.
         22    1    1    0    0    0 -0.40814749406E+01 -0.62905549840E+01 -0.29526098358E+02  0.30463420753E+02  0.00000000000E+00 0. -1.
</event>
<event>
 5    1  0.8962567E-005  0.9118800E+02  0.7818608E-02  0.1130116E+00
         25   -1    0    0    0    0  0.00000000000E+00  0.00000000000E+00  0.99999998245E-14  0.12500000000E+03  0.12500000000E+03 0.  0.
        -11    1    3    3    0    0  0.34438278437E+02  0.30973994532E+02  0.11514068555E+01  0.46332592168E+02  0.51100000000E-03 0.  1.
         23    2    1    0    0    0 -0.13555870451E+02  0.22457361073E+02 -0.10979450967E+02  0.96563350521E+02  0.92281296210E+02 0.  0.
         11    1    3    3    0    0 -0.47994148888E+02 -0.85166334586E+01 -0.12130857822E+02  0.50230758353E+02  0.51100000000E-03 0. -1.
         22    1    1    0    0    0  0.13555870451E+02 -0.22457361073E+02  0.10979450967E+02  0.28436649479E+02  0.00000000000E+00 0. -1.
</event>
<event>
 5    1  0.8962567E-005  0.9118800E+02  0.7818608E-02  0.1130116E+00
         25   -1    0    0    0    0  0.00000000000E+00  0.00000000000E+00  0.99999998245E-14  0.12500000000E+03  0.12500000000E+03 0.  0.
        -11    1    3    3    0    0  0.35507331995E+02  0.11614327703E+02  0.18064391666E+01  0.37402225284E+02  0.51100000000E-03 0.  1.
         23    2    1    0    0    0 -0.20652246932E+02  0.85836768973E+01  0.18398244779E+02  0.96039851116E+02  0.91569442387E+02 0.  0.
         11    1    3    3    0    0 -0.56159578927E+02 -0.30306508061E+01  0.16591805613E+02  0.58637625833E+02  0.51100000000E-03 0. -1.
         22    1    1    0    0    0  0.20652246932E+02 -0.85836768973E+01 -0.18398244779E+02  0.28960148884E+02  0.00000000000E+00 0. -1.
</event>
<event>
 5    1  0.8962567E-005  0.9118800E+02  0.7818608E-02  0.1130116E+00
         25   -1    0    0    0    0  0.00000000000E+00  0.00000000000E+00  0.99999998245E-14  0.12500000000E+03  0.12500000000E+03 0.  0.
        -11    1    3    3    0    0  0.23945928806E+02  0.40127455135E+02  0.37292932902E+01  0.46877796351E+02  0.51100000000E-03 0. -1.
         23    2    1    0    0    0 -0.19763479756E+02  0.23101703756E+02 -0.37103290389E+01  0.94372391701E+02  0.89264202933E+02 0.  0.
         11    1    3    3    0    0 -0.43709408562E+02 -0.17025751379E+02 -0.74396223291E+01  0.47494595351E+02  0.51100000000E-03 0.  1.
         22    1    1    0    0    0  0.19763479756E+02 -0.23101703756E+02  0.37103290389E+01  0.30627608299E+02  0.00000000000E+00 0. -1.
</event>
<event>
 5    1  0.8962567E-005  0.9118800E+02  0.7818608E-02  0.1130116E+00
         25   -1    0    0    0    0  0.00000000000E+00  0.00000000000E+00  0.99999998245E-14  0.12500000000E+03  0.12500000000E+03 0.  0.
        -11    1    3    3    0    0 -0.26883241849E+02 -0.15995148028E+02  0.51356158653E+02  0.60133256062E+02  0.51100000000E-03 0.  1.
         23    2    1    0    0    0 -0.16719582736E+02  0.39334094086E+01  0.24354787123E+02  0.95197788468E+02  0.90412649098E+02 0.  0.
         11    1    3    3    0    0  0.10163659113E+02  0.19928557436E+02 -0.27001371530E+02  0.35064532406E+02  0.51100000000E-03 0. -1.
         22    1    1    0    0    0  0.16719582736E+02 -0.39334094086E+01 -0.24354787123E+02  0.29802211532E+02  0.00000000000E+00 0.  1.
</event>
<event>
 5    1  0.8962567E-005  0.9118800E+02  0.7818608E-02  0.1130116E+00
         25   -1    0    0    0    0  0.00000000000E+00  0.00000000000E+00  0.99999998245E-14  0.12500000000E+03  0.12500000000E+03 0.  0.
        -11    1    3    3    0    0  0.36194182253E+02  0.12677145084E+02  0.47997849137E+02  0.61437141523E+02  0.51100000000E-03 0.  1.
         23    2    1    0    0    0  0.20186951767E+02 -0.14193405304E+01  0.21122776283E+02  0.95747662878E+02  0.91169708344E+02 0.  0.
         11    1    3    3    0    0 -0.16007230486E+02 -0.14096485614E+02 -0.26875072854E+02  0.34310521356E+02  0.51100000000E-03 0. -1.
         22    1    1    0    0    0 -0.20186951767E+02  0.14193405304E+01 -0.21122776283E+02  0.29252337122E+02  0.00000000000E+00 0.  1.
</event>
<event>
 5    1  0.8962567E-005  0.9118800E+02  0.7818608E-02  0.1130116E+00
         25   -1    0    0    0    0  0.00000000000E+00  0.00000000000E+00  0.99999998245E-14  0.12500000000E+03  0.12500000000E+03 0.  0.
        -11    1    3    3    0    0 -0.13436467063E+02 -0.25315781160E+02  0.38985876225E+02  0.48387250058E+02  0.51100000000E-03 0. -1.
         23    2    1    0    0    0 -0.28066787711E+02  0.71709389577E+01  0.98815989668E+01  0.94392599978E+02  0.89292496855E+02 0.  0.
         11    1    3    3    0    0 -0.14630320647E+02  0.32486720118E+02 -0.29104277258E+02  0.46005349920E+02  0.51100000000E-03 0.  1.
         22    1    1    0    0    0  0.28066787711E+02 -0.71709389577E+01 -0.98815989668E+01  0.30607400022E+02  0.00000000000E+00 0. -1.
</event>
<event>
 5    1  0.8962567E-005  0.9118800E+02  0.7818608E-02  0.1130116E+00
         25   -1    0    0    0    0  0.00000000000E+00  0.00000000000E+00  0.99999998245E-14  0.12500000000E+03  0.12500000000E+03 0.  0.
        -11    1    3    3    0    0 -0.17171432782E+02  0.39721891258E+02  0.12676295524E+02  0.45092961949E+02  0.51100000000E-03 0. -1.
         23    2    1    0    0    0 -0.11233438322E+02  0.94609812528E+01 -0.26350476232E+02  0.94832999811E+02  0.89906896024E+02 0.  0.
         11    1    3    3    0    0  0.59379944598E+01 -0.30260910005E+02 -0.39026771755E+02  0.49740037861E+02  0.51100000000E-03 0.  1.
         22    1    1    0    0    0  0.11233438322E+02 -0.94609812528E+01  0.26350476232E+02  0.30167000189E+02  0.00000000000E+00 0. -1.
</event>
<event>
 5    1  0.8962567E-005  0.9118800E+02  0.7818608E-02  0.1130116E+00
         25   -1    0    0    0    0  0.00000000000E+00  0.00000000000E+00  0.99999998245E-14  0.12500000000E+03  0.12500000000E+03 0.  0.
        -11    1    3    3    0    0 -0.19090889063E+02 -0.23777495498E+02 -0.47924212508E+02  0.56802829878E+02  0.51100000000E-03 0.  1.
         23    2    1    0    0    0 -0.15689117332E+02 -0.23174671002E+02 -0.94060058076E+01  0.95475658789E+02  0.90796005954E+02 0.  0.
         11    1    3    3    0    0  0.34017717308E+01  0.60282449644E+00  0.38518206700E+02  0.38672828911E+02  0.51100000000E-03 0. -1.
         22    1    1    0    0    0  0.15689117332E+02  0.23174671002E+02  0.94060058076E+01  0.29524341211E+02  0.00000000000E+00 0.  1.
</event>
<event>
 5    1  0.8962567E-005  0.9118800E+02  0.7818608E-02  0.1130116E+00
         25   -1    0    0    0    0  0.00000000000E+00  0.00000000000E+00  0.99999998245E-14  0.12500000000E+03  0.12500000000E+03 0.  0.
        -11    1    3    3    0    0 -0.43461188580E+02 -0.90790041192E+01 -0.38338680636E+02  0.58661381349E+02  0.51100000000E-03 0.  1.
         23    2    1    0    0    0 -0.19555861268E+02 -0.18816576263E+02 -0.12721861485E+02  0.95027662557E+02  0.90177134791E+02 0.  0.
         11    1    3    3    0    0  0.23905327313E+02 -0.97375721435E+01  0.25616819151E+02  0.36366281207E+02  0.51100000000E-03 0. -1.
         22    1    1    0    0    0  0.19555861268E+02  0.18816576263E+02  0.12721861485E+02  0.29972337443E+02  0.00000000000E+00 0.  1.
</event>
<event>
 5    1  0.8962567E-005  0.9118800E+02  0.7818608E-02  0.1130116E+00
         25   -1    0    0    0    0  0.00000000000E+00  0.00000000000E+00  0.99999998245E-14  0.12500000000E+03  0.12500000000E+03 0.  0.
        -11    1    3    3    0    0  0.26044303969E+02  0.53224566754E+02  0.17006222090E+02  0.61647156183E+02  0.51100000000E-03 0.  1.
         23    2    1    0    0    0  0.69082740623E+01  0.25666984096E+02  0.21702372141E+01  0.98331137020E+02  0.94645571766E+02 0.  0.
         11    1    3    3    0    0 -0.19136029906E+02 -0.27557582658E+02 -0.14835984876E+02  0.36683980837E+02  0.51100000000E-03 0. -1.
         22    1    1    0    0    0 -0.69082740623E+01 -0.25666984096E+02 -0.21702372141E+01  0.26668862980E+02  0.00000000000E+00 0.  1.
</event>
<event>
 5    1  0.8962567E-005  0.9118800E+02  0.7818608E-02  0.1130116E+00
         25   -1    0    0    0    0  0.00000000000E+00  0.00000000000E+00  0.99999998245E-14  0.12500000000E+03  0.12500000000E+03 0.  0.
        -11    1    3    3    0    0  0.38200491061E+00 -0.77415722709E+01 -0.33122593719E+02  0.34017408542E+02  0.51100000000E-03 0.  1.
         23    2    1    0    0    0  0.92575678516E+01  0.17032694097E+02  0.22348918781E+02  0.95414709712E+02  0.90712057788E+02 0.  0.
         11    1    3    3    0    0  0.88755629410E+01  0.24774266368E+02  0.55471512501E+02  0.61397301170E+02  0.51100000000E-03 0. -1.
         22    1    1    0    0    0 -0.92575678516E+01 -0.17032694097E+02 -0.22348918781E+02  0.29585290288E+02  0.00000000000E+00 0. -1.
</event>
<event>
 5    1  0.8962567E-005  0.9118800E+02  0.7818608E-02  0.1130116E+00
         25   -1    0    0    0    0  0.00000000000E+00  0.00000000000E+00  0.99999998245E-14  0.12500000000E+03  0.12500000000E+03 0.  0.
        -11    1    3    3    0    0 -0.35702787127E+02  0.22226922276E+02 -0.28657380493E+02  0.50891753158E+02  0.51100000000E-03 0. -1.
         23    2    1    0    0    0 -0.29793784862E+02 -0.12856314211E+02 -0.10117578165E+02  0.91010004128E+02  0.84424528615E+02 0.  0.
         11    1    3    3    0    0  0.59090022655E+01 -0.35083236487E+02  0.18539802329E+02  0.40118250969E+02  0.51100000000E-03 0.  1.
         22    1    1    0    0    0  0.29793784862E+02  0.12856314211E+02  0.10117578165E+02  0.33989995872E+02  0.00000000000E+00 0. -1.
</event>
<event>
 5    1  0.8962567E-005  0.9118800E+02  0.7818608E-02  0.1130116E+00
         25   -1    0    0    0    0  0.00000000000E+00  0.00000000000E+00  0.99999998245E-14  0.12500000000E+03  0.12500000000E+03 0.  0.
        -11    1    3    3    0    0  0.54760677406E+01 -0.38661993374E+02  0.44763713050E+02  0.59401406177E+02  0.51100000000E-03 0. -1.
         23    2    1    0    0    0  0.54187259947E+01 -0.71979337064E+01  0.29077120521E+02  0.94559044384E+02  0.89525198106E+02 0.  0.
         11    1    3    3    0    0 -0.57341745919E-01  0.31464059668E+02 -0.15686592529E+02  0.35157638207E+02  0.51100000000E-03 0.  1.
         22    1    1    0    0    0 -0.54187259947E+01  0.71979337064E+01 -0.29077120521E+02  0.30440955616E+02  0.00000000000E+00 0.  1.
</event>
<event>
 5    1  0.8962567E-005  0.9118800E+02  0.7818608E-02  0.1130116E+00
         25   -1    0    0    0    0  0.00000000000E+00  0.00000000000E+00  0.99999998245E-14  0.12500000000E+03  0.12500000000E+03 0.  0.
        -11    1    3    3    0    0  0.38518672800E+02 -0.34139587819E+02  0.30831875867E+02  0.59998368149E+02  0.51100000000E-03 0. -1.
         23    2    1    0    0    0  0.14447543358E+02 -0.83295052597E+01  0.23726014285E+02  0.95999380682E+02  0.91514180161E+02 0.  0.
         11    1    3    3    0    0 -0.24071129442E+02  0.25810082560E+02 -0.71058615821E+01  0.36001012534E+02  0.51100000000E-03 0.  1.
         22    1    1    0    0    0 -0.14447543358E+02  0.83295052597E+01 -0.23726014285E+02  0.29000619318E+02  0.00000000000E+00 0. -1.
</event>
<event>
 5    1  0.8962567E-005  0.9118800E+02  0.7818608E-02  0.1130116E+00
         25   -1    0    0    0    0  0.00000000000E+00  0.00000000000E+00  0.99999998245E-14  0.12500000000E+03  0.12500000000E+03 0.  0.
        -11    1    3    3    0    0 -0.38952094784E+02  0.15361674486E+02 -0.64401565808E+01  0.42364163489E+02  0.51100000000E-03 0. -1.
         23    2    1    0    0    0 -0.48259820527E+01 -0.26541450391E+02 -0.92582060764E+01  0.96478901295E+02  0.92166834185E+02 0.  0.
         11    1    3    3    0    0  0.34126112731E+02 -0.41903124877E+02 -0.28180494956E+01  0.54114737806E+02  0.51100000000E-03 0.  1.
         22    1    1    0    0    0  0.48259820527E+01  0.26541450391E+02  0.92582060764E+01  0.28521098705E+02  0.00000000000E+00 0.  1.
</event>
<event>
 5    1  0.8962567E-005  0.9118800E+02  0.7818608E-02  0.1130116E+00
         25   -1    0    0    0    0  0.00000000000E+00  0.00000000000E+00  0.99999998245E-14  0.12500000000E+03  0.12500000000E+03 0.  0.
        -11    1    3    3    0    0 -0.42958988695E+02  0.11904456985E+02  0.40739730551E+02  0.60389704846E+02  0.51100000000E-03 0.  1.
         23    2    1    0    0    0 -0.27033217033E+02 -0.50704712937E+00  0.12230996499E+02  0.95324265884E+02  0.90587341671E+02 0.  0.
         11    1    3    3    0    0  0.15925771662E+02 -0.12411504114E+02 -0.28508734052E+02  0.34934561038E+02  0.51100000000E-03 0. -1.
         22    1    1    0    0    0  0.27033217033E+02  0.50704712937E+00 -0.12230996499E+02  0.29675734116E+02  0.00000000000E+00 0.  1.
</event>
<event>
 5    1  0.8962567E-005  0.9118800E+02  0.7818608E-02  0.1130116E+00
         25   -1    0    0    0    0  0.00000000000E+00  0.00000000000E+00  0.99999998245E-14  0.12500000000E+03  0.12500000000E+03 0.  0.
        -11    1    3    3    0    0  0.28349073279E+02  0.71205769151E+01  0.30141066110E+02  0.41986383958E+02  0.51100000000E-03 0.  1.
         23    2    1    0    0    0  0.50913103540E+01  0.38070451027E+02  0.11851488781E+02  0.84803750563E+02  0.74672201258E+02 0.  0.
         11    1    3    3    0    0 -0.23257762926E+02  0.30949874112E+02 -0.18289577329E+02  0.42817366605E+02  0.51100000000E-03 0. -1.
         22    1    1    0    0    0 -0.50913103540E+01 -0.38070451027E+02 -0.11851488781E+02  0.40196249437E+02  0.00000000000E+00 0.  1.
</event>
<event>
 5    1  0.8962567E-005  0.9118800E+02  0.7818608E-02  0.1130116E+00
         25   -1    0    0    0    0  0.00000000000E+00  0.00000000000E+00  0.99999998245E-14  0.12500000000E+03  0.12500000000E+03 0.  0.
        -11    1    3    3    0    0  0.25145211047E+02  0.38145670903E+02  0.52571644945E+01  0.45989255550E+02  0.51100000000E-03 0. -1.
         23    2    1    0    0    0  0.87444285528E+01  0.34401207946E+01 -0.27177851980E+02  0.96243520729E+02  0.91847047761E+02 0.  0.
         11    1    3    3    0    0 -0.16400782495E+02 -0.34705550108E+02 -0.32435016474E+02  0.50254265179E+02  0.51100000000E-03 0.  1.
         22    1    1    0    0    0 -0.87444285528E+01 -0.34401207946E+01  0.27177851980E+02  0.28756479271E+02  0.00000000000E+00 0.  1.
</event>
<event>
 5    1  0.8962567E-005  0.9118800E+02  0.7818608E-02  0.1130116E+00
         25   -1    0    0    0    0  0.00000000000E+00  0.00000000000E+00  0.99999998245E-14  0.12500000000E+03  0.12500000000E+03 0.  0.
        -11    1    3    3    0    0  0.51629914020E+02 -0.24363214490E+02 -0.21449797171E+01  0.57129809909E+02  0.51100000000E-03 0. -1.
         23    2    1    0    0    0  0.21537810468E+02 -0.14591835841E+02  0.16823327633E+02  0.94018984755E+02  0.88767934463E+02 0.  0.
         11    1    3    3    0    0 -0.30092103552E+02  0.97713786490E+01  0.18968307350E+02  0.36889174846E+02  0.51100000000E-03 0.  1.
         22    1    1    0    0    0 -0.21537810468E+02  0.14591835841E+02 -0.16823327633E+02  0.30981015245E+02  0.00000000000E+00 0. -1.
</event>
<event>
 5    1  0.8962567E-005  0.9118800E+02  0.7818608E-02  0.1130116E+00
         25   -1    0    0    0    0  0.00000000000E+00  0.00000000000E+00  0.99999998245E-14  0.12500000000E+03  0.12500000000E+03 0.  0.
        -11    1    3    3    0    0 -0.43331872108E+01 -0.36036818573E+02 -0.11663842514E+02  0.38124454445E+02  0.51100000000E-03 0.  1.
         23    2    1    0    0    0 -0.15746623402E+02  0.18292937235E+02 -0.19211524780E+02  0.94150844653E+02  0.88953421313E+02 0.  0.
         11    1    3    3    0    0 -0.11413436191E+02  0.54329755808E+02 -0.75476822665E+01  0.56026390208E+02  0.51100000000E-03 0. -1.
         22    1    1    0    0    0  0.15746623402E+02 -0.18292937235E+02  0.19211524780E+02  0.30849155347E+02  0.00000000000E+00 0. -1.
</event>
<event>
 5    1  0.8962567E-005  0.9118800E+02  0.7818608E-02  0.1130116E+00
         25   -1    0    0    0    0  0.00000000000E+00  0.00000000000E+00  0.99999998245E-14  0.12500000000E+03  0.12500000000E+03 0.  0.
        -11    1    3    3    0    0  0.47943230308E+02 -0.28404575344E+02 -0.26970322849E+02  0.61909381742E+02  0.51100000000E-03 0.  1.
         23    2    1    0    0    0  0.23970757828E+02 -0.19663250880E+02 -0.10561011720E+02  0.92246746199E+02  0.86236225275E+02 0.  0.
         11    1    3    3    0    0 -0.23972472480E+02  0.87413244638E+01  0.16409311129E+02  0.30337364456E+02  0.51100000000E-03 0. -1.
         22    1    1    0    0    0 -0.23970757828E+02  0.19663250880E+02  0.10561011720E+02  0.32753253801E+02  0.00000000000E+00 0.  1.
</event>
<event>
 5    1  0.8962567E-005  0.9118800E+02  0.7818608E-02  0.1130116E+00
         25   -1    0    0    0    0  0.00000000000E+00  0.00000000000E+00  0.99999998245E-14  0.12500000000E+03  0.12500000000E+03 0.  0.
        -11    1    3    3    0    0 -0.25812070727E+02  0.13680213113E+02  0.34375642876E+02  0.45112038853E+02  0.51100000000E-03 0. -1.
         23    2    1    0    0    0  0.10115072300E+01  0.28712988080E+02 -0.57852484981E+01  0.95692527718E+02  0.91094082846E+02 0.  0.
         11    1    3    3    0    0  0.26823577957E+02  0.15032774967E+02 -0.40160891374E+02  0.50580488866E+02  0.51100000000E-03 0.  1.
         22    1    1    0    0    0 -0.10115072300E+01 -0.28712988080E+02  0.57852484981E+01  0.29307472282E+02  0.00000000000E+00 0.  1.
</event>
<event>
 5    1  0.8962567E-005  0.9118800E+02  0.7818608E-02  0.1130116E+00
         25   -1    0    0    0    0  0.00000000000E+00  0.00000000000E+00  0.99999998245E-14  0.12500000000E+03  0.12500000000E+03 0.  0.
        -11    1    3    3    0    0 -0.31264407120E+01 -0.48082360083E+02 -0.38568131629E+02  0.61718625716E+02  0.51100000000E-03 0. -1.
         23    2    1    0    0    0 -0.75541343210E+01 -0.29470421874E+02 -0.18756950085E+02  0.89259352451E+02  0.81791430558E+02 0.  0.
         11    1    3    3    0    0 -0.44276936090E+01  0.18611938210E+02  0.19811181544E+02  0.27540726734E+02  0.51100000000E-03 0.  1.
         22    1    1    0    0    0  0.75541343210E+01  0.29470421874E+02  0.18756950085E+02  0.35740647549E+02  0.00000000000E+00 0. -1.
</event>
<event>
 5    1  0.8962567E-005  0.9118800E+02  0.7818608E-02  0.1130116E+00
         25   -1    0    0    0    0  0.00000000000E+00  0.00000000000E+00  0.99999998245E-14  0.12500000000E+03  0.12500000000E+03 0.  0.
        -11    1    3    3    0    0 -0.46253812220E+02 -0.22895044868E+02  0.25830783346E+02  0.57713322491E+02  0.51100000000E-03 0.  1.
         23    2    1    0    0    0 -0.14340782168E+02 -0.19665529073E+02  0.25440757473E+02  0.89791716774E+02  0.82601024167E+02 0.  0.
         11    1    3    3    0    0  0.31913030051E+02  0.32295157949E+01 -0.39002587346E+00  0.32078394283E+02  0.51100000000E-03 0. -1.
         22    1    1    0    0    0  0.14340782168E+02  0.19665529073E+02 -0.25440757473E+02  0.35208283226E+02  0.00000000000E+00 0.  1.
</event>
<event>
 5    1  0.8962567E-005  0.9118800E+02  0.7818608E-02  0.1130116E+00
         25   -1    0    0    0    0  0.00000000000E+00  0.00000000000E+00  0.99999998245E-14  0.12500000000E+03  0.12500000000E+03 0.  0.
        -11    1    3    3    0    0 -0.18826908447E+02 -0.20626069131E+02 -0.53106361418E+02  0.60001440256E+02  0.51100000000E-03 0. -1.
         23    2    1    0    0    0 -0.13498224177E+02  0.19100453164E+01 -0.25918247018E+02  0.95715091642E+02  0.91125039976E+02 0.  0.
         11    1    3    3    0    0  0.53286842701E+01  0.22536114448E+02  0.27188114400E+02  0.35713651386E+02  0.51100000000E-03 0.  1.
         22    1    1    0    0    0  0.13498224177E+02 -0.19100453164E+01  0.25918247018E+02  0.29284908358E+02  0.00000000000E+00 0. -1.
</event>
<event>
 5    1  0.8962567E-005  0.9118800E+02  0.7818608E-02  0.1130116E+00
         25   -1    0    0    0    0  0.00000000000E+00  0.00000000000E+00  0.99999998245E-14  0.12500000000E+03  0.12500000000E+03 0.  0.
        -11    1    3    3    0    0  0.40290134819E+02 -0.27363613095E+02 -0.35121853267E+02  0.60046705676E+02  0.51100000000E-03 0.  1.
         23    2    1    0    0    0  0.17253631916E+02 -0.21447460992E+02 -0.75543127061E+01  0.96456190903E+02  0.92136028381E+02 0.  0.
         11    1    3    3    0    0 -0.23036502903E+02  0.59161521029E+01  0.27567540561E+02  0.36409485227E+02  0.51100000000E-03 0. -1.
         22    1    1    0    0    0 -0.17253631916E+02  0.21447460992E+02  0.75543127061E+01  0.28543809097E+02  0.00000000000E+00 0.  1.
</event>
<event>
 5    1  0.8962567E-005  0.9118800E+02  0.7818608E-02  0.1130116E+00
         25   -1    0    0    0    0  0.00000000000E+00  0.00000000000E+00  0.99999998245E-14  0.12500000000E+03  0.12500000000E+03 0.  0.
        -11    1    3    3    0    0 -0.19152759073E+02 -0.27524997523E+02  0.45678395200E+02  0.56665416764E+02  0.51100000000E-03 0. -1.
         23    2    1    0    0    0  0.60005963305E+01 -0.48313465367E+01  0.30057423115E+02  0.93971017581E+02  0.88700362993E+02 0.  0.
         11    1    3    3    0    0  0.25153355404E+02  0.22693650986E+02 -0.15620972085E+02  0.37305600817E+02  0.51100000000E-03 0.  1.
         22    1    1    0    0    0 -0.60005963305E+01  0.48313465367E+01 -0.30057423115E+02  0.31028982419E+02  0.00000000000E+00 0. -1.
</event>
<event>
 5    1  0.8962567E-005  0.9118800E+02  0.7818608E-02  0.1130116E+00
         25   -1    0    0    0    0  0.00000000000E+00  0.00000000000E+00  0.99999998245E-14  0.12500000000E+03  0.12500000000E+03 0.  0.
        -11    1    3    3    0    0  0.35276431384E+02 -0.13774422670E+02  0.13884153694E+02  0.40335233421E+02  0.51100000000E-03 0.  1.
         23    2    1    0    0    0  0.15102896816E+02  0.12714296981E+02 -0.26040569751E+02  0.92321840429E+02  0.86345006267E+02 0.  0.
         11    1    3    3    0    0 -0.20173534568E+02  0.26488719652E+02 -0.39924723445E+02  0.51986607008E+02  0.51100000000E-03 0. -1.
         22    1    1    0    0    0 -0.15102896816E+02 -0.12714296981E+02  0.26040569751E+02  0.32678159571E+02  0.00000000000E+00 0. -1.
</event>
<event>
 5    1  0.8962567E-005  0.9118800E+02  0.7818608E-02  0.1130116E+00
         25   -1    0    0    0    0  0.00000000000E+00  0.00000000000E+00  0.99999998245E-14  0.12500000000E+03  0.12500000000E+03 0.  0.
        -11    1    3    3    0    0  0.22371542726E+02  0.19411078986E+02  0.21644967587E+02  0.36684881538E+02  0.51100000000E-03 0.  1.
         23    2    1    0    0    0  0.69943031385E+01 -0.20700266032E+02 -0.19164105880E+02  0.95936547962E+02  0.91428316131E+02 0.  0.
         11    1    3    3    0    0 -0.15377239588E+02 -0.40111345018E+02 -0.40809073467E+02  0.59251666424E+02  0.51100000000E-03 0. -1.
         22    1    1    0    0    0 -0.69943031385E+01  0.20700266032E+02  0.19164105880E+02  0.29063452038E+02  0.00000000000E+00 0. -1.
</event>
<event>
 5    1  0.8962567E-005  0.9118800E+02  0.7818608E-02  0.1130116E+00
         25   -1    0    0    0    0  0.00000000000E+00  0.00000000000E+00  0.99999998245E-14  0.12500000000E+03  0.12500000000E+03 0.  0.
        -11    1    3    3    0    0 -0.33689188520E+02  0.54896378707E+01 -0.33120484969E+01  0.34293836365E+02  0.51100000000E-03 0.  1.
         23    2    1    0    0    0  0.26541674712E+02 -0.82548706467E+01 -0.74858851665E+01  0.96213859886E+02  0.91806671716E+02 0.  0.
         11    1    3    3    0    0  0.60230863232E+02 -0.13744508517E+02 -0.41738366697E+01  0.61920023522E+02  0.51100000000E-03 0. -1.
         22    1    1    0    0    0 -0.26541674712E+02  0.82548706467E+01  0.74858851665E+01  0.28786140114E+02  0.00000000000E+00 0. -1.
</event>
<event>
 5    1  0.8962567E-005  0.9118800E+02  0.7818608E-02  0.1130116E+00
         25   -1    0    0    0    0  0.00000000000E+00  0.00000000000E+00  0.99999998245E-14  0.12500000000E+03  0.12500000000E+03 0.  0.
        -11    1    3    3    0    0 -0.37908864267E+02 -0.44060201944E+02  0.12765150922E+01  0.58137878155E+02  0.51100000000E-03 0. -1.
         23    2    1    0    0    0 -0.44232073384E+01 -0.30331249804E+02  0.10075217987E+00  0.94347763070E+02  0.89229707875E+02 0.  0.
         11    1    3    3    0    0  0.33485656929E+02  0.13728952140E+02 -0.11757629124E+01  0.36209884914E+02  0.51100000000E-03 0.  1.
         22    1    1    0    0    0  0.44232073384E+01  0.30331249804E+02 -0.10075217987E+00  0.30652236930E+02  0.00000000000E+00 0. -1.
</event>
<event>
 5    1  0.8962567E-005  0.9118800E+02  0.7818608E-02  0.1130116E+00
         25   -1    0    0    0    0  0.00000000000E+00  0.00000000000E+00  0.99999998245E-14  0.12500000000E+03  0.12500000000E+03 0.  0.
        -11    1    3    3    0    0 -0.35146851406E+01  0.31747669079E+02  0.51541773938E+02  0.60636803713E+02  0.51100000000E-03 0.  1.
         23    2    1    0    0    0 -0.77016044831E+01  0.23177210988E+02  0.20492027767E+02  0.93118641453E+02  0.87490915890E+02 0.  0.
         11    1    3    3    0    0 -0.41869193426E+01 -0.85704580909E+01 -0.31049746170E+02  0.32481837740E+02  0.51100000000E-03 0. -1.
         22    1    1    0    0    0  0.77016044831E+01 -0.23177210988E+02 -0.20492027767E+02  0.31881358547E+02  0.00000000000E+00 0.  1.
</event>
<event>
 5    1  0.8962567E-005  0.9118800E+02  0.7818608E-02  0.1130116E+00
         25   -1    0    0    0    0  0.00000000000E+00  0.00000000000E+00  0.99999998245E-14  0.12500000000E+03  0.12500000000E+03 0.  0.
        -11    1    3    3    0    0  0.34487868529E+02 -0.84384298555E+01 -0.48860899808E+01  0.35839838862E+02  0.51100000000E-03 0.  1.
         23    2    1    0    0    0 -0.19063068602E+02 -0.73896511961E+01 -0.24688888315E+02  0.92944598964E+02  0.87241903585E+02 0.  0.
         11    1    3    3    0    0 -0.53550937131E+02  0.10487786594E+01 -0.19802798334E+02  0.57104760103E+02  0.51100000000E-03 0. -1.
         22    1    1    0    0    0  0.19063068602E+02  0.73896511961E+01  0.24688888315E+02  0.32055401036E+02  0.00000000000E+00 0. -1.
</event>
<event>
 5    1  0.8962567E-005  0.9118800E+02  0.7818608E-02  0.1130116E+00
         25   -1    0    0    0    0  0.00000000000E+00  0.00000000000E+00  0.99999998245E-14  0.12500000000E+03  0.12500000000E+03 0.  0.
        -11    1    3    3    0    0  0.29874840418E+02  0.38984197572E+01 -0.18187390813E+02  0.35192114905E+02  0.51100000000E-03 0. -1.
         23    2    1    0    0    0 -0.11602184746E+02 -0.20432147999E+02  0.18022642977E+02  0.95387519141E+02  0.90674581804E+02 0.  0.
         11    1    3    3    0    0 -0.41477025165E+02 -0.24330567756E+02  0.36210033790E+02  0.60195404236E+02  0.51100000000E-03 0.  1.
         22    1    1    0    0    0  0.11602184746E+02  0.20432147999E+02 -0.18022642977E+02  0.29612480859E+02  0.00000000000E+00 0.  1.
</event>
<event>
 5    1  0.8962567E-005  0.9118800E+02  0.7818608E-02  0.1130116E+00
         25   -1    0    0    0    0  0.00000000000E+00  0.00000000000E+00  0.99999998245E-14  0.12500000000E+03  0.12500000000E+03 0.  0.
        -11    1    3    3    0    0  0.20531599229E+02  0.32458426693E+01  0.24410291121E+02  0.32061571615E+02  0.51100000000E-03 0. -1.
         23    2    1    0    0    0 -0.27847107316E+02 -0.57792874857E+01 -0.12852199164E+02  0.93790376916E+02  0.88445430798E+02 0.  0.
         11    1    3    3    0    0 -0.48378706545E+02 -0.90251301550E+01 -0.37262490285E+02  0.61728805301E+02  0.51100000000E-03 0.  1.
         22    1    1    0    0    0  0.27847107316E+02  0.57792874857E+01  0.12852199164E+02  0.31209623084E+02  0.00000000000E+00 0.  1.
</event>
<event>
 5    1  0.8962567E-005  0.9118800E+02  0.7818608E-02  0.1130116E+00
         25   -1    0    0    0    0  0.00000000000E+00  0.00000000000E+00  0.99999998245E-14  0.12500000000E+03  0.12500000000E+03 0.  0.
        -11    1    3    3    0    0 -0.22310918367E+02  0.25004864185E+02  0.10188154033E+02  0.35025973136E+02  0.51100000000E-03 0. -1.
         23    2    1    0    0    0  0.95956168990E+01 -0.10929263588E+02 -0.26017376993E+02  0.95193481051E+02  0.90406693683E+02 0.  0.
         11    1    3    3    0    0  0.31906535266E+02 -0.35934127774E+02 -0.36205531026E+02  0.60167507915E+02  0.51100000000E-03 0.  1.
         22    1    1    0    0    0 -0.95956168990E+01  0.10929263588E+02  0.26017376993E+02  0.29806518949E+02  0.00000000000E+00 0.  1.
</event>
<event>
 5    1  0.8962567E-005  0.9118800E+02  0.7818608E-02  0.1130116E+00
         25   -1    0    0    0    0  0.00000000000E+00  0.00000000000E+00  0.99999998245E-14  0.12500000000E+03  0.12500000000E+03 0.  0.
        -11    1    3    3    0    0  0.23936402448E+02 -0.14242292250E+02 -0.10644133054E+02  0.29817642754E+02  0.51100000000E-03 0. -1.
         23    2    1    0    0    0  0.16079725479E+01  0.15128310702E+02  0.34010464481E+02  0.87741939736E+02  0.79438560750E+02 0.  0.
         11    1    3    3    0    0 -0.22328429900E+02  0.29370602952E+02  0.44654597535E+02  0.57924296982E+02  0.51100000000E-03 0.  1.
         22    1    1    0    0    0 -0.16079725479E+01 -0.15128310702E+02 -0.34010464481E+02  0.37258060264E+02  0.00000000000E+00 0.  1.
</event>
<event>
 5    1  0.8962567E-005  0.9118800E+02  0.7818608E-02  0.1130116E+00
         25   -1    0    0    0    0  0.00000000000E+00  0.00000000000E+00  0.99999998245E-14  0.12500000000E+03  0.12500000000E+03 0.  0.
        -11    1    3    3    0    0 -0.65344188219E+01  0.58408384590E+02 -0.16729038871E+02  0.61107272575E+02  0.51100000000E-03 0.  1.
         23    2    1    0    0    0  0.14134462849E+01  0.28617127603E+02  0.33216665921E+00  0.96346062097E+02  0.91986496424E+02 0.  0.
         11    1    3    3    0    0  0.79478651067E+01 -0.29791256987E+02  0.17061205530E+02  0.35238789523E+02  0.51100000000E-03 0. -1.
         22    1    1    0    0    0 -0.14134462849E+01 -0.28617127603E+02 -0.33216665921E+00  0.28653937903E+02  0.00000000000E+00 0.  1.
</event>
<event>
 5    1  0.8962567E-005  0.9118800E+02  0.7818608E-02  0.1130116E+00
         25   -1    0    0    0    0  0.00000000000E+00  0.00000000000E+00  0.99999998245E-14  0.12500000000E+03  0.12500000000E+03 0.  0.
        -11    1    3    3    0    0 -0.33652641460E+02 -0.14652427558E+02  0.79612371898E+01  0.37557625170E+02  0.51100000000E-03 0. -1.
         23    2    1    0    0    0  0.21223962309E+02 -0.14117981829E+02  0.18582323511E+02  0.93455163115E+02  0.87970397173E+02 0.  0.
         11    1    3    3    0    0  0.54876603769E+02  0.53444572854E+00  0.10621086321E+02  0.55897537945E+02  0.51100000000E-03 0.  1.
         22    1    1    0    0    0 -0.21223962309E+02  0.14117981829E+02 -0.18582323511E+02  0.31544836885E+02  0.00000000000E+00 0.  1.
</event>
<event>
 5    1  0.8962567E-005  0.9118800E+02  0.7818608E-02  0.1130116E+00
         25   -1    0    0    0    0  0.00000000000E+00  0.00000000000E+00  0.99999998245E-14  0.12500000000E+03  0.12500000000E+03 0.  0.
        -11    1    3    3    0    0 -0.54281362111E+02  0.21330256611E+01 -0.98239338415E+01  0.55204399711E+02  0.51100000000E-03 0. -1.
         23    2    1    0    0    0 -0.20206065346E+02 -0.16866920957E+02  0.71108574282E+01  0.97735693797E+02  0.93855865290E+02 0.  0.
         11    1    3    3    0    0  0.34075296764E+02 -0.18999946618E+02  0.16934791270E+02  0.42531294086E+02  0.51100000000E-03 0.  1.
         22    1    1    0    0    0  0.20206065346E+02  0.16866920957E+02 -0.71108574282E+01  0.27264306203E+02  0.00000000000E+00 0.  1.
</event>
<event>
 5    1  0.8962567E-005  0.9118800E+02  0.7818608E-02  0.1130116E+00
         25   -1    0    0    0    0  0.00000000000E+00  0.00000000000E+00  0.99999998245E-14  0.12500000000E+03  0.12500000000E+03 0.  0.
        -11    1    3    3    0    0  0.23534646163E+02  0.33439324494E+02 -0.45980875930E+02  0.61532990698E+02  0.51100000000E-03 0.  1.
         23    2    1    0    0    0  0.14210871044E+02  0.98931916148E+01 -0.25860933022E+02  0.93877468726E+02  0.88568432195E+02 0.  0.
         11    1    3    3    0    0 -0.93237751189E+01 -0.23546132879E+02  0.20119942909E+02  0.32344478028E+02  0.51100000000E-03 0. -1.
         22    1    1    0    0    0 -0.14210871044E+02 -0.98931916148E+01  0.25860933022E+02  0.31122531274E+02  0.00000000000E+00 0.  1.
</event>
<event>
 5    1  0.8962567E-005  0.9118800E+02  0.7818608E-02  0.1130116E+00
         25   -1    0    0    0    0  0.00000000000E+00  0.00000000000E+00  0.99999998245E-14  0.12500000000E+03  0.12500000000E+03 0.  0.
        -11    1    3    3    0    0  0.28828944383E+02  0.38083434099E+02  0.30652460530E+02  0.56754112836E+02  0.51100000000E-03 0. -1.
         23    2    1    0    0    0  0.21565959319E+02  0.20484662696E+02 -0.26745945565E+01  0.95135883352E+02  0.90327021638E+02 0.  0.
         11    1    3    3    0    0 -0.72629850643E+01 -0.17598771403E+02 -0.33327055087E+02  0.38381770516E+02  0.51100000000E-03 0.  1.
         22    1    1    0    0    0 -0.21565959319E+02 -0.20484662696E+02  0.26745945565E+01  0.29864116648E+02  0.00000000000E+00 0. -1.
</event>
<event>
 5    1  0.8962567E-005  0.9118800E+02  0.7818608E-02  0.1130116E+00
         25   -1    0    0    0    0  0.00000000000E+00  0.00000000000E+00  0.99999998245E-14  0.12500000000E+03  0.12500000000E+03 0.  0.
        -11    1    3    3    0    0 -0.69889894651E+01  0.38751393186E+02  0.25946340563E+02  0.47156431549E+02  0.51100000000E-03 0. -1.
         23    2    1    0    0    0 -0.29619185216E+02  0.36239838300E+01  0.25381704911E+01  0.95052183701E+02  0.90211118634E+02 0.  0.
         11    1    3    3    0    0 -0.22630195751E+02 -0.35127409356E+02 -0.23408170072E+02  0.47895752151E+02  0.51100000000E-03 0.  1.
         22    1    1    0    0    0  0.29619185216E+02 -0.36239838300E+01 -0.25381704911E+01  0.29947816299E+02  0.00000000000E+00 0.  1.
</event>
<event>
 5    1  0.8962567E-005  0.9118800E+02  0.7818608E-02  0.1130116E+00
         25   -1    0    0    0    0  0.00000000000E+00  0.00000000000E+00  0.99999998245E-14  0.12500000000E+03  0.12500000000E+03 0.  0.
        -11    1    3    3    0    0 -0.21521955360E+02  0.38861947148E+02 -0.16046622352E+02  0.47232823204E+02  0.51100000000E-03 0.  1.
         23    2    1    0    0    0 -0.28897809249E+02 -0.64460038450E+01 -0.16327092339E+01  0.95347005473E+02  0.90618714228E+02 0.  0.
         11    1    3    3    0    0 -0.73758538887E+01 -0.45307950993E+02  0.14413913118E+02  0.48114182269E+02  0.51100000000E-03 0. -1.
         22    1    1    0    0    0  0.28897809249E+02  0.64460038450E+01  0.16327092339E+01  0.29652994527E+02  0.00000000000E+00 0. -1.
</event>
<event>
 5    1  0.8962567E-005  0.9118800E+02  0.7818608E-02  0.1130116E+00
         25   -1    0    0    0    0  0.00000000000E+00  0.00000000000E+00  0.99999998245E-14  0.12500000000E+03  0.12500000000E+03 0.  0.
        -11    1    3    3    0    0 -0.40179523103E+00  0.26812885966E+02  0.17856093061E+02  0.32216957536E+02  0.51100000000E-03 0. -1.
         23    2    1    0    0    0  0.27568043027E+02 -0.15475628167E+02 -0.12148622391E+02  0.91131414415E+02  0.84604099214E+02 0.  0.
         11    1    3    3    0    0  0.27969838258E+02 -0.42288514133E+02 -0.30004715451E+02  0.58914456879E+02  0.51100000000E-03 0.  1.
         22    1    1    0    0    0 -0.27568043027E+02  0.15475628167E+02  0.12148622391E+02  0.33868585585E+02  0.00000000000E+00 0.  1.
</event>
<event>
 5    1  0.8962567E-005  0.9118800E+02  0.7818608E-02  0.1130116E+00
         25   -1    0    0    0    0  0.00000000000E+00  0.00000000000E+00  0.99999998245E-14  0.12500000000E+03  0.12500000000E+03 0.  0.
        -11    1    3    3    0    0 -0.15825666606E+02 -0.48378772988E+02 -0.19294082271E+02  0.54435457290E+02  0.51100000000E-03 0. -1.
         23    2    1    0    0    0 -0.21280012451E+02 -0.72634739393E+01 -0.18440838531E+02  0.95919740212E+02  0.91405333833E+02 0.  0.
         11    1    3    3    0    0 -0.54543458447E+01  0.41115299049E+02  0.85324373954E+00  0.41484282923E+02  0.51100000000E-03 0.  1.
         22    1    1    0    0    0  0.21280012451E+02  0.72634739393E+01  0.18440838531E+02  0.29080259788E+02  0.00000000000E+00 0. -1.
</event>
<event>
 5    1  0.8962567E-005  0.9118800E+02  0.7818608E-02  0.1130116E+00
         25   -1    0    0    0    0  0.00000000000E+00  0.00000000000E+00  0.99999998245E-14  0.12500000000E+03  0.12500000000E+03 0.  0.
        -11    1    3    3    0    0  0.20880595514E+02 -0.26253785593E+02  0.23580030844E+02  0.41003394760E+02  0.51100000000E-03 0.  1.
         23    2    1    0    0    0 -0.17058631957E+02  0.10348417998E+02  0.24086520378E+02  0.93723057323E+02  0.88350236732E+02 0.  0.
         11    1    3    3    0    0 -0.37939227471E+02  0.36602203591E+02  0.50648953401E+00  0.52719662562E+02  0.51100000000E-03 0. -1.
         22    1    1    0    0    0  0.17058631957E+02 -0.10348417998E+02 -0.24086520378E+02  0.31276942677E+02  0.00000000000E+00 0. -1.
</event>
<event>
 5    1  0.8962567E-005  0.9118800E+02  0.7818608E-02  0.1130116E+00
         25   -1    0    0    0    0  0.00000000000E+00  0.00000000000E+00  0.99999998245E-14  0.12500000000E+03  0.12500000000E+03 0.  0.
        -11    1    3    3    0    0  0.40725988128E+02 -0.50193249124E+01 -0.10960741313E+02  0.42472786369E+02  0.51100000000E-03 0. -1.
         23    2    1    0    0    0  0.75910950119E+01  0.75542813478E+01  0.27928681843E+02  0.95088410948E+02  0.90261302544E+02 0.  0.
         11    1    3    3    0    0 -0.33134893116E+02  0.12573606260E+02  0.38889423155E+02  0.52615624579E+02  0.51100000000E-03 0.  1.
         22    1    1    0    0    0 -0.75910950119E+01 -0.75542813478E+01 -0.27928681843E+02  0.29911589052E+02  0.00000000000E+00 0.  1.
</event>
<event>
 5    1  0.8962567E-005  0.9118800E+02  0.7818608E-02  0.1130116E+00
         25   -1    0    0    0    0  0.00000000000E+00  0.00000000000E+00  0.99999998245E-14  0.12500000000E+03  0.12500000000E+03 0.  0.
        -11    1    3    3    0    0  0.30757775885E+02  0.15030240949E+02  0.12104955541E+01  0.34255134216E+02  0.51100000000E-03 0.  1.
         23    2    1    0    0    0 -0.28006931661E+02  0.87942917921E-01  0.94379823517E+01  0.95445449321E+02  0.90754406671E+02 0.  0.
         11    1    3    3    0    0 -0.58764707546E+02 -0.14942298031E+02  0.82274867976E+01  0.61190315105E+02  0.51100000000E-03 0. -1.
         22    1    1    0    0    0  0.28006931661E+02 -0.87942917921E-01 -0.94379823517E+01  0.29554550679E+02  0.00000000000E+00 0. -1.
</event>
<event>
 5    1  0.8962567E-005  0.9118800E+02  0.7818608E-02  0.1130116E+00
         25   -1    0    0    0    0  0.00000000000E+00  0.00000000000E+00  0.99999998245E-14  0.12500000000E+03  0.12500000000E+03 0.  0.
        -11    1    3    3    0    0 -0.57574750800E+01 -0.40206382275E+02  0.34671134645E+02  0.53402146706E+02  0.51100000000E-03 0. -1.
         23    2    1    0    0    0 -0.50077792377E+01 -0.27449487076E+02 -0.63639094056E+01  0.96380923555E+02  0.92033857296E+02 0.  0.
         11    1    3    3    0    0  0.74969584234E+00  0.12756895199E+02 -0.41035044051E+02  0.42978776850E+02  0.51100000000E-03 0.  1.
         22    1    1    0    0    0  0.50077792377E+01  0.27449487076E+02  0.63639094056E+01  0.28619076445E+02  0.00000000000E+00 0. -1.
</event>
<event>
 5    1  0.8962567E-005  0.9118800E+02  0.7818608E-02  0.1130116E+00
         25   -1    0    0    0    0  0.00000000000E+00  0.00000000000E+00  0.99999998245E-14  0.12500000000E+03  0.12500000000E+03 0.  0.
        -11    1    3    3    0    0 -0.27260382867E+02 -0.22906049629E+02  0.41767762289E+01  0.35850537564E+02  0.51100000000E-03 0.  1.
         23    2    1    0    0    0  0.17126448240E+02  0.10420600667E+02  0.23026424115E+02  0.94469353838E+02  0.89399879527E+02 0.  0.
         11    1    3    3    0    0  0.44386831107E+02  0.33326650297E+02  0.18849647886E+02  0.58618816274E+02  0.51100000000E-03 0. -1.
         22    1    1    0    0    0 -0.17126448240E+02 -0.10420600667E+02 -0.23026424115E+02  0.30530646162E+02  0.00000000000E+00 0. -1.
</event>
<event>
 5    1  0.8962567E-005  0.9118800E+02  0.7818608E-02  0.1130116E+00
         25   -1    0    0    0    0  0.00000000000E+00  0.00000000000E+00  0.99999998245E-14  0.12500000000E+03  0.12500000000E+03 0.  0.
        -11    1    3    3    0    0  0.21304457696E+02  0.49911839709E+02 -0.25483261248E+02  0.59953884486E+02  0.51100000000E-03 0. -1.
         23    2    1    0    0    0  0.16715008111E+02  0.15021654908E+02 -0.18637144731E+02  0.95804370600E+02  0.91247425444E+02 0.  0.
         11    1    3    3    0    0 -0.45894495845E+01 -0.34890184802E+02  0.68461165173E+01  0.35850486114E+02  0.51100000000E-03 0.  1.
         22    1    1    0    0    0 -0.16715008111E+02 -0.15021654908E+02  0.18637144731E+02  0.29195629400E+02  0.00000000000E+00 0. -1.
</event>
<event>
 5    1  0.8962567E-005  0.9118800E+02  0.7818608E-02  0.1130116E+00
         25   -1    0    0    0    0  0.00000000000E+00  0.00000000000E+00  0.99999998245E-14  0.12500000000E+03  0.12500000000E+03 0.  0.
        -11    1    3    3    0    0 -0.69125524969E+01  0.40233748773E+02 -0.81122078003E+01  0.41621458865E+02  0.51100000000E-03 0. -1.
         23    2    1    0    0    0 -0.17290764865E+02 -0.15907823761E+01  0.24009936006E+02  0.95369303667E+02  0.90649467272E+02 0.  0.
         11    1    3    3    0    0 -0.10378212368E+02 -0.41824531150E+02  0.32122143807E+02  0.53747844802E+02  0.51100000000E-03 0.  1.
         22    1    1    0    0    0  0.17290764865E+02  0.15907823761E+01 -0.24009936006E+02  0.29630696333E+02  0.00000000000E+00 0.  1.
</event>
<event>
 5    1  0.8962567E-005  0.9118800E+02  0.7818608E-02  0.1130116E+00
         25   -1    0    0    0    0  0.00000000000E+00  0.00000000000E+00  0.99999998245E-14  0.12500000000E+03  0.12500000000E+03 0.  0.
        -11    1    3    3    0    0  0.24098877293E+02  0.18708163208E+02 -0.13377421407E+02  0.33312259923E+02  0.51100000000E-03 0.  1.
         23    2    1    0    0    0 -0.26561592443E+02  0.50861606096E+01  0.16139484526E+02  0.93506029409E+02  0.88042645077E+02 0.  0.
         11    1    3    3    0    0 -0.50660469736E+02 -0.13622002599E+02  0.29516905934E+02  0.60193769485E+02  0.51100000000E-03 0. -1.
         22    1    1    0    0    0  0.26561592443E+02 -0.50861606096E+01 -0.16139484526E+02  0.31493970591E+02  0.00000000000E+00 0. -1.
</event>
<event>
 5    1  0.8962567E-005  0.9118800E+02  0.7818608E-02  0.1130116E+00
         25   -1    0    0    0    0  0.00000000000E+00  0.00000000000E+00  0.99999998245E-14  0.12500000000E+03  0.12500000000E+03 0.  0.
        -11    1    3    3    0    0  0.38948255366E+02  0.20450830415E+02  0.10765777198E+02  0.45289126947E+02  0.51100000000E-03 0.  1.
         23    2    1    0    0    0  0.11805828862E+02 -0.22141999795E+02  0.14648957267E+02  0.95944231226E+02  0.91438820019E+02 0.  0.
         11    1    3    3    0    0 -0.27142426504E+02 -0.42592830210E+02  0.38831800692E+01  0.50655104279E+02  0.51100000000E-03 0. -1.
         22    1    1    0    0    0 -0.11805828862E+02  0.22141999795E+02 -0.14648957267E+02  0.29055768774E+02  0.00000000000E+00 0. -1.
</event>
<event>
 5    1  0.8962567E-005  0.9118800E+02  0.7818608E-02  0.1130116E+00
         25   -1    0    0    0    0  0.00000000000E+00  0.00000000000E+00  0.99999998245E-14  0.12500000000E+03  0.12500000000E+03 0.  0.
        -11    1    3    3    0    0 -0.27438818575E+02 -0.10785702280E+02  0.17761872729E+02  0.34419533140E+02  0.51100000000E-03 0. -1.
         23    2    1    0    0    0  0.28140059526E+02  0.33975097659E+01 -0.51595564140E+01  0.96189810047E+02  0.91773920651E+02 0.  0.
         11    1    3    3    0    0  0.55578878101E+02  0.14183212045E+02 -0.22921429143E+02  0.61770276907E+02  0.51100000000E-03 0.  1.
         22    1    1    0    0    0 -0.28140059526E+02 -0.33975097659E+01  0.51595564140E+01  0.28810189953E+02  0.00000000000E+00 0.  1.
</event>
<event>
 5    1  0.8962567E-005  0.9118800E+02  0.7818608E-02  0.1130116E+00
         25   -1    0    0    0    0  0.00000000000E+00  0.00000000000E+00  0.99999998245E-14  0.12500000000E+03  0.12500000000E+03 0.  0.
        -11    1    3    3    0    0  0.25050754937E+02 -0.52797663138E+01  0.23037209792E+02  0.34440227794E+02  0.51100000000E-03 0. -1.
         23    2    1    0    0    0 -0.30099438757E+02  0.34749058829E+01  0.39158673090E+00  0.94698110215E+02  0.89719159346E+02 0.  0.
         11    1    3    3    0    0 -0.55150193694E+02  0.87546721967E+01 -0.22645623061E+02  0.60257882421E+02  0.51100000000E-03 0.  1.
         22    1    1    0    0    0  0.30099438757E+02 -0.34749058829E+01 -0.39158673090E+00  0.30301889785E+02  0.00000000000E+00 0.  1.
</event>
<event>
 5    1  0.8962567E-005  0.9118800E+02  0.7818608E-02  0.1130116E+00
         25   -1    0    0    0    0  0.00000000000E+00  0.00000000000E+00  0.99999998245E-14  0.12500000000E+03  0.12500000000E+03 0.  0.
        -11    1    3    3    0    0  0.59211892187E+02 -0.28507234987E+01 -0.47949027165E+01  0.59474077489E+02  0.51100000000E-03 0.  1.
         23    2    1    0    0    0  0.24559489390E+02 -0.12545896735E+02 -0.96473011636E+01  0.95782908021E+02  0.91218019082E+02 0.  0.
         11    1    3    3    0    0 -0.34652402797E+02 -0.96951732363E+01 -0.48523984472E+01  0.36308830532E+02  0.51100000000E-03 0. -1.
         22    1    1    0    0    0 -0.24559489390E+02  0.12545896735E+02  0.96473011636E+01  0.29217091979E+02  0.00000000000E+00 0.  1.
</event>
<event>
 5    1  0.8962567E-005  0.9118800E+02  0.7818608E-02  0.1130116E+00
         25   -1    0    0    0    0  0.00000000000E+00  0.00000000000E+00  0.99999998245E-14  0.12500000000E+03  0.12500000000E+03 0.  0.
        -11    1    3    3    0    0  0.38041085829E+01 -0.14049930880E+02  0.32838415424E+02  0.35919818035E+02  0.51100000000E-03 0. -1.
         23    2    1    0    0    0 -0.90742022108E+01  0.27587011054E+02 -0.71753978690E+01  0.95085611167E+02  0.90257425134E+02 0.  0.
         11    1    3    3    0    0 -0.12878310794E+02  0.41636941934E+02 -0.40013813293E+02  0.59165793133E+02  0.51100000000E-03 0.  1.
         22    1    1    0    0    0  0.90742022108E+01 -0.27587011054E+02  0.71753978690E+01  0.29914388833E+02  0.00000000000E+00 0.  1.
</event>
<event>
 5    1  0.8962567E-005  0.9118800E+02  0.7818608E-02  0.1130116E+00
         25   -1    0    0    0    0  0.00000000000E+00  0.00000000000E+00  0.99999998245E-14  0.12500000000E+03  0.12500000000E+03 0.  0.
        -11    1    3    3    0    0  0.27341688406E+01  0.54566220098E+01 -0.37201134718E+02  0.37698472483E+02  0.51100000000E-03 0. -1.
         23    2    1    0    0    0  0.11265137359E+02 -0.25336969249E+02  0.10699576512E+02  0.95278858233E+02  0.90524662707E+02 0.  0.
         11    1    3    3    0    0  0.85309685183E+01 -0.30793591259E+02  0.47900711230E+02  0.57580385749E+02  0.51100000000E-03 0.  1.
         22    1    1    0    0    0 -0.11265137359E+02  0.25336969249E+02 -0.10699576512E+02  0.29721141767E+02  0.00000000000E+00 0.  1.
</event>
<event>
 5    1  0.8962567E-005  0.9118800E+02  0.7818608E-02  0.1130116E+00
         25   -1    0    0    0    0  0.00000000000E+00  0.00000000000E+00  0.99999998245E-14  0.12500000000E+03  0.12500000000E+03 0.  0.
        -11    1    3    3    0    0 -0.24230075615E+02  0.19780000071E+02  0.12564005174E+02  0.33707553951E+02  0.51100000000E-03 0. -1.
         23    2    1    0    0    0  0.18598051015E+02 -0.23151921623E+02  0.22703667986E+01  0.95216555911E+02  0.90438592304E+02 0.  0.
         11    1    3    3    0    0  0.42828126630E+02 -0.42931921693E+02 -0.10293638375E+02  0.61509001960E+02  0.51100000000E-03 0.  1.
         22    1    1    0    0    0 -0.18598051015E+02  0.23151921623E+02 -0.22703667986E+01  0.29783444089E+02  0.00000000000E+00 0.  1.
</event>
<event>
 5    1  0.8962567E-005  0.9118800E+02  0.7818608E-02  0.1130116E+00
         25   -1    0    0    0    0  0.00000000000E+00  0.00000000000E+00  0.99999998245E-14  0.12500000000E+03  0.12500000000E+03 0.  0.
        -11    1    3    3    0    0  0.16809201785E+01 -0.40083497449E+02 -0.33308295587E+02  0.52143598031E+02  0.51100000000E-03 0.  1.
         23    2    1    0    0    0 -0.20732627630E+02 -0.20810359436E+02 -0.14715824969E+01  0.95587783774E+02  0.90950238831E+02 0.  0.
         11    1    3    3    0    0 -0.22413547808E+02  0.19273138013E+02  0.31836713090E+02  0.43444185743E+02  0.51100000000E-03 0. -1.
         22    1    1    0    0    0  0.20732627630E+02  0.20810359436E+02  0.14715824969E+01  0.29412216226E+02  0.00000000000E+00 0.  1.
</event>
<event>
 5    1  0.8962567E-005  0.9118800E+02  0.7818608E-02  0.1130116E+00
         25   -1    0    0    0    0  0.00000000000E+00  0.00000000000E+00  0.99999998245E-14  0.12500000000E+03  0.12500000000E+03 0.  0.
        -11    1    3    3    0    0 -0.38628259414E+02  0.35725209583E+02  0.10689073667E+02  0.53690681885E+02  0.51100000000E-03 0.  1.
         23    2    1    0    0    0  0.38327430748E+01  0.69266263993E+01  0.17830449804E+02  0.10549120678E+03  0.10367160505E+03 0.  0.
         11    1    3    3    0    0  0.42461002489E+02 -0.28798583184E+02  0.71413761367E+01  0.51800524893E+02  0.51100000000E-03 0. -1.
         22    1    1    0    0    0 -0.38327430748E+01 -0.69266263993E+01 -0.17830449804E+02  0.19508793222E+02  0.00000000000E+00 0.  1.
</event>
<event>
 5    1  0.8962567E-005  0.9118800E+02  0.7818608E-02  0.1130116E+00
         25   -1    0    0    0    0  0.00000000000E+00  0.00000000000E+00  0.99999998245E-14  0.12500000000E+03  0.12500000000E+03 0.  0.
        -11    1    3    3    0    0  0.39204860715E+02 -0.37508346919E+02 -0.51646584194E+01  0.54502943857E+02  0.51100000000E-03 0.  1.
         23    2    1    0    0    0  0.26491469916E+01 -0.30410268384E+02 -0.11697377472E+02  0.92310077352E+02  0.86327975408E+02 0.  0.
         11    1    3    3    0    0 -0.36555713723E+02  0.70980785341E+01 -0.65327190521E+01  0.37807133496E+02  0.51100000000E-03 0. -1.
         22    1    1    0    0    0 -0.26491469916E+01  0.30410268384E+02  0.11697377472E+02  0.32689922648E+02  0.00000000000E+00 0.  1.
</event>
<event>
 5    1  0.8962567E-005  0.9118800E+02  0.7818608E-02  0.1130116E+00
         25   -1    0    0    0    0  0.00000000000E+00  0.00000000000E+00  0.99999998245E-14  0.12500000000E+03  0.12500000000E+03 0.  0.
        -11    1    3    3    0    0 -0.48209290938E+01 -0.57387623389E+02 -0.11721738404E+02  0.58770569395E+02  0.51100000000E-03 0.  1.
         23    2    1    0    0    0 -0.12120142709E+02 -0.24979436602E+02  0.62505550379E+01  0.96540563067E+02  0.92250424209E+02 0.  0.
         11    1    3    3    0    0 -0.72992136156E+01  0.32408186786E+02  0.17972293442E+02  0.37769993672E+02  0.51100000000E-03 0. -1.
         22    1    1    0    0    0  0.12120142709E+02  0.24979436602E+02 -0.62505550379E+01  0.28459436933E+02  0.00000000000E+00 0.  1.
</event>
<event>
 5    1  0.8962567E-005  0.9118800E+02  0.7818608E-02  0.1130116E+00
         25   -1    0    0    0    0  0.00000000000E+00  0.00000000000E+00  0.99999998245E-14  0.12500000000E+03  0.12500000000E+03 0.  0.
        -11    1    3    3    0    0  0.36034759843E+02 -0.13331243049E+01  0.47945644643E+02  0.59992215977E+02  0.51100000000E-03 0. -1.
         23    2    1    0    0    0  0.63349025786E+01  0.43313992228E+01  0.27395193366E+02  0.96550243772E+02  0.92263540702E+02 0.  0.
         11    1    3    3    0    0 -0.29699857264E+02  0.56645235276E+01 -0.20550451277E+02  0.36558027795E+02  0.51100000000E-03 0.  1.
         22    1    1    0    0    0 -0.63349025786E+01 -0.43313992228E+01 -0.27395193366E+02  0.28449756228E+02  0.00000000000E+00 0. -1.
</event>
<event>
 5    1  0.8962567E-005  0.9118800E+02  0.7818608E-02  0.1130116E+00
         25   -1    0    0    0    0  0.00000000000E+00  0.00000000000E+00  0.99999998245E-14  0.12500000000E+03  0.12500000000E+03 0.  0.
        -11    1    3    3    0    0  0.79993859371E+01 -0.34787582773E+02 -0.10030114097E+02  0.37077881271E+02  0.51100000000E-03 0. -1.
         23    2    1    0    0    0 -0.17155383928E+02  0.19932987717E+02  0.24649676951E+01  0.98585851088E+02  0.94981381185E+02 0.  0.
         11    1    3    3    0    0 -0.25154769865E+02  0.54720570490E+02  0.12495081792E+02  0.61507969816E+02  0.51100000000E-03 0.  1.
         22    1    1    0    0    0  0.17155383928E+02 -0.19932987717E+02 -0.24649676951E+01  0.26414148912E+02  0.00000000000E+00 0.  1.
</event>
<event>
 5    1  0.8962567E-005  0.9118800E+02  0.7818608E-02  0.1130116E+00
         25   -1    0    0    0    0  0.00000000000E+00  0.00000000000E+00  0.99999998245E-14  0.12500000000E+03  0.12500000000E+03 0.  0.
        -11    1    3    3    0    0  0.19110312838E+01  0.19841925107E+02 -0.57367497432E+02  0.60732065619E+02  0.51100000000E-03 0. -1.
         23    2    1    0    0    0 -0.76737136548E+01  0.34295084949E+01 -0.28433905473E+02  0.95349799492E+02  0.90622568232E+02 0.  0.
         11    1    3    3    0    0 -0.95847449385E+01 -0.16412416612E+02  0.28933591959E+02  0.34617733873E+02  0.51100000000E-03 0.  1.
         22    1    1    0    0    0  0.76737136548E+01 -0.34295084949E+01  0.28433905473E+02  0.29650200508E+02  0.00000000000E+00 0. -1.
</event>
<event>
 5    1  0.8962567E-005  0.9118800E+02  0.7818608E-02  0.1130116E+00
         25   -1    0    0    0    0  0.00000000000E+00  0.00000000000E+00  0.99999998245E-14  0.12500000000E+03  0.12500000000E+03 0.  0.
        -11    1    3    3    0    0 -0.26194970216E+02  0.41165711719E+02  0.13240590913E+02  0.50557942343E+02  0.51100000000E-03 0. -1.
         23    2    1    0    0    0 -0.70572791365E+01  0.36085193771E+01  0.28524014183E+02  0.95395169550E+02  0.90685127708E+02 0.  0.
         11    1    3    3    0    0  0.19137691080E+02 -0.37557192342E+02  0.15283423270E+02  0.44837227207E+02  0.51100000000E-03 0.  1.
         22    1    1    0    0    0  0.70572791365E+01 -0.36085193771E+01 -0.28524014183E+02  0.29604830450E+02  0.00000000000E+00 0. -1.
</event>
<event>
 5    1  0.8962567E-005  0.9118800E+02  0.7818608E-02  0.1130116E+00
         25   -1    0    0    0    0  0.00000000000E+00  0.00000000000E+00  0.99999998245E-14  0.12500000000E+03  0.12500000000E+03 0.  0.
        -11    1    3    3    0    0 -0.20695512855E+02  0.26925590364E+02 -0.23720406718E+01  0.34042888331E+02  0.51100000000E-03 0. -1.
         23    2    1    0    0    0  0.63877129024E+01 -0.26813196719E+02  0.10361837404E+02  0.95553131426E+02  0.90902600934E+02 0.  0.
         11    1    3    3    0    0  0.27083225757E+02 -0.53738787082E+02  0.12733878076E+02  0.61510243095E+02  0.51100000000E-03 0.  1.
         22    1    1    0    0    0 -0.63877129024E+01  0.26813196719E+02 -0.10361837404E+02  0.29446868574E+02  0.00000000000E+00 0.  1.
</event>
<event>
 5    1  0.8962567E-005  0.9118800E+02  0.7818608E-02  0.1130116E+00
         25   -1    0    0    0    0  0.00000000000E+00  0.00000000000E+00  0.99999998245E-14  0.12500000000E+03  0.12500000000E+03 0.  0.
        -11    1    3    3    0    0 -0.24388997374E+02  0.90813028951E+01  0.30520162380E+02  0.40109519657E+02  0.51100000000E-03 0. -1.
         23    2    1    0    0    0  0.16156963556E+02  0.14829777391E+02 -0.12706285755E+02  0.99654004921E+02  0.96376870827E+02 0.  0.
         11    1    3    3    0    0  0.40545960930E+02  0.57484744964E+01 -0.43226448135E+02  0.59544485264E+02  0.51100000000E-03 0.  1.
         22    1    1    0    0    0 -0.16156963556E+02 -0.14829777391E+02  0.12706285755E+02  0.25345995079E+02  0.00000000000E+00 0.  1.
</event>
<event>
 5    1  0.8962567E-005  0.9118800E+02  0.7818608E-02  0.1130116E+00
         25   -1    0    0    0    0  0.00000000000E+00  0.00000000000E+00  0.99999998245E-14  0.12500000000E+03  0.12500000000E+03 0.  0.
        -11    1    3    3    0    0 -0.35763387761E+02  0.14944838081E+02  0.70261354940E+01  0.39392063536E+02  0.51100000000E-03 0.  1.
         23    2    1    0    0    0  0.11357576585E+02 -0.10143203130E+02  0.25006254978E+02  0.95722160195E+02  0.91134735687E+02 0.  0.
         11    1    3    3    0    0  0.47120964346E+02 -0.25088041211E+02  0.17980119484E+02  0.56330096659E+02  0.51100000000E-03 0. -1.
         22    1    1    0    0    0 -0.11357576585E+02  0.10143203130E+02 -0.25006254978E+02  0.29277839805E+02  0.00000000000E+00 0. -1.
</event>
<event>
 5    1  0.8962567E-005  0.9118800E+02  0.7818608E-02  0.1130116E+00
         25   -1    0    0    0    0  0.00000000000E+00  0.00000000000E+00  0.99999998245E-14  0.12500000000E+03  0.12500000000E+03 0.  0.
        -11    1    3    3    0    0 -0.32251624895E+02 -0.30793670762E+02 -0.18163969726E+02  0.48149218725E+02  0.51100000000E-03 0.  1.
         23    2    1    0    0    0 -0.55352051713E+01 -0.20006089666E+02  0.20138621951E+02  0.96078620121E+02  0.91622350059E+02 0.  0.
         11    1    3    3    0    0  0.26716419723E+02  0.10787581096E+02  0.38302591678E+02  0.47929401396E+02  0.51100000000E-03 0. -1.
         22    1    1    0    0    0  0.55352051713E+01  0.20006089666E+02 -0.20138621951E+02  0.28921379879E+02  0.00000000000E+00 0. -1.
</event>
<event>
 5    1  0.8962567E-005  0.9118800E+02  0.7818608E-02  0.1130116E+00
         25   -1    0    0    0    0  0.00000000000E+00  0.00000000000E+00  0.99999998245E-14  0.12500000000E+03  0.12500000000E+03 0.  0.
        -11    1    3    3    0    0  0.45997208273E+02  0.40145930967E+02 -0.40848246155E+01  0.61189253424E+02  0.51100000000E-03 0. -1.
         23    2    1    0    0    0  0.12894660886E+02  0.16738655752E+02  0.61312879073E+01  0.10299891896E+03  0.10062171604E+03 0.  0.
         11    1    3    3    0    0 -0.33102547387E+02 -0.23407275215E+02  0.10216112523E+02  0.41809665532E+02  0.51100000000E-03 0.  1.
         22    1    1    0    0    0 -0.12894660886E+02 -0.16738655752E+02 -0.61312879073E+01  0.22001081045E+02  0.00000000000E+00 0. -1.
</event>
<event>
 5    1  0.8962567E-005  0.9118800E+02  0.7818608E-02  0.1130116E+00
         25   -1    0    0    0    0  0.00000000000E+00  0.00000000000E+00  0.99999998245E-14  0.12500000000E+03  0.12500000000E+03 0.  0.
        -11    1    3    3    0    0 -0.29140356016E+02 -0.67309997504E+01  0.14808968380E+02  0.33373226561E+02  0.51100000000E-03 0.  1.
         23    2    1    0    0    0  0.19493839428E+02  0.14859557245E+02 -0.16817615977E+02  0.95273775478E+02  0.90517643968E+02 0.  0.
         11    1    3    3    0    0  0.48634195444E+02  0.21590556996E+02 -0.31626584357E+02  0.61900548917E+02  0.51100000000E-03 0. -1.
         22    1    1    0    0    0 -0.19493839428E+02 -0.14859557245E+02  0.16817615977E+02  0.29726224522E+02  0.00000000000E+00 0. -1.
</event>
<event>
 5    1  0.8962567E-005  0.9118800E+02  0.7818608E-02  0.1130116E+00
         25   -1    0    0    0    0  0.00000000000E+00  0.00000000000E+00  0.99999998245E-14  0.12500000000E+03  0.12500000000E+03 0.  0.
        -11    1    3    3    0    0  0.26948691708E+02  0.14788874066E+02 -0.26085456611E+02  0.40316173279E+02  0.51100000000E-03 0.  1.
         23    2    1    0    0    0 -0.66184359382E+01 -0.11536483506E+02  0.18625670256E+02  0.10211310990E+03  0.99515212279E+02 0.  0.
         11    1    3    3    0    0 -0.33567127647E+02 -0.26325357572E+02  0.44711126868E+02  0.61796936621E+02  0.51100000000E-03 0. -1.
         22    1    1    0    0    0  0.66184359382E+01  0.11536483506E+02 -0.18625670256E+02  0.22886890100E+02  0.00000000000E+00 0. -1.
</event>
<event>
 5    1  0.8962567E-005  0.9118800E+02  0.7818608E-02  0.1130116E+00
         25   -1    0    0    0    0  0.00000000000E+00  0.00000000000E+00  0.99999998245E-14  0.12500000000E+03  0.12500000000E+03 0.  0.
        -11    1    3    3    0    0  0.14639896629E+02 -0.40658763538E+02 -0.34033316067E+02  0.55006619861E+02  0.51100000000E-03 0. -1.
         23    2    1    0    0    0 -0.11722220921E+02 -0.79657243102E+01 -0.22238980130E+02  0.98628889589E+02  0.95038005015E+02 0.  0.
         11    1    3    3    0    0 -0.26362117550E+02  0.32693039228E+02  0.11794335938E+02  0.43622269727E+02  0.51100000000E-03 0.  1.
         22    1    1    0    0    0  0.11722220921E+02  0.79657243102E+01  0.22238980130E+02  0.26371110411E+02  0.00000000000E+00 0.  1.
</event>
<event>
 5    1  0.8962567E-005  0.9118800E+02  0.7818608E-02  0.1130116E+00
         25   -1    0    0    0    0  0.00000000000E+00  0.00000000000E+00  0.99999998245E-14  0.12500000000E+03  0.12500000000E+03 0.  0.
        -11    1    3    3    0    0  0.57509429183E+02 -0.18113572044E+01 -0.14774810479E+02  0.59404633530E+02  0.51100000000E-03 0.  1.
         23    2    1    0    0    0  0.38850673033E+02  0.11687410166E+02 -0.12505343472E+02  0.82545860428E+02  0.70791702246E+02 0.  0.
         11    1    3    3    0    0 -0.18658756150E+02  0.13498767370E+02  0.22694670073E+01  0.23141226898E+02  0.51100000000E-03 0. -1.
         22    1    1    0    0    0 -0.38850673033E+02 -0.11687410166E+02  0.12505343472E+02  0.42454139572E+02  0.00000000000E+00 0.  1.
</event>
<event>
 5    1  0.8962567E-005  0.9118800E+02  0.7818608E-02  0.1130116E+00
         25   -1    0    0    0    0  0.00000000000E+00  0.00000000000E+00  0.99999998245E-14  0.12500000000E+03  0.12500000000E+03 0.  0.
        -11    1    3    3    0    0  0.37067866007E+02  0.12065625018E+02  0.24369708205E+01  0.39058223519E+02  0.51100000000E-03 0.  1.
         23    2    1    0    0    0 -0.14722039764E+02  0.27879386705E+02  0.39235341956E+01  0.93229057640E+02  0.87648527712E+02 0.  0.
         11    1    3    3    0    0 -0.51789905771E+02  0.15813761686E+02  0.14865633751E+01  0.54170834121E+02  0.51100000000E-03 0. -1.
         22    1    1    0    0    0  0.14722039764E+02 -0.27879386705E+02 -0.39235341956E+01  0.31770942360E+02  0.00000000000E+00 0. -1.
</event>
<event>
 5    1  0.8962567E-005  0.9118800E+02  0.7818608E-02  0.1130116E+00
         25   -1    0    0    0    0  0.00000000000E+00  0.00000000000E+00  0.99999998245E-14  0.12500000000E+03  0.12500000000E+03 0.  0.
        -11    1    3    3    0    0 -0.30991844298E+02 -0.22783659361E+02  0.97544242622E+01  0.39682972921E+02  0.51100000000E-03 0.  1.
         23    2    1    0    0    0  0.23167880805E+02 -0.15128692698E+02 -0.61670320149E+01  0.96651096536E+02  0.92400076482E+02 0.  0.
         11    1    3    3    0    0  0.54159725104E+02  0.76549666633E+01 -0.15921456277E+02  0.56968123615E+02  0.51100000000E-03 0. -1.
         22    1    1    0    0    0 -0.23167880805E+02  0.15128692698E+02  0.61670320149E+01  0.28348903464E+02  0.00000000000E+00 0. -1.
</event>
<event>
 5    1  0.8962567E-005  0.9118800E+02  0.7818608E-02  0.1130116E+00
         25   -1    0    0    0    0  0.00000000000E+00  0.00000000000E+00  0.99999998245E-14  0.12500000000E+03  0.12500000000E+03 0.  0.
        -11    1    3    3    0    0 -0.50842446992E+01  0.54321704693E+01 -0.35292141981E+02  0.36067898553E+02  0.51100000000E-03 0.  1.
         23    2    1    0    0    0  0.14462221746E+02 -0.20165901740E+02  0.15157137470E+02  0.95921515392E+02  0.91407761421E+02 0.  0.
         11    1    3    3    0    0  0.19546466445E+02 -0.25598072209E+02  0.50449279451E+02  0.59853616839E+02  0.51100000000E-03 0. -1.
         22    1    1    0    0    0 -0.14462221746E+02  0.20165901740E+02 -0.15157137470E+02  0.29078484608E+02  0.00000000000E+00 0. -1.
</event>
<event>
 5    1  0.8962567E-005  0.9118800E+02  0.7818608E-02  0.1130116E+00
         25   -1    0    0    0    0  0.00000000000E+00  0.00000000000E+00  0.99999998245E-14  0.12500000000E+03  0.12500000000E+03 0.  0.
        -11    1    3    3    0    0 -0.41239798930E+02  0.23256372395E+02 -0.18777214113E+02  0.50932932793E+02  0.51100000000E-03 0. -1.
         23    2    1    0    0    0 -0.20626945831E+02  0.62442695370E+01  0.18360607333E+02  0.96687923107E+02  0.92449882513E+02 0.  0.
         11    1    3    3    0    0  0.20612853099E+02 -0.17012102858E+02  0.37137821447E+02  0.45754990314E+02  0.51100000000E-03 0.  1.
         22    1    1    0    0    0  0.20626945831E+02 -0.62442695370E+01 -0.18360607333E+02  0.28312076893E+02  0.00000000000E+00 0. -1.
</event>
<event>
 5    1  0.8962567E-005  0.9118800E+02  0.7818608E-02  0.1130116E+00
         25   -1    0    0    0    0  0.00000000000E+00  0.00000000000E+00  0.99999998245E-14  0.12500000000E+03  0.12500000000E+03 0.  0.
        -11    1    3    3    0    0 -0.20516520820E+02 -0.21420485989E+02 -0.62687180630E+01  0.30316029967E+02  0.51100000000E-03 0.  1.
         23    2    1    0    0    0  0.24251922554E+02  0.11840566252E+02  0.19451193867E+02  0.91732843530E+02  0.85488074505E+02 0.  0.
         11    1    3    3    0    0  0.44768443374E+02  0.33261052241E+02  0.25719911930E+02  0.61416813563E+02  0.51100000000E-03 0. -1.
         22    1    1    0    0    0 -0.24251922554E+02 -0.11840566252E+02 -0.19451193867E+02  0.33267156470E+02  0.00000000000E+00 0. -1.
</event>
<event>
 5    1  0.8962567E-005  0.9118800E+02  0.7818608E-02  0.1130116E+00
         25   -1    0    0    0    0  0.00000000000E+00  0.00000000000E+00  0.99999998245E-14  0.12500000000E+03  0.12500000000E+03 0.  0.
        -11    1    3    3    0    0 -0.25322932901E+02 -0.38010242119E+02  0.22667351774E+02  0.50988609251E+02  0.51100000000E-03 0.  1.
         23    2    1    0    0    0 -0.35707480880E+02 -0.57096358850E+01  0.79316998044E+01  0.87979249136E+02  0.79811103764E+02 0.  0.
         11    1    3    3    0    0 -0.10384547980E+02  0.32300606234E+02 -0.14735651970E+02  0.36990639885E+02  0.51100000000E-03 0. -1.
         22    1    1    0    0    0  0.35707480880E+02  0.57096358850E+01 -0.79316998044E+01  0.37020750864E+02  0.00000000000E+00 0.  1.
</event>
<event>
 5    1  0.8962567E-005  0.9118800E+02  0.7818608E-02  0.1130116E+00
         25   -1    0    0    0    0  0.00000000000E+00  0.00000000000E+00  0.99999998245E-14  0.12500000000E+03  0.12500000000E+03 0.  0.
        -11    1    3    3    0    0  0.22991980165E+02  0.11848199542E+02  0.98627922764E+01  0.27681865111E+02  0.51100000000E-03 0.  1.
         23    2    1    0    0    0 -0.32999532133E+02 -0.10748166329E+02 -0.51878531033E+01  0.89908604755E+02  0.82777721572E+02 0.  0.
         11    1    3    3    0    0 -0.55991512298E+02 -0.22596365871E+02 -0.15050645380E+02  0.62226739643E+02  0.51100000000E-03 0. -1.
         22    1    1    0    0    0  0.32999532133E+02  0.10748166329E+02  0.51878531033E+01  0.35091395245E+02  0.00000000000E+00 0. -1.
</event>
<event>
 5    1  0.8962567E-005  0.9118800E+02  0.7818608E-02  0.1130116E+00
         25   -1    0    0    0    0  0.00000000000E+00  0.00000000000E+00  0.99999998245E-14  0.12500000000E+03  0.12500000000E+03 0.  0.
        -11    1    3    3    0    0  0.13640545879E+02 -0.52268351708E+02  0.30270904851E+02  0.61922312319E+02  0.51100000000E-03 0.  1.
         23    2    1    0    0    0  0.26616113026E+01 -0.27099932356E+02  0.10252460383E+02  0.95903549145E+02  0.91383189298E+02 0.  0.
         11    1    3    3    0    0 -0.10978934576E+02  0.25168419352E+02 -0.20018444468E+02  0.33981236827E+02  0.51100000000E-03 0. -1.
         22    1    1    0    0    0 -0.26616113026E+01  0.27099932356E+02 -0.10252460383E+02  0.29096450855E+02  0.00000000000E+00 0.  1.
</event>
<event>
 5    1  0.8962567E-005  0.9118800E+02  0.7818608E-02  0.1130116E+00
         25   -1    0    0    0    0  0.00000000000E+00  0.00000000000E+00  0.99999998245E-14  0.12500000000E+03  0.12500000000E+03 0.  0.
        -11    1    3    3    0    0  0.33479265153E+02  0.15639845695E+02  0.73569221065E+01  0.37677450440E+02  0.51100000000E-03 0. -1.
         23    2    1    0    0    0 -0.40975907223E+01 -0.28613766558E+02  0.38586148334E+01  0.95837921974E+02  0.91293375956E+02 0.  0.
         11    1    3    3    0    0 -0.37576855876E+02 -0.44253612253E+02 -0.34983072731E+01  0.58160471533E+02  0.51100000000E-03 0.  1.
         22    1    1    0    0    0  0.40975907223E+01  0.28613766558E+02 -0.38586148334E+01  0.29162078026E+02  0.00000000000E+00 0.  1.
</event>
<event>
 5    1  0.8962567E-005  0.9118800E+02  0.7818608E-02  0.1130116E+00
         25   -1    0    0    0    0  0.00000000000E+00  0.00000000000E+00  0.99999998245E-14  0.12500000000E+03  0.12500000000E+03 0.  0.
        -11    1    3    3    0    0 -0.53746057243E+02  0.21162804469E+02  0.11138745978E+02  0.58826648930E+02  0.51100000000E-03 0.  1.
         23    2    1    0    0    0 -0.27112012941E+02 -0.44315543592E+01  0.99424289280E+01  0.95784390940E+02  0.91220051168E+02 0.  0.
         11    1    3    3    0    0  0.26634044302E+02 -0.25594358829E+02 -0.11963170503E+01  0.36957742010E+02  0.51100000000E-03 0. -1.
         22    1    1    0    0    0  0.27112012941E+02  0.44315543592E+01 -0.99424289280E+01  0.29215609060E+02  0.00000000000E+00 0.  1.
</event>
<event>
 5    1  0.8962567E-005  0.9118800E+02  0.7818608E-02  0.1130116E+00
         25   -1    0    0    0    0  0.00000000000E+00  0.00000000000E+00  0.99999998245E-14  0.12500000000E+03  0.12500000000E+03 0.  0.
        -11    1    3    3    0    0  0.10508482201E+02 -0.81332003816E+01 -0.28955063354E+02  0.31858638400E+02  0.51100000000E-03 0. -1.
         23    2    1    0    0    0 -0.31781421370E+02  0.20054261383E+02 -0.98806890467E+01  0.86143080926E+02  0.76881533748E+02 0.  0.
         11    1    3    3    0    0 -0.42289903571E+02  0.28187461764E+02  0.19074374307E+02  0.54284442525E+02  0.51100000000E-03 0.  1.
         22    1    1    0    0    0  0.31781421370E+02 -0.20054261383E+02  0.98806890467E+01  0.38856919074E+02  0.00000000000E+00 0.  1.
</event>
<event>
 5    1  0.8962567E-005  0.9118800E+02  0.7818608E-02  0.1130116E+00
         25   -1    0    0    0    0  0.00000000000E+00  0.00000000000E+00  0.99999998245E-14  0.12500000000E+03  0.12500000000E+03 0.  0.
        -11    1    3    3    0    0 -0.31431606467E+01  0.44843508431E+02  0.27188933608E+02  0.52536252419E+02  0.51100000000E-03 0.  1.
         23    2    1    0    0    0  0.12407354316E+01  0.26087749756E+02 -0.12041837532E+02  0.96240376169E+02  0.91842768045E+02 0.  0.
         11    1    3    3    0    0  0.43838960784E+01 -0.18755758674E+02 -0.39230771140E+02  0.43704123750E+02  0.51100000000E-03 0. -1.
         22    1    1    0    0    0 -0.12407354316E+01 -0.26087749756E+02  0.12041837532E+02  0.28759623831E+02  0.00000000000E+00 0. -1.
</event>
<event>
 5    1  0.8962567E-005  0.9118800E+02  0.7818608E-02  0.1130116E+00
         25   -1    0    0    0    0  0.00000000000E+00  0.00000000000E+00  0.99999998245E-14  0.12500000000E+03  0.12500000000E+03 0.  0.
        -11    1    3    3    0    0 -0.35757011267E+02  0.35763020479E+02  0.31313324170E+02  0.59481776700E+02  0.51100000000E-03 0. -1.
         23    2    1    0    0    0 -0.25783229308E+02  0.66220244893E+01  0.12323924739E+02  0.95665630349E+02  0.91057166589E+02 0.  0.
         11    1    3    3    0    0  0.99737819596E+01 -0.29140995989E+02 -0.18989399431E+02  0.36183853648E+02  0.51100000000E-03 0.  1.
         22    1    1    0    0    0  0.25783229308E+02 -0.66220244893E+01 -0.12323924739E+02  0.29334369651E+02  0.00000000000E+00 0. -1.
</event>
<event>
 5    1  0.8962567E-005  0.9118800E+02  0.7818608E-02  0.1130116E+00
         25   -1    0    0    0    0  0.00000000000E+00  0.00000000000E+00  0.99999998245E-14  0.12500000000E+03  0.12500000000E+03 0.  0.
        -11    1    3    3    0    0 -0.12741904517E+02  0.50099854907E+02  0.32313717865E+02  0.60963332873E+02  0.51100000000E-03 0.  1.
         23    2    1    0    0    0 -0.93766527171E+01  0.26156563115E+02  0.62416879993E+01  0.96521129249E+02  0.92224087484E+02 0.  0.
         11    1    3    3    0    0  0.33652518003E+01 -0.23943291792E+02 -0.26072029866E+02  0.35557796376E+02  0.51100000000E-03 0. -1.
         22    1    1    0    0    0  0.93766527171E+01 -0.26156563115E+02 -0.62416879993E+01  0.28478870751E+02  0.00000000000E+00 0.  1.
</event>
<event>
 5    1  0.8962567E-005  0.9118800E+02  0.7818608E-02  0.1130116E+00
         25   -1    0    0    0    0  0.00000000000E+00  0.00000000000E+00  0.99999998245E-14  0.12500000000E+03  0.12500000000E+03 0.  0.
        -11    1    3    3    0    0 -0.28206726619E+02  0.24132282059E+02 -0.39600379115E+02  0.54278692783E+02  0.51100000000E-03 0. -1.
         23    2    1    0    0    0 -0.19628442097E+02 -0.63873277035E+01 -0.32067174006E+02  0.86863700454E+02  0.78044379128E+02 0.  0.
         11    1    3    3    0    0  0.85782845224E+01 -0.30519609763E+02  0.75332051087E+01  0.32585007671E+02  0.51100000000E-03 0.  1.
         22    1    1    0    0    0  0.19628442097E+02  0.63873277035E+01  0.32067174006E+02  0.38136299546E+02  0.00000000000E+00 0. -1.
</event>
<event>
 5    1  0.8962567E-005  0.9118800E+02  0.7818608E-02  0.1130116E+00
         25   -1    0    0    0    0  0.00000000000E+00  0.00000000000E+00  0.99999998245E-14  0.12500000000E+03  0.12500000000E+03 0.  0.
        -11    1    3    3    0    0  0.10153016130E+01  0.13899168869E+01 -0.62396758934E+02  0.62420495288E+02  0.51100000000E-03 0. -1.
         23    2    1    0    0    0 -0.87055073067E+00  0.24059372313E+01 -0.28253953587E+02  0.96630433810E+02  0.92372119454E+02 0.  0.
         11    1    3    3    0    0 -0.18858523437E+01  0.10160203444E+01  0.34142805347E+02  0.34209938522E+02  0.51100000000E-03 0.  1.
         22    1    1    0    0    0  0.87055073067E+00 -0.24059372313E+01  0.28253953587E+02  0.28369566190E+02  0.00000000000E+00 0. -1.
</event>
<event>
 5    1  0.8962567E-005  0.9118800E+02  0.7818608E-02  0.1130116E+00
         25   -1    0    0    0    0  0.00000000000E+00  0.00000000000E+00  0.99999998245E-14  0.12500000000E+03  0.12500000000E+03 0.  0.
        -11    1    3    3    0    0  0.51576789909E+02  0.24226974924E+01  0.29509749243E+02  0.59471505959E+02  0.51100000000E-03 0. -1.
         23    2    1    0    0    0  0.26024203971E+02  0.14940094036E+02  0.16447551144E+02  0.90780304782E+02  0.84083745133E+02 0.  0.
         11    1    3    3    0    0 -0.25552585938E+02  0.12517396543E+02 -0.13062198098E+02  0.31308798823E+02  0.51100000000E-03 0.  1.
         22    1    1    0    0    0 -0.26024203971E+02 -0.14940094036E+02 -0.16447551144E+02  0.34219695218E+02  0.00000000000E+00 0. -1.
</event>
<event>
 5    1  0.8962567E-005  0.9118800E+02  0.7818608E-02  0.1130116E+00
         25   -1    0    0    0    0  0.00000000000E+00  0.00000000000E+00  0.99999998245E-14  0.12500000000E+03  0.12500000000E+03 0.  0.
        -11    1    3    3    0    0  0.17226253807E+02  0.78332370889E+01  0.41098364340E+02  0.45245761959E+02  0.51100000000E-03 0.  1.
         23    2    1    0    0    0  0.19481235971E+02 -0.23932572154E+02  0.44102990239E+01  0.93827298764E+02  0.88497597092E+02 0.  0.
         11    1    3    3    0    0  0.22549821645E+01 -0.31765809243E+02 -0.36688065317E+02  0.48581536805E+02  0.51100000000E-03 0. -1.
         22    1    1    0    0    0 -0.19481235971E+02  0.23932572154E+02 -0.44102990239E+01  0.31172701236E+02  0.00000000000E+00 0.  1.
</event>
<event>
 5    1  0.8962567E-005  0.9118800E+02  0.7818608E-02  0.1130116E+00
         25   -1    0    0    0    0  0.00000000000E+00  0.00000000000E+00  0.99999998245E-14  0.12500000000E+03  0.12500000000E+03 0.  0.
        -11    1    3    3    0    0 -0.21276272584E+02  0.34209325651E+02 -0.23910130300E+02  0.46847113761E+02  0.51100000000E-03 0. -1.
         23    2    1    0    0    0 -0.25860047992E+02  0.82058215139E+01  0.15097747086E+02  0.93951335682E+02  0.88672622158E+02 0.  0.
         11    1    3    3    0    0 -0.45837754087E+01 -0.26003504137E+02  0.39007877386E+02  0.47104221921E+02  0.51100000000E-03 0.  1.
         22    1    1    0    0    0  0.25860047992E+02 -0.82058215139E+01 -0.15097747086E+02  0.31048664318E+02  0.00000000000E+00 0. -1.
</event>
<event>
 5    1  0.8962567E-005  0.9118800E+02  0.7818608E-02  0.1130116E+00
         25   -1    0    0    0    0  0.00000000000E+00  0.00000000000E+00  0.99999998245E-14  0.12500000000E+03  0.12500000000E+03 0.  0.
        -11    1    3    3    0    0  0.28990429114E+02  0.16935932729E+02 -0.21312442352E+02  0.39767964455E+02  0.51100000000E-03 0.  1.
         23    2    1    0    0    0 -0.25613862809E+02  0.78046596591E+01 -0.10841151350E+02  0.96112057135E+02  0.91667956690E+02 0.  0.
         11    1    3    3    0    0 -0.54604291924E+02 -0.91312730697E+01  0.10471291003E+02  0.56344092679E+02  0.51100000000E-03 0. -1.
         22    1    1    0    0    0  0.25613862809E+02 -0.78046596591E+01  0.10841151350E+02  0.28887942865E+02  0.00000000000E+00 0.  1.
</event>
<event>
 5    1  0.8962567E-005  0.9118800E+02  0.7818608E-02  0.1130116E+00
         25   -1    0    0    0    0  0.00000000000E+00  0.00000000000E+00  0.99999998245E-14  0.12500000000E+03  0.12500000000E+03 0.  0.
        -11    1    3    3    0    0 -0.30525614023E+02 -0.27464107694E+02 -0.19478331314E+02  0.45447725069E+02  0.51100000000E-03 0. -1.
         23    2    1    0    0    0 -0.87779016396E+01  0.18281189156E+02 -0.20574361038E+02  0.96111286525E+02  0.91666905866E+02 0.  0.
         11    1    3    3    0    0  0.21747712384E+02  0.45745296851E+02 -0.10960297235E+01  0.50663561455E+02  0.51100000000E-03 0.  1.
         22    1    1    0    0    0  0.87779016396E+01 -0.18281189156E+02  0.20574361038E+02  0.28888713475E+02  0.00000000000E+00 0. -1.
</event>
<event>
 5    1  0.8962567E-005  0.9118800E+02  0.7818608E-02  0.1130116E+00
         25   -1    0    0    0    0  0.00000000000E+00  0.00000000000E+00  0.99999998245E-14  0.12500000000E+03  0.12500000000E+03 0.  0.
        -11    1    3    3    0    0  0.12468733091E+02 -0.29302345118E+02  0.19238446132E+02  0.37205033855E+02  0.51100000000E-03 0.  1.
         23    2    1    0    0    0 -0.11134829556E+02  0.24346681025E+02  0.93315622265E+01  0.96648221224E+02  0.92396186642E+02 0.  0.
         11    1    3    3    0    0 -0.23603562647E+02  0.53649026143E+02 -0.99068839051E+01  0.59443187370E+02  0.51100000000E-03 0. -1.
         22    1    1    0    0    0  0.11134829556E+02 -0.24346681025E+02 -0.93315622265E+01  0.28351778776E+02  0.00000000000E+00 0. -1.
</event>
<event>
 5    1  0.8962567E-005  0.9118800E+02  0.7818608E-02  0.1130116E+00
         25   -1    0    0    0    0  0.00000000000E+00  0.00000000000E+00  0.99999998245E-14  0.12500000000E+03  0.12500000000E+03 0.  0.
        -11    1    3    3    0    0  0.12714897487E+02  0.31907976324E+02  0.33897485498E+02  0.48257922609E+02  0.51100000000E-03 0.  1.
         23    2    1    0    0    0 -0.23456895691E+02  0.86837915944E+01  0.67712429162E+01  0.99086993178E+02  0.95638633901E+02 0.  0.
         11    1    3    3    0    0 -0.36171793178E+02 -0.23224184730E+02 -0.27126242581E+02  0.50829070569E+02  0.51100000000E-03 0. -1.
         22    1    1    0    0    0  0.23456895691E+02 -0.86837915944E+01 -0.67712429162E+01  0.25913006822E+02  0.00000000000E+00 0. -1.
</event>
<event>
 5    1  0.8962567E-005  0.9118800E+02  0.7818608E-02  0.1130116E+00
         25   -1    0    0    0    0  0.00000000000E+00  0.00000000000E+00  0.99999998245E-14  0.12500000000E+03  0.12500000000E+03 0.  0.
        -11    1    3    3    0    0 -0.24288495644E+02  0.31118220723E+02 -0.36387126679E+02  0.53687034467E+02  0.51100000000E-03 0.  1.
         23    2    1    0    0    0  0.11454978100E+02  0.15557818229E+02 -0.23128878871E+02  0.94863522615E+02  0.89949322697E+02 0.  0.
         11    1    3    3    0    0  0.35743473744E+02 -0.15560402494E+02  0.13258247807E+02  0.41176488148E+02  0.51100000000E-03 0. -1.
         22    1    1    0    0    0 -0.11454978100E+02 -0.15557818229E+02  0.23128878871E+02  0.30136477385E+02  0.00000000000E+00 0.  1.
</event>
<event>
 5    1  0.8962567E-005  0.9118800E+02  0.7818608E-02  0.1130116E+00
         25   -1    0    0    0    0  0.00000000000E+00  0.00000000000E+00  0.99999998245E-14  0.12500000000E+03  0.12500000000E+03 0.  0.
        -11    1    3    3    0    0 -0.40329962683E+02  0.44507961139E+02  0.13165096604E+02  0.61488082289E+02  0.51100000000E-03 0. -1.
         23    2    1    0    0    0 -0.20599429449E+02  0.16565044806E+02  0.12642088166E+02  0.95698812375E+02  0.91102706292E+02 0.  0.
         11    1    3    3    0    0  0.19730533233E+02 -0.27942916333E+02 -0.52300843834E+00  0.34210730085E+02  0.51100000000E-03 0.  1.
         22    1    1    0    0    0  0.20599429449E+02 -0.16565044806E+02 -0.12642088166E+02  0.29301187625E+02  0.00000000000E+00 0. -1.
</event>
<event>
 5    1  0.8962567E-005  0.9118800E+02  0.7818608E-02  0.1130116E+00
         25   -1    0    0    0    0  0.00000000000E+00  0.00000000000E+00  0.99999998245E-14  0.12500000000E+03  0.12500000000E+03 0.  0.
        -11    1    3    3    0    0 -0.33274140510E+01  0.38368044312E+02 -0.60213219355E+01  0.38979928510E+02  0.51100000000E-03 0. -1.
         23    2    1    0    0    0  0.48684725884E+01 -0.17574093193E+02 -0.20719378577E+02  0.97398488709E+02  0.93405686001E+02 0.  0.
         11    1    3    3    0    0  0.81958866395E+01 -0.55942137505E+02 -0.14698056641E+02  0.58418560199E+02  0.51100000000E-03 0.  1.
         22    1    1    0    0    0 -0.48684725884E+01  0.17574093193E+02  0.20719378577E+02  0.27601511291E+02  0.00000000000E+00 0.  1.
</event>
<event>
 5    1  0.8962567E-005  0.9118800E+02  0.7818608E-02  0.1130116E+00
         25   -1    0    0    0    0  0.00000000000E+00  0.00000000000E+00  0.99999998245E-14  0.12500000000E+03  0.12500000000E+03 0.  0.
        -11    1    3    3    0    0 -0.36928181853E+02 -0.56801047701E+01 -0.13884016531E+02  0.39858752119E+02  0.51100000000E-03 0.  1.
         23    2    1    0    0    0  0.16986475310E+02  0.10223537245E+02 -0.20527841393E+02  0.96461371275E+02  0.92143056270E+02 0.  0.
         11    1    3    3    0    0  0.53914657163E+02  0.15903642015E+02 -0.66438248615E+01  0.56602619156E+02  0.51100000000E-03 0. -1.
         22    1    1    0    0    0 -0.16986475310E+02 -0.10223537245E+02  0.20527841393E+02  0.28538628725E+02  0.00000000000E+00 0. -1.
</event>
<event>
 5    1  0.8962567E-005  0.9118800E+02  0.7818608E-02  0.1130116E+00
         25   -1    0    0    0    0  0.00000000000E+00  0.00000000000E+00  0.99999998245E-14  0.12500000000E+03  0.12500000000E+03 0.  0.
        -11    1    3    3    0    0  0.10077436892E+02  0.50821694513E+01 -0.49320080223E+02  0.50594994753E+02  0.51100000000E-03 0. -1.
         23    2    1    0    0    0  0.23663130650E+02 -0.66785607450E+01 -0.30595464053E+01  0.10022283814E+03  0.97111840341E+02 0.  0.
         11    1    3    3    0    0  0.13585693757E+02 -0.11760730196E+02  0.46260533817E+02  0.49627843384E+02  0.51100000000E-03 0.  1.
         22    1    1    0    0    0 -0.23663130650E+02  0.66785607450E+01  0.30595464053E+01  0.24777161863E+02  0.00000000000E+00 0.  1.
</event>
<event>
 5    1  0.8962567E-005  0.9118800E+02  0.7818608E-02  0.1130116E+00
         25   -1    0    0    0    0  0.00000000000E+00  0.00000000000E+00  0.99999998245E-14  0.12500000000E+03  0.12500000000E+03 0.  0.
        -11    1    3    3    0    0  0.41460085489E+02  0.34670933737E+02 -0.21845323895E+01  0.54090521507E+02  0.51100000000E-03 0.  1.
         23    2    1    0    0    0  0.16609088928E+01  0.30299438082E+02  0.31886950637E+01  0.94487996744E+02  0.89425942467E+02 0.  0.
         11    1    3    3    0    0 -0.39799176596E+02 -0.43714956543E+01  0.53732274531E+01  0.40397475237E+02  0.51100000000E-03 0. -1.
         22    1    1    0    0    0 -0.16609088928E+01 -0.30299438082E+02 -0.31886950637E+01  0.30512003256E+02  0.00000000000E+00 0.  1.
</event>
<event>
 5    1  0.8962567E-005  0.9118800E+02  0.7818608E-02  0.1130116E+00
         25   -1    0    0    0    0  0.00000000000E+00  0.00000000000E+00  0.99999998245E-14  0.12500000000E+03  0.12500000000E+03 0.  0.
        -11    1    3    3    0    0  0.24810797441E+02 -0.37686799584E+02 -0.34417227492E+02  0.56748709951E+02  0.51100000000E-03 0.  1.
         23    2    1    0    0    0 -0.30818793830E+01 -0.28499328173E+02 -0.11047731436E+02  0.94279289450E+02  0.89133733022E+02 0.  0.
         11    1    3    3    0    0 -0.27892676824E+02  0.91874714116E+01  0.23369496057E+02  0.37530579499E+02  0.51100000000E-03 0. -1.
         22    1    1    0    0    0  0.30818793830E+01  0.28499328173E+02  0.11047731436E+02  0.30720710550E+02  0.00000000000E+00 0.  1.
</event>
<event>
 5    1  0.8962567E-005  0.9118800E+02  0.7818608E-02  0.1130116E+00
         25   -1    0    0    0    0  0.00000000000E+00  0.00000000000E+00  0.99999998245E-14  0.12500000000E+03  0.12500000000E+03 0.  0.
        -11    1    3    3    0    0  0.76052536373E+01  0.53973765970E+02  0.34939818345E+01  0.54618817318E+02  0.51100000000E-03 0.  1.
         23    2    1    0    0    0  0.23721454680E+02  0.14931214058E+02  0.44011833486E+00  0.96967121634E+02  0.92826614763E+02 0.  0.
         11    1    3    3    0    0  0.16116201042E+02 -0.39042551912E+02 -0.30538634997E+01  0.42348304316E+02  0.51100000000E-03 0. -1.
         22    1    1    0    0    0 -0.23721454680E+02 -0.14931214058E+02 -0.44011833486E+00  0.28032878366E+02  0.00000000000E+00 0. -1.
</event>
<event>
 5    1  0.8962567E-005  0.9118800E+02  0.7818608E-02  0.1130116E+00
         25   -1    0    0    0    0  0.00000000000E+00  0.00000000000E+00  0.99999998245E-14  0.12500000000E+03  0.12500000000E+03 0.  0.
        -11    1    3    3    0    0 -0.45817900834E+02  0.16798257538E+02  0.37070549767E+02  0.61283661391E+02  0.51100000000E-03 0.  1.
         23    2    1    0    0    0 -0.24301367274E+02  0.24780775033E+01  0.10315839451E+02  0.98483705706E+02  0.94846857758E+02 0.  0.
         11    1    3    3    0    0  0.21516533560E+02 -0.14320180035E+02 -0.26754710317E+02  0.37200044315E+02  0.51100000000E-03 0. -1.
         22    1    1    0    0    0  0.24301367274E+02 -0.24780775033E+01 -0.10315839451E+02  0.26516294294E+02  0.00000000000E+00 0.  1.
</event>
<event>
 5    1  0.8962567E-005  0.9118800E+02  0.7818608E-02  0.1130116E+00
         25   -1    0    0    0    0  0.00000000000E+00  0.00000000000E+00  0.99999998245E-14  0.12500000000E+03  0.12500000000E+03 0.  0.
        -11    1    3    3    0    0 -0.24619624368E+02 -0.52722401696E+02 -0.13437012372E+02  0.59718764609E+02  0.51100000000E-03 0.  1.
         23    2    1    0    0    0 -0.19147078142E+02 -0.17104297428E+02 -0.13994986944E+02  0.95759150980E+02  0.91185457969E+02 0.  0.
         11    1    3    3    0    0  0.54725462264E+01  0.35618104269E+02 -0.55797457205E+00  0.36040386371E+02  0.51100000000E-03 0. -1.
         22    1    1    0    0    0  0.19147078142E+02  0.17104297428E+02  0.13994986944E+02  0.29240849020E+02  0.00000000000E+00 0.  1.
</event>
<event>
 5    1  0.8962567E-005  0.9118800E+02  0.7818608E-02  0.1130116E+00
         25   -1    0    0    0    0  0.00000000000E+00  0.00000000000E+00  0.99999998245E-14  0.12500000000E+03  0.12500000000E+03 0.  0.
        -11    1    3    3    0    0 -0.77514734683E+01 -0.27404783027E+02  0.20855800397E+02  0.35299743400E+02  0.51100000000E-03 0. -1.
         23    2    1    0    0    0  0.19505529223E+02  0.50138777453E+01 -0.21737236658E+02  0.95367043721E+02  0.90646350893E+02 0.  0.
         11    1    3    3    0    0  0.27257002691E+02  0.32418660772E+02 -0.42593037055E+02  0.60067300320E+02  0.51100000000E-03 0.  1.
         22    1    1    0    0    0 -0.19505529223E+02 -0.50138777453E+01  0.21737236658E+02  0.29632956279E+02  0.00000000000E+00 0.  1.
</event>
<event>
 5    1  0.8962567E-005  0.9118800E+02  0.7818608E-02  0.1130116E+00
         25   -1    0    0    0    0  0.00000000000E+00  0.00000000000E+00  0.99999998245E-14  0.12500000000E+03  0.12500000000E+03 0.  0.
        -11    1    3    3    0    0  0.27708012818E+00 -0.38614786526E+02 -0.41593084539E+02  0.56755292207E+02  0.51100000000E-03 0.  1.
         23    2    1    0    0    0  0.17551814642E+01 -0.22505723094E+01 -0.29874249592E+02  0.94989726320E+02  0.90124533729E+02 0.  0.
         11    1    3    3    0    0  0.14781013360E+01  0.36364214216E+02  0.11718834947E+02  0.38234434112E+02  0.51100000000E-03 0. -1.
         22    1    1    0    0    0 -0.17551814642E+01  0.22505723094E+01  0.29874249592E+02  0.30010273680E+02  0.00000000000E+00 0.  1.
</event>
<event>
 5    1  0.8962567E-005  0.9118800E+02  0.7818608E-02  0.1130116E+00
         25   -1    0    0    0    0  0.00000000000E+00  0.00000000000E+00  0.99999998245E-14  0.12500000000E+03  0.12500000000E+03 0.  0.
        -11    1    3    3    0    0  0.81048210014E+01 -0.32756986307E+02  0.74048638188E+01  0.34547652363E+02  0.51100000000E-03 0. -1.
         23    2    1    0    0    0 -0.89581606257E+01  0.18696489511E+02 -0.20780717487E+02  0.95646199887E+02  0.91030489242E+02 0.  0.
         11    1    3    3    0    0 -0.17062981627E+02  0.51453475818E+02 -0.28185581306E+02  0.61098547524E+02  0.51100000000E-03 0.  1.
         22    1    1    0    0    0  0.89581606257E+01 -0.18696489511E+02  0.20780717487E+02  0.29353800113E+02  0.00000000000E+00 0.  1.
</event>
<event>
 5    1  0.8962567E-005  0.9118800E+02  0.7818608E-02  0.1130116E+00
         25   -1    0    0    0    0  0.00000000000E+00  0.00000000000E+00  0.99999998245E-14  0.12500000000E+03  0.12500000000E+03 0.  0.
        -11    1    3    3    0    0  0.28004239883E+02  0.39469022867E+02 -0.29619536409E+02  0.56739388037E+02  0.51100000000E-03 0.  1.
         23    2    1    0    0    0  0.17146526788E+02  0.17592335556E+01 -0.22556477310E+02  0.96611746228E+02  0.92346827541E+02 0.  0.
         11    1    3    3    0    0 -0.10857713095E+02 -0.37709789312E+02  0.70630590990E+01  0.39872358190E+02  0.51100000000E-03 0. -1.
         22    1    1    0    0    0 -0.17146526788E+02 -0.17592335556E+01  0.22556477310E+02  0.28388253772E+02  0.00000000000E+00 0.  1.
</event>
<event>
 5    1  0.8962567E-005  0.9118800E+02  0.7818608E-02  0.1130116E+00
         25   -1    0    0    0    0  0.00000000000E+00  0.00000000000E+00  0.99999998245E-14  0.12500000000E+03  0.12500000000E+03 0.  0.
        -11    1    3    3    0    0  0.36245384872E+02  0.11805534142E+02  0.91109510814E+01  0.39193213581E+02  0.51100000000E-03 0.  1.
         23    2    1    0    0    0 -0.18572329651E+02  0.20840841633E+02  0.11515732483E+02  0.94802579527E+02  0.89864591924E+02 0.  0.
         11    1    3    3    0    0 -0.54817714524E+02  0.90353074904E+01  0.24047814013E+01  0.55609365946E+02  0.51100000000E-03 0. -1.
         22    1    1    0    0    0  0.18572329651E+02 -0.20840841633E+02 -0.11515732483E+02  0.30197420473E+02  0.00000000000E+00 0. -1.
</event>
<event>
 5    1  0.8962567E-005  0.9118800E+02  0.7818608E-02  0.1130116E+00
         25   -1    0    0    0    0  0.00000000000E+00  0.00000000000E+00  0.99999998245E-14  0.12500000000E+03  0.12500000000E+03 0.  0.
        -11    1    3    3    0    0  0.84958356200E+01 -0.15064646591E+02  0.12249957258E+02  0.21193967370E+02  0.51100000000E-03 0.  1.
         23    2    1    0    0    0  0.91657958407E+01  0.32320915689E+02 -0.26340824447E+02  0.82309340167E+02  0.70372828860E+02 0.  0.
         11    1    3    3    0    0  0.66996022076E+00  0.47385562280E+02 -0.38590781706E+02  0.61115372798E+02  0.51100000000E-03 0. -1.
         22    1    1    0    0    0 -0.91657958407E+01 -0.32320915689E+02  0.26340824447E+02  0.42690659833E+02  0.00000000000E+00 0. -1.
</event>
<event>
 5    1  0.8962567E-005  0.9118800E+02  0.7818608E-02  0.1130116E+00
         25   -1    0    0    0    0  0.00000000000E+00  0.00000000000E+00  0.99999998245E-14  0.12500000000E+03  0.12500000000E+03 0.  0.
        -11    1    3    3    0    0 -0.30321524453E+01 -0.13959924563E+02  0.32027620702E+02  0.35069102217E+02  0.51100000000E-03 0.  1.
         23    2    1    0    0    0  0.31102566545E+02  0.18381841149E+02  0.75129494280E+01  0.88098697329E+02  0.79997964551E+02 0.  0.
         11    1    3    3    0    0  0.34134718990E+02  0.32341765711E+02 -0.24514671274E+02  0.53029595112E+02  0.51100000000E-03 0. -1.
         22    1    1    0    0    0 -0.31102566545E+02 -0.18381841149E+02 -0.75129494280E+01  0.36901302671E+02  0.00000000000E+00 0. -1.
</event>
<event>
 5    1  0.8962567E-005  0.9118800E+02  0.7818608E-02  0.1130116E+00
         25   -1    0    0    0    0  0.00000000000E+00  0.00000000000E+00  0.99999998245E-14  0.12500000000E+03  0.12500000000E+03 0.  0.
        -11    1    3    3    0    0 -0.19756352306E+02 -0.25536327921E+02  0.30557499387E+02  0.44454226674E+02  0.51100000000E-03 0.  1.
         23    2    1    0    0    0  0.20881924703E+02 -0.22062579821E+02  0.14019976353E+01  0.94589840431E+02  0.89568186918E+02 0.  0.
         11    1    3    3    0    0  0.40638277009E+02  0.34737481002E+01 -0.29155501752E+02  0.50135613757E+02  0.51100000000E-03 0. -1.
         22    1    1    0    0    0 -0.20881924703E+02  0.22062579821E+02 -0.14019976353E+01  0.30410159569E+02  0.00000000000E+00 0.  1.
</event>
<event>
 5    1  0.8962567E-005  0.9118800E+02  0.7818608E-02  0.1130116E+00
         25   -1    0    0    0    0  0.00000000000E+00  0.00000000000E+00  0.99999998245E-14  0.12500000000E+03  0.12500000000E+03 0.  0.
        -11    1    3    3    0    0 -0.12814594728E+02  0.97513043909E+01 -0.35257182191E+02  0.38760426619E+02  0.51100000000E-03 0.  1.
         23    2    1    0    0    0 -0.27394071598E+02  0.14446413007E+02  0.14486940672E+02  0.90809278195E+02  0.84126806363E+02 0.  0.
         11    1    3    3    0    0 -0.14579476870E+02  0.46951086161E+01  0.49744122863E+02  0.52048851576E+02  0.51100000000E-03 0. -1.
         22    1    1    0    0    0  0.27394071598E+02 -0.14446413007E+02 -0.14486940672E+02  0.34190721805E+02  0.00000000000E+00 0. -1.
</event>
<event>
 5    1  0.8962567E-005  0.9118800E+02  0.7818608E-02  0.1130116E+00
         25   -1    0    0    0    0  0.00000000000E+00  0.00000000000E+00  0.99999998245E-14  0.12500000000E+03  0.12500000000E+03 0.  0.
        -11    1    3    3    0    0 -0.41110201608E+02 -0.81549947845E+00  0.48715646175E+01  0.41405867432E+02  0.51100000000E-03 0.  1.
         23    2    1    0    0    0  0.96229373406E+01 -0.14737587993E+02  0.22085078347E+02  0.96759105742E+02  0.92546077364E+02 0.  0.
         11    1    3    3    0    0  0.50733138949E+02 -0.13922088515E+02  0.17213513730E+02  0.55353238310E+02  0.51100000000E-03 0. -1.
         22    1    1    0    0    0 -0.96229373406E+01  0.14737587993E+02 -0.22085078347E+02  0.28240894258E+02  0.00000000000E+00 0. -1.
</event>
<event>
 5    1  0.8962567E-005  0.9118800E+02  0.7818608E-02  0.1130116E+00
         25   -1    0    0    0    0  0.00000000000E+00  0.00000000000E+00  0.99999998245E-14  0.12500000000E+03  0.12500000000E+03 0.  0.
        -11    1    3    3    0    0  0.47742462193E+01  0.31305560504E+02 -0.48011292203E+02  0.57514482739E+02  0.51100000000E-03 0. -1.
         23    2    1    0    0    0 -0.10179725600E+02  0.23902831482E+02 -0.13790521670E+02  0.95586556575E+02  0.90948552181E+02 0.  0.
         11    1    3    3    0    0 -0.14953971819E+02 -0.74027290221E+01  0.34220770532E+02  0.38072073837E+02  0.51100000000E-03 0.  1.
         22    1    1    0    0    0  0.10179725600E+02 -0.23902831482E+02  0.13790521670E+02  0.29413443425E+02  0.00000000000E+00 0. -1.
</event>
<event>
 5    1  0.8962567E-005  0.9118800E+02  0.7818608E-02  0.1130116E+00
         25   -1    0    0    0    0  0.00000000000E+00  0.00000000000E+00  0.99999998245E-14  0.12500000000E+03  0.12500000000E+03 0.  0.
        -11    1    3    3    0    0 -0.21052048868E+00 -0.32768664377E+02 -0.11695908467E+02  0.34794021887E+02  0.51100000000E-03 0.  1.
         23    2    1    0    0    0 -0.30514800580E+00  0.27422842644E+02 -0.12191638939E+02  0.94987644645E+02  0.90121646463E+02 0.  0.
         11    1    3    3    0    0 -0.94627517127E-01  0.60191507021E+02 -0.49573047221E+00  0.60193622758E+02  0.51100000000E-03 0. -1.
         22    1    1    0    0    0  0.30514800580E+00 -0.27422842644E+02  0.12191638939E+02  0.30012355355E+02  0.00000000000E+00 0. -1.
</event>
<event>
 5    1  0.8962567E-005  0.9118800E+02  0.7818608E-02  0.1130116E+00
         25   -1    0    0    0    0  0.00000000000E+00  0.00000000000E+00  0.99999998245E-14  0.12500000000E+03  0.12500000000E+03 0.  0.
        -11    1    3    3    0    0  0.51212084923E+01 -0.48217455388E+02 -0.26421587884E+02  0.55220015276E+02  0.51100000000E-03 0.  1.
         23    2    1    0    0    0 -0.14273755063E+02 -0.26995792645E+02  0.28751567060E+00  0.94461572251E+02  0.89388998555E+02 0.  0.
         11    1    3    3    0    0 -0.19394963555E+02  0.21221662743E+02  0.26709103555E+02  0.39241556975E+02  0.51100000000E-03 0. -1.
         22    1    1    0    0    0  0.14273755063E+02  0.26995792645E+02 -0.28751567060E+00  0.30538427749E+02  0.00000000000E+00 0.  1.
</event>
<event>
 5    1  0.8962567E-005  0.9118800E+02  0.7818608E-02  0.1130116E+00
         25   -1    0    0    0    0  0.00000000000E+00  0.00000000000E+00  0.99999998245E-14  0.12500000000E+03  0.12500000000E+03 0.  0.
        -11    1    3    3    0    0  0.29862407675E+02 -0.43094793552E+02 -0.33825842781E+02  0.62394809588E+02  0.51100000000E-03 0.  1.
         23    2    1    0    0    0  0.11839603025E+02 -0.21011524449E+02 -0.16975736532E+02  0.95507017949E+02  0.90839168244E+02 0.  0.
         11    1    3    3    0    0 -0.18022804649E+02  0.22083269103E+02  0.16850106249E+02  0.33112208361E+02  0.51100000000E-03 0. -1.
         22    1    1    0    0    0 -0.11839603025E+02  0.21011524449E+02  0.16975736532E+02  0.29492982051E+02  0.00000000000E+00 0.  1.
</event>
<event>
 5    1  0.8962567E-005  0.9118800E+02  0.7818608E-02  0.1130116E+00
         25   -1    0    0    0    0  0.00000000000E+00  0.00000000000E+00  0.99999998245E-14  0.12500000000E+03  0.12500000000E+03 0.  0.
        -11    1    3    3    0    0 -0.20937840516E+02  0.10318968396E+02  0.24413245405E+02  0.33776927416E+02  0.51100000000E-03 0. -1.
         23    2    1    0    0    0  0.28595009741E+02  0.86582943601E+01 -0.92903104163E+01  0.93711815154E+02  0.88334329615E+02 0.  0.
         11    1    3    3    0    0  0.49532850257E+02 -0.16606740359E+01 -0.33703555821E+02  0.59934887738E+02  0.51100000000E-03 0.  1.
         22    1    1    0    0    0 -0.28595009741E+02 -0.86582943601E+01  0.92903104163E+01  0.31288184846E+02  0.00000000000E+00 0.  1.
</event>
<event>
 5    1  0.8962567E-005  0.9118800E+02  0.7818608E-02  0.1130116E+00
         25   -1    0    0    0    0  0.00000000000E+00  0.00000000000E+00  0.99999998245E-14  0.12500000000E+03  0.12500000000E+03 0.  0.
        -11    1    3    3    0    0  0.37522508916E+02  0.77121999887E+01 -0.11194819303E+02  0.39909155385E+02  0.51100000000E-03 0. -1.
         23    2    1    0    0    0 -0.14297211741E+02  0.23949091876E+02  0.51857934060E+01  0.96629915078E+02  0.92371417492E+02 0.  0.
         11    1    3    3    0    0 -0.51819720657E+02  0.16236891887E+02  0.16380612709E+02  0.56720759693E+02  0.51100000000E-03 0.  1.
         22    1    1    0    0    0  0.14297211741E+02 -0.23949091876E+02 -0.51857934060E+01  0.28370084922E+02  0.00000000000E+00 0.  1.
</event>
<event>
 5    1  0.8962567E-005  0.9118800E+02  0.7818608E-02  0.1130116E+00
         25   -1    0    0    0    0  0.00000000000E+00  0.00000000000E+00  0.99999998245E-14  0.12500000000E+03  0.12500000000E+03 0.  0.
        -11    1    3    3    0    0 -0.42663280515E+02 -0.40651915787E+02  0.18600869683E+02  0.61795842212E+02  0.51100000000E-03 0.  1.
         23    2    1    0    0    0 -0.17926258983E+02 -0.18073895143E+02  0.14931531560E+02  0.95487848579E+02  0.90812786240E+02 0.  0.
         11    1    3    3    0    0  0.24737021532E+02  0.22578020645E+02 -0.36693381233E+01  0.33692006367E+02  0.51100000000E-03 0. -1.
         22    1    1    0    0    0  0.17926258983E+02  0.18073895143E+02 -0.14931531560E+02  0.29512151421E+02  0.00000000000E+00 0.  1.
</event>
<event>
 5    1  0.8962567E-005  0.9118800E+02  0.7818608E-02  0.1130116E+00
         25   -1    0    0    0    0  0.00000000000E+00  0.00000000000E+00  0.99999998245E-14  0.12500000000E+03  0.12500000000E+03 0.  0.
        -11    1    3    3    0    0  0.40074777425E+02 -0.90018480219E+01  0.41981468442E+02  0.58732144063E+02  0.51100000000E-03 0.  1.
         23    2    1    0    0    0  0.13833886214E+02  0.85478389975E+01  0.26538325672E+02  0.93875657617E+02  0.88565876071E+02 0.  0.
         11    1    3    3    0    0 -0.26240891211E+02  0.17549687019E+02 -0.15443142769E+02  0.35143513553E+02  0.51100000000E-03 0. -1.
         22    1    1    0    0    0 -0.13833886214E+02 -0.85478389975E+01 -0.26538325672E+02  0.31124342383E+02  0.00000000000E+00 0. -1.
</event>
<event>
 5    1  0.8962567E-005  0.9118800E+02  0.7818608E-02  0.1130116E+00
         25   -1    0    0    0    0  0.00000000000E+00  0.00000000000E+00  0.99999998245E-14  0.12500000000E+03  0.12500000000E+03 0.  0.
        -11    1    3    3    0    0 -0.51515504301E+00  0.36778869887E+02 -0.27031499571E+02  0.45647043980E+02  0.51100000000E-03 0. -1.
         23    2    1    0    0    0 -0.96752145531E+01  0.21023216069E+02  0.18937246102E+02  0.95096744651E+02  0.90272842886E+02 0.  0.
         11    1    3    3    0    0 -0.91600595101E+01 -0.15755653817E+02  0.45968745673E+02  0.49449700671E+02  0.51100000000E-03 0.  1.
         22    1    1    0    0    0  0.96752145531E+01 -0.21023216069E+02 -0.18937246102E+02  0.29903255349E+02  0.00000000000E+00 0. -1.
</event>
<event>
 5    1  0.8962567E-005  0.9118800E+02  0.7818608E-02  0.1130116E+00
         25   -1    0    0    0    0  0.00000000000E+00  0.00000000000E+00  0.99999998245E-14  0.12500000000E+03  0.12500000000E+03 0.  0.
        -11    1    3    3    0    0  0.35061645003E+02  0.27721944410E+02  0.19716581910E+02  0.48852520453E+02  0.51100000000E-03 0. -1.
         23    2    1    0    0    0 -0.11132261341E+02  0.24352344626E+02  0.11344503429E+02  0.95919737116E+02  0.91405329598E+02 0.  0.
         11    1    3    3    0    0 -0.46193906344E+02 -0.33695997843E+01 -0.83720784801E+01  0.47067216662E+02  0.51100000000E-03 0.  1.
         22    1    1    0    0    0  0.11132261341E+02 -0.24352344626E+02 -0.11344503429E+02  0.29080262884E+02  0.00000000000E+00 0. -1.
</event>
<event>
 5    1  0.8962567E-005  0.9118800E+02  0.7818608E-02  0.1130116E+00
         25   -1    0    0    0    0  0.00000000000E+00  0.00000000000E+00  0.99999998245E-14  0.12500000000E+03  0.12500000000E+03 0.  0.
        -11    1    3    3    0    0  0.39450603203E+02  0.42975365623E+01  0.24039308933E+02  0.46397276728E+02  0.51100000000E-03 0. -1.
         23    2    1    0    0    0 -0.92109791533E+01 -0.12101622728E+02 -0.88755440666E+01  0.10739128931E+03  0.10593782293E+03 0.  0.
         11    1    3    3    0    0 -0.48661582356E+02 -0.16399159290E+02 -0.32914852999E+02  0.60994012584E+02  0.51100000000E-03 0.  1.
         22    1    1    0    0    0  0.92109791533E+01  0.12101622728E+02  0.88755440666E+01  0.17608710688E+02  0.00000000000E+00 0.  1.
</event>
<event>
 5    1  0.8962567E-005  0.9118800E+02  0.7818608E-02  0.1130116E+00
         25   -1    0    0    0    0  0.00000000000E+00  0.00000000000E+00  0.99999998245E-14  0.12500000000E+03  0.12500000000E+03 0.  0.
        -11    1    3    3    0    0 -0.13661992109E+02  0.33236168459E+02  0.47536279325E+01  0.36247619246E+02  0.51100000000E-03 0. -1.
         23    2    1    0    0    0 -0.51573147114E+01 -0.21917222862E+02 -0.17658873221E+02  0.96385347172E+02  0.92039865238E+02 0.  0.
         11    1    3    3    0    0  0.85046773979E+01 -0.55153391321E+02 -0.22412501154E+02  0.60137727926E+02  0.51100000000E-03 0.  1.
         22    1    1    0    0    0  0.51573147114E+01  0.21917222862E+02  0.17658873221E+02  0.28614652828E+02  0.00000000000E+00 0.  1.
</event>
<event>
 5    1  0.8962567E-005  0.9118800E+02  0.7818608E-02  0.1130116E+00
         25   -1    0    0    0    0  0.00000000000E+00  0.00000000000E+00  0.99999998245E-14  0.12500000000E+03  0.12500000000E+03 0.  0.
        -11    1    3    3    0    0 -0.31249914788E+02 -0.68258637431E+01 -0.59990798549E+00  0.31992334706E+02  0.51100000000E-03 0. -1.
         23    2    1    0    0    0  0.17024838270E+02  0.28226722341E+02  0.38282267148E+01  0.91814938722E+02  0.85608029299E+02 0.  0.
         11    1    3    3    0    0  0.48274753058E+02  0.35052586084E+02  0.44281347003E+01  0.59822604016E+02  0.51100000000E-03 0.  1.
         22    1    1    0    0    0 -0.17024838270E+02 -0.28226722341E+02 -0.38282267148E+01  0.33185061278E+02  0.00000000000E+00 0.  1.
</event>
<event>
 5    1  0.8962567E-005  0.9118800E+02  0.7818608E-02  0.1130116E+00
         25   -1    0    0    0    0  0.00000000000E+00  0.00000000000E+00  0.99999998245E-14  0.12500000000E+03  0.12500000000E+03 0.  0.
        -11    1    3    3    0    0  0.25709010351E+02 -0.24147487668E+01 -0.35124818876E+02  0.43595150260E+02  0.51100000000E-03 0.  1.
         23    2    1    0    0    0  0.10327840307E+02  0.26995587294E+02  0.49992467383E+01  0.95667109132E+02  0.91059196586E+02 0.  0.
         11    1    3    3    0    0 -0.15381170043E+02  0.29410336061E+02  0.40124065614E+02  0.52071958872E+02  0.51100000000E-03 0. -1.
         22    1    1    0    0    0 -0.10327840307E+02 -0.26995587294E+02 -0.49992467383E+01  0.29332890868E+02  0.00000000000E+00 0. -1.
</event>
<event>
 5    1  0.8962567E-005  0.9118800E+02  0.7818608E-02  0.1130116E+00
         25   -1    0    0    0    0  0.00000000000E+00  0.00000000000E+00  0.99999998245E-14  0.12500000000E+03  0.12500000000E+03 0.  0.
        -11    1    3    3    0    0  0.29526467280E+02  0.21777762590E+02  0.43957097016E+01  0.36951393444E+02  0.51100000000E-03 0.  1.
         23    2    1    0    0    0 -0.23349331747E+02 -0.28996415760E+01 -0.13358635782E+02  0.97943533781E+02  0.94132265697E+02 0.  0.
         11    1    3    3    0    0 -0.52875799026E+02 -0.24677404166E+02 -0.17754345483E+02  0.60992140337E+02  0.51100000000E-03 0. -1.
         22    1    1    0    0    0  0.23349331747E+02  0.28996415760E+01  0.13358635782E+02  0.27056466219E+02  0.00000000000E+00 0. -1.
</event>
<event>
 5    1  0.8962567E-005  0.9118800E+02  0.7818608E-02  0.1130116E+00
         25   -1    0    0    0    0  0.00000000000E+00  0.00000000000E+00  0.99999998245E-14  0.12500000000E+03  0.12500000000E+03 0.  0.
        -11    1    3    3    0    0  0.38156682610E+02 -0.16651717398E+02 -0.14162695890E+02  0.43974925528E+02  0.51100000000E-03 0.  1.
         23    2    1    0    0    0  0.12085059201E+02 -0.56029803515E+01  0.27554567149E+02  0.94394506776E+02  0.89295166129E+02 0.  0.
         11    1    3    3    0    0 -0.26071623409E+02  0.11048737047E+02  0.41717263039E+02  0.50419581248E+02  0.51100000000E-03 0. -1.
         22    1    1    0    0    0 -0.12085059201E+02  0.56029803515E+01 -0.27554567149E+02  0.30605493224E+02  0.00000000000E+00 0. -1.
</event>
<event>
 5    1  0.8962567E-005  0.9118800E+02  0.7818608E-02  0.1130116E+00
         25   -1    0    0    0    0  0.00000000000E+00  0.00000000000E+00  0.99999998245E-14  0.12500000000E+03  0.12500000000E+03 0.  0.
        -11    1    3    3    0    0 -0.85368221006E+01  0.55130925186E+02 -0.19133382264E+02  0.58977814139E+02  0.51100000000E-03 0. -1.
         23    2    1    0    0    0  0.10721933842E+02  0.26049788941E+02 -0.63775733479E+01  0.96117049822E+02  0.91674764551E+02 0.  0.
         11    1    3    3    0    0  0.19258755943E+02 -0.29081136245E+02  0.12755808916E+02  0.37139235683E+02  0.51100000000E-03 0.  1.
         22    1    1    0    0    0 -0.10721933842E+02 -0.26049788941E+02  0.63775733479E+01  0.28882950178E+02  0.00000000000E+00 0. -1.
</event>
<event>
 5    1  0.8962567E-005  0.9118800E+02  0.7818608E-02  0.1130116E+00
         25   -1    0    0    0    0  0.00000000000E+00  0.00000000000E+00  0.99999998245E-14  0.12500000000E+03  0.12500000000E+03 0.  0.
        -11    1    3    3    0    0 -0.43817050893E+02  0.17972621916E+02 -0.22357252731E+02  0.52371708368E+02  0.51100000000E-03 0. -1.
         23    2    1    0    0    0 -0.17223667263E+02 -0.17465750119E+02 -0.11036395564E+02  0.98101874261E+02  0.94342294679E+02 0.  0.
         11    1    3    3    0    0  0.26593383630E+02 -0.35438372035E+02  0.11320857167E+02  0.45730165893E+02  0.51100000000E-03 0.  1.
         22    1    1    0    0    0  0.17223667263E+02  0.17465750119E+02  0.11036395564E+02  0.26898125739E+02  0.00000000000E+00 0. -1.
</event>
<event>
 5    1  0.8962567E-005  0.9118800E+02  0.7818608E-02  0.1130116E+00
         25   -1    0    0    0    0  0.00000000000E+00  0.00000000000E+00  0.99999998245E-14  0.12500000000E+03  0.12500000000E+03 0.  0.
        -11    1    3    3    0    0  0.81925007022E+00 -0.56371776075E+01 -0.49677070900E+02  0.50002603088E+02  0.51100000000E-03 0. -1.
         23    2    1    0    0    0  0.14823766331E+02 -0.23174436037E+02 -0.97343586328E+01  0.95818562889E+02  0.91266865412E+02 0.  0.
         11    1    3    3    0    0  0.14004516261E+02 -0.17537258430E+02  0.39942712267E+02  0.45815959801E+02  0.51100000000E-03 0.  1.
         22    1    1    0    0    0 -0.14823766331E+02  0.23174436037E+02  0.97343586328E+01  0.29181437111E+02  0.00000000000E+00 0. -1.
</event>
<event>
 5    1  0.8962567E-005  0.9118800E+02  0.7818608E-02  0.1130116E+00
         25   -1    0    0    0    0  0.00000000000E+00  0.00000000000E+00  0.99999998245E-14  0.12500000000E+03  0.12500000000E+03 0.  0.
        -11    1    3    3    0    0 -0.13922686795E+02 -0.38697252260E+02  0.67582035305E+01  0.41677234256E+02  0.51100000000E-03 0.  1.
         23    2    1    0    0    0 -0.22071692163E+02  0.15396144175E+02  0.95306199239E+01  0.96451207266E+02  0.92129266884E+02 0.  0.
         11    1    3    3    0    0 -0.81490053688E+01  0.54093396435E+02  0.27724163934E+01  0.54773973010E+02  0.51100000000E-03 0. -1.
         22    1    1    0    0    0  0.22071692163E+02 -0.15396144175E+02 -0.95306199239E+01  0.28548792734E+02  0.00000000000E+00 0. -1.
</event>
<event>
 5    1  0.8962567E-005  0.9118800E+02  0.7818608E-02  0.1130116E+00
         25   -1    0    0    0    0  0.00000000000E+00  0.00000000000E+00  0.99999998245E-14  0.12500000000E+03  0.12500000000E+03 0.  0.
        -11    1    3    3    0    0  0.31442413842E+02 -0.53191394637E+02  0.52258449775E+01  0.62010154875E+02  0.51100000000E-03 0.  1.
         23    2    1    0    0    0  0.11767384780E+02 -0.28847940550E+02 -0.55280148874E+00  0.93839438259E+02  0.88514742076E+02 0.  0.
         11    1    3    3    0    0 -0.19675029062E+02  0.24343454087E+02 -0.57786464662E+01  0.31829283384E+02  0.51100000000E-03 0. -1.
         22    1    1    0    0    0 -0.11767384780E+02  0.28847940550E+02  0.55280148874E+00  0.31160561741E+02  0.00000000000E+00 0.  1.
</event>
<event>
 5    1  0.8962567E-005  0.9118800E+02  0.7818608E-02  0.1130116E+00
         25   -1    0    0    0    0  0.00000000000E+00  0.00000000000E+00  0.99999998245E-14  0.12500000000E+03  0.12500000000E+03 0.  0.
        -11    1    3    3    0    0 -0.18914354180E+02  0.29685172688E+02  0.72251659549E+01  0.35932788577E+02  0.51100000000E-03 0. -1.
         23    2    1    0    0    0  0.24836441172E+02 -0.12133789239E+02 -0.25547143352E+01  0.97240241055E+02  0.93193670728E+02 0.  0.
         11    1    3    3    0    0  0.43750795352E+02 -0.41818961927E+02 -0.97798802901E+01  0.61307452478E+02  0.51100000000E-03 0.  1.
         22    1    1    0    0    0 -0.24836441172E+02  0.12133789239E+02  0.25547143352E+01  0.27759758945E+02  0.00000000000E+00 0.  1.
</event>
<event>
 5    1  0.8962567E-005  0.9118800E+02  0.7818608E-02  0.1130116E+00
         25   -1    0    0    0    0  0.00000000000E+00  0.00000000000E+00  0.99999998245E-14  0.12500000000E+03  0.12500000000E+03 0.  0.
        -11    1    3    3    0    0  0.19141222035E+02 -0.11815250223E+02  0.29172872528E+02  0.36838064697E+02  0.51100000000E-03 0.  1.
         23    2    1    0    0    0 -0.18933241481E+02 -0.22643257737E+02 -0.11248254976E+02  0.93413483986E+02  0.87911153993E+02 0.  0.
         11    1    3    3    0    0 -0.38074463515E+02 -0.10828007515E+02 -0.40421127504E+02  0.56575419289E+02  0.51100000000E-03 0. -1.
         22    1    1    0    0    0  0.18933241481E+02  0.22643257737E+02  0.11248254976E+02  0.31586516014E+02  0.00000000000E+00 0. -1.
</event>
<event>
 5    1  0.8962567E-005  0.9118800E+02  0.7818608E-02  0.1130116E+00
         25   -1    0    0    0    0  0.00000000000E+00  0.00000000000E+00  0.99999998245E-14  0.12500000000E+03  0.12500000000E+03 0.  0.
        -11    1    3    3    0    0  0.10077200251E+02  0.20450382702E+02  0.50470626565E+02  0.55380973842E+02  0.51100000000E-03 0.  1.
         23    2    1    0    0    0 -0.15726407514E+02  0.38617232421E+01  0.24801784706E+02  0.95379714311E+02  0.90663821769E+02 0.  0.
         11    1    3    3    0    0 -0.25803607766E+02 -0.16588659460E+02 -0.25668841860E+02  0.39998740469E+02  0.51100000000E-03 0. -1.
         22    1    1    0    0    0  0.15726407514E+02 -0.38617232421E+01 -0.24801784706E+02  0.29620285689E+02  0.00000000000E+00 0.  1.
</event>
<event>
 5    1  0.8962567E-005  0.9118800E+02  0.7818608E-02  0.1130116E+00
         25   -1    0    0    0    0  0.00000000000E+00  0.00000000000E+00  0.99999998245E-14  0.12500000000E+03  0.12500000000E+03 0.  0.
        -11    1    3    3    0    0 -0.89064137234E+01 -0.17332772644E+02  0.38070394075E+02  0.42768026822E+02  0.51100000000E-03 0. -1.
         23    2    1    0    0    0 -0.27506628452E+02  0.10884025901E+02 -0.21954229378E+01  0.95336950418E+02  0.90604843162E+02 0.  0.
         11    1    3    3    0    0 -0.18600214729E+02  0.28216798546E+02 -0.40265817012E+02  0.52568923596E+02  0.51100000000E-03 0.  1.
         22    1    1    0    0    0  0.27506628452E+02 -0.10884025901E+02  0.21954229378E+01  0.29663049582E+02  0.00000000000E+00 0. -1.
</event>
<event>
 5    1  0.8962567E-005  0.9118800E+02  0.7818608E-02  0.1130116E+00
         25   -1    0    0    0    0  0.00000000000E+00  0.00000000000E+00  0.99999998245E-14  0.12500000000E+03  0.12500000000E+03 0.  0.
        -11    1    3    3    0    0  0.26322602239E+02  0.43268801899E+02 -0.83310616354E+01  0.51327138968E+02  0.51100000000E-03 0. -1.
         23    2    1    0    0    0 -0.13549052023E+02  0.26484389730E+02 -0.60117168729E+01  0.94649704287E+02  0.89651693078E+02 0.  0.
         11    1    3    3    0    0 -0.39871654262E+02 -0.16784412169E+02  0.23193447625E+01  0.43322565319E+02  0.51100000000E-03 0.  1.
         22    1    1    0    0    0  0.13549052023E+02 -0.26484389730E+02  0.60117168729E+01  0.30350295713E+02  0.00000000000E+00 0. -1.
</event>
<event>
 5    1  0.8962567E-005  0.9118800E+02  0.7818608E-02  0.1130116E+00
         25   -1    0    0    0    0  0.00000000000E+00  0.00000000000E+00  0.99999998245E-14  0.12500000000E+03  0.12500000000E+03 0.  0.
        -11    1    3    3    0    0 -0.49936485594E+01 -0.57520034290E+02  0.20520090071E+02  0.61274505037E+02  0.51100000000E-03 0.  1.
         23    2    1    0    0    0 -0.11125935191E+02 -0.27663746532E+02  0.90705099888E+01  0.93833616547E+02  0.88506520307E+02 0.  0.
         11    1    3    3    0    0 -0.61322866311E+01  0.29856287758E+02 -0.11449580083E+02  0.32559111510E+02  0.51100000000E-03 0. -1.
         22    1    1    0    0    0  0.11125935191E+02  0.27663746532E+02 -0.90705099888E+01  0.31166383453E+02  0.00000000000E+00 0.  1.
</event>
<event>
 5    1  0.8962567E-005  0.9118800E+02  0.7818608E-02  0.1130116E+00
         25   -1    0    0    0    0  0.00000000000E+00  0.00000000000E+00  0.99999998245E-14  0.12500000000E+03  0.12500000000E+03 0.  0.
        -11    1    3    3    0    0  0.12587151223E+02  0.23689256538E+02 -0.30549106852E+02  0.40655444665E+02  0.51100000000E-03 0. -1.
         23    2    1    0    0    0 -0.25418147854E+02 -0.10492362860E+02 -0.11081118681E+02  0.95352687981E+02  0.90626552374E+02 0.  0.
         11    1    3    3    0    0 -0.38005299077E+02 -0.34181619398E+02  0.19467988171E+02  0.54697243315E+02  0.51100000000E-03 0.  1.
         22    1    1    0    0    0  0.25418147854E+02  0.10492362860E+02  0.11081118681E+02  0.29647312019E+02  0.00000000000E+00 0.  1.
</event>
<event>
 4    1  0.8962567E-005  0.9118800E+02  0.7818608E-02  0.1130116E+00
         25   -1    0    0    0    0  0.00000000000E+00  0.00000000000E+00  0.99999998245E-14  0.12500000000E+03  0.12500000000E+03 0.  0.
        -11    1    1    0    0    0 -0.20552903322E+02  0.57876035518E+01  0.30132734559E+01  0.21563812442E+02  0.51100000000E-03 0. -1.
         11    1    1    0    0    0 -0.87653778679E+01 -0.41540572016E+02  0.25103331234E+02  0.49321680952E+02  0.51100000000E-03 0.  1.
         22    1    1    0    0    0  0.29318281190E+02  0.35752968465E+02 -0.28116604690E+02  0.54114506606E+02  0.00000000000E+00 0.  1.
</event>
<event>
 5    1  0.8962567E-005  0.9118800E+02  0.7818608E-02  0.1130116E+00
         25   -1    0    0    0    0  0.00000000000E+00  0.00000000000E+00  0.99999998245E-14  0.12500000000E+03  0.12500000000E+03 0.  0.
        -11    1    3    3    0    0 -0.28822971093E+02 -0.43097598443E+01 -0.45413168371E+02  0.53960110770E+02  0.51100000000E-03 0.  1.
         23    2    1    0    0    0 -0.18290977379E+02 -0.22491166237E+02 -0.11588320534E+02  0.93779788838E+02  0.88430465392E+02 0.  0.
         11    1    3    3    0    0  0.10531993713E+02 -0.18181406393E+02  0.33824847837E+02  0.39819678068E+02  0.51100000000E-03 0. -1.
         22    1    1    0    0    0  0.18290977379E+02  0.22491166237E+02  0.11588320534E+02  0.31220211162E+02  0.00000000000E+00 0.  1.
</event>
<event>
 5    1  0.8962567E-005  0.9118800E+02  0.7818608E-02  0.1130116E+00
         25   -1    0    0    0    0  0.00000000000E+00  0.00000000000E+00  0.99999998245E-14  0.12500000000E+03  0.12500000000E+03 0.  0.
        -11    1    3    3    0    0  0.23883149861E+02  0.20020216420E+01  0.57483410504E+02  0.62279654956E+02  0.51100000000E-03 0.  1.
         23    2    1    0    0    0  0.11415050804E+02 -0.27582848379E+01  0.26749840254E+02  0.95785868595E+02  0.91222075995E+02 0.  0.
         11    1    3    3    0    0 -0.12468099057E+02 -0.47603064799E+01 -0.30733570250E+02  0.33506213639E+02  0.51100000000E-03 0. -1.
         22    1    1    0    0    0 -0.11415050804E+02  0.27582848379E+01 -0.26749840254E+02  0.29214131405E+02  0.00000000000E+00 0.  1.
</event>
<event>
 5    1  0.8962567E-005  0.9118800E+02  0.7818608E-02  0.1130116E+00
         25   -1    0    0    0    0  0.00000000000E+00  0.00000000000E+00  0.99999998245E-14  0.12500000000E+03  0.12500000000E+03 0.  0.
        -11    1    3    3    0    0  0.15084693660E+02 -0.31711377810E+02 -0.14755091831E+02  0.38090316362E+02  0.51100000000E-03 0.  1.
         23    2    1    0    0    0 -0.25406205178E+02 -0.28812661764E+00  0.13088951725E+02  0.96418905973E+02  0.92085430407E+02 0.  0.
         11    1    3    3    0    0 -0.40490898838E+02  0.31423251192E+02  0.27844043556E+02  0.58328589611E+02  0.51100000000E-03 0. -1.
         22    1    1    0    0    0  0.25406205178E+02  0.28812661764E+00 -0.13088951725E+02  0.28581094027E+02  0.00000000000E+00 0. -1.
</event>
<event>
 5    1  0.8962567E-005  0.9118800E+02  0.7818608E-02  0.1130116E+00
         25   -1    0    0    0    0  0.00000000000E+00  0.00000000000E+00  0.99999998245E-14  0.12500000000E+03  0.12500000000E+03 0.  0.
        -11    1    3    3    0    0 -0.15622437925E+02  0.19219650864E+00 -0.29901948578E+02  0.33737576013E+02  0.51100000000E-03 0. -1.
         23    2    1    0    0    0 -0.10739673191E+00 -0.16942659050E+02  0.25850421835E+02  0.94091917905E+02  0.88870577112E+02 0.  0.
         11    1    3    3    0    0  0.15515041193E+02 -0.17134855559E+02  0.55752370413E+02  0.60354341892E+02  0.51100000000E-03 0.  1.
         22    1    1    0    0    0  0.10739673191E+00  0.16942659050E+02 -0.25850421835E+02  0.30908082095E+02  0.00000000000E+00 0.  1.
</event>
<event>
 5    1  0.8962567E-005  0.9118800E+02  0.7818608E-02  0.1130116E+00
         25   -1    0    0    0    0  0.00000000000E+00  0.00000000000E+00  0.99999998245E-14  0.12500000000E+03  0.12500000000E+03 0.  0.
        -11    1    3    3    0    0 -0.32893445971E+00 -0.26879846016E+01  0.45298937635E+02  0.45379810601E+02  0.51100000000E-03 0.  1.
         23    2    1    0    0    0  0.19796367682E+02 -0.21633932133E+02  0.35329312317E+01  0.95463500614E+02  0.90779266099E+02 0.  0.
         11    1    3    3    0    0  0.20125302141E+02 -0.18945947531E+02 -0.41766006403E+02  0.50083690012E+02  0.51100000000E-03 0. -1.
         22    1    1    0    0    0 -0.19796367682E+02  0.21633932133E+02 -0.35329312317E+01  0.29536499386E+02  0.00000000000E+00 0.  1.
</event>
<event>
 5    1  0.8962567E-005  0.9118800E+02  0.7818608E-02  0.1130116E+00
         25   -1    0    0    0    0  0.00000000000E+00  0.00000000000E+00  0.99999998245E-14  0.12500000000E+03  0.12500000000E+03 0.  0.
        -11    1    3    3    0    0 -0.26106978613E+02 -0.17250419127E+02  0.19482544440E+02  0.36860830572E+02  0.51100000000E-03 0.  1.
         23    2    1    0    0    0  0.26990156791E+02 -0.77215050471E+01 -0.56349742240E+01  0.96367096929E+02  0.92015076114E+02 0.  0.
         11    1    3    3    0    0  0.53097135403E+02  0.95289140798E+01 -0.25117518664E+02  0.59506266357E+02  0.51100000000E-03 0. -1.
         22    1    1    0    0    0 -0.26990156791E+02  0.77215050471E+01  0.56349742240E+01  0.28632903071E+02  0.00000000000E+00 0. -1.
</event>
<event>
 5    1  0.8962567E-005  0.9118800E+02  0.7818608E-02  0.1130116E+00
         25   -1    0    0    0    0  0.00000000000E+00  0.00000000000E+00  0.99999998245E-14  0.12500000000E+03  0.12500000000E+03 0.  0.
        -11    1    3    3    0    0 -0.34799647634E+02 -0.42341125439E+02  0.20279374459E+02  0.58438338508E+02  0.51100000000E-03 0.  1.
         23    2    1    0    0    0 -0.18922454140E+02 -0.81963394725E+00  0.57432608039E+01  0.10520818060E+03  0.10332978830E+03 0.  0.
         11    1    3    3    0    0  0.15877193494E+02  0.41521491492E+02 -0.14536113655E+02  0.46769842093E+02  0.51100000000E-03 0. -1.
         22    1    1    0    0    0  0.18922454140E+02  0.81963394725E+00 -0.57432608039E+01  0.19791819399E+02  0.00000000000E+00 0.  1.
</event>
<event>
 5    1  0.8962567E-005  0.9118800E+02  0.7818608E-02  0.1130116E+00
         25   -1    0    0    0    0  0.00000000000E+00  0.00000000000E+00  0.99999998245E-14  0.12500000000E+03  0.12500000000E+03 0.  0.
        -11    1    3    3    0    0 -0.13767271920E+02  0.12834367797E+02  0.47177166519E+02  0.50793147312E+02  0.51100000000E-03 0.  1.
         23    2    1    0    0    0 -0.27457216158E+02  0.65409049029E+01  0.40390369600E+01  0.96486915711E+02  0.92177702986E+02 0.  0.
         11    1    3    3    0    0 -0.13689944238E+02 -0.62934628936E+01 -0.43138129559E+02  0.45693768399E+02  0.51100000000E-03 0. -1.
         22    1    1    0    0    0  0.27457216158E+02 -0.65409049029E+01 -0.40390369600E+01  0.28513084289E+02  0.00000000000E+00 0.  1.
</event>
<event>
 5    1  0.8962567E-005  0.9118800E+02  0.7818608E-02  0.1130116E+00
         25   -1    0    0    0    0  0.00000000000E+00  0.00000000000E+00  0.99999998245E-14  0.12500000000E+03  0.12500000000E+03 0.  0.
        -11    1    3    3    0    0 -0.35114162622E+02  0.25062438450E+02 -0.18215410358E+02  0.46828745579E+02  0.51100000000E-03 0.  1.
         23    2    1    0    0    0  0.13652828577E+02  0.22857588439E+02 -0.11070098092E+02  0.96165712265E+02  0.91741092572E+02 0.  0.
         11    1    3    3    0    0  0.48766991199E+02 -0.22048500111E+01  0.71453122662E+01  0.49336966686E+02  0.51100000000E-03 0. -1.
         22    1    1    0    0    0 -0.13652828577E+02 -0.22857588439E+02  0.11070098092E+02  0.28834287735E+02  0.00000000000E+00 0. -1.
</event>
<event>
 5    1  0.8962567E-005  0.9118800E+02  0.7818608E-02  0.1130116E+00
         25   -1    0    0    0    0  0.00000000000E+00  0.00000000000E+00  0.99999998245E-14  0.12500000000E+03  0.12500000000E+03 0.  0.
        -11    1    3    3    0    0  0.23024669665E+02 -0.55263042905E+02 -0.86569088709E+01  0.60490341343E+02  0.51100000000E-03 0. -1.
         23    2    1    0    0    0  0.90609075394E+01 -0.23372960345E+02 -0.14869877199E+02  0.95853669723E+02  0.91314935420E+02 0.  0.
         11    1    3    3    0    0 -0.13963762126E+02  0.31890082560E+02 -0.62129683282E+01  0.35363328380E+02  0.51100000000E-03 0.  1.
         22    1    1    0    0    0 -0.90609075394E+01  0.23372960345E+02  0.14869877199E+02  0.29146330277E+02  0.00000000000E+00 0. -1.
</event>
<event>
 5    1  0.8962567E-005  0.9118800E+02  0.7818608E-02  0.1130116E+00
         25   -1    0    0    0    0  0.00000000000E+00  0.00000000000E+00  0.99999998245E-14  0.12500000000E+03  0.12500000000E+03 0.  0.
        -11    1    3    3    0    0  0.10965393174E+02  0.10835246895E+02 -0.38646444032E+02  0.41607572139E+02  0.51100000000E-03 0.  1.
         23    2    1    0    0    0 -0.21836342838E+02  0.10538306210E+02  0.87282863647E+01  0.99230546200E+02  0.95826074478E+02 0.  0.
         11    1    3    3    0    0 -0.32801736012E+02 -0.29694068580E+00  0.47374730397E+02  0.57622974061E+02  0.51100000000E-03 0. -1.
         22    1    1    0    0    0  0.21836342838E+02 -0.10538306210E+02 -0.87282863647E+01  0.25769453800E+02  0.00000000000E+00 0. -1.
</event>
<event>
 5    1  0.8962567E-005  0.9118800E+02  0.7818608E-02  0.1130116E+00
         25   -1    0    0    0    0  0.00000000000E+00  0.00000000000E+00  0.99999998245E-14  0.12500000000E+03  0.12500000000E+03 0.  0.
        -11    1    3    3    0    0 -0.18857136482E+02  0.29909253888E+02 -0.44722907475E+02  0.57011345517E+02  0.51100000000E-03 0.  1.
         23    2    1    0    0    0 -0.17084998699E+02  0.62639545186E+00 -0.31434543626E+02  0.89217041978E+02  0.81726742836E+02 0.  0.
         11    1    3    3    0    0  0.17721377823E+01 -0.29282858436E+02  0.13288363849E+02  0.32205696461E+02  0.51100000000E-03 0. -1.
         22    1    1    0    0    0  0.17084998699E+02 -0.62639545186E+00  0.31434543626E+02  0.35782958022E+02  0.00000000000E+00 0.  1.
</event>
<event>
 5    1  0.8962567E-005  0.9118800E+02  0.7818608E-02  0.1130116E+00
         25   -1    0    0    0    0  0.00000000000E+00  0.00000000000E+00  0.99999998245E-14  0.12500000000E+03  0.12500000000E+03 0.  0.
        -11    1    3    3    0    0 -0.36718826711E+02  0.77308479818E+00 -0.12661087351E+01  0.36748781296E+02  0.51100000000E-03 0. -1.
         23    2    1    0    0    0  0.10433377631E+02  0.28383955633E+02 -0.12054669359E+02  0.92445133090E+02  0.86523310573E+02 0.  0.
         11    1    3    3    0    0  0.47152204342E+02  0.27610870835E+02 -0.10788560624E+02  0.55696351794E+02  0.51100000000E-03 0.  1.
         22    1    1    0    0    0 -0.10433377631E+02 -0.28383955633E+02  0.12054669359E+02  0.32554866910E+02  0.00000000000E+00 0.  1.
</event>
<event>
 5    1  0.8962567E-005  0.9118800E+02  0.7818608E-02  0.1130116E+00
         25   -1    0    0    0    0  0.00000000000E+00  0.00000000000E+00  0.99999998245E-14  0.12500000000E+03  0.12500000000E+03 0.  0.
        -11    1    3    3    0    0 -0.75386972261E+01  0.43718013469E+01  0.35462553557E+02  0.36517630097E+02  0.51100000000E-03 0. -1.
         23    2    1    0    0    0  0.14672044067E+02  0.18151189922E+02 -0.17666520277E+02  0.95728161804E+02  0.91142967096E+02 0.  0.
         11    1    3    3    0    0  0.22210741293E+02  0.13779388575E+02 -0.53129073834E+02  0.59210531707E+02  0.51100000000E-03 0.  1.
         22    1    1    0    0    0 -0.14672044067E+02 -0.18151189922E+02  0.17666520277E+02  0.29271838196E+02  0.00000000000E+00 0.  1.
</event>
<event>
 5    1  0.8962567E-005  0.9118800E+02  0.7818608E-02  0.1130116E+00
         25   -1    0    0    0    0  0.00000000000E+00  0.00000000000E+00  0.99999998245E-14  0.12500000000E+03  0.12500000000E+03 0.  0.
        -11    1    3    3    0    0 -0.32260618043E+02 -0.16331134117E+02 -0.48738687349E+02  0.60687009012E+02  0.51100000000E-03 0. -1.
         23    2    1    0    0    0 -0.68964041655E+01 -0.42879437476E+01 -0.28675953497E+02  0.95196356583E+02  0.90410669424E+02 0.  0.
         11    1    3    3    0    0  0.25364213877E+02  0.12043190369E+02  0.20062733852E+02  0.34509347571E+02  0.51100000000E-03 0.  1.
         22    1    1    0    0    0  0.68964041655E+01  0.42879437476E+01  0.28675953497E+02  0.29803643417E+02  0.00000000000E+00 0. -1.
</event>
<event>
 5    1  0.8962567E-005  0.9118800E+02  0.7818608E-02  0.1130116E+00
         25   -1    0    0    0    0  0.00000000000E+00  0.00000000000E+00  0.99999998245E-14  0.12500000000E+03  0.12500000000E+03 0.  0.
        -11    1    3    3    0    0 -0.49173628762E+02  0.20329705934E+02 -0.28489319084E+01  0.53286575441E+02  0.51100000000E-03 0. -1.
         23    2    1    0    0    0 -0.57273986499E+01  0.24319901990E+02 -0.11051016968E+02  0.97679939530E+02  0.93781580720E+02 0.  0.
         11    1    3    3    0    0  0.43446230112E+02  0.39901960561E+01 -0.82020850592E+01  0.44393364089E+02  0.51100000000E-03 0.  1.
         22    1    1    0    0    0  0.57273986499E+01 -0.24319901990E+02  0.11051016968E+02  0.27320060470E+02  0.00000000000E+00 0. -1.
</event>
<event>
 5    1  0.8962567E-005  0.9118800E+02  0.7818608E-02  0.1130116E+00
         25   -1    0    0    0    0  0.00000000000E+00  0.00000000000E+00  0.99999998245E-14  0.12500000000E+03  0.12500000000E+03 0.  0.
        -11    1    3    3    0    0  0.82490530693E+01 -0.33155533204E+02  0.43645781535E+01  0.34443951592E+02  0.51100000000E-03 0.  1.
         23    2    1    0    0    0 -0.20425379204E+02  0.20207259715E+02 -0.52829690644E+01  0.95786317881E+02  0.91222691641E+02 0.  0.
         11    1    3    3    0    0 -0.28674432274E+02  0.53362792919E+02 -0.96475472179E+01  0.61342366289E+02  0.51100000000E-03 0. -1.
         22    1    1    0    0    0  0.20425379204E+02 -0.20207259715E+02  0.52829690644E+01  0.29213682119E+02  0.00000000000E+00 0. -1.
</event>
<event>
 5    1  0.8962567E-005  0.9118800E+02  0.7818608E-02  0.1130116E+00
         25   -1    0    0    0    0  0.00000000000E+00  0.00000000000E+00  0.99999998245E-14  0.12500000000E+03  0.12500000000E+03 0.  0.
        -11    1    3    3    0    0  0.13136937991E+02 -0.36760086805E+02 -0.28844156966E+02  0.48537289923E+02  0.51100000000E-03 0.  1.
         23    2    1    0    0    0 -0.17298309564E+01  0.11320112128E+02 -0.23134563470E+02  0.99186335388E+02  0.95768386470E+02 0.  0.
         11    1    3    3    0    0 -0.14866768948E+02  0.48080198933E+02  0.57095934961E+01  0.50649045465E+02  0.51100000000E-03 0. -1.
         22    1    1    0    0    0  0.17298309564E+01 -0.11320112128E+02  0.23134563470E+02  0.25813664612E+02  0.00000000000E+00 0. -1.
</event>
<event>
 5    1  0.8962567E-005  0.9118800E+02  0.7818608E-02  0.1130116E+00
         25   -1    0    0    0    0  0.00000000000E+00  0.00000000000E+00  0.99999998245E-14  0.12500000000E+03  0.12500000000E+03 0.  0.
        -11    1    3    3    0    0  0.38830434732E+02  0.25554857437E+02 -0.11577676678E+02  0.47905072775E+02  0.51100000000E-03 0. -1.
         23    2    1    0    0    0 -0.52224222205E+01  0.15853418072E+02 -0.24974795137E+02  0.94960942915E+02  0.90084603173E+02 0.  0.
         11    1    3    3    0    0 -0.44052856952E+02 -0.97014393647E+01 -0.13397118459E+02  0.47055870140E+02  0.51100000000E-03 0.  1.
         22    1    1    0    0    0  0.52224222205E+01 -0.15853418072E+02  0.24974795137E+02  0.30039057085E+02  0.00000000000E+00 0. -1.
</event>
<event>
 5    1  0.8962567E-005  0.9118800E+02  0.7818608E-02  0.1130116E+00
         25   -1    0    0    0    0  0.00000000000E+00  0.00000000000E+00  0.99999998245E-14  0.12500000000E+03  0.12500000000E+03 0.  0.
        -11    1    3    3    0    0  0.17819214377E+02  0.12773086071E+02  0.22549692794E+02  0.31450990034E+02  0.51100000000E-03 0.  1.
         23    2    1    0    0    0 -0.19156685057E+02  0.11272122396E+02 -0.24898277958E+02  0.91623907195E+02  0.85328639967E+02 0.  0.
         11    1    3    3    0    0 -0.36975899434E+02 -0.15009636752E+01 -0.47447970751E+02  0.60172917161E+02  0.51100000000E-03 0. -1.
         22    1    1    0    0    0  0.19156685057E+02 -0.11272122396E+02  0.24898277958E+02  0.33376092805E+02  0.00000000000E+00 0. -1.
</event>
<event>
 5    1  0.8962567E-005  0.9118800E+02  0.7818608E-02  0.1130116E+00
         25   -1    0    0    0    0  0.00000000000E+00  0.00000000000E+00  0.99999998245E-14  0.12500000000E+03  0.12500000000E+03 0.  0.
        -11    1    3    3    0    0  0.25757547230E+02 -0.20290020622E+02  0.55098049359E+01  0.33248971817E+02  0.51100000000E-03 0. -1.
         23    2    1    0    0    0 -0.21926459749E+02  0.13174663603E+02 -0.15398815330E+02  0.95142590338E+02  0.90336302694E+02 0.  0.
         11    1    3    3    0    0 -0.47684006979E+02  0.33464684226E+02 -0.20908620266E+02  0.61893618521E+02  0.51100000000E-03 0.  1.
         22    1    1    0    0    0  0.21926459749E+02 -0.13174663603E+02  0.15398815330E+02  0.29857409662E+02  0.00000000000E+00 0.  1.
</event>
<event>
 5    1  0.8962567E-005  0.9118800E+02  0.7818608E-02  0.1130116E+00
         25   -1    0    0    0    0  0.00000000000E+00  0.00000000000E+00  0.99999998245E-14  0.12500000000E+03  0.12500000000E+03 0.  0.
        -11    1    3    3    0    0  0.39763133164E+02 -0.98891670986E+00  0.18119600421E+02  0.43708175836E+02  0.51100000000E-03 0.  1.
         23    2    1    0    0    0 -0.27171068839E+01 -0.24478777752E+02  0.21415788748E+02  0.92362150228E+02  0.86403342279E+02 0.  0.
         11    1    3    3    0    0 -0.42480240048E+02 -0.23489861042E+02  0.32961883274E+01  0.48653974391E+02  0.51100000000E-03 0. -1.
         22    1    1    0    0    0  0.27171068839E+01  0.24478777752E+02 -0.21415788748E+02  0.32637849772E+02  0.00000000000E+00 0.  1.
</event>
<event>
 5    1  0.8962567E-005  0.9118800E+02  0.7818608E-02  0.1130116E+00
         25   -1    0    0    0    0  0.00000000000E+00  0.00000000000E+00  0.99999998245E-14  0.12500000000E+03  0.12500000000E+03 0.  0.
        -11    1    3    3    0    0 -0.24482732283E+02 -0.14486743462E+02  0.34256629221E+02  0.44528491576E+02  0.51100000000E-03 0.  1.
         23    2    1    0    0    0  0.10601081580E+02  0.20104845460E+02  0.16556033971E+02  0.96880789441E+02  0.92710287240E+02 0.  0.
         11    1    3    3    0    0  0.35083813862E+02  0.34591588922E+02 -0.17700595250E+02  0.52352297865E+02  0.51100000000E-03 0. -1.
         22    1    1    0    0    0 -0.10601081580E+02 -0.20104845460E+02 -0.16556033971E+02  0.28119210559E+02  0.00000000000E+00 0. -1.
</event>
<event>
 5    1  0.8962567E-005  0.9118800E+02  0.7818608E-02  0.1130116E+00
         25   -1    0    0    0    0  0.00000000000E+00  0.00000000000E+00  0.99999998245E-14  0.12500000000E+03  0.12500000000E+03 0.  0.
        -11    1    3    3    0    0 -0.28391414058E+02  0.78223317673E+01  0.49046747078E+02  0.57208781369E+02  0.51100000000E-03 0. -1.
         23    2    1    0    0    0  0.81144409087E+00 -0.47846116300E+01  0.30679914722E+02  0.93938639481E+02  0.88654722774E+02 0.  0.
         11    1    3    3    0    0  0.29202858149E+02 -0.12606943397E+02 -0.18366832356E+02  0.36729858112E+02  0.51100000000E-03 0.  1.
         22    1    1    0    0    0 -0.81144409087E+00  0.47846116300E+01 -0.30679914722E+02  0.31061360519E+02  0.00000000000E+00 0. -1.
</event>
<event>
 5    1  0.8962567E-005  0.9118800E+02  0.7818608E-02  0.1130116E+00
         25   -1    0    0    0    0  0.00000000000E+00  0.00000000000E+00  0.99999998245E-14  0.12500000000E+03  0.12500000000E+03 0.  0.
        -11    1    3    3    0    0 -0.10934439015E+02 -0.56721760882E+02 -0.20413613314E+02  0.61266921932E+02  0.51100000000E-03 0.  1.
         23    2    1    0    0    0 -0.91906541075E+01 -0.25545154747E+02 -0.17659692049E+02  0.92613463025E+02  0.86766155592E+02 0.  0.
         11    1    3    3    0    0  0.17437849078E+01  0.31176606136E+02  0.27539212649E+01  0.31346541094E+02  0.51100000000E-03 0. -1.
         22    1    1    0    0    0  0.91906541075E+01  0.25545154747E+02  0.17659692049E+02  0.32386536975E+02  0.00000000000E+00 0.  1.
</event>
<event>
 5    1  0.8962567E-005  0.9118800E+02  0.7818608E-02  0.1130116E+00
         25   -1    0    0    0    0  0.00000000000E+00  0.00000000000E+00  0.99999998245E-14  0.12500000000E+03  0.12500000000E+03 0.  0.
        -11    1    3    3    0    0  0.36229461424E+02 -0.10329184922E+02  0.10016354945E+00  0.37673279247E+02  0.51100000000E-03 0.  1.
         23    2    1    0    0    0 -0.23735095859E+02 -0.13164729228E+02 -0.23661784691E+01  0.97755483641E+02  0.93882218285E+02 0.  0.
         11    1    3    3    0    0 -0.59964557283E+02 -0.28355443057E+01 -0.24663420186E+01  0.60082204394E+02  0.51100000000E-03 0. -1.
         22    1    1    0    0    0  0.23735095859E+02  0.13164729228E+02  0.23661784691E+01  0.27244516359E+02  0.00000000000E+00 0. -1.
</event>
<event>
 5    1  0.8962567E-005  0.9118800E+02  0.7818608E-02  0.1130116E+00
         25   -1    0    0    0    0  0.00000000000E+00  0.00000000000E+00  0.99999998245E-14  0.12500000000E+03  0.12500000000E+03 0.  0.
        -11    1    3    3    0    0 -0.11897972038E+02 -0.50823238450E+02 -0.31611209382E+02  0.61023207585E+02  0.51100000000E-03 0.  1.
         23    2    1    0    0    0  0.28062069515E+01 -0.22918746321E+02 -0.19385574262E+02  0.94851298206E+02  0.89932333182E+02 0.  0.
         11    1    3    3    0    0  0.14704178989E+02  0.27904492129E+02  0.12225635120E+02  0.33828090621E+02  0.51100000000E-03 0. -1.
         22    1    1    0    0    0 -0.28062069515E+01  0.22918746321E+02  0.19385574262E+02  0.30148701794E+02  0.00000000000E+00 0.  1.
</event>
<event>
 5    1  0.8962567E-005  0.9118800E+02  0.7818608E-02  0.1130116E+00
         25   -1    0    0    0    0  0.00000000000E+00  0.00000000000E+00  0.99999998245E-14  0.12500000000E+03  0.12500000000E+03 0.  0.
        -11    1    3    3    0    0  0.31225983496E+01 -0.14244602644E+01 -0.22735693040E+02  0.22993291321E+02  0.51100000000E-03 0. -1.
         23    2    1    0    0    0 -0.43040454631E+02 -0.74760787835E+01  0.10344795800E+02  0.80106934957E+02  0.66345563071E+02 0.  0.
         11    1    3    3    0    0 -0.46163052981E+02 -0.60516185191E+01  0.33080488840E+02  0.57113643636E+02  0.51100000000E-03 0.  1.
         22    1    1    0    0    0  0.43040454631E+02  0.74760787835E+01 -0.10344795800E+02  0.44893065043E+02  0.00000000000E+00 0.  1.
</event>
<event>
 5    1  0.8962567E-005  0.9118800E+02  0.7818608E-02  0.1130116E+00
         25   -1    0    0    0    0  0.00000000000E+00  0.00000000000E+00  0.99999998245E-14  0.12500000000E+03  0.12500000000E+03 0.  0.
        -11    1    3    3    0    0 -0.39571007411E+02  0.40944363026E+02 -0.80168873732E+01  0.57502834491E+02  0.51100000000E-03 0.  1.
         23    2    1    0    0    0 -0.25749351075E+01  0.27525041513E+02 -0.25063909964E+01  0.97241394183E+02  0.93195217397E+02 0.  0.
         11    1    3    3    0    0  0.36996072304E+02 -0.13419321514E+02  0.55104963768E+01  0.39738559691E+02  0.51100000000E-03 0. -1.
         22    1    1    0    0    0  0.25749351075E+01 -0.27525041513E+02  0.25063909964E+01  0.27758605817E+02  0.00000000000E+00 0.  1.
</event>
<event>
 5    1  0.8962567E-005  0.9118800E+02  0.7818608E-02  0.1130116E+00
         25   -1    0    0    0    0  0.00000000000E+00  0.00000000000E+00  0.99999998245E-14  0.12500000000E+03  0.12500000000E+03 0.  0.
        -11    1    3    3    0    0  0.39080783145E+01 -0.22747994076E+02  0.29675533961E+02  0.37594968104E+02  0.51100000000E-03 0. -1.
         23    2    1    0    0    0 -0.16287496451E+02  0.24808538614E+02  0.48054966385E+01  0.94936085971E+02  0.90050105457E+02 0.  0.
         11    1    3    3    0    0 -0.20195574766E+02  0.47556532690E+02 -0.24870037322E+02  0.57341117867E+02  0.51100000000E-03 0.  1.
         22    1    1    0    0    0  0.16287496451E+02 -0.24808538614E+02 -0.48054966385E+01  0.30063914029E+02  0.00000000000E+00 0.  1.
</event>
<event>
 5    1  0.8962567E-005  0.9118800E+02  0.7818608E-02  0.1130116E+00
         25   -1    0    0    0    0  0.00000000000E+00  0.00000000000E+00  0.99999998245E-14  0.12500000000E+03  0.12500000000E+03 0.  0.
        -11    1    3    3    0    0 -0.28190333504E+02  0.55893917247E+01  0.38134603389E+02  0.47751274106E+02  0.51100000000E-03 0.  1.
         23    2    1    0    0    0 -0.13830157537E+02 -0.25558433541E+02  0.48643209553E+01  0.95535302464E+02  0.90878081053E+02 0.  0.
         11    1    3    3    0    0  0.14360175967E+02 -0.31147825266E+02 -0.33270282433E+02  0.47784028357E+02  0.51100000000E-03 0. -1.
         22    1    1    0    0    0  0.13830157537E+02  0.25558433541E+02 -0.48643209553E+01  0.29464697536E+02  0.00000000000E+00 0. -1.
</event>
<event>
 5    1  0.8962567E-005  0.9118800E+02  0.7818608E-02  0.1130116E+00
         25   -1    0    0    0    0  0.00000000000E+00  0.00000000000E+00  0.99999998245E-14  0.12500000000E+03  0.12500000000E+03 0.  0.
        -11    1    3    3    0    0  0.40111368495E+02  0.32033535185E+02 -0.18576740409E+02  0.54590883336E+02  0.51100000000E-03 0.  1.
         23    2    1    0    0    0  0.15874029249E+02 -0.26524457221E+00 -0.24904872288E+02  0.95465142239E+02  0.90781526534E+02 0.  0.
         11    1    3    3    0    0 -0.24237339246E+02 -0.32298779757E+02 -0.63281318791E+01  0.40874258903E+02  0.51100000000E-03 0. -1.
         22    1    1    0    0    0 -0.15874029249E+02  0.26524457221E+00  0.24904872288E+02  0.29534857761E+02  0.00000000000E+00 0.  1.
</event>
<event>
 5    1  0.8962567E-005  0.9118800E+02  0.7818608E-02  0.1130116E+00
         25   -1    0    0    0    0  0.00000000000E+00  0.00000000000E+00  0.99999998245E-14  0.12500000000E+03  0.12500000000E+03 0.  0.
        -11    1    3    3    0    0 -0.18707747274E+02  0.31007073810E+02 -0.44439929680E+02  0.57326484146E+02  0.51100000000E-03 0. -1.
         23    2    1    0    0    0 -0.19038832085E+02 -0.48036038892E+00 -0.21452026728E+02  0.96313813010E+02  0.91942662853E+02 0.  0.
         11    1    3    3    0    0 -0.33108481168E+00 -0.31487434199E+02  0.22987902952E+02  0.38987328864E+02  0.51100000000E-03 0.  1.
         22    1    1    0    0    0  0.19038832085E+02  0.48036038892E+00  0.21452026728E+02  0.28686186990E+02  0.00000000000E+00 0. -1.
</event>
<event>
 5    1  0.8962567E-005  0.9118800E+02  0.7818608E-02  0.1130116E+00
         25   -1    0    0    0    0  0.00000000000E+00  0.00000000000E+00  0.99999998245E-14  0.12500000000E+03  0.12500000000E+03 0.  0.
        -11    1    3    3    0    0 -0.33334903916E+02 -0.22041261721E+02 -0.77608292539E+01  0.40709501450E+02  0.51100000000E-03 0. -1.
         23    2    1    0    0    0 -0.40635879335E+01  0.14066720180E+02  0.23915136399E+02  0.96958617857E+02  0.92815162900E+02 0.  0.
         11    1    3    3    0    0  0.29271315982E+02  0.36107981901E+02  0.31675965653E+02  0.56249116407E+02  0.51100000000E-03 0.  1.
         22    1    1    0    0    0  0.40635879335E+01 -0.14066720180E+02 -0.23915136399E+02  0.28041382143E+02  0.00000000000E+00 0.  1.
</event>
<event>
 5    1  0.8962567E-005  0.9118800E+02  0.7818608E-02  0.1130116E+00
         25   -1    0    0    0    0  0.00000000000E+00  0.00000000000E+00  0.99999998245E-14  0.12500000000E+03  0.12500000000E+03 0.  0.
        -11    1    3    3    0    0  0.22897635689E+02 -0.30788105510E+02  0.30365693363E+02  0.48931426453E+02  0.51100000000E-03 0.  1.
         23    2    1    0    0    0  0.77618660285E+01  0.14262285998E+02  0.22729957522E+02  0.97065964576E+02  0.92959621040E+02 0.  0.
         11    1    3    3    0    0 -0.15135769661E+02  0.45050391507E+02 -0.76357358406E+01  0.48134538123E+02  0.51100000000E-03 0. -1.
         22    1    1    0    0    0 -0.77618660285E+01 -0.14262285998E+02 -0.22729957522E+02  0.27934035424E+02  0.00000000000E+00 0. -1.
</event>
<event>
 5    1  0.8962567E-005  0.9118800E+02  0.7818608E-02  0.1130116E+00
         25   -1    0    0    0    0  0.00000000000E+00  0.00000000000E+00  0.99999998245E-14  0.12500000000E+03  0.12500000000E+03 0.  0.
        -11    1    3    3    0    0  0.24160549765E+02  0.17179911211E+02  0.26154740232E+02  0.39534187118E+02  0.51100000000E-03 0. -1.
         23    2    1    0    0    0  0.14152659613E+01  0.15469363554E+02 -0.25013111577E+02  0.95555816580E+02  0.90906293209E+02 0.  0.
         11    1    3    3    0    0 -0.22745283804E+02 -0.17105476568E+01 -0.51167851809E+02  0.56021629462E+02  0.51100000000E-03 0.  1.
         22    1    1    0    0    0 -0.14152659613E+01 -0.15469363554E+02  0.25013111577E+02  0.29444183420E+02  0.00000000000E+00 0.  1.
</event>
<event>
 5    1  0.8962567E-005  0.9118800E+02  0.7818608E-02  0.1130116E+00
         25   -1    0    0    0    0  0.00000000000E+00  0.00000000000E+00  0.99999998245E-14  0.12500000000E+03  0.12500000000E+03 0.  0.
        -11    1    3    3    0    0 -0.23173665453E+02 -0.24713237012E+02  0.25869933466E+02  0.42626474308E+02  0.51100000000E-03 0. -1.
         23    2    1    0    0    0 -0.18228395880E+02  0.15088419707E+02 -0.12591564014E+02  0.98195479674E+02  0.94466236923E+02 0.  0.
         11    1    3    3    0    0  0.49452695732E+01  0.39801656718E+02 -0.38461497480E+02  0.55569005366E+02  0.51100000000E-03 0.  1.
         22    1    1    0    0    0  0.18228395880E+02 -0.15088419707E+02  0.12591564014E+02  0.26804520326E+02  0.00000000000E+00 0.  1.
</event>
<event>
 5    1  0.8962567E-005  0.9118800E+02  0.7818608E-02  0.1130116E+00
         25   -1    0    0    0    0  0.00000000000E+00  0.00000000000E+00  0.99999998245E-14  0.12500000000E+03  0.12500000000E+03 0.  0.
        -11    1    3    3    0    0 -0.16566973885E+02 -0.50127343689E+02  0.22375107724E+02  0.57339869680E+02  0.51100000000E-03 0.  1.
         23    2    1    0    0    0 -0.15392337208E+02 -0.24194507213E+02 -0.58991173862E+01  0.95723767149E+02  0.91136939751E+02 0.  0.
         11    1    3    3    0    0  0.11746366768E+01  0.25932836476E+02 -0.28274225110E+02  0.38383897468E+02  0.51100000000E-03 0. -1.
         22    1    1    0    0    0  0.15392337208E+02  0.24194507213E+02  0.58991173862E+01  0.29276232851E+02  0.00000000000E+00 0.  1.
</event>
<event>
 5    1  0.8962567E-005  0.9118800E+02  0.7818608E-02  0.1130116E+00
         25   -1    0    0    0    0  0.00000000000E+00  0.00000000000E+00  0.99999998245E-14  0.12500000000E+03  0.12500000000E+03 0.  0.
        -11    1    3    3    0    0  0.25029933931E+02  0.40128875015E+02  0.62471216466E+01  0.47705877328E+02  0.51100000000E-03 0. -1.
         23    2    1    0    0    0  0.11244554954E+02  0.69181202831E+01 -0.25893756993E+02  0.95934779279E+02  0.91425897971E+02 0.  0.
         11    1    3    3    0    0 -0.13785378977E+02 -0.33210754732E+02 -0.32140878639E+02  0.48228901951E+02  0.51100000000E-03 0.  1.
         22    1    1    0    0    0 -0.11244554954E+02 -0.69181202831E+01  0.25893756993E+02  0.29065220721E+02  0.00000000000E+00 0. -1.
</event>
<event>
 5    1  0.8962567E-005  0.9118800E+02  0.7818608E-02  0.1130116E+00
         25   -1    0    0    0    0  0.00000000000E+00  0.00000000000E+00  0.99999998245E-14  0.12500000000E+03  0.12500000000E+03 0.  0.
        -11    1    3    3    0    0 -0.42817047314E+02 -0.14677025158E+02 -0.99348960340E+01  0.46340228394E+02  0.51100000000E-03 0.  1.
         23    2    1    0    0    0 -0.17189330458E+02  0.24304934863E+02  0.38428663310E+01  0.94983828327E+02  0.90116353020E+02 0.  0.
         11    1    3    3    0    0  0.25627716857E+02  0.38981960021E+02  0.13777762365E+02  0.48643599932E+02  0.51100000000E-03 0. -1.
         22    1    1    0    0    0  0.17189330458E+02 -0.24304934863E+02 -0.38428663310E+01  0.30016171673E+02  0.00000000000E+00 0.  1.
</event>
<event>
 5    1  0.8962567E-005  0.9118800E+02  0.7818608E-02  0.1130116E+00
         25   -1    0    0    0    0  0.00000000000E+00  0.00000000000E+00  0.99999998245E-14  0.12500000000E+03  0.12500000000E+03 0.  0.
        -11    1    3    3    0    0 -0.16161791751E+01 -0.17679312981E+02 -0.35632491278E+02  0.39810106475E+02  0.51100000000E-03 0. -1.
         23    2    1    0    0    0 -0.15250841679E+02 -0.44405851430E+02 -0.17349320240E+02  0.74945362593E+02  0.55779392685E+02 0.  0.
         11    1    3    3    0    0 -0.13634662504E+02 -0.26726538449E+02  0.18283171038E+02  0.35135256118E+02  0.51100000000E-03 0.  1.
         22    1    1    0    0    0  0.15250841679E+02  0.44405851430E+02  0.17349320240E+02  0.50054637407E+02  0.00000000000E+00 0.  1.
</event>
<event>
 5    1  0.8962567E-005  0.9118800E+02  0.7818608E-02  0.1130116E+00
         25   -1    0    0    0    0  0.00000000000E+00  0.00000000000E+00  0.99999998245E-14  0.12500000000E+03  0.12500000000E+03 0.  0.
        -11    1    3    3    0    0  0.47997183792E+02 -0.12714674142E+02  0.40318963878E+01  0.49816149784E+02  0.51100000000E-03 0. -1.
         23    2    1    0    0    0  0.73281583583E+01 -0.29685219919E+02 -0.23034350672E+01  0.94336992977E+02  0.89214619005E+02 0.  0.
         11    1    3    3    0    0 -0.40669025434E+02 -0.16970545777E+02 -0.63353314550E+01  0.44520843193E+02  0.51100000000E-03 0.  1.
         22    1    1    0    0    0 -0.73281583583E+01  0.29685219919E+02  0.23034350672E+01  0.30663007023E+02  0.00000000000E+00 0. -1.
</event>
<event>
 5    1  0.8962567E-005  0.9118800E+02  0.7818608E-02  0.1130116E+00
         25   -1    0    0    0    0  0.00000000000E+00  0.00000000000E+00  0.99999998245E-14  0.12500000000E+03  0.12500000000E+03 0.  0.
        -11    1    3    3    0    0  0.25964915857E+02 -0.12572583195E+02  0.19078299657E+02  0.34586532375E+02  0.51100000000E-03 0. -1.
         23    2    1    0    0    0 -0.30680244856E+02 -0.62936379391E+01  0.84474075403E+01  0.92561658534E+02  0.86691491125E+02 0.  0.
         11    1    3    3    0    0 -0.56645160713E+02  0.62789452561E+01 -0.10630892117E+02  0.57975126159E+02  0.51100000000E-03 0.  1.
         22    1    1    0    0    0  0.30680244856E+02  0.62936379391E+01 -0.84474075403E+01  0.32438341466E+02  0.00000000000E+00 0.  1.
</event>
<event>
 5    1  0.8962567E-005  0.9118800E+02  0.7818608E-02  0.1130116E+00
         25   -1    0    0    0    0  0.00000000000E+00  0.00000000000E+00  0.99999998245E-14  0.12500000000E+03  0.12500000000E+03 0.  0.
        -11    1    3    3    0    0  0.24926335246E+01 -0.14950522727E+02  0.36374863800E+02  0.39406370912E+02  0.51100000000E-03 0.  1.
         23    2    1    0    0    0 -0.27632318952E+02 -0.49116003540E+00 -0.91584912298E+01  0.95885325857E+02  0.91358258873E+02 0.  0.
         11    1    3    3    0    0 -0.30124952477E+02  0.14459362691E+02 -0.45533355030E+02  0.56478954945E+02  0.51100000000E-03 0. -1.
         22    1    1    0    0    0  0.27632318952E+02  0.49116003540E+00  0.91584912298E+01  0.29114674143E+02  0.00000000000E+00 0. -1.
</event>
<event>
 5    1  0.8962567E-005  0.9118800E+02  0.7818608E-02  0.1130116E+00
         25   -1    0    0    0    0  0.00000000000E+00  0.00000000000E+00  0.99999998245E-14  0.12500000000E+03  0.12500000000E+03 0.  0.
        -11    1    3    3    0    0  0.66021606729E+01  0.11386979771E+02 -0.31646128859E+02  0.34274324295E+02  0.51100000000E-03 0. -1.
         23    2    1    0    0    0 -0.25462559899E+02 -0.29018297821E+01  0.16987340261E+02  0.94253743287E+02  0.89097900210E+02 0.  0.
         11    1    3    3    0    0 -0.32064720572E+02 -0.14288809553E+02  0.48633469120E+02  0.59979418993E+02  0.51100000000E-03 0.  1.
         22    1    1    0    0    0  0.25462559899E+02  0.29018297821E+01 -0.16987340261E+02  0.30746256713E+02  0.00000000000E+00 0.  1.
</event>
<event>
 5    1  0.8962567E-005  0.9118800E+02  0.7818608E-02  0.1130116E+00
         25   -1    0    0    0    0  0.00000000000E+00  0.00000000000E+00  0.99999998245E-14  0.12500000000E+03  0.12500000000E+03 0.  0.
        -11    1    3    3    0    0  0.42070864779E+02  0.40173409075E+01  0.17727465806E+02  0.45829681817E+02  0.51100000000E-03 0.  1.
         23    2    1    0    0    0  0.18319160588E+02 -0.38854551384E+01 -0.24041870228E+02  0.94525421572E+02  0.89478239774E+02 0.  0.
         11    1    3    3    0    0 -0.23751704192E+02 -0.79027960459E+01 -0.41769336034E+02  0.48695739756E+02  0.51100000000E-03 0. -1.
         22    1    1    0    0    0 -0.18319160588E+02  0.38854551384E+01  0.24041870228E+02  0.30474578428E+02  0.00000000000E+00 0.  1.
</event>
<event>
 5    1  0.8962567E-005  0.9118800E+02  0.7818608E-02  0.1130116E+00
         25   -1    0    0    0    0  0.00000000000E+00  0.00000000000E+00  0.99999998245E-14  0.12500000000E+03  0.12500000000E+03 0.  0.
        -11    1    3    3    0    0 -0.20713804746E+02 -0.26136200009E+02 -0.51379655335E+02  0.61253829599E+02  0.51100000000E-03 0. -1.
         23    2    1    0    0    0 -0.40943810821E+01 -0.14484550115E+01 -0.20127713793E+02  0.10440905925E+03  0.10235851119E+03 0.  0.
         11    1    3    3    0    0  0.16619423664E+02  0.24687744997E+02  0.31251941542E+02  0.43155229653E+02  0.51100000000E-03 0.  1.
         22    1    1    0    0    0  0.40943810821E+01  0.14484550115E+01  0.20127713793E+02  0.20590940748E+02  0.00000000000E+00 0. -1.
</event>
<event>
 5    1  0.8962567E-005  0.9118800E+02  0.7818608E-02  0.1130116E+00
         25   -1    0    0    0    0  0.00000000000E+00  0.00000000000E+00  0.99999998245E-14  0.12500000000E+03  0.12500000000E+03 0.  0.
        -11    1    3    3    0    0 -0.92939770915E+01 -0.26479860003E+02  0.21216767879E+02  0.35181134652E+02  0.51100000000E-03 0. -1.
         23    2    1    0    0    0  0.16205070487E+02  0.23849604725E+02 -0.17862857278E+01  0.96110576819E+02  0.91665938083E+02 0.  0.
         11    1    3    3    0    0  0.25499047579E+02  0.50329464728E+02 -0.23003053606E+02  0.60929442166E+02  0.51100000000E-03 0.  1.
         22    1    1    0    0    0 -0.16205070487E+02 -0.23849604725E+02  0.17862857278E+01  0.28889423181E+02  0.00000000000E+00 0.  1.
</event>
<event>
 5    1  0.8962567E-005  0.9118800E+02  0.7818608E-02  0.1130116E+00
         25   -1    0    0    0    0  0.00000000000E+00  0.00000000000E+00  0.99999998245E-14  0.12500000000E+03  0.12500000000E+03 0.  0.
        -11    1    3    3    0    0  0.20837516451E+02 -0.55053130750E+02 -0.34446149524E+01  0.58965368392E+02  0.51100000000E-03 0. -1.
         23    2    1    0    0    0  0.12816329525E+01 -0.36533654826E+02 -0.10794324184E+02  0.86883495011E+02  0.78076076699E+02 0.  0.
         11    1    3    3    0    0 -0.19555883498E+02  0.18519475923E+02 -0.73497092316E+01  0.27918126619E+02  0.51100000000E-03 0.  1.
         22    1    1    0    0    0 -0.12816329525E+01  0.36533654826E+02  0.10794324184E+02  0.38116504989E+02  0.00000000000E+00 0. -1.
</event>
<event>
 5    1  0.8962567E-005  0.9118800E+02  0.7818608E-02  0.1130116E+00
         25   -1    0    0    0    0  0.00000000000E+00  0.00000000000E+00  0.99999998245E-14  0.12500000000E+03  0.12500000000E+03 0.  0.
        -11    1    3    3    0    0  0.56670955543E+02 -0.77004235246E+01  0.24888448172E+02  0.62372498565E+02  0.51100000000E-03 0. -1.
         23    2    1    0    0    0  0.25307882362E+02 -0.53775957903E+01  0.13473973641E+02  0.95828859950E+02  0.91280967280E+02 0.  0.
         11    1    3    3    0    0 -0.31363073181E+02  0.23228277343E+01 -0.11414474531E+02  0.33456361385E+02  0.51100000000E-03 0.  1.
         22    1    1    0    0    0 -0.25307882362E+02  0.53775957903E+01 -0.13473973641E+02  0.29171140050E+02  0.00000000000E+00 0. -1.
</event>
<event>
 5    1  0.8962567E-005  0.9118800E+02  0.7818608E-02  0.1130116E+00
         25   -1    0    0    0    0  0.00000000000E+00  0.00000000000E+00  0.99999998245E-14  0.12500000000E+03  0.12500000000E+03 0.  0.
        -11    1    3    3    0    0 -0.38048682039E+02 -0.34733313080E+01 -0.13900506704E+02  0.40656983682E+02  0.51100000000E-03 0. -1.
         23    2    1    0    0    0  0.99728226078E+01 -0.26799951865E+02  0.19236327036E+01  0.96340010930E+02  0.91978273154E+02 0.  0.
         11    1    3    3    0    0  0.48021504647E+02 -0.23326620557E+02  0.15824139407E+02  0.55683027247E+02  0.51100000000E-03 0.  1.
         22    1    1    0    0    0 -0.99728226078E+01  0.26799951865E+02 -0.19236327036E+01  0.28659989070E+02  0.00000000000E+00 0.  1.
</event>
<event>
 4    1  0.8962567E-005  0.9118800E+02  0.7818608E-02  0.1130116E+00
         25   -1    0    0    0    0  0.00000000000E+00  0.00000000000E+00  0.99999998245E-14  0.12500000000E+03  0.12500000000E+03 0.  0.
        -11    1    1    0    0    0 -0.71215039276E+01 -0.17390479030E+01  0.11348991174E+02  0.13510725618E+02  0.51100000000E-03 0.  1.
         11    1    1    0    0    0  0.38363741564E+02 -0.10374928185E+02  0.35905762785E+02  0.53559682627E+02  0.51100000000E-03 0. -1.
         22    1    1    0    0    0 -0.31242237637E+02  0.12113976088E+02 -0.47254753959E+02  0.57929591755E+02  0.00000000000E+00 0. -1.
</event>
<event>
 5    1  0.8962567E-005  0.9118800E+02  0.7818608E-02  0.1130116E+00
         25   -1    0    0    0    0  0.00000000000E+00  0.00000000000E+00  0.99999998245E-14  0.12500000000E+03  0.12500000000E+03 0.  0.
        -11    1    3    3    0    0 -0.94031827088E+01 -0.48633294401E+02  0.34806271816E+02  0.60540017569E+02  0.51100000000E-03 0. -1.
         23    2    1    0    0    0  0.13222456368E+01 -0.29582848281E+02  0.96807093059E+01  0.93845395547E+02  0.88523154524E+02 0.  0.
         11    1    3    3    0    0  0.10725428346E+02  0.19050446120E+02 -0.25125562510E+02  0.33305377978E+02  0.51100000000E-03 0.  1.
         22    1    1    0    0    0 -0.13222456368E+01  0.29582848281E+02 -0.96807093059E+01  0.31154604453E+02  0.00000000000E+00 0. -1.
</event>
<event>
 5    1  0.8962567E-005  0.9118800E+02  0.7818608E-02  0.1130116E+00
         25   -1    0    0    0    0  0.00000000000E+00  0.00000000000E+00  0.99999998245E-14  0.12500000000E+03  0.12500000000E+03 0.  0.
        -11    1    3    3    0    0  0.18934598962E+02  0.15667627114E+02 -0.42676302843E+02  0.49246932918E+02  0.51100000000E-03 0. -1.
         23    2    1    0    0    0  0.25677224610E+02 -0.12973230095E+02 -0.71870116656E+01  0.95347382925E+02  0.90619234885E+02 0.  0.
         11    1    3    3    0    0  0.67426256477E+01 -0.28640857209E+02  0.35489291177E+02  0.46100450007E+02  0.51100000000E-03 0.  1.
         22    1    1    0    0    0 -0.25677224610E+02  0.12973230095E+02  0.71870116656E+01  0.29652617075E+02  0.00000000000E+00 0. -1.
</event>
<event>
 5    1  0.8962567E-005  0.9118800E+02  0.7818608E-02  0.1130116E+00
         25   -1    0    0    0    0  0.00000000000E+00  0.00000000000E+00  0.99999998245E-14  0.12500000000E+03  0.12500000000E+03 0.  0.
        -11    1    3    3    0    0  0.13576622253E+02  0.40138809707E+01 -0.45063647911E+02  0.47235243998E+02  0.51100000000E-03 0. -1.
         23    2    1    0    0    0  0.27524603727E+02 -0.10963713579E+02 -0.15383595643E+01  0.95332283945E+02  0.90598404987E+02 0.  0.
         11    1    3    3    0    0  0.13947981474E+02 -0.14977594550E+02  0.43525288347E+02  0.48097039947E+02  0.51100000000E-03 0.  1.
         22    1    1    0    0    0 -0.27524603727E+02  0.10963713579E+02  0.15383595643E+01  0.29667716055E+02  0.00000000000E+00 0.  1.
</event>
<event>
 5    1  0.8962567E-005  0.9118800E+02  0.7818608E-02  0.1130116E+00
         25   -1    0    0    0    0  0.00000000000E+00  0.00000000000E+00  0.99999998245E-14  0.12500000000E+03  0.12500000000E+03 0.  0.
        -11    1    3    3    0    0  0.36057616642E+02  0.23438000922E+02 -0.13255697692E+02  0.45002279128E+02  0.51100000000E-03 0. -1.
         23    2    1    0    0    0  0.17330985081E+02 -0.19147882051E+02  0.10358298994E+02  0.97173775158E+02  0.93104477816E+02 0.  0.
         11    1    3    3    0    0 -0.18726631561E+02 -0.42585882974E+02  0.23613996686E+02  0.52171496030E+02  0.51100000000E-03 0.  1.
         22    1    1    0    0    0 -0.17330985081E+02  0.19147882051E+02 -0.10358298994E+02  0.27826224842E+02  0.00000000000E+00 0. -1.
</event>
<event>
 5    1  0.8962567E-005  0.9118800E+02  0.7818608E-02  0.1130116E+00
         25   -1    0    0    0    0  0.00000000000E+00  0.00000000000E+00  0.99999998245E-14  0.12500000000E+03  0.12500000000E+03 0.  0.
        -11    1    3    3    0    0 -0.32849710639E+02 -0.18170575234E+02 -0.33854144607E+01  0.37692629581E+02  0.51100000000E-03 0. -1.
         23    2    1    0    0    0  0.25850389008E+02 -0.64418489006E+01 -0.63012935965E+01  0.97623982574E+02  0.93706966888E+02 0.  0.
         11    1    3    3    0    0  0.58700099648E+02  0.11728726333E+02 -0.29158791358E+01  0.59931352992E+02  0.51100000000E-03 0.  1.
         22    1    1    0    0    0 -0.25850389008E+02  0.64418489006E+01  0.63012935965E+01  0.27376017426E+02  0.00000000000E+00 0.  1.
</event>
<event>
 5    1  0.8962567E-005  0.9118800E+02  0.7818608E-02  0.1130116E+00
         25   -1    0    0    0    0  0.00000000000E+00  0.00000000000E+00  0.99999998245E-14  0.12500000000E+03  0.12500000000E+03 0.  0.
        -11    1    3    3    0    0 -0.68092998929E+01  0.37882036754E+02  0.16196590364E+01  0.38523221170E+02  0.51100000000E-03 0.  1.
         23    2    1    0    0    0 -0.37271974275E+01 -0.25293685799E+01  0.34188162144E+02  0.90516378716E+02  0.83690469463E+02 0.  0.
         11    1    3    3    0    0  0.30821024654E+01 -0.40411405333E+02  0.32568503108E+02  0.51993157546E+02  0.51100000000E-03 0. -1.
         22    1    1    0    0    0  0.37271974275E+01  0.25293685799E+01 -0.34188162144E+02  0.34483621284E+02  0.00000000000E+00 0. -1.
</event>
<event>
 5    1  0.8962567E-005  0.9118800E+02  0.7818608E-02  0.1130116E+00
         25   -1    0    0    0    0  0.00000000000E+00  0.00000000000E+00  0.99999998245E-14  0.12500000000E+03  0.12500000000E+03 0.  0.
        -11    1    3    3    0    0  0.42696944851E+02  0.66733414217E+01  0.94366711786E+01  0.44233622377E+02  0.51100000000E-03 0. -1.
         23    2    1    0    0    0 -0.27081061778E+01  0.11132882842E+00  0.30262691288E+02  0.94616176719E+02  0.89604933903E+02 0.  0.
         11    1    3    3    0    0 -0.45405051029E+02 -0.65620125933E+01  0.20826020109E+02  0.50382554343E+02  0.51100000000E-03 0.  1.
         22    1    1    0    0    0  0.27081061778E+01 -0.11132882842E+00 -0.30262691288E+02  0.30383823281E+02  0.00000000000E+00 0. -1.
</event>
<event>
 5    1  0.8962567E-005  0.9118800E+02  0.7818608E-02  0.1130116E+00
         25   -1    0    0    0    0  0.00000000000E+00  0.00000000000E+00  0.99999998245E-14  0.12500000000E+03  0.12500000000E+03 0.  0.
        -11    1    3    3    0    0  0.48584752186E+02 -0.12906976887E+02 -0.25725046328E+02  0.56469869897E+02  0.51100000000E-03 0. -1.
         23    2    1    0    0    0  0.13665905349E+02  0.67568394479E+01 -0.23982031208E+02  0.96582581588E+02  0.92307342054E+02 0.  0.
         11    1    3    3    0    0 -0.34918846836E+02  0.19663816335E+02  0.17430151197E+01  0.40112711691E+02  0.51100000000E-03 0.  1.
         22    1    1    0    0    0 -0.13665905349E+02 -0.67568394479E+01  0.23982031208E+02  0.28417418412E+02  0.00000000000E+00 0. -1.
</event>
<event>
 5    1  0.8962567E-005  0.9118800E+02  0.7818608E-02  0.1130116E+00
         25   -1    0    0    0    0  0.00000000000E+00  0.00000000000E+00  0.99999998245E-14  0.12500000000E+03  0.12500000000E+03 0.  0.
        -11    1    3    3    0    0  0.97920643232E+01  0.31884742143E+02 -0.27069619474E+02  0.42956787635E+02  0.51100000000E-03 0. -1.
         23    2    1    0    0    0 -0.25987211321E+02  0.98075733321E+01  0.61638039153E+01  0.96548003135E+02  0.92260505005E+02 0.  0.
         11    1    3    3    0    0 -0.35779275644E+02 -0.22077168810E+02  0.33233423390E+02  0.53591215500E+02  0.51100000000E-03 0.  1.
         22    1    1    0    0    0  0.25987211321E+02 -0.98075733321E+01 -0.61638039153E+01  0.28451996865E+02  0.00000000000E+00 0.  1.
</event>
<event>
 5    1  0.8962567E-005  0.9118800E+02  0.7818608E-02  0.1130116E+00
         25   -1    0    0    0    0  0.00000000000E+00  0.00000000000E+00  0.99999998245E-14  0.12500000000E+03  0.12500000000E+03 0.  0.
        -11    1    3    3    0    0  0.18196985057E+02  0.30714616797E+02  0.29173777019E+02  0.46104524897E+02  0.51100000000E-03 0. -1.
         23    2    1    0    0    0 -0.16975246457E+02  0.77687359000E+01 -0.10247891797E+02  0.10370372014E+03  0.10149349750E+03 0.  0.
         11    1    3    3    0    0 -0.35172231514E+02 -0.22945880897E+02 -0.39421668816E+02  0.57599195240E+02  0.51100000000E-03 0.  1.
         22    1    1    0    0    0  0.16975246457E+02 -0.77687359000E+01  0.10247891797E+02  0.21296279864E+02  0.00000000000E+00 0.  1.
</event>
<event>
 5    1  0.8962567E-005  0.9118800E+02  0.7818608E-02  0.1130116E+00
         25   -1    0    0    0    0  0.00000000000E+00  0.00000000000E+00  0.99999998245E-14  0.12500000000E+03  0.12500000000E+03 0.  0.
        -11    1    3    3    0    0  0.26321650202E+02 -0.40808353385E+02 -0.61141627095E+01  0.48944192313E+02  0.51100000000E-03 0.  1.
         23    2    1    0    0    0 -0.13461185590E+02 -0.17623265954E+02 -0.17930250022E+02  0.96481990143E+02  0.92171023297E+02 0.  0.
         11    1    3    3    0    0 -0.39782835792E+02  0.23185087431E+02 -0.11816087312E+02  0.47537797829E+02  0.51100000000E-03 0. -1.
         22    1    1    0    0    0  0.13461185590E+02  0.17623265954E+02  0.17930250022E+02  0.28518009857E+02  0.00000000000E+00 0. -1.
</event>
<event>
 5    1  0.8962567E-005  0.9118800E+02  0.7818608E-02  0.1130116E+00
         25   -1    0    0    0    0  0.00000000000E+00  0.00000000000E+00  0.99999998245E-14  0.12500000000E+03  0.12500000000E+03 0.  0.
        -11    1    3    3    0    0 -0.15424895770E+02  0.32917765640E+02 -0.30184358521E+02  0.47250420144E+02  0.51100000000E-03 0. -1.
         23    2    1    0    0    0 -0.10909277999E+02  0.22740092852E+02  0.16247232120E+02  0.94998388027E+02  0.90136546455E+02 0.  0.
         11    1    3    3    0    0  0.45156177714E+01 -0.10177672788E+02  0.46431590641E+02  0.47747967883E+02  0.51100000000E-03 0.  1.
         22    1    1    0    0    0  0.10909277999E+02 -0.22740092852E+02 -0.16247232120E+02  0.30001611973E+02  0.00000000000E+00 0.  1.
</event>
<event>
 5    1  0.8962567E-005  0.9118800E+02  0.7818608E-02  0.1130116E+00
         25   -1    0    0    0    0  0.00000000000E+00  0.00000000000E+00  0.99999998245E-14  0.12500000000E+03  0.12500000000E+03 0.  0.
        -11    1    3    3    0    0 -0.11298342698E+02  0.51705616496E+01  0.33271055646E+02  0.35515495203E+02  0.51100000000E-03 0.  1.
         23    2    1    0    0    0 -0.22395298783E+01  0.23954995250E+02 -0.20627829421E+02  0.93308287548E+02  0.87761448752E+02 0.  0.
         11    1    3    3    0    0  0.90588128202E+01  0.18784433600E+02 -0.53898885066E+02  0.57792792345E+02  0.51100000000E-03 0. -1.
         22    1    1    0    0    0  0.22395298783E+01 -0.23954995250E+02  0.20627829421E+02  0.31691712452E+02  0.00000000000E+00 0. -1.
</event>
<event>
 5    1  0.8962567E-005  0.9118800E+02  0.7818608E-02  0.1130116E+00
         25   -1    0    0    0    0  0.00000000000E+00  0.00000000000E+00  0.99999998245E-14  0.12500000000E+03  0.12500000000E+03 0.  0.
        -11    1    3    3    0    0 -0.28118983287E+01 -0.27818638895E+02  0.26047196398E+02  0.38213085228E+02  0.51100000000E-03 0.  1.
         23    2    1    0    0    0 -0.19974302559E+02  0.20539565330E+02 -0.12245373687E+01  0.96323424220E+02  0.91955728778E+02 0.  0.
         11    1    3    3    0    0 -0.17162404231E+02  0.48358204226E+02 -0.27271733766E+02  0.58110338992E+02  0.51100000000E-03 0. -1.
         22    1    1    0    0    0  0.19974302559E+02 -0.20539565330E+02  0.12245373687E+01  0.28676575780E+02  0.00000000000E+00 0. -1.
</event>
<event>
 5    1  0.8962567E-005  0.9118800E+02  0.7818608E-02  0.1130116E+00
         25   -1    0    0    0    0  0.00000000000E+00  0.00000000000E+00  0.99999998245E-14  0.12500000000E+03  0.12500000000E+03 0.  0.
        -11    1    3    3    0    0  0.33611378668E+02 -0.12115511582E+02  0.16379677917E+02  0.39303997835E+02  0.51100000000E-03 0.  1.
         23    2    1    0    0    0 -0.19559619187E+02  0.93353338855E+01  0.18245617948E+02  0.96669279292E+02  0.92424671073E+02 0.  0.
         11    1    3    3    0    0 -0.53170997856E+02  0.21450845467E+02  0.18659400312E+01  0.57365281457E+02  0.51100000000E-03 0. -1.
         22    1    1    0    0    0  0.19559619187E+02 -0.93353338855E+01 -0.18245617948E+02  0.28330720708E+02  0.00000000000E+00 0. -1.
</event>
<event>
 5    1  0.8962567E-005  0.9118800E+02  0.7818608E-02  0.1130116E+00
         25   -1    0    0    0    0  0.00000000000E+00  0.00000000000E+00  0.99999998245E-14  0.12500000000E+03  0.12500000000E+03 0.  0.
        -11    1    3    3    0    0 -0.21637840405E+02  0.22463722919E+02 -0.19542027015E+02  0.36806328326E+02  0.51100000000E-03 0.  1.
         23    2    1    0    0    0 -0.91356891224E+01 -0.19960721733E+02  0.19376424612E+02  0.95719681379E+02  0.91131335690E+02 0.  0.
         11    1    3    3    0    0  0.12502151282E+02 -0.42424444651E+02  0.38918451626E+02  0.58913353053E+02  0.51100000000E-03 0. -1.
         22    1    1    0    0    0  0.91356891224E+01  0.19960721733E+02 -0.19376424612E+02  0.29280318621E+02  0.00000000000E+00 0. -1.
</event>
<event>
 5    1  0.8962567E-005  0.9118800E+02  0.7818608E-02  0.1130116E+00
         25   -1    0    0    0    0  0.00000000000E+00  0.00000000000E+00  0.99999998245E-14  0.12500000000E+03  0.12500000000E+03 0.  0.
        -11    1    3    3    0    0 -0.48572739095E+01  0.61102534211E+01  0.61698599677E+02  0.62190397242E+02  0.51100000000E-03 0.  1.
         23    2    1    0    0    0  0.44812868746E+00 -0.59879602441E+00  0.29036797725E+02  0.95953571680E+02  0.91451587849E+02 0.  0.
         11    1    3    3    0    0  0.53054025969E+01 -0.67090494455E+01 -0.32661801952E+02  0.33763174439E+02  0.51100000000E-03 0. -1.
         22    1    1    0    0    0 -0.44812868746E+00  0.59879602441E+00 -0.29036797725E+02  0.29046428320E+02  0.00000000000E+00 0.  1.
</event>
<event>
 5    1  0.8962567E-005  0.9118800E+02  0.7818608E-02  0.1130116E+00
         25   -1    0    0    0    0  0.00000000000E+00  0.00000000000E+00  0.99999998245E-14  0.12500000000E+03  0.12500000000E+03 0.  0.
        -11    1    3    3    0    0 -0.39598076385E+02 -0.17019813238E+01 -0.15155986758E+02  0.42433575488E+02  0.51100000000E-03 0.  1.
         23    2    1    0    0    0  0.12249032658E+02  0.11566131656E+01 -0.26677260538E+02  0.95622239961E+02  0.90997582332E+02 0.  0.
         11    1    3    3    0    0  0.51847109044E+02  0.28585944893E+01 -0.11521273780E+02  0.53188664473E+02  0.51100000000E-03 0. -1.
         22    1    1    0    0    0 -0.12249032658E+02 -0.11566131656E+01  0.26677260538E+02  0.29377760039E+02  0.00000000000E+00 0. -1.
</event>
<event>
 5    1  0.8962567E-005  0.9118800E+02  0.7818608E-02  0.1130116E+00
         25   -1    0    0    0    0  0.00000000000E+00  0.00000000000E+00  0.99999998245E-14  0.12500000000E+03  0.12500000000E+03 0.  0.
        -11    1    3    3    0    0 -0.12483745688E+02 -0.26005938271E+02  0.29207749123E+02  0.41051739803E+02  0.51100000000E-03 0.  1.
         23    2    1    0    0    0 -0.26470748224E+01 -0.10410600738E+02 -0.24721314006E+02  0.98045761391E+02  0.94267917913E+02 0.  0.
         11    1    3    3    0    0  0.98366708652E+01  0.15595337534E+02 -0.53929063129E+02  0.56994021587E+02  0.51100000000E-03 0. -1.
         22    1    1    0    0    0  0.26470748224E+01  0.10410600738E+02  0.24721314006E+02  0.26954238609E+02  0.00000000000E+00 0. -1.
</event>
<event>
 5    1  0.8962567E-005  0.9118800E+02  0.7818608E-02  0.1130116E+00
         25   -1    0    0    0    0  0.00000000000E+00  0.00000000000E+00  0.99999998245E-14  0.12500000000E+03  0.12500000000E+03 0.  0.
        -11    1    3    3    0    0  0.71307913627E+01  0.22022407013E+02  0.31178537497E+02  0.38832149011E+02  0.51100000000E-03 0. -1.
         23    2    1    0    0    0  0.14813672063E+02  0.70285628120E+01 -0.23667621631E+02  0.96207607101E+02  0.91798157799E+02 0.  0.
         11    1    3    3    0    0  0.76828807001E+01 -0.14993844201E+02 -0.54846159127E+02  0.57375458090E+02  0.51100000000E-03 0.  1.
         22    1    1    0    0    0 -0.14813672063E+02 -0.70285628120E+01  0.23667621631E+02  0.28792392899E+02  0.00000000000E+00 0.  1.
</event>
<event>
 5    1  0.8962567E-005  0.9118800E+02  0.7818608E-02  0.1130116E+00
         25   -1    0    0    0    0  0.00000000000E+00  0.00000000000E+00  0.99999998245E-14  0.12500000000E+03  0.12500000000E+03 0.  0.
        -11    1    3    3    0    0 -0.26570822438E+02  0.20693350410E+02 -0.15024525816E+02  0.36877631872E+02  0.51100000000E-03 0.  1.
         23    2    1    0    0    0  0.18609326675E+02  0.11151050603E+02  0.20510647342E+02  0.95144688525E+02  0.90339205948E+02 0.  0.
         11    1    3    3    0    0  0.45180149113E+02 -0.95422998061E+01  0.35535173158E+02  0.58267056654E+02  0.51100000000E-03 0. -1.
         22    1    1    0    0    0 -0.18609326675E+02 -0.11151050603E+02 -0.20510647342E+02  0.29855311475E+02  0.00000000000E+00 0.  1.
</event>
<event>
 5    1  0.8962567E-005  0.9118800E+02  0.7818608E-02  0.1130116E+00
         25   -1    0    0    0    0  0.00000000000E+00  0.00000000000E+00  0.99999998245E-14  0.12500000000E+03  0.12500000000E+03 0.  0.
        -11    1    3    3    0    0 -0.27340143861E+02  0.23584229783E+02 -0.25044833168E+02  0.43942496851E+02  0.51100000000E-03 0.  1.
         23    2    1    0    0    0 -0.17535039036E+02  0.72258035126E+01  0.22737928516E+02  0.95390825347E+02  0.90679139480E+02 0.  0.
         11    1    3    3    0    0  0.98051048245E+01 -0.16358426271E+02  0.47782761684E+02  0.51448328497E+02  0.51100000000E-03 0. -1.
         22    1    1    0    0    0  0.17535039036E+02 -0.72258035126E+01 -0.22737928516E+02  0.29609174653E+02  0.00000000000E+00 0. -1.
</event>
<event>
 5    1  0.8962567E-005  0.9118800E+02  0.7818608E-02  0.1130116E+00
         25   -1    0    0    0    0  0.00000000000E+00  0.00000000000E+00  0.99999998245E-14  0.12500000000E+03  0.12500000000E+03 0.  0.
        -11    1    3    3    0    0 -0.40644981384E+02 -0.18593601922E+02  0.17482445515E+02  0.47993462530E+02  0.51100000000E-03 0.  1.
         23    2    1    0    0    0 -0.23193156222E+01  0.29502290476E+01  0.30831340696E+02  0.93941110041E+02  0.88658206107E+02 0.  0.
         11    1    3    3    0    0  0.38325665762E+02  0.21543830970E+02  0.13348895181E+02  0.45947647511E+02  0.51100000000E-03 0. -1.
         22    1    1    0    0    0  0.23193156222E+01 -0.29502290476E+01 -0.30831340696E+02  0.31058889959E+02  0.00000000000E+00 0.  1.
</event>
<event>
 5    1  0.8962567E-005  0.9118800E+02  0.7818608E-02  0.1130116E+00
         25   -1    0    0    0    0  0.00000000000E+00  0.00000000000E+00  0.99999998245E-14  0.12500000000E+03  0.12500000000E+03 0.  0.
        -11    1    3    3    0    0 -0.25088646261E+00 -0.53031122973E+01 -0.55900175332E+02  0.56151718999E+02  0.51100000000E-03 0.  1.
         23    2    1    0    0    0 -0.18607961374E+02  0.47148521284E+01 -0.24568906747E+02  0.93821205350E+02  0.88488989922E+02 0.  0.
         11    1    3    3    0    0 -0.18357074911E+02  0.10017964426E+02  0.31331268585E+02  0.37669486351E+02  0.51100000000E-03 0. -1.
         22    1    1    0    0    0  0.18607961374E+02 -0.47148521284E+01  0.24568906747E+02  0.31178794650E+02  0.00000000000E+00 0. -1.
</event>
<event>
 5    1  0.8962567E-005  0.9118800E+02  0.7818608E-02  0.1130116E+00
         25   -1    0    0    0    0  0.00000000000E+00  0.00000000000E+00  0.99999998245E-14  0.12500000000E+03  0.12500000000E+03 0.  0.
        -11    1    3    3    0    0  0.37549684920E+02  0.12010608769E+02 -0.45460479569E+02  0.60173821247E+02  0.51100000000E-03 0. -1.
         23    2    1    0    0    0  0.85243888288E+01  0.13911009481E+02 -0.22372242972E+02  0.97310676330E+02  0.93288097218E+02 0.  0.
         11    1    3    3    0    0 -0.29025296091E+02  0.19004007125E+01  0.23088236596E+02  0.37136855083E+02  0.51100000000E-03 0.  1.
         22    1    1    0    0    0 -0.85243888288E+01 -0.13911009481E+02  0.22372242972E+02  0.27689323670E+02  0.00000000000E+00 0. -1.
</event>
<event>
 5    1  0.8962567E-005  0.9118800E+02  0.7818608E-02  0.1130116E+00
         25   -1    0    0    0    0  0.00000000000E+00  0.00000000000E+00  0.99999998245E-14  0.12500000000E+03  0.12500000000E+03 0.  0.
        -11    1    3    3    0    0 -0.27940578078E+02 -0.10927059955E+02  0.16678670108E+02  0.34325713095E+02  0.51100000000E-03 0. -1.
         23    2    1    0    0    0  0.28965947060E+02 -0.77251302517E+01 -0.35647115849E+01  0.94810417440E+02  0.89875493656E+02 0.  0.
         11    1    3    3    0    0  0.56906525138E+02  0.32019297037E+01 -0.20243381693E+02  0.60484704345E+02  0.51100000000E-03 0.  1.
         22    1    1    0    0    0 -0.28965947060E+02  0.77251302517E+01  0.35647115849E+01  0.30189582560E+02  0.00000000000E+00 0.  1.
</event>
<event>
 5    1  0.8962567E-005  0.9118800E+02  0.7818608E-02  0.1130116E+00
         25   -1    0    0    0    0  0.00000000000E+00  0.00000000000E+00  0.99999998245E-14  0.12500000000E+03  0.12500000000E+03 0.  0.
        -11    1    3    3    0    0 -0.22939935914E+02  0.30753395286E+02 -0.45643038524E+01  0.38637350469E+02  0.51100000000E-03 0. -1.
         23    2    1    0    0    0  0.67209647638E+01 -0.10010824157E+02 -0.28210504685E+02  0.94320682175E+02  0.89191762757E+02 0.  0.
         11    1    3    3    0    0  0.29660900677E+02 -0.40764219443E+02 -0.23646200832E+02  0.55683331706E+02  0.51100000000E-03 0.  1.
         22    1    1    0    0    0 -0.67209647638E+01  0.10010824157E+02  0.28210504685E+02  0.30679317825E+02  0.00000000000E+00 0.  1.
</event>
<event>
 5    1  0.8962567E-005  0.9118800E+02  0.7818608E-02  0.1130116E+00
         25   -1    0    0    0    0  0.00000000000E+00  0.00000000000E+00  0.99999998245E-14  0.12500000000E+03  0.12500000000E+03 0.  0.
        -11    1    3    3    0    0 -0.35122686474E+02  0.96718798809E+01  0.11276389490E+02  0.38135355325E+02  0.51100000000E-03 0. -1.
         23    2    1    0    0    0  0.17484215800E+02  0.25740792619E+02  0.45663370535E+01  0.93549441327E+02  0.88104258306E+02 0.  0.
         11    1    3    3    0    0  0.52606902274E+02  0.16068912738E+02 -0.67100524364E+01  0.55414086002E+02  0.51100000000E-03 0.  1.
         22    1    1    0    0    0 -0.17484215800E+02 -0.25740792619E+02 -0.45663370535E+01  0.31450558673E+02  0.00000000000E+00 0.  1.
</event>
<event>
 5    1  0.8962567E-005  0.9118800E+02  0.7818608E-02  0.1130116E+00
         25   -1    0    0    0    0  0.00000000000E+00  0.00000000000E+00  0.99999998245E-14  0.12500000000E+03  0.12500000000E+03 0.  0.
        -11    1    3    3    0    0  0.64355704039E+01 -0.45135734265E+02 -0.15006979554E+02  0.47998546954E+02  0.51100000000E-03 0. -1.
         23    2    1    0    0    0 -0.10358681763E+02 -0.35010148385E+02  0.16360356324E+02  0.84991575426E+02  0.74985957729E+02 0.  0.
         11    1    3    3    0    0 -0.16794252167E+02  0.10125585880E+02  0.31367335878E+02  0.36993028473E+02  0.51100000000E-03 0.  1.
         22    1    1    0    0    0  0.10358681763E+02  0.35010148385E+02 -0.16360356324E+02  0.40008424574E+02  0.00000000000E+00 0. -1.
</event>
<event>
 5    1  0.8962567E-005  0.9118800E+02  0.7818608E-02  0.1130116E+00
         25   -1    0    0    0    0  0.00000000000E+00  0.00000000000E+00  0.99999998245E-14  0.12500000000E+03  0.12500000000E+03 0.  0.
        -11    1    3    3    0    0  0.24534504220E+02 -0.13131170524E+02 -0.25470493481E+02  0.37724204102E+02  0.51100000000E-03 0.  1.
         23    2    1    0    0    0 -0.49862869422E+01  0.30435892878E+02 -0.88234092036E+01  0.92921047668E+02  0.87208152812E+02 0.  0.
         11    1    3    3    0    0 -0.29520791162E+02  0.43567063403E+02  0.16647084278E+02  0.55196843566E+02  0.51100000000E-03 0. -1.
         22    1    1    0    0    0  0.49862869422E+01 -0.30435892878E+02  0.88234092036E+01  0.32078952332E+02  0.00000000000E+00 0. -1.
</event>
<event>
 5    1  0.8962567E-005  0.9118800E+02  0.7818608E-02  0.1130116E+00
         25   -1    0    0    0    0  0.00000000000E+00  0.00000000000E+00  0.99999998245E-14  0.12500000000E+03  0.12500000000E+03 0.  0.
        -11    1    3    3    0    0 -0.16680797486E+02  0.61366637664E+01 -0.29879970955E+02  0.34766655167E+02  0.51100000000E-03 0. -1.
         23    2    1    0    0    0  0.11090279682E+02 -0.12996220846E+02  0.22307096441E+02  0.96901910895E+02  0.92738760633E+02 0.  0.
         11    1    3    3    0    0  0.27771077168E+02 -0.19132884613E+02  0.52187067396E+02  0.62135255728E+02  0.51100000000E-03 0.  1.
         22    1    1    0    0    0 -0.11090279682E+02  0.12996220846E+02 -0.22307096441E+02  0.28098089105E+02  0.00000000000E+00 0.  1.
</event>
<event>
 5    1  0.8962567E-005  0.9118800E+02  0.7818608E-02  0.1130116E+00
         25   -1    0    0    0    0  0.00000000000E+00  0.00000000000E+00  0.99999998245E-14  0.12500000000E+03  0.12500000000E+03 0.  0.
        -11    1    3    3    0    0 -0.33528823705E+02 -0.49831642679E+02 -0.52607843814E+00  0.60063727739E+02  0.51100000000E-03 0. -1.
         23    2    1    0    0    0 -0.23134451716E+02 -0.15551767247E+02  0.60289665735E+01  0.96479678147E+02  0.92167887774E+02 0.  0.
         11    1    3    3    0    0  0.10394371990E+02  0.34279875432E+02  0.65550450116E+01  0.36415950408E+02  0.51100000000E-03 0.  1.
         22    1    1    0    0    0  0.23134451716E+02  0.15551767247E+02 -0.60289665735E+01  0.28520321853E+02  0.00000000000E+00 0. -1.
</event>
<event>
 5    1  0.8962567E-005  0.9118800E+02  0.7818608E-02  0.1130116E+00
         25   -1    0    0    0    0  0.00000000000E+00  0.00000000000E+00  0.99999998245E-14  0.12500000000E+03  0.12500000000E+03 0.  0.
        -11    1    3    3    0    0 -0.41311347933E+01 -0.53598182245E+02 -0.23701592740E+02  0.58750292878E+02  0.51100000000E-03 0.  1.
         23    2    1    0    0    0 -0.11241326620E+02 -0.26984261250E+02  0.10002040093E+01  0.95750757489E+02  0.91173951172E+02 0.  0.
         11    1    3    3    0    0 -0.71101918267E+01  0.26613920995E+02  0.24701796749E+02  0.37000464611E+02  0.51100000000E-03 0. -1.
         22    1    1    0    0    0  0.11241326620E+02  0.26984261250E+02 -0.10002040093E+01  0.29249242511E+02  0.00000000000E+00 0.  1.
</event>
<event>
 5    1  0.8962567E-005  0.9118800E+02  0.7818608E-02  0.1130116E+00
         25   -1    0    0    0    0  0.00000000000E+00  0.00000000000E+00  0.99999998245E-14  0.12500000000E+03  0.12500000000E+03 0.  0.
        -11    1    3    3    0    0 -0.10454139172E+02 -0.27672189112E+02  0.35507725345E+02  0.46215123450E+02  0.51100000000E-03 0.  1.
         23    2    1    0    0    0  0.26557734683E+02 -0.11942127921E+02  0.84734522828E+01  0.94672997439E+02  0.89684164487E+02 0.  0.
         11    1    3    3    0    0  0.37011873854E+02  0.15730061191E+02 -0.27034273062E+02  0.48457873989E+02  0.51100000000E-03 0. -1.
         22    1    1    0    0    0 -0.26557734683E+02  0.11942127921E+02 -0.84734522828E+01  0.30327002561E+02  0.00000000000E+00 0. -1.
</event>
<event>
 5    1  0.8962567E-005  0.9118800E+02  0.7818608E-02  0.1130116E+00
         25   -1    0    0    0    0  0.00000000000E+00  0.00000000000E+00  0.99999998245E-14  0.12500000000E+03  0.12500000000E+03 0.  0.
        -11    1    3    3    0    0 -0.63710655472E+00 -0.33447943155E+02  0.17524214346E+01  0.33499877420E+02  0.51100000000E-03 0.  1.
         23    2    1    0    0    0  0.16574362236E+02  0.25296734664E+02  0.16112641239E+01  0.94714187476E+02  0.89741555976E+02 0.  0.
         11    1    3    3    0    0  0.17211468791E+02  0.58744677818E+02 -0.14115731077E+00  0.61214310055E+02  0.51100000000E-03 0. -1.
         22    1    1    0    0    0 -0.16574362236E+02 -0.25296734664E+02 -0.16112641239E+01  0.30285812524E+02  0.00000000000E+00 0. -1.
</event>
<event>
 5    1  0.8962567E-005  0.9118800E+02  0.7818608E-02  0.1130116E+00
         25   -1    0    0    0    0  0.00000000000E+00  0.00000000000E+00  0.99999998245E-14  0.12500000000E+03  0.12500000000E+03 0.  0.
        -11    1    3    3    0    0  0.22429518712E+02 -0.24442297911E+02 -0.25616926185E+02  0.41913436321E+02  0.51100000000E-03 0. -1.
         23    2    1    0    0    0  0.70698289567E+01 -0.22426880491E+02  0.22495168130E+02  0.92458026500E+02  0.86541935644E+02 0.  0.
         11    1    3    3    0    0 -0.15359689755E+02  0.20154174194E+01  0.48112094315E+02  0.50544590179E+02  0.51100000000E-03 0.  1.
         22    1    1    0    0    0 -0.70698289567E+01  0.22426880491E+02 -0.22495168130E+02  0.32541973500E+02  0.00000000000E+00 0.  1.
</event>
<event>
 5    1  0.8962567E-005  0.9118800E+02  0.7818608E-02  0.1130116E+00
         25   -1    0    0    0    0  0.00000000000E+00  0.00000000000E+00  0.99999998245E-14  0.12500000000E+03  0.12500000000E+03 0.  0.
        -11    1    3    3    0    0 -0.30994648558E+02 -0.14872524029E+02  0.51956475537E+01  0.34768591631E+02  0.51100000000E-03 0.  1.
         23    2    1    0    0    0  0.15746204607E+02  0.18796960413E+02 -0.15514404583E+02  0.95983359432E+02  0.91492293981E+02 0.  0.
         11    1    3    3    0    0  0.46740853165E+02  0.33669484443E+02 -0.20710052137E+02  0.61214767801E+02  0.51100000000E-03 0. -1.
         22    1    1    0    0    0 -0.15746204607E+02 -0.18796960413E+02  0.15514404583E+02  0.29016640568E+02  0.00000000000E+00 0. -1.
</event>
<event>
 5    1  0.8962567E-005  0.9118800E+02  0.7818608E-02  0.1130116E+00
         25   -1    0    0    0    0  0.00000000000E+00  0.00000000000E+00  0.99999998245E-14  0.12500000000E+03  0.12500000000E+03 0.  0.
        -11    1    3    3    0    0 -0.18652795453E+02 -0.31642181428E+02 -0.36109608139E+01  0.36907905143E+02  0.51100000000E-03 0. -1.
         23    2    1    0    0    0  0.13098522549E+01  0.21949551094E+02 -0.18789543673E+02  0.96076904426E+02  0.91620009312E+02 0.  0.
         11    1    3    3    0    0  0.19962647708E+02  0.53591732522E+02 -0.15178582859E+02  0.59168999283E+02  0.51100000000E-03 0.  1.
         22    1    1    0    0    0 -0.13098522549E+01 -0.21949551094E+02  0.18789543673E+02  0.28923095574E+02  0.00000000000E+00 0.  1.
</event>
<event>
 5    1  0.8962567E-005  0.9118800E+02  0.7818608E-02  0.1130116E+00
         25   -1    0    0    0    0  0.00000000000E+00  0.00000000000E+00  0.99999998245E-14  0.12500000000E+03  0.12500000000E+03 0.  0.
        -11    1    3    3    0    0  0.15725292230E+02 -0.98251190391E+01  0.41187661611E+02  0.45169029756E+02  0.51100000000E-03 0.  1.
         23    2    1    0    0    0 -0.14455949189E+02  0.20816529412E+02  0.14093446577E+02  0.96001248300E+02  0.91516731121E+02 0.  0.
         11    1    3    3    0    0 -0.30181241420E+02  0.30641648451E+02 -0.27094215034E+02  0.50832218544E+02  0.51100000000E-03 0. -1.
         22    1    1    0    0    0  0.14455949189E+02 -0.20816529412E+02 -0.14093446577E+02  0.28998751700E+02  0.00000000000E+00 0. -1.
</event>
<event>
 5    1  0.8962567E-005  0.9118800E+02  0.7818608E-02  0.1130116E+00
         25   -1    0    0    0    0  0.00000000000E+00  0.00000000000E+00  0.99999998245E-14  0.12500000000E+03  0.12500000000E+03 0.  0.
        -11    1    3    3    0    0  0.10060116935E+02 -0.18319460837E+02 -0.28126993788E+02  0.35041923148E+02  0.51100000000E-03 0.  1.
         23    2    1    0    0    0  0.18935754007E+02  0.42189593046E+01  0.24955938380E+02  0.93390487858E+02  0.87878449944E+02 0.  0.
         11    1    3    3    0    0  0.88756370718E+01  0.22538420141E+02  0.53082932168E+02  0.58348564710E+02  0.51100000000E-03 0. -1.
         22    1    1    0    0    0 -0.18935754007E+02 -0.42189593046E+01 -0.24955938380E+02  0.31609512142E+02  0.00000000000E+00 0. -1.
</event>
<event>
 5    1  0.8962567E-005  0.9118800E+02  0.7818608E-02  0.1130116E+00
         25   -1    0    0    0    0  0.00000000000E+00  0.00000000000E+00  0.99999998245E-14  0.12500000000E+03  0.12500000000E+03 0.  0.
        -11    1    3    3    0    0  0.24445909178E+02 -0.25178895677E+01  0.21591872184E+02  0.32713165364E+02  0.51100000000E-03 0.  1.
         23    2    1    0    0    0 -0.91286072043E+01  0.21211748075E+02 -0.22331112349E+02  0.92876047805E+02  0.87143628288E+02 0.  0.
         11    1    3    3    0    0 -0.33574516383E+02  0.23729637643E+02 -0.43922984534E+02  0.60162882441E+02  0.51100000000E-03 0. -1.
         22    1    1    0    0    0  0.91286072043E+01 -0.21211748075E+02  0.22331112349E+02  0.32123952195E+02  0.00000000000E+00 0. -1.
</event>
<event>
 5    1  0.8962567E-005  0.9118800E+02  0.7818608E-02  0.1130116E+00
         25   -1    0    0    0    0  0.00000000000E+00  0.00000000000E+00  0.99999998245E-14  0.12500000000E+03  0.12500000000E+03 0.  0.
        -11    1    3    3    0    0  0.14196790786E+02 -0.45181046700E+02 -0.89876220817E+01  0.48204286122E+02  0.51100000000E-03 0.  1.
         23    2    1    0    0    0  0.16768015485E+02  0.63196357764E+01 -0.16894975861E+02  0.10037187890E+03  0.97303492869E+02 0.  0.
         11    1    3    3    0    0  0.25712246994E+01  0.51500682477E+02 -0.79073537793E+01  0.52167592776E+02  0.51100000000E-03 0. -1.
         22    1    1    0    0    0 -0.16768015485E+02 -0.63196357764E+01  0.16894975861E+02  0.24628121102E+02  0.00000000000E+00 0. -1.
</event>
<event>
 5    1  0.8962567E-005  0.9118800E+02  0.7818608E-02  0.1130116E+00
         25   -1    0    0    0    0  0.00000000000E+00  0.00000000000E+00  0.99999998245E-14  0.12500000000E+03  0.12500000000E+03 0.  0.
        -11    1    3    3    0    0  0.12302564346E+02 -0.43212774384E+02  0.31968572220E+02  0.55142420780E+02  0.51100000000E-03 0.  1.
         23    2    1    0    0    0 -0.12507670540E+02 -0.12895639939E+02  0.23835226926E+02  0.95152765716E+02  0.90350381455E+02 0.  0.
         11    1    3    3    0    0 -0.24810234886E+02  0.30317134445E+02 -0.81333452936E+01  0.40010344937E+02  0.51100000000E-03 0. -1.
         22    1    1    0    0    0  0.12507670540E+02  0.12895639939E+02 -0.23835226926E+02  0.29847234284E+02  0.00000000000E+00 0.  1.
</event>
<event>
 5    1  0.8962567E-005  0.9118800E+02  0.7818608E-02  0.1130116E+00
         25   -1    0    0    0    0  0.00000000000E+00  0.00000000000E+00  0.99999998245E-14  0.12500000000E+03  0.12500000000E+03 0.  0.
        -11    1    3    3    0    0  0.43002803240E+02 -0.17651036525E+02 -0.41066502482E+02  0.62026267043E+02  0.51100000000E-03 0.  1.
         23    2    1    0    0    0  0.16093138264E+02 -0.10935777010E+02 -0.21704411744E+02  0.95851041062E+02  0.91311337004E+02 0.  0.
         11    1    3    3    0    0 -0.26909664975E+02  0.67152595158E+01  0.19362090738E+02  0.33824774019E+02  0.51100000000E-03 0. -1.
         22    1    1    0    0    0 -0.16093138264E+02  0.10935777010E+02  0.21704411744E+02  0.29148958938E+02  0.00000000000E+00 0.  1.
</event>
<event>
 5    1  0.8962567E-005  0.9118800E+02  0.7818608E-02  0.1130116E+00
         25   -1    0    0    0    0  0.00000000000E+00  0.00000000000E+00  0.99999998245E-14  0.12500000000E+03  0.12500000000E+03 0.  0.
        -11    1    3    3    0    0 -0.98393155436E+01  0.47774580014E+02 -0.26022111390E+02  0.55284472570E+02  0.51100000000E-03 0. -1.
         23    2    1    0    0    0  0.20074099785E+01  0.29761220113E+02  0.66593957905E+01  0.94436828212E+02  0.89354390228E+02 0.  0.
         11    1    3    3    0    0  0.11846725522E+02 -0.18013359901E+02  0.32681507180E+02  0.39152355642E+02  0.51100000000E-03 0.  1.
         22    1    1    0    0    0 -0.20074099785E+01 -0.29761220113E+02 -0.66593957905E+01  0.30563171788E+02  0.00000000000E+00 0. -1.
</event>
<event>
 5    1  0.8962567E-005  0.9118800E+02  0.7818608E-02  0.1130116E+00
         25   -1    0    0    0    0  0.00000000000E+00  0.00000000000E+00  0.99999998245E-14  0.12500000000E+03  0.12500000000E+03 0.  0.
        -11    1    3    3    0    0  0.18082272675E+02  0.76304715680E+01  0.33940224627E+02  0.39206269006E+02  0.51100000000E-03 0. -1.
         23    2    1    0    0    0  0.10896242070E+02 -0.27373079991E+02 -0.81618443760E+01  0.94428292441E+02  0.89342448535E+02 0.  0.
         11    1    3    3    0    0 -0.71860306051E+01 -0.35003551560E+02 -0.42102069003E+02  0.55222023435E+02  0.51100000000E-03 0.  1.
         22    1    1    0    0    0 -0.10896242070E+02  0.27373079991E+02  0.81618443760E+01  0.30571707559E+02  0.00000000000E+00 0.  1.
</event>
<event>
 5    1  0.8962567E-005  0.9118800E+02  0.7818608E-02  0.1130116E+00
         25   -1    0    0    0    0  0.00000000000E+00  0.00000000000E+00  0.99999998245E-14  0.12500000000E+03  0.12500000000E+03 0.  0.
        -11    1    3    3    0    0 -0.17620805287E+02 -0.17588661001E+02 -0.48012763812E+02  0.54084001922E+02  0.51100000000E-03 0.  1.
         23    2    1    0    0    0  0.33083885843E+01 -0.24902516350E+02 -0.10261975877E+02  0.97863513410E+02  0.94025945103E+02 0.  0.
         11    1    3    3    0    0  0.20929193872E+02 -0.73138553484E+01  0.37750787935E+02  0.43779511488E+02  0.51100000000E-03 0. -1.
         22    1    1    0    0    0 -0.33083885843E+01  0.24902516350E+02  0.10261975877E+02  0.27136486590E+02  0.00000000000E+00 0. -1.
</event>
<event>
 5    1  0.8962567E-005  0.9118800E+02  0.7818608E-02  0.1130116E+00
         25   -1    0    0    0    0  0.00000000000E+00  0.00000000000E+00  0.99999998245E-14  0.12500000000E+03  0.12500000000E+03 0.  0.
        -11    1    3    3    0    0 -0.44817355296E+02 -0.29380879173E+02  0.31311846523E+02  0.62066602369E+02  0.51100000000E-03 0.  1.
         23    2    1    0    0    0 -0.22338410577E+02 -0.90577780800E+01  0.16435556706E+02  0.95825088602E+02  0.91275802656E+02 0.  0.
         11    1    3    3    0    0  0.22478944719E+02  0.20323101093E+02 -0.14876289818E+02  0.33758486233E+02  0.51100000000E-03 0. -1.
         22    1    1    0    0    0  0.22338410577E+02  0.90577780800E+01 -0.16435556706E+02  0.29174911398E+02  0.00000000000E+00 0.  1.
</event>
<event>
 5    1  0.8962567E-005  0.9118800E+02  0.7818608E-02  0.1130116E+00
         25   -1    0    0    0    0  0.00000000000E+00  0.00000000000E+00  0.99999998245E-14  0.12500000000E+03  0.12500000000E+03 0.  0.
        -11    1    3    3    0    0 -0.25135472220E+02 -0.24388042280E+02 -0.46559805746E+02  0.58261342941E+02  0.51100000000E-03 0.  1.
         23    2    1    0    0    0 -0.42815111936E+01 -0.26254969881E+02 -0.22470598903E+02  0.90177843309E+02  0.83183296564E+02 0.  0.
         11    1    3    3    0    0  0.20853961027E+02 -0.18669276007E+01  0.24089206842E+02  0.31916500368E+02  0.51100000000E-03 0. -1.
         22    1    1    0    0    0  0.42815111936E+01  0.26254969881E+02  0.22470598903E+02  0.34822156691E+02  0.00000000000E+00 0.  1.
</event>
<event>
 5    1  0.8962567E-005  0.9118800E+02  0.7818608E-02  0.1130116E+00
         25   -1    0    0    0    0  0.00000000000E+00  0.00000000000E+00  0.99999998245E-14  0.12500000000E+03  0.12500000000E+03 0.  0.
        -11    1    3    3    0    0 -0.35126757978E+02 -0.47767811223E+01  0.89519820895E+01  0.36562887571E+02  0.51100000000E-03 0. -1.
         23    2    1    0    0    0  0.22866951392E+02  0.12913179599E+02  0.91365611374E+01  0.97194884954E+02  0.93132815046E+02 0.  0.
         11    1    3    3    0    0  0.57993709371E+02  0.17689960721E+02  0.18457904793E+00  0.60631997382E+02  0.51100000000E-03 0.  1.
         22    1    1    0    0    0 -0.22866951392E+02 -0.12913179599E+02 -0.91365611374E+01  0.27805115046E+02  0.00000000000E+00 0. -1.
</event>
<event>
 5    1  0.8962567E-005  0.9118800E+02  0.7818608E-02  0.1130116E+00
         25   -1    0    0    0    0  0.00000000000E+00  0.00000000000E+00  0.99999998245E-14  0.12500000000E+03  0.12500000000E+03 0.  0.
        -11    1    3    3    0    0  0.61826417983E+01 -0.67641029075E+01  0.49380328047E+02  0.50223450160E+02  0.51100000000E-03 0.  1.
         23    2    1    0    0    0  0.10752884650E+02 -0.25985308026E+02  0.85105025712E+01  0.95618212861E+02  0.90992050285E+02 0.  0.
         11    1    3    3    0    0  0.45702428512E+01 -0.19221205119E+02 -0.40869825476E+02  0.45394762700E+02  0.51100000000E-03 0. -1.
         22    1    1    0    0    0 -0.10752884650E+02  0.25985308026E+02 -0.85105025712E+01  0.29381787139E+02  0.00000000000E+00 0.  1.
</event>
<event>
 5    1  0.8962567E-005  0.9118800E+02  0.7818608E-02  0.1130116E+00
         25   -1    0    0    0    0  0.00000000000E+00  0.00000000000E+00  0.99999998245E-14  0.12500000000E+03  0.12500000000E+03 0.  0.
        -11    1    3    3    0    0  0.31126141878E+02  0.24186231629E+02 -0.12175431220E+02  0.41255928474E+02  0.51100000000E-03 0.  1.
         23    2    1    0    0    0 -0.23287209743E+02  0.96963934070E+01 -0.10739324509E+02  0.97583813656E+02  0.93653368407E+02 0.  0.
         11    1    3    3    0    0 -0.54413351621E+02 -0.14489838222E+02  0.14361067114E+01  0.56327885182E+02  0.51100000000E-03 0. -1.
         22    1    1    0    0    0  0.23287209743E+02 -0.96963934070E+01  0.10739324509E+02  0.27416186344E+02  0.00000000000E+00 0. -1.
</event>
<event>
 5    1  0.8962567E-005  0.9118800E+02  0.7818608E-02  0.1130116E+00
         25   -1    0    0    0    0  0.00000000000E+00  0.00000000000E+00  0.99999998245E-14  0.12500000000E+03  0.12500000000E+03 0.  0.
        -11    1    3    3    0    0  0.93572731178E+01  0.33168881175E+02  0.36734124706E+02  0.50369923136E+02  0.51100000000E-03 0.  1.
         23    2    1    0    0    0  0.22269588615E+02  0.17578607713E+02 -0.44703684997E+01  0.96278471128E+02  0.91894601485E+02 0.  0.
         11    1    3    3    0    0  0.12912315497E+02 -0.15590273462E+02 -0.41204493206E+02  0.45908547992E+02  0.51100000000E-03 0. -1.
         22    1    1    0    0    0 -0.22269588615E+02 -0.17578607713E+02  0.44703684997E+01  0.28721528872E+02  0.00000000000E+00 0.  1.
</event>
<event>
 5    1  0.8962567E-005  0.9118800E+02  0.7818608E-02  0.1130116E+00
         25   -1    0    0    0    0  0.00000000000E+00  0.00000000000E+00  0.99999998245E-14  0.12500000000E+03  0.12500000000E+03 0.  0.
        -11    1    3    3    0    0 -0.49597340695E+02  0.27625731702E+02 -0.14009651484E+02  0.58475187824E+02  0.51100000000E-03 0.  1.
         23    2    1    0    0    0 -0.29483127534E+02  0.78088555288E+00  0.15778814402E+01  0.95464355411E+02  0.90780443118E+02 0.  0.
         11    1    3    3    0    0  0.20114213161E+02 -0.26844846149E+02  0.15587532924E+02  0.36989167587E+02  0.51100000000E-03 0. -1.
         22    1    1    0    0    0  0.29483127534E+02 -0.78088555288E+00 -0.15778814402E+01  0.29535644589E+02  0.00000000000E+00 0.  1.
</event>
<event>
 5    1  0.8962567E-005  0.9118800E+02  0.7818608E-02  0.1130116E+00
         25   -1    0    0    0    0  0.00000000000E+00  0.00000000000E+00  0.99999998245E-14  0.12500000000E+03  0.12500000000E+03 0.  0.
        -11    1    3    3    0    0  0.18790508829E+02 -0.33975163766E+02  0.28856097609E+01  0.38932270919E+02  0.51100000000E-03 0.  1.
         23    2    1    0    0    0 -0.22111433363E+02 -0.40534945149E+01 -0.20344514046E+02  0.94680937433E+02  0.89695230410E+02 0.  0.
         11    1    3    3    0    0 -0.40901942191E+02  0.29921669251E+02 -0.23230123807E+02  0.55748666515E+02  0.51100000000E-03 0. -1.
         22    1    1    0    0    0  0.22111433363E+02  0.40534945149E+01  0.20344514046E+02  0.30319062567E+02  0.00000000000E+00 0. -1.
</event>
<event>
 5    1  0.8962567E-005  0.9118800E+02  0.7818608E-02  0.1130116E+00
         25   -1    0    0    0    0  0.00000000000E+00  0.00000000000E+00  0.99999998245E-14  0.12500000000E+03  0.12500000000E+03 0.  0.
        -11    1    3    3    0    0 -0.10321741558E+02 -0.18894343540E+02  0.30875276647E+02  0.37640633296E+02  0.51100000000E-03 0.  1.
         23    2    1    0    0    0 -0.11640791096E+02 -0.30745461744E+01 -0.25816996190E+02  0.96513544555E+02  0.92213806660E+02 0.  0.
         11    1    3    3    0    0 -0.13190495388E+01  0.15819797366E+02 -0.56692272838E+02  0.58872911259E+02  0.51100000000E-03 0. -1.
         22    1    1    0    0    0  0.11640791096E+02  0.30745461744E+01  0.25816996190E+02  0.28486455445E+02  0.00000000000E+00 0. -1.
</event>
<event>
 5    1  0.8962567E-005  0.9118800E+02  0.7818608E-02  0.1130116E+00
         25   -1    0    0    0    0  0.00000000000E+00  0.00000000000E+00  0.99999998245E-14  0.12500000000E+03  0.12500000000E+03 0.  0.
        -11    1    3    3    0    0 -0.42006242050E+02  0.12729762697E+01  0.11128393290E+02  0.43473968961E+02  0.51100000000E-03 0.  1.
         23    2    1    0    0    0 -0.22394718416E+02  0.32625189199E+02 -0.72497441584E+01  0.84769598889E+02  0.74615010032E+02 0.  0.
         11    1    3    3    0    0  0.19611523633E+02  0.31352212929E+02 -0.18378137448E+02  0.41295629928E+02  0.51100000000E-03 0. -1.
         22    1    1    0    0    0  0.22394718416E+02 -0.32625189199E+02  0.72497441584E+01  0.40230401111E+02  0.00000000000E+00 0. -1.
</event>
<event>
 5    1  0.8962567E-005  0.9118800E+02  0.7818608E-02  0.1130116E+00
         25   -1    0    0    0    0  0.00000000000E+00  0.00000000000E+00  0.99999998245E-14  0.12500000000E+03  0.12500000000E+03 0.  0.
        -11    1    3    3    0    0 -0.13199650109E+02  0.36202704189E+02  0.32635529750E+02  0.50496973730E+02  0.51100000000E-03 0.  1.
         23    2    1    0    0    0 -0.14994692165E+02 -0.75749080788E+01  0.24860060889E+02  0.94995956057E+02  0.90133173772E+02 0.  0.
         11    1    3    3    0    0 -0.17950420554E+01 -0.43777612267E+02 -0.77754688610E+01  0.44498982326E+02  0.51100000000E-03 0. -1.
         22    1    1    0    0    0  0.14994692165E+02  0.75749080788E+01 -0.24860060889E+02  0.30004043943E+02  0.00000000000E+00 0.  1.
</event>
<event>
 5    1  0.8962567E-005  0.9118800E+02  0.7818608E-02  0.1130116E+00
         25   -1    0    0    0    0  0.00000000000E+00  0.00000000000E+00  0.99999998245E-14  0.12500000000E+03  0.12500000000E+03 0.  0.
        -11    1    3    3    0    0 -0.77670069763E+01 -0.83039452446E+01  0.37684987253E+02  0.39362928861E+02  0.51100000000E-03 0.  1.
         23    2    1    0    0    0  0.19787250620E+02  0.21460446611E+02 -0.15148214987E+01  0.95770208006E+02  0.91200614041E+02 0.  0.
         11    1    3    3    0    0  0.27554257596E+02  0.29764391855E+02 -0.39199808751E+02  0.56407279146E+02  0.51100000000E-03 0. -1.
         22    1    1    0    0    0 -0.19787250620E+02 -0.21460446611E+02  0.15148214987E+01  0.29229791994E+02  0.00000000000E+00 0. -1.
</event>
<event>
 5    1  0.8962567E-005  0.9118800E+02  0.7818608E-02  0.1130116E+00
         25   -1    0    0    0    0  0.00000000000E+00  0.00000000000E+00  0.99999998245E-14  0.12500000000E+03  0.12500000000E+03 0.  0.
        -11    1    3    3    0    0  0.28368875619E+02 -0.17327376553E+02 -0.11422107125E+02  0.35149617545E+02  0.51100000000E-03 0.  1.
         23    2    1    0    0    0 -0.16338522668E+02  0.12894247737E+02  0.18759167817E+02  0.96980090563E+02  0.92844077036E+02 0.  0.
         11    1    3    3    0    0 -0.44707398288E+02  0.30221624289E+02  0.30181274941E+02  0.61830473018E+02  0.51100000000E-03 0. -1.
         22    1    1    0    0    0  0.16338522668E+02 -0.12894247737E+02 -0.18759167817E+02  0.28019909437E+02  0.00000000000E+00 0. -1.
</event>
<event>
 5    1  0.8962567E-005  0.9118800E+02  0.7818608E-02  0.1130116E+00
         25   -1    0    0    0    0  0.00000000000E+00  0.00000000000E+00  0.99999998245E-14  0.12500000000E+03  0.12500000000E+03 0.  0.
        -11    1    3    3    0    0 -0.53307519464E+02  0.19863406528E+02 -0.62705577687E+01  0.57232564553E+02  0.51100000000E-03 0.  1.
         23    2    1    0    0    0 -0.27401585101E+02 -0.85673327710E+01 -0.58617215361E+01  0.95698023340E+02  0.91101623668E+02 0.  0.
         11    1    3    3    0    0  0.25905934364E+02 -0.28430739299E+02  0.40883623254E+00  0.38465458786E+02  0.51100000000E-03 0. -1.
         22    1    1    0    0    0  0.27401585101E+02  0.85673327710E+01  0.58617215361E+01  0.29301976660E+02  0.00000000000E+00 0.  1.
</event>
<event>
 5    1  0.8962567E-005  0.9118800E+02  0.7818608E-02  0.1130116E+00
         25   -1    0    0    0    0  0.00000000000E+00  0.00000000000E+00  0.99999998245E-14  0.12500000000E+03  0.12500000000E+03 0.  0.
        -11    1    3    3    0    0  0.21662355387E+02 -0.65704916910E+01  0.52914609502E+02  0.57553322241E+02  0.51100000000E-03 0.  1.
         23    2    1    0    0    0  0.11195257412E+02 -0.19547369961E+02  0.18287352275E+02  0.95985163896E+02  0.91494759271E+02 0.  0.
         11    1    3    3    0    0 -0.10467097974E+02 -0.12976878269E+02 -0.34627257228E+02  0.38431841655E+02  0.51100000000E-03 0. -1.
         22    1    1    0    0    0 -0.11195257412E+02  0.19547369961E+02 -0.18287352275E+02  0.29014836104E+02  0.00000000000E+00 0.  1.
</event>
<event>
 5    1  0.8962567E-005  0.9118800E+02  0.7818608E-02  0.1130116E+00
         25   -1    0    0    0    0  0.00000000000E+00  0.00000000000E+00  0.99999998245E-14  0.12500000000E+03  0.12500000000E+03 0.  0.
        -11    1    3    3    0    0 -0.33049027634E+02  0.52165606376E+02 -0.72178442840E+01  0.62173836881E+02  0.51100000000E-03 0.  1.
         23    2    1    0    0    0 -0.11606201845E+02  0.23221143799E+02  0.59434503047E+00  0.99033123280E+02  0.95568199836E+02 0.  0.
         11    1    3    3    0    0  0.21442825788E+02 -0.28944462578E+02  0.78121893145E+01  0.36859286399E+02  0.51100000000E-03 0. -1.
         22    1    1    0    0    0  0.11606201845E+02 -0.23221143799E+02 -0.59434503047E+00  0.25966876720E+02  0.00000000000E+00 0.  1.
</event>
<event>
 5    1  0.8962567E-005  0.9118800E+02  0.7818608E-02  0.1130116E+00
         25   -1    0    0    0    0  0.00000000000E+00  0.00000000000E+00  0.99999998245E-14  0.12500000000E+03  0.12500000000E+03 0.  0.
        -11    1    3    3    0    0 -0.33479001822E+02 -0.19143808551E+02  0.92048404882E+01  0.39649187350E+02  0.51100000000E-03 0.  1.
         23    2    1    0    0    0  0.24540993581E+01  0.23599852725E+02  0.16691818394E+02  0.95989787081E+02  0.91501075241E+02 0.  0.
         11    1    3    3    0    0  0.35933101180E+02  0.42743661276E+02  0.74869779054E+01  0.56340599731E+02  0.51100000000E-03 0. -1.
         22    1    1    0    0    0 -0.24540993581E+01 -0.23599852725E+02 -0.16691818394E+02  0.29010212919E+02  0.00000000000E+00 0. -1.
</event>
<event>
 5    1  0.8962567E-005  0.9118800E+02  0.7818608E-02  0.1130116E+00
         25   -1    0    0    0    0  0.00000000000E+00  0.00000000000E+00  0.99999998245E-14  0.12500000000E+03  0.12500000000E+03 0.  0.
        -11    1    3    3    0    0  0.26017752474E+02  0.27915405722E+02  0.74233467052E+01  0.38875434364E+02  0.51100000000E-03 0.  1.
         23    2    1    0    0    0 -0.23230079175E+02  0.76041169123E+01  0.19773695531E+02  0.93560244793E+02  0.88119584647E+02 0.  0.
         11    1    3    3    0    0 -0.49247831649E+02 -0.20311288810E+02  0.12350348826E+02  0.54684810429E+02  0.51100000000E-03 0. -1.
         22    1    1    0    0    0  0.23230079175E+02 -0.76041169123E+01 -0.19773695531E+02  0.31439755207E+02  0.00000000000E+00 0. -1.
</event>
<event>
 5    1  0.8962567E-005  0.9118800E+02  0.7818608E-02  0.1130116E+00
         25   -1    0    0    0    0  0.00000000000E+00  0.00000000000E+00  0.99999998245E-14  0.12500000000E+03  0.12500000000E+03 0.  0.
        -11    1    3    3    0    0 -0.15481687175E+02  0.96825734415E+01 -0.55060151332E+02  0.58009095246E+02  0.51100000000E-03 0. -1.
         23    2    1    0    0    0 -0.82867371456E+01  0.20165504352E+02 -0.19587691882E+02  0.95691379228E+02  0.91092506865E+02 0.  0.
         11    1    3    3    0    0  0.71949500292E+01  0.10482930911E+02  0.35472459450E+02  0.37682283982E+02  0.51100000000E-03 0.  1.
         22    1    1    0    0    0  0.82867371456E+01 -0.20165504352E+02  0.19587691882E+02  0.29308620772E+02  0.00000000000E+00 0. -1.
</event>
<event>
 5    1  0.8962567E-005  0.9118800E+02  0.7818608E-02  0.1130116E+00
         25   -1    0    0    0    0  0.00000000000E+00  0.00000000000E+00  0.99999998245E-14  0.12500000000E+03  0.12500000000E+03 0.  0.
        -11    1    3    3    0    0  0.17834712261E+02 -0.55275787802E+02  0.15132209478E+02  0.60020608482E+02  0.51100000000E-03 0. -1.
         23    2    1    0    0    0 -0.34133540538E+01 -0.28391524549E+02  0.10191478290E+02  0.94642202289E+02  0.89641232546E+02 0.  0.
         11    1    3    3    0    0 -0.21248066315E+02  0.26884263254E+02 -0.49407311873E+01  0.34621593807E+02  0.51100000000E-03 0.  1.
         22    1    1    0    0    0  0.34133540538E+01  0.28391524549E+02 -0.10191478290E+02  0.30357797711E+02  0.00000000000E+00 0. -1.
</event>
<event>
 5    1  0.8962567E-005  0.9118800E+02  0.7818608E-02  0.1130116E+00
         25   -1    0    0    0    0  0.00000000000E+00  0.00000000000E+00  0.99999998245E-14  0.12500000000E+03  0.12500000000E+03 0.  0.
        -11    1    3    3    0    0 -0.98501626007E+01 -0.23791679017E+02  0.31016128796E+02  0.40312156224E+02  0.51100000000E-03 0.  1.
         23    2    1    0    0    0 -0.28551802159E+02  0.16657391367E+02  0.60404866203E+01  0.91397000546E+02  0.84995588924E+02 0.  0.
         11    1    3    3    0    0 -0.18701639558E+02  0.40449070384E+02 -0.24975642175E+02  0.51084844322E+02  0.51100000000E-03 0. -1.
         22    1    1    0    0    0  0.28551802159E+02 -0.16657391367E+02 -0.60404866203E+01  0.33602999454E+02  0.00000000000E+00 0. -1.
</event>
<event>
 5    1  0.8962567E-005  0.9118800E+02  0.7818608E-02  0.1130116E+00
         25   -1    0    0    0    0  0.00000000000E+00  0.00000000000E+00  0.99999998245E-14  0.12500000000E+03  0.12500000000E+03 0.  0.
        -11    1    3    3    0    0  0.12719080834E+02  0.27557452535E+02  0.44771921576E+02  0.54089861983E+02  0.51100000000E-03 0. -1.
         23    2    1    0    0    0 -0.33959480337E+01 -0.75848529323E+01  0.27203505987E+02  0.96555436459E+02  0.92270575564E+02 0.  0.
         11    1    3    3    0    0 -0.16115028868E+02 -0.35142305468E+02 -0.17568415589E+02  0.42465574476E+02  0.51100000000E-03 0.  1.
         22    1    1    0    0    0  0.33959480337E+01  0.75848529323E+01 -0.27203505987E+02  0.28444563541E+02  0.00000000000E+00 0.  1.
</event>
<event>
 5    1  0.8962567E-005  0.9118800E+02  0.7818608E-02  0.1130116E+00
         25   -1    0    0    0    0  0.00000000000E+00  0.00000000000E+00  0.99999998245E-14  0.12500000000E+03  0.12500000000E+03 0.  0.
        -11    1    3    3    0    0 -0.29028780428E+02  0.56146254965E+01  0.41567639414E+02  0.51010418145E+02  0.51100000000E-03 0. -1.
         23    2    1    0    0    0  0.12571956748E+02  0.59032967540E+01  0.26174782978E+02  0.95368559384E+02  0.90648440947E+02 0.  0.
         11    1    3    3    0    0  0.41600737176E+02  0.28867125748E+00 -0.15392856436E+02  0.44358141239E+02  0.51100000000E-03 0.  1.
         22    1    1    0    0    0 -0.12571956748E+02 -0.59032967540E+01 -0.26174782978E+02  0.29631440616E+02  0.00000000000E+00 0.  1.
</event>
<event>
 5    1  0.8962567E-005  0.9118800E+02  0.7818608E-02  0.1130116E+00
         25   -1    0    0    0    0  0.00000000000E+00  0.00000000000E+00  0.99999998245E-14  0.12500000000E+03  0.12500000000E+03 0.  0.
        -11    1    3    3    0    0  0.75189180978E+01 -0.92662026544E+01  0.33216165518E+02  0.35294621303E+02  0.51100000000E-03 0. -1.
         23    2    1    0    0    0  0.11435283141E+02  0.25843280156E+02 -0.13350329721E+02  0.93745046258E+02  0.88381341722E+02 0.  0.
         11    1    3    3    0    0  0.39163650428E+01  0.35109482810E+02 -0.46566495239E+02  0.58450424955E+02  0.51100000000E-03 0.  1.
         22    1    1    0    0    0 -0.11435283141E+02 -0.25843280156E+02  0.13350329721E+02  0.31254953742E+02  0.00000000000E+00 0.  1.
</event>
<event>
 5    1  0.8962567E-005  0.9118800E+02  0.7818608E-02  0.1130116E+00
         25   -1    0    0    0    0  0.00000000000E+00  0.00000000000E+00  0.99999998245E-14  0.12500000000E+03  0.12500000000E+03 0.  0.
        -11    1    3    3    0    0 -0.37295226146E+02  0.18381416441E+01  0.46837750875E+02  0.59900647453E+02  0.51100000000E-03 0. -1.
         23    2    1    0    0    0 -0.95558982686E+01 -0.81632462654E+01  0.26348521767E+02  0.95807562955E+02  0.91251798551E+02 0.  0.
         11    1    3    3    0    0  0.27739327878E+02 -0.10001387909E+02 -0.20489229108E+02  0.35906915503E+02  0.51100000000E-03 0.  1.
         22    1    1    0    0    0  0.95558982686E+01  0.81632462654E+01 -0.26348521767E+02  0.29192437045E+02  0.00000000000E+00 0. -1.
</event>
<event>
 5    1  0.8962567E-005  0.9118800E+02  0.7818608E-02  0.1130116E+00
         25   -1    0    0    0    0  0.00000000000E+00  0.00000000000E+00  0.99999998245E-14  0.12500000000E+03  0.12500000000E+03 0.  0.
        -11    1    3    3    0    0 -0.12993827991E+02 -0.52707460285E+01 -0.60784308511E+02  0.62380706079E+02  0.51100000000E-03 0.  1.
         23    2    1    0    0    0 -0.36884373090E+01 -0.18307406947E+01 -0.29859781550E+02  0.94857625583E+02  0.89941127387E+02 0.  0.
         11    1    3    3    0    0  0.93053906816E+01  0.34400053338E+01  0.30924526960E+02  0.32476919503E+02  0.51100000000E-03 0. -1.
         22    1    1    0    0    0  0.36884373090E+01  0.18307406947E+01  0.29859781550E+02  0.30142374417E+02  0.00000000000E+00 0.  1.
</event>
<event>
 5    1  0.8962567E-005  0.9118800E+02  0.7818608E-02  0.1130116E+00
         25   -1    0    0    0    0  0.00000000000E+00  0.00000000000E+00  0.99999998245E-14  0.12500000000E+03  0.12500000000E+03 0.  0.
        -11    1    3    3    0    0 -0.64101535132E+01  0.49362613373E+01 -0.42187795497E+02  0.42956569151E+02  0.51100000000E-03 0.  1.
         23    2    1    0    0    0  0.14979913396E+02  0.27833541494E+02 -0.28288850373E+01  0.93265059823E+02  0.87699857217E+02 0.  0.
         11    1    3    3    0    0  0.21390066909E+02  0.22897280157E+02  0.39358910459E+02  0.50308490673E+02  0.51100000000E-03 0. -1.
         22    1    1    0    0    0 -0.14979913396E+02 -0.27833541494E+02  0.28288850373E+01  0.31734940177E+02  0.00000000000E+00 0. -1.
</event>
<event>
 5    1  0.8962567E-005  0.9118800E+02  0.7818608E-02  0.1130116E+00
         25   -1    0    0    0    0  0.00000000000E+00  0.00000000000E+00  0.99999998245E-14  0.12500000000E+03  0.12500000000E+03 0.  0.
        -11    1    3    3    0    0  0.55358889653E+01  0.19508534408E+02 -0.35821558370E+02  0.41163248483E+02  0.51100000000E-03 0.  1.
         23    2    1    0    0    0  0.29271546927E+02 -0.14597049178E+01  0.74246388104E+01  0.94766252971E+02  0.89814048137E+02 0.  0.
         11    1    3    3    0    0  0.23735657962E+02 -0.20968239326E+02  0.43246197180E+02  0.53603004488E+02  0.51100000000E-03 0. -1.
         22    1    1    0    0    0 -0.29271546927E+02  0.14597049178E+01 -0.74246388104E+01  0.30233747029E+02  0.00000000000E+00 0.  1.
</event>
<event>
 5    1  0.8962567E-005  0.9118800E+02  0.7818608E-02  0.1130116E+00
         25   -1    0    0    0    0  0.00000000000E+00  0.00000000000E+00  0.99999998245E-14  0.12500000000E+03  0.12500000000E+03 0.  0.
        -11    1    3    3    0    0  0.12077725786E+02 -0.27478386136E+02 -0.50471163010E+02  0.58721984475E+02  0.51100000000E-03 0.  1.
         23    2    1    0    0    0  0.11384375479E+02 -0.23599579602E+02 -0.14217322412E+02  0.95189323741E+02  0.90400945433E+02 0.  0.
         11    1    3    3    0    0 -0.69335030633E+00  0.38788065341E+01  0.36253840598E+02  0.36467339266E+02  0.51100000000E-03 0. -1.
         22    1    1    0    0    0 -0.11384375479E+02  0.23599579602E+02  0.14217322412E+02  0.29810676259E+02  0.00000000000E+00 0.  1.
</event>
<event>
 5    1  0.8962567E-005  0.9118800E+02  0.7818608E-02  0.1130116E+00
         25   -1    0    0    0    0  0.00000000000E+00  0.00000000000E+00  0.99999998245E-14  0.12500000000E+03  0.12500000000E+03 0.  0.
        -11    1    3    3    0    0 -0.33167837885E+02  0.43168219895E+01  0.19952748106E+02  0.38946791643E+02  0.51100000000E-03 0.  1.
         23    2    1    0    0    0  0.21153346075E+01 -0.30009586769E+02 -0.55834672665E+01  0.94402205222E+02  0.89305942163E+02 0.  0.
         11    1    3    3    0    0  0.35283172493E+02 -0.34326408758E+02 -0.25536215372E+02  0.55455413579E+02  0.51100000000E-03 0. -1.
         22    1    1    0    0    0 -0.21153346075E+01  0.30009586769E+02  0.55834672665E+01  0.30597794778E+02  0.00000000000E+00 0. -1.
</event>
<event>
 5    1  0.8962567E-005  0.9118800E+02  0.7818608E-02  0.1130116E+00
         25   -1    0    0    0    0  0.00000000000E+00  0.00000000000E+00  0.99999998245E-14  0.12500000000E+03  0.12500000000E+03 0.  0.
        -11    1    3    3    0    0 -0.39204340290E+02 -0.78048363794E+01 -0.32664447513E+02  0.51622300414E+02  0.51100000000E-03 0. -1.
         23    2    1    0    0    0  0.32483928368E+01 -0.79022483973E+01 -0.29606743427E+02  0.94185119794E+02  0.89001572731E+02 0.  0.
         11    1    3    3    0    0  0.42452733127E+02 -0.97412017978E-01  0.30577040860E+01  0.42562819380E+02  0.51100000000E-03 0.  1.
         22    1    1    0    0    0 -0.32483928368E+01  0.79022483973E+01  0.29606743427E+02  0.30814880206E+02  0.00000000000E+00 0.  1.
</event>
<event>
 5    1  0.8962567E-005  0.9118800E+02  0.7818608E-02  0.1130116E+00
         25   -1    0    0    0    0  0.00000000000E+00  0.00000000000E+00  0.99999998245E-14  0.12500000000E+03  0.12500000000E+03 0.  0.
        -11    1    3    3    0    0  0.12321747566E+02  0.15533109493E+02  0.36641724023E+02  0.41661959786E+02  0.51100000000E-03 0. -1.
         23    2    1    0    0    0 -0.14379030420E+02  0.31799358901E+02 -0.35318781084E+00  0.90098990215E+02  0.83064719068E+02 0.  0.
         11    1    3    3    0    0 -0.26700777986E+02  0.16266249408E+02 -0.36994911834E+02  0.48437030429E+02  0.51100000000E-03 0.  1.
         22    1    1    0    0    0  0.14379030420E+02 -0.31799358901E+02  0.35318781084E+00  0.34901009785E+02  0.00000000000E+00 0.  1.
</event>
<event>
 5    1  0.8962567E-005  0.9118800E+02  0.7818608E-02  0.1130116E+00
         25   -1    0    0    0    0  0.00000000000E+00  0.00000000000E+00  0.99999998245E-14  0.12500000000E+03  0.12500000000E+03 0.  0.
        -11    1    3    3    0    0  0.98499081944E+00  0.29015886068E+02  0.17839238644E+02  0.34075361875E+02  0.51100000000E-03 0.  1.
         23    2    1    0    0    0  0.18143949551E+01 -0.15863360448E+02 -0.24484599480E+02  0.95769299607E+02  0.91199368977E+02 0.  0.
         11    1    3    3    0    0  0.82940413563E+00 -0.44879246517E+02 -0.42323838124E+02  0.61693937732E+02  0.51100000000E-03 0. -1.
         22    1    1    0    0    0 -0.18143949551E+01  0.15863360448E+02  0.24484599480E+02  0.29230700393E+02  0.00000000000E+00 0. -1.
</event>
<event>
 5    1  0.8962567E-005  0.9118800E+02  0.7818608E-02  0.1130116E+00
         25   -1    0    0    0    0  0.00000000000E+00  0.00000000000E+00  0.99999998245E-14  0.12500000000E+03  0.12500000000E+03 0.  0.
        -11    1    3    3    0    0  0.61256896506E+01 -0.54837932613E+02  0.17091041018E+02  0.57765271663E+02  0.51100000000E-03 0. -1.
         23    2    1    0    0    0  0.58250322090E+01 -0.17212523103E+02  0.22823595483E+02  0.95826065357E+02  0.91277140288E+02 0.  0.
         11    1    3    3    0    0 -0.30065744162E+00  0.37625409510E+02  0.57325544650E+01  0.38060793694E+02  0.51100000000E-03 0.  1.
         22    1    1    0    0    0 -0.58250322090E+01  0.17212523103E+02 -0.22823595483E+02  0.29173934643E+02  0.00000000000E+00 0. -1.
</event>
<event>
 5    1  0.8962567E-005  0.9118800E+02  0.7818608E-02  0.1130116E+00
         25   -1    0    0    0    0  0.00000000000E+00  0.00000000000E+00  0.99999998245E-14  0.12500000000E+03  0.12500000000E+03 0.  0.
        -11    1    3    3    0    0 -0.25394877791E+02 -0.12242886276E+02 -0.21732311223E+02  0.35596087337E+02  0.51100000000E-03 0.  1.
         23    2    1    0    0    0  0.28566974385E+02  0.50858788079E+01 -0.93062920649E+00  0.95968908744E+02  0.91472548811E+02 0.  0.
         11    1    3    3    0    0  0.53961852176E+02  0.17328765084E+02  0.20801682016E+02  0.60372821407E+02  0.51100000000E-03 0. -1.
         22    1    1    0    0    0 -0.28566974385E+02 -0.50858788079E+01  0.93062920649E+00  0.29031091256E+02  0.00000000000E+00 0. -1.
</event>
<event>
 5    1  0.8962567E-005  0.9118800E+02  0.7818608E-02  0.1130116E+00
         25   -1    0    0    0    0  0.00000000000E+00  0.00000000000E+00  0.99999998245E-14  0.12500000000E+03  0.12500000000E+03 0.  0.
        -11    1    3    3    0    0 -0.37093021333E+02  0.63286488166E+01  0.53693110829E+01  0.38010176654E+02  0.51100000000E-03 0.  1.
         23    2    1    0    0    0  0.17211454789E+02  0.16331676779E+02  0.18671077769E+02  0.94807832350E+02  0.89871898207E+02 0.  0.
         11    1    3    3    0    0  0.54304476122E+02  0.10003027963E+02  0.13301766686E+02  0.56797655696E+02  0.51100000000E-03 0. -1.
         22    1    1    0    0    0 -0.17211454789E+02 -0.16331676779E+02 -0.18671077769E+02  0.30192167650E+02  0.00000000000E+00 0. -1.
</event>
<event>
 5    1  0.8962567E-005  0.9118800E+02  0.7818608E-02  0.1130116E+00
         25   -1    0    0    0    0  0.00000000000E+00  0.00000000000E+00  0.99999998245E-14  0.12500000000E+03  0.12500000000E+03 0.  0.
        -11    1    3    3    0    0 -0.54030907190E+02  0.28417029065E+02  0.12339549422E+02  0.62282669763E+02  0.51100000000E-03 0.  1.
         23    2    1    0    0    0 -0.24580974780E+02  0.14163505830E+02  0.93162514158E+01  0.95139963848E+02  0.90332668299E+02 0.  0.
         11    1    3    3    0    0  0.29449932409E+02 -0.14253523235E+02 -0.30232980060E+01  0.32857294085E+02  0.51100000000E-03 0. -1.
         22    1    1    0    0    0  0.24580974780E+02 -0.14163505830E+02 -0.93162514158E+01  0.29860036152E+02  0.00000000000E+00 0.  1.
</event>
<event>
 5    1  0.8962567E-005  0.9118800E+02  0.7818608E-02  0.1130116E+00
         25   -1    0    0    0    0  0.00000000000E+00  0.00000000000E+00  0.99999998245E-14  0.12500000000E+03  0.12500000000E+03 0.  0.
        -11    1    3    3    0    0 -0.33597684961E+02  0.33846138939E+02 -0.24856007965E+02  0.53779054362E+02  0.51100000000E-03 0. -1.
         23    2    1    0    0    0  0.44936989484E+01  0.27694966284E+02 -0.85387991458E+01  0.95672272871E+02  0.91066284748E+02 0.  0.
         11    1    3    3    0    0  0.38091383909E+02 -0.61511726554E+01  0.16317208819E+02  0.41893218509E+02  0.51100000000E-03 0.  1.
         22    1    1    0    0    0 -0.44936989484E+01 -0.27694966284E+02  0.85387991458E+01  0.29327727129E+02  0.00000000000E+00 0. -1.
</event>
<event>
 5    1  0.8962567E-005  0.9118800E+02  0.7818608E-02  0.1130116E+00
         25   -1    0    0    0    0  0.00000000000E+00  0.00000000000E+00  0.99999998245E-14  0.12500000000E+03  0.12500000000E+03 0.  0.
        -11    1    3    3    0    0 -0.15232473493E+02 -0.21152202528E+02 -0.47598616882E+02  0.54268519879E+02  0.51100000000E-03 0. -1.
         23    2    1    0    0    0 -0.24864012861E+02  0.32770661284E+01 -0.16458077959E+02  0.95002889671E+02  0.90142789051E+02 0.  0.
         11    1    3    3    0    0 -0.96315393683E+01  0.24429268656E+02  0.31140538924E+02  0.40734369792E+02  0.51100000000E-03 0.  1.
         22    1    1    0    0    0  0.24864012861E+02 -0.32770661284E+01  0.16458077959E+02  0.29997110329E+02  0.00000000000E+00 0. -1.
</event>
<event>
 5    1  0.8962567E-005  0.9118800E+02  0.7818608E-02  0.1130116E+00
         25   -1    0    0    0    0  0.00000000000E+00  0.00000000000E+00  0.99999998245E-14  0.12500000000E+03  0.12500000000E+03 0.  0.
        -11    1    3    3    0    0 -0.19813674732E+02  0.51335985581E+02  0.18018118015E+02  0.57901793573E+02  0.51100000000E-03 0. -1.
         23    2    1    0    0    0 -0.12646604358E+02  0.25644937290E+02 -0.81503887705E+01  0.95267387476E+02  0.90508822050E+02 0.  0.
         11    1    3    3    0    0  0.71670703744E+01 -0.25691048290E+02 -0.26168506786E+02  0.37365593902E+02  0.51100000000E-03 0.  1.
         22    1    1    0    0    0  0.12646604358E+02 -0.25644937290E+02  0.81503887705E+01  0.29732612524E+02  0.00000000000E+00 0. -1.
</event>
<event>
 5    1  0.8962567E-005  0.9118800E+02  0.7818608E-02  0.1130116E+00
         25   -1    0    0    0    0  0.00000000000E+00  0.00000000000E+00  0.99999998245E-14  0.12500000000E+03  0.12500000000E+03 0.  0.
        -11    1    3    3    0    0  0.43047853358E+02  0.20470911371E+02  0.90233336156E+01  0.48513878848E+02  0.51100000000E-03 0.  1.
         23    2    1    0    0    0  0.25796182045E+01  0.81999794246E+01  0.28616576722E+02  0.95120198194E+02  0.90305312959E+02 0.  0.
         11    1    3    3    0    0 -0.40468235154E+02 -0.12270931946E+02  0.19593243107E+02  0.46606319346E+02  0.51100000000E-03 0. -1.
         22    1    1    0    0    0 -0.25796182045E+01 -0.81999794246E+01 -0.28616576722E+02  0.29879801806E+02  0.00000000000E+00 0.  1.
</event>
<event>
 5    1  0.8962567E-005  0.9118800E+02  0.7818608E-02  0.1130116E+00
         25   -1    0    0    0    0  0.00000000000E+00  0.00000000000E+00  0.99999998245E-14  0.12500000000E+03  0.12500000000E+03 0.  0.
        -11    1    3    3    0    0 -0.48459908984E+01  0.30580501015E+02 -0.17082075001E+02  0.35361673557E+02  0.51100000000E-03 0.  1.
         23    2    1    0    0    0 -0.11385388727E+02 -0.18904677042E+02  0.18123549589E+02  0.96443443131E+02  0.92118731986E+02 0.  0.
         11    1    3    3    0    0 -0.65393978289E+01 -0.49485178057E+02  0.35205624590E+02  0.61081769574E+02  0.51100000000E-03 0. -1.
         22    1    1    0    0    0  0.11385388727E+02  0.18904677042E+02 -0.18123549589E+02  0.28556556869E+02  0.00000000000E+00 0. -1.
</event>
<event>
 5    1  0.8962567E-005  0.9118800E+02  0.7818608E-02  0.1130116E+00
         25   -1    0    0    0    0  0.00000000000E+00  0.00000000000E+00  0.99999998245E-14  0.12500000000E+03  0.12500000000E+03 0.  0.
        -11    1    3    3    0    0 -0.38415211480E+02 -0.53564937481E+01  0.21207381893E+02  0.44206035169E+02  0.51100000000E-03 0. -1.
         23    2    1    0    0    0 -0.13185335562E+02 -0.17100844672E+02 -0.21075918776E+02  0.94825734232E+02  0.89896793925E+02 0.  0.
         11    1    3    3    0    0  0.25229875918E+02 -0.11744350924E+02 -0.42283300669E+02  0.50619699063E+02  0.51100000000E-03 0.  1.
         22    1    1    0    0    0  0.13185335562E+02  0.17100844672E+02  0.21075918776E+02  0.30174265768E+02  0.00000000000E+00 0.  1.
</event>
<event>
 5    1  0.8962567E-005  0.9118800E+02  0.7818608E-02  0.1130116E+00
         25   -1    0    0    0    0  0.00000000000E+00  0.00000000000E+00  0.99999998245E-14  0.12500000000E+03  0.12500000000E+03 0.  0.
        -11    1    3    3    0    0  0.11592835370E+02 -0.35471791828E+02 -0.32046276071E+02  0.49189487268E+02  0.51100000000E-03 0.  1.
         23    2    1    0    0    0 -0.23346628997E+02 -0.96804238209E+01 -0.12105024189E+02  0.96976665054E+02  0.92839465011E+02 0.  0.
         11    1    3    3    0    0 -0.34939464367E+02  0.25791368007E+02  0.19941251882E+02  0.47787177786E+02  0.51100000000E-03 0. -1.
         22    1    1    0    0    0  0.23346628997E+02  0.96804238209E+01  0.12105024189E+02  0.28023334946E+02  0.00000000000E+00 0.  1.
</event>
<event>
 5    1  0.8962567E-005  0.9118800E+02  0.7818608E-02  0.1130116E+00
         25   -1    0    0    0    0  0.00000000000E+00  0.00000000000E+00  0.99999998245E-14  0.12500000000E+03  0.12500000000E+03 0.  0.
        -11    1    3    3    0    0 -0.49012299789E+02 -0.67350900614E+01 -0.13196601823E+02  0.51202707631E+02  0.51100000000E-03 0.  1.
         23    2    1    0    0    0 -0.10045585731E+02 -0.24211434023E+02  0.61323226342E+01  0.98079511315E+02  0.94312659961E+02 0.  0.
         11    1    3    3    0    0  0.38966714058E+02 -0.17476343962E+02  0.19328924458E+02  0.46876803685E+02  0.51100000000E-03 0. -1.
         22    1    1    0    0    0  0.10045585731E+02  0.24211434023E+02 -0.61323226342E+01  0.26920488685E+02  0.00000000000E+00 0.  1.
</event>
<event>
 5    1  0.8962567E-005  0.9118800E+02  0.7818608E-02  0.1130116E+00
         25   -1    0    0    0    0  0.00000000000E+00  0.00000000000E+00  0.99999998245E-14  0.12500000000E+03  0.12500000000E+03 0.  0.
        -11    1    3    3    0    0  0.56734191986E+02 -0.21334383918E+02 -0.73731190986E+00  0.60617391123E+02  0.51100000000E-03 0. -1.
         23    2    1    0    0    0  0.23348673553E+02 -0.11687453424E+02  0.10076889867E+02  0.97012487899E+02  0.92887684731E+02 0.  0.
         11    1    3    3    0    0 -0.33385518433E+02  0.96469304938E+01  0.10814201777E+02  0.36395096776E+02  0.51100000000E-03 0.  1.
         22    1    1    0    0    0 -0.23348673553E+02  0.11687453424E+02 -0.10076889867E+02  0.27987512101E+02  0.00000000000E+00 0. -1.
</event>
<event>
 5    1  0.8962567E-005  0.9118800E+02  0.7818608E-02  0.1130116E+00
         25   -1    0    0    0    0  0.00000000000E+00  0.00000000000E+00  0.99999998245E-14  0.12500000000E+03  0.12500000000E+03 0.  0.
        -11    1    3    3    0    0 -0.19702437604E+02  0.45514304693E+02 -0.24248329944E+02  0.55206154409E+02  0.51100000000E-03 0.  1.
         23    2    1    0    0    0 -0.24626102257E+02  0.13462599706E+02  0.19101327427E+01  0.96869320835E+02  0.92694822987E+02 0.  0.
         11    1    3    3    0    0 -0.49236646531E+01 -0.32051704987E+02  0.26158462687E+02  0.41663166426E+02  0.51100000000E-03 0. -1.
         22    1    1    0    0    0  0.24626102257E+02 -0.13462599706E+02 -0.19101327427E+01  0.28130679165E+02  0.00000000000E+00 0.  1.
</event>
<event>
 5    1  0.8962567E-005  0.9118800E+02  0.7818608E-02  0.1130116E+00
         25   -1    0    0    0    0  0.00000000000E+00  0.00000000000E+00  0.99999998245E-14  0.12500000000E+03  0.12500000000E+03 0.  0.
        -11    1    3    3    0    0 -0.13453761845E+02 -0.20794560794E+02  0.27779107486E+02  0.37216881645E+02  0.51100000000E-03 0. -1.
         23    2    1    0    0    0 -0.15665495398E+02  0.10421374251E+02 -0.22022391308E+02  0.96034529069E+02  0.91562177056E+02 0.  0.
         11    1    3    3    0    0 -0.22117335525E+01  0.31215935045E+02 -0.49801498794E+02  0.58817647424E+02  0.51100000000E-03 0.  1.
         22    1    1    0    0    0  0.15665495398E+02 -0.10421374251E+02  0.22022391308E+02  0.28965470931E+02  0.00000000000E+00 0.  1.
</event>
<event>
 5    1  0.8962567E-005  0.9118800E+02  0.7818608E-02  0.1130116E+00
         25   -1    0    0    0    0  0.00000000000E+00  0.00000000000E+00  0.99999998245E-14  0.12500000000E+03  0.12500000000E+03 0.  0.
        -11    1    3    3    0    0 -0.28912351661E+02  0.10237752807E+02  0.45923141551E+02  0.55223822679E+02  0.51100000000E-03 0.  1.
         23    2    1    0    0    0 -0.24517469073E+02 -0.11502452929E+02  0.12903143698E+02  0.95001602869E+02  0.90141004639E+02 0.  0.
         11    1    3    3    0    0  0.43948825886E+01 -0.21740205736E+02 -0.33019997853E+02  0.39777780191E+02  0.51100000000E-03 0. -1.
         22    1    1    0    0    0  0.24517469073E+02  0.11502452929E+02 -0.12903143698E+02  0.29998397131E+02  0.00000000000E+00 0.  1.
</event>
<event>
 5    1  0.8962567E-005  0.9118800E+02  0.7818608E-02  0.1130116E+00
         25   -1    0    0    0    0  0.00000000000E+00  0.00000000000E+00  0.99999998245E-14  0.12500000000E+03  0.12500000000E+03 0.  0.
        -11    1    3    3    0    0 -0.33042609299E+02  0.23545564623E+02 -0.17940954601E+02  0.44363109618E+02  0.51100000000E-03 0.  1.
         23    2    1    0    0    0 -0.94334208379E+01 -0.23479506371E+02 -0.10890309804E+02  0.97452305074E+02  0.93477677915E+02 0.  0.
         11    1    3    3    0    0  0.23609188462E+02 -0.47025070994E+02  0.70506447971E+01  0.53089195456E+02  0.51100000000E-03 0. -1.
         22    1    1    0    0    0  0.94334208379E+01  0.23479506371E+02  0.10890309804E+02  0.27547694926E+02  0.00000000000E+00 0.  1.
</event>
<event>
 5    1  0.8962567E-005  0.9118800E+02  0.7818608E-02  0.1130116E+00
         25   -1    0    0    0    0  0.00000000000E+00  0.00000000000E+00  0.99999998245E-14  0.12500000000E+03  0.12500000000E+03 0.  0.
        -11    1    3    3    0    0  0.10453317046E+00 -0.33372436787E+02  0.13411596262E+02  0.35966670388E+02  0.51100000000E-03 0. -1.
         23    2    1    0    0    0 -0.23849622854E+02  0.18796191595E+02  0.14864557849E+01  0.94597518529E+02  0.89578901714E+02 0.  0.
         11    1    3    3    0    0 -0.23954156025E+02  0.52168628382E+02 -0.11925140477E+02  0.58630848141E+02  0.51100000000E-03 0.  1.
         22    1    1    0    0    0  0.23849622854E+02 -0.18796191595E+02 -0.14864557849E+01  0.30402481471E+02  0.00000000000E+00 0.  1.
</event>
<event>
 5    1  0.8962567E-005  0.9118800E+02  0.7818608E-02  0.1130116E+00
         25   -1    0    0    0    0  0.00000000000E+00  0.00000000000E+00  0.99999998245E-14  0.12500000000E+03  0.12500000000E+03 0.  0.
        -11    1    3    3    0    0 -0.33395483465E+02  0.49354106112E+02 -0.14343997184E+01  0.59608251181E+02  0.51100000000E-03 0.  1.
         23    2    1    0    0    0 -0.30045991775E+02  0.21554495263E+02 -0.43812055538E+01  0.87763554816E+02  0.79472565733E+02 0.  0.
         11    1    3    3    0    0  0.33494916897E+01 -0.27799610849E+02 -0.29468058354E+01  0.28155303636E+02  0.51100000000E-03 0. -1.
         22    1    1    0    0    0  0.30045991775E+02 -0.21554495263E+02  0.43812055538E+01  0.37236445184E+02  0.00000000000E+00 0.  1.
</event>
<event>
 5    1  0.8962567E-005  0.9118800E+02  0.7818608E-02  0.1130116E+00
         25   -1    0    0    0    0  0.00000000000E+00  0.00000000000E+00  0.99999998245E-14  0.12500000000E+03  0.12500000000E+03 0.  0.
        -11    1    3    3    0    0  0.30346135067E+02 -0.45940308763E+02  0.23810137077E+02  0.59986019293E+02  0.51100000000E-03 0.  1.
         23    2    1    0    0    0  0.20332332731E+02 -0.18572955273E+02  0.24972779871E+00  0.97460559450E+02  0.93488715161E+02 0.  0.
         11    1    3    3    0    0 -0.10013802336E+02  0.27367353490E+02 -0.23560409279E+02  0.37474540156E+02  0.51100000000E-03 0. -1.
         22    1    1    0    0    0 -0.20332332731E+02  0.18572955273E+02 -0.24972779871E+00  0.27539440550E+02  0.00000000000E+00 0.  1.
</event>
<event>
 5    1  0.8962567E-005  0.9118800E+02  0.7818608E-02  0.1130116E+00
         25   -1    0    0    0    0  0.00000000000E+00  0.00000000000E+00  0.99999998245E-14  0.12500000000E+03  0.12500000000E+03 0.  0.
        -11    1    3    3    0    0 -0.22664783740E+02 -0.88335722619E+01  0.28804516956E+02  0.37701785345E+02  0.51100000000E-03 0.  1.
         23    2    1    0    0    0 -0.47171163184E+01  0.20950559264E+02 -0.18666276031E+02  0.96546406541E+02  0.92258341819E+02 0.  0.
         11    1    3    3    0    0  0.17947667422E+02  0.29784131526E+02 -0.47470792987E+02  0.58844621196E+02  0.51100000000E-03 0. -1.
         22    1    1    0    0    0  0.47171163184E+01 -0.20950559264E+02  0.18666276031E+02  0.28453593459E+02  0.00000000000E+00 0. -1.
</event>
<event>
 5    1  0.8962567E-005  0.9118800E+02  0.7818608E-02  0.1130116E+00
         25   -1    0    0    0    0  0.00000000000E+00  0.00000000000E+00  0.99999998245E-14  0.12500000000E+03  0.12500000000E+03 0.  0.
        -11    1    3    3    0    0 -0.40013002688E+02  0.18768720962E+02 -0.25509003190E+00  0.44196949463E+02  0.51100000000E-03 0.  1.
         23    2    1    0    0    0 -0.36364441950E+01 -0.52673750512E+01  0.28082683993E+02  0.96197116350E+02  0.91783871609E+02 0.  0.
         11    1    3    3    0    0  0.36376558493E+02 -0.24036096014E+02  0.28337774025E+02  0.52000166887E+02  0.51100000000E-03 0. -1.
         22    1    1    0    0    0  0.36364441950E+01  0.52673750512E+01 -0.28082683993E+02  0.28802883650E+02  0.00000000000E+00 0. -1.
</event>
<event>
 5    1  0.8962567E-005  0.9118800E+02  0.7818608E-02  0.1130116E+00
         25   -1    0    0    0    0  0.00000000000E+00  0.00000000000E+00  0.99999998245E-14  0.12500000000E+03  0.12500000000E+03 0.  0.
        -11    1    3    3    0    0 -0.35141046169E+02 -0.24664661481E+01 -0.32390784859E+02  0.47855402257E+02  0.51100000000E-03 0. -1.
         23    2    1    0    0    0  0.11702780501E+02 -0.14624161541E+02 -0.19549663262E+02  0.97925833237E+02  0.94108757878E+02 0.  0.
         11    1    3    3    0    0  0.46843826670E+02 -0.12157695393E+02  0.12841121597E+02  0.50070430980E+02  0.51100000000E-03 0.  1.
         22    1    1    0    0    0 -0.11702780501E+02  0.14624161541E+02  0.19549663262E+02  0.27074166763E+02  0.00000000000E+00 0.  1.
</event>
<event>
 5    1  0.8962567E-005  0.9118800E+02  0.7818608E-02  0.1130116E+00
         25   -1    0    0    0    0  0.00000000000E+00  0.00000000000E+00  0.99999998245E-14  0.12500000000E+03  0.12500000000E+03 0.  0.
        -11    1    3    3    0    0 -0.39117018146E+02 -0.31368008052E+02 -0.32099354139E+02  0.59535380860E+02  0.51100000000E-03 0.  1.
         23    2    1    0    0    0 -0.22479028795E+02 -0.22544987778E+02 -0.46480322068E+01  0.92825671524E+02  0.87071337884E+02 0.  0.
         11    1    3    3    0    0  0.16637989351E+02  0.88230202735E+01  0.27451321932E+02  0.33290290663E+02  0.51100000000E-03 0. -1.
         22    1    1    0    0    0  0.22479028795E+02  0.22544987778E+02  0.46480322068E+01  0.32174328476E+02  0.00000000000E+00 0.  1.
</event>
<event>
 5    1  0.8962567E-005  0.9118800E+02  0.7818608E-02  0.1130116E+00
         25   -1    0    0    0    0  0.00000000000E+00  0.00000000000E+00  0.99999998245E-14  0.12500000000E+03  0.12500000000E+03 0.  0.
        -11    1    3    3    0    0  0.60086511939E+01 -0.32722755466E+02 -0.23125931354E+02  0.40517790113E+02  0.51100000000E-03 0. -1.
         23    2    1    0    0    0 -0.14529245407E+02  0.19025724267E+02 -0.14914302796E+02  0.96795149639E+02  0.92594748285E+02 0.  0.
         11    1    3    3    0    0 -0.20537896601E+02  0.51748479732E+02  0.82116285575E+01  0.56277359526E+02  0.51100000000E-03 0.  1.
         22    1    1    0    0    0  0.14529245407E+02 -0.19025724267E+02  0.14914302796E+02  0.28204850361E+02  0.00000000000E+00 0.  1.
</event>
<event>
 5    1  0.8962567E-005  0.9118800E+02  0.7818608E-02  0.1130116E+00
         25   -1    0    0    0    0  0.00000000000E+00  0.00000000000E+00  0.99999998245E-14  0.12500000000E+03  0.12500000000E+03 0.  0.
        -11    1    3    3    0    0 -0.59707976063E+01  0.45217227791E+02  0.31224771765E+02  0.55274175572E+02  0.51100000000E-03 0.  1.
         23    2    1    0    0    0 -0.22147367042E+02  0.19376312807E+02  0.57205191421E+01  0.95022146438E+02  0.90169488241E+02 0.  0.
         11    1    3    3    0    0 -0.16176569436E+02 -0.25840914983E+02 -0.25504252623E+02  0.39747970866E+02  0.51100000000E-03 0. -1.
         22    1    1    0    0    0  0.22147367042E+02 -0.19376312807E+02 -0.57205191421E+01  0.29977853562E+02  0.00000000000E+00 0.  1.
</event>
<event>
 5    1  0.8962567E-005  0.9118800E+02  0.7818608E-02  0.1130116E+00
         25   -1    0    0    0    0  0.00000000000E+00  0.00000000000E+00  0.99999998245E-14  0.12500000000E+03  0.12500000000E+03 0.  0.
        -11    1    3    3    0    0  0.17871704250E+02  0.33468044933E+02  0.74049556100E+01  0.38656709796E+02  0.51100000000E-03 0. -1.
         23    2    1    0    0    0 -0.78004111882E+01 -0.32042989833E+01 -0.28017152640E+02  0.95741244239E+02  0.91160907519E+02 0.  0.
         11    1    3    3    0    0 -0.25672115438E+02 -0.36672343916E+02 -0.35422108250E+02  0.57084534442E+02  0.51100000000E-03 0.  1.
         22    1    1    0    0    0  0.78004111882E+01  0.32042989833E+01  0.28017152640E+02  0.29258755761E+02  0.00000000000E+00 0.  1.
</event>
<event>
 5    1  0.8962567E-005  0.9118800E+02  0.7818608E-02  0.1130116E+00
         25   -1    0    0    0    0  0.00000000000E+00  0.00000000000E+00  0.99999998245E-14  0.12500000000E+03  0.12500000000E+03 0.  0.
        -11    1    3    3    0    0  0.31752108275E+02  0.11315480581E+02  0.25851507168E+02  0.42479841147E+02  0.51100000000E-03 0.  1.
         23    2    1    0    0    0 -0.11602849076E+02  0.29233239585E+02  0.10021414523E+02  0.91990347588E+02  0.85863769408E+02 0.  0.
         11    1    3    3    0    0 -0.43354957351E+02  0.17917759004E+02 -0.15830092645E+02  0.49510506441E+02  0.51100000000E-03 0. -1.
         22    1    1    0    0    0  0.11602849076E+02 -0.29233239585E+02 -0.10021414523E+02  0.33009652412E+02  0.00000000000E+00 0. -1.
</event>
<event>
 5    1  0.8962567E-005  0.9118800E+02  0.7818608E-02  0.1130116E+00
         25   -1    0    0    0    0  0.00000000000E+00  0.00000000000E+00  0.99999998245E-14  0.12500000000E+03  0.12500000000E+03 0.  0.
        -11    1    3    3    0    0  0.14378552504E+02  0.28013958417E+02  0.18592963554E+02  0.36568058908E+02  0.51100000000E-03 0. -1.
         23    2    1    0    0    0  0.75503059436E+01 -0.17308370881E+02 -0.20729906808E+02  0.96958675876E+02  0.92815241038E+02 0.  0.
         11    1    3    3    0    0 -0.68282465608E+01 -0.45322329297E+02 -0.39322870362E+02  0.60390616968E+02  0.51100000000E-03 0.  1.
         22    1    1    0    0    0 -0.75503059436E+01  0.17308370881E+02  0.20729906808E+02  0.28041324124E+02  0.00000000000E+00 0.  1.
</event>
<event>
 5    1  0.8962567E-005  0.9118800E+02  0.7818608E-02  0.1130116E+00
         25   -1    0    0    0    0  0.00000000000E+00  0.00000000000E+00  0.99999998245E-14  0.12500000000E+03  0.12500000000E+03 0.  0.
        -11    1    3    3    0    0 -0.11844088079E+02  0.51354587331E+02 -0.25387464550E+02  0.58498712968E+02  0.51100000000E-03 0. -1.
         23    2    1    0    0    0 -0.88933913922E+01  0.14532220120E+02 -0.24131008502E+02  0.95460477265E+02  0.90775102954E+02 0.  0.
         11    1    3    3    0    0  0.29506966871E+01 -0.36822367211E+02  0.12564560484E+01  0.36961764298E+02  0.51100000000E-03 0.  1.
         22    1    1    0    0    0  0.88933913922E+01 -0.14532220120E+02  0.24131008502E+02  0.29539522735E+02  0.00000000000E+00 0.  1.
</event>
<event>
 5    1  0.8962567E-005  0.9118800E+02  0.7818608E-02  0.1130116E+00
         25   -1    0    0    0    0  0.00000000000E+00  0.00000000000E+00  0.99999998245E-14  0.12500000000E+03  0.12500000000E+03 0.  0.
        -11    1    3    3    0    0 -0.37110806074E+02 -0.29218579644E+02 -0.36721751057E+02  0.59828290339E+02  0.51100000000E-03 0.  1.
         23    2    1    0    0    0 -0.14113278042E+02 -0.69538191442E+01 -0.27797941448E+02  0.93058400689E+02  0.87404806346E+02 0.  0.
         11    1    3    3    0    0  0.22997528032E+02  0.22264760500E+02  0.89238096089E+01  0.33230110351E+02  0.51100000000E-03 0. -1.
         22    1    1    0    0    0  0.14113278042E+02  0.69538191442E+01  0.27797941448E+02  0.31941599311E+02  0.00000000000E+00 0.  1.
</event>
<event>
 5    1  0.8962567E-005  0.9118800E+02  0.7818608E-02  0.1130116E+00
         25   -1    0    0    0    0  0.00000000000E+00  0.00000000000E+00  0.99999998245E-14  0.12500000000E+03  0.12500000000E+03 0.  0.
        -11    1    3    3    0    0 -0.12473443858E+02 -0.43570125099E+02  0.94100973740E+01  0.46287066614E+02  0.51100000000E-03 0.  1.
         23    2    1    0    0    0 -0.12801599644E+02  0.69862311236E+00  0.27924819976E+02  0.94272738514E+02  0.89124545601E+02 0.  0.
         11    1    3    3    0    0 -0.32815578596E+00  0.44268748212E+02  0.18514722602E+02  0.47985671901E+02  0.51100000000E-03 0. -1.
         22    1    1    0    0    0  0.12801599644E+02 -0.69862311236E+00 -0.27924819976E+02  0.30727261486E+02  0.00000000000E+00 0. -1.
</event>
<event>
 5    1  0.8962567E-005  0.9118800E+02  0.7818608E-02  0.1130116E+00
         25   -1    0    0    0    0  0.00000000000E+00  0.00000000000E+00  0.99999998245E-14  0.12500000000E+03  0.12500000000E+03 0.  0.
        -11    1    3    3    0    0 -0.25384572170E+02 -0.19370558277E+02 -0.36673493760E+02  0.48626537786E+02  0.51100000000E-03 0.  1.
         23    2    1    0    0    0 -0.87445210240E+01  0.20728550439E+02 -0.19191739143E+02  0.95428691227E+02  0.90731322082E+02 0.  0.
         11    1    3    3    0    0  0.16640051146E+02  0.40099108716E+02  0.17481754617E+02  0.46802153441E+02  0.51100000000E-03 0. -1.
         22    1    1    0    0    0  0.87445210240E+01 -0.20728550439E+02  0.19191739143E+02  0.29571308773E+02  0.00000000000E+00 0.  1.
</event>
<event>
 5    1  0.8962567E-005  0.9118800E+02  0.7818608E-02  0.1130116E+00
         25   -1    0    0    0    0  0.00000000000E+00  0.00000000000E+00  0.99999998245E-14  0.12500000000E+03  0.12500000000E+03 0.  0.
        -11    1    3    3    0    0 -0.32498770512E+02 -0.39115041850E+01 -0.14319926411E+02  0.35728563397E+02  0.51100000000E-03 0. -1.
         23    2    1    0    0    0  0.15527275717E+02  0.26294900265E+02  0.82828247275E+00  0.94451610141E+02  0.89375066630E+02 0.  0.
         11    1    3    3    0    0  0.48026046229E+02  0.30206404450E+02  0.15148208884E+02  0.58723046743E+02  0.51100000000E-03 0.  1.
         22    1    1    0    0    0 -0.15527275717E+02 -0.26294900265E+02 -0.82828247275E+00  0.30548389859E+02  0.00000000000E+00 0.  1.
</event>
<event>
 5    1  0.8962567E-005  0.9118800E+02  0.7818608E-02  0.1130116E+00
         25   -1    0    0    0    0  0.00000000000E+00  0.00000000000E+00  0.99999998245E-14  0.12500000000E+03  0.12500000000E+03 0.  0.
        -11    1    3    3    0    0 -0.45532566389E+02  0.31944658219E+02  0.28494067970E+02  0.62494701378E+02  0.51100000000E-03 0.  1.
         23    2    1    0    0    0 -0.20686688758E+02  0.13821371510E+02  0.12651418262E+02  0.97088930758E+02  0.92990497845E+02 0.  0.
         11    1    3    3    0    0  0.24845877630E+02 -0.18123286709E+02 -0.15842649708E+02  0.34594229380E+02  0.51100000000E-03 0. -1.
         22    1    1    0    0    0  0.20686688758E+02 -0.13821371510E+02 -0.12651418262E+02  0.27911069242E+02  0.00000000000E+00 0.  1.
</event>
<event>
 5    1  0.8962567E-005  0.9118800E+02  0.7818608E-02  0.1130116E+00
         25   -1    0    0    0    0  0.00000000000E+00  0.00000000000E+00  0.99999998245E-14  0.12500000000E+03  0.12500000000E+03 0.  0.
        -11    1    3    3    0    0  0.42382601613E+02  0.24849764029E+02 -0.16539484042E+02  0.51839658799E+02  0.51100000000E-03 0.  1.
         23    2    1    0    0    0  0.60751975184E+01  0.23825875490E+02  0.11625417937E+02  0.97802009083E+02  0.93944144419E+02 0.  0.
         11    1    3    3    0    0 -0.36307404095E+02 -0.10238885397E+01  0.28164901978E+02  0.45962350283E+02  0.51100000000E-03 0. -1.
         22    1    1    0    0    0 -0.60751975184E+01 -0.23825875490E+02 -0.11625417937E+02  0.27197990917E+02  0.00000000000E+00 0.  1.
</event>
<event>
 5    1  0.8962567E-005  0.9118800E+02  0.7818608E-02  0.1130116E+00
         25   -1    0    0    0    0  0.00000000000E+00  0.00000000000E+00  0.99999998245E-14  0.12500000000E+03  0.12500000000E+03 0.  0.
        -11    1    3    3    0    0  0.33728039504E+02  0.25558748844E+02 -0.19184159739E-01  0.42318207188E+02  0.51100000000E-03 0.  1.
         23    2    1    0    0    0 -0.20708236855E+02  0.52676256300E+01  0.10228722742E+02  0.10131021903E+03  0.98501546981E+02 0.  0.
         11    1    3    3    0    0 -0.54436276360E+02 -0.20291123214E+02  0.10247906901E+02  0.58992011843E+02  0.51100000000E-03 0. -1.
         22    1    1    0    0    0  0.20708236855E+02 -0.52676256300E+01 -0.10228722742E+02  0.23689780969E+02  0.00000000000E+00 0. -1.
</event>
<event>
 5    1  0.8962567E-005  0.9118800E+02  0.7818608E-02  0.1130116E+00
         25   -1    0    0    0    0  0.00000000000E+00  0.00000000000E+00  0.99999998245E-14  0.12500000000E+03  0.12500000000E+03 0.  0.
        -11    1    3    3    0    0  0.82003631470E+01  0.10194468673E+02  0.36866900863E+02  0.39119579838E+02  0.51100000000E-03 0. -1.
         23    2    1    0    0    0  0.87803263306E+01 -0.27439501557E+02 -0.53702562239E+01  0.95693686208E+02  0.91095672521E+02 0.  0.
         11    1    3    3    0    0  0.57996318360E+00 -0.37633970230E+02 -0.42237157086E+02  0.56574106370E+02  0.51100000000E-03 0.  1.
         22    1    1    0    0    0 -0.87803263306E+01  0.27439501557E+02  0.53702562239E+01  0.29306313792E+02  0.00000000000E+00 0.  1.
</event>
<event>
 5    1  0.8962567E-005  0.9118800E+02  0.7818608E-02  0.1130116E+00
         25   -1    0    0    0    0  0.00000000000E+00  0.00000000000E+00  0.99999998245E-14  0.12500000000E+03  0.12500000000E+03 0.  0.
        -11    1    3    3    0    0 -0.90196910648E+01  0.34813927106E+02  0.13702641215E+02  0.38485409235E+02  0.51100000000E-03 0.  1.
         23    2    1    0    0    0  0.11053993499E+01 -0.22351029539E+02  0.17393051100E+02  0.96657299780E+02  0.92408467929E+02 0.  0.
         11    1    3    3    0    0  0.10125090415E+02 -0.57164956646E+02  0.36904098848E+01  0.58171890545E+02  0.51100000000E-03 0. -1.
         22    1    1    0    0    0 -0.11053993499E+01  0.22351029539E+02 -0.17393051100E+02  0.28342700220E+02  0.00000000000E+00 0. -1.
</event>
<event>
 5    1  0.8962567E-005  0.9118800E+02  0.7818608E-02  0.1130116E+00
         25   -1    0    0    0    0  0.00000000000E+00  0.00000000000E+00  0.99999998245E-14  0.12500000000E+03  0.12500000000E+03 0.  0.
        -11    1    3    3    0    0  0.28365027561E+02 -0.14972818033E+02  0.82582617954E+01  0.33120370718E+02  0.51100000000E-03 0.  1.
         23    2    1    0    0    0 -0.10244164053E+02  0.27967554715E+02 -0.98341009654E+01  0.93633831033E+02  0.88223906955E+02 0.  0.
         11    1    3    3    0    0 -0.38609191614E+02  0.42940372747E+02 -0.18092362761E+02  0.60513460315E+02  0.51100000000E-03 0. -1.
         22    1    1    0    0    0  0.10244164053E+02 -0.27967554715E+02  0.98341009654E+01  0.31366168967E+02  0.00000000000E+00 0. -1.
</event>
<event>
 5    1  0.8962567E-005  0.9118800E+02  0.7818608E-02  0.1130116E+00
         25   -1    0    0    0    0  0.00000000000E+00  0.00000000000E+00  0.99999998245E-14  0.12500000000E+03  0.12500000000E+03 0.  0.
        -11    1    3    3    0    0 -0.38939427067E+02 -0.11316418681E+02  0.37757046457E+02  0.55406992966E+02  0.51100000000E-03 0. -1.
         23    2    1    0    0    0 -0.18079345286E+02 -0.23205453399E+02  0.64100228835E+01  0.94892788458E+02  0.89989983412E+02 0.  0.
         11    1    3    3    0    0  0.20860081781E+02 -0.11889034718E+02 -0.31347023574E+02  0.39485795492E+02  0.51100000000E-03 0.  1.
         22    1    1    0    0    0  0.18079345286E+02  0.23205453399E+02 -0.64100228835E+01  0.30107211542E+02  0.00000000000E+00 0. -1.
</event>
<event>
 5    1  0.8962567E-005  0.9118800E+02  0.7818608E-02  0.1130116E+00
         25   -1    0    0    0    0  0.00000000000E+00  0.00000000000E+00  0.99999998245E-14  0.12500000000E+03  0.12500000000E+03 0.  0.
        -11    1    3    3    0    0 -0.60417806005E+02 -0.60384973897E+01  0.12424088114E+02  0.61976872290E+02  0.51100000000E-03 0.  1.
         23    2    1    0    0    0 -0.28515515991E+02 -0.22692557439E+01  0.71266051878E-01  0.96394244413E+02  0.92051947852E+02 0.  0.
         11    1    3    3    0    0  0.31902290014E+02  0.37692416458E+01 -0.12352822062E+02  0.34417372123E+02  0.51100000000E-03 0. -1.
         22    1    1    0    0    0  0.28515515991E+02  0.22692557439E+01 -0.71266051878E-01  0.28605755587E+02  0.00000000000E+00 0.  1.
</event>
<event>
 5    1  0.8962567E-005  0.9118800E+02  0.7818608E-02  0.1130116E+00
         25   -1    0    0    0    0  0.00000000000E+00  0.00000000000E+00  0.99999998245E-14  0.12500000000E+03  0.12500000000E+03 0.  0.
        -11    1    3    3    0    0  0.66088345333E+00 -0.10046406208E+02  0.51133696223E+02  0.52115467324E+02  0.51100000000E-03 0.  1.
         23    2    1    0    0    0 -0.14108384485E+02 -0.22224620109E+02  0.11216228011E+02  0.96385597637E+02  0.92040205396E+02 0.  0.
         11    1    3    3    0    0 -0.14769267939E+02 -0.12178213901E+02 -0.39917468212E+02  0.44270130314E+02  0.51100000000E-03 0. -1.
         22    1    1    0    0    0  0.14108384485E+02  0.22224620109E+02 -0.11216228011E+02  0.28614402363E+02  0.00000000000E+00 0.  1.
</event>
<event>
 5    1  0.8962567E-005  0.9118800E+02  0.7818608E-02  0.1130116E+00
         25   -1    0    0    0    0  0.00000000000E+00  0.00000000000E+00  0.99999998245E-14  0.12500000000E+03  0.12500000000E+03 0.  0.
        -11    1    3    3    0    0 -0.83878678319E+01  0.28602156370E+02 -0.35090462554E+02  0.46041071212E+02  0.51100000000E-03 0. -1.
         23    2    1    0    0    0 -0.20781237300E+02 -0.14596051933E+02 -0.16739825993E+02  0.94584110567E+02  0.89560190049E+02 0.  0.
         11    1    3    3    0    0 -0.12393369468E+02 -0.43198208303E+02  0.18350636561E+02  0.48543039355E+02  0.51100000000E-03 0.  1.
         22    1    1    0    0    0  0.20781237300E+02  0.14596051933E+02  0.16739825993E+02  0.30415889433E+02  0.00000000000E+00 0.  1.
</event>
<event>
 5    1  0.8962567E-005  0.9118800E+02  0.7818608E-02  0.1130116E+00
         25   -1    0    0    0    0  0.00000000000E+00  0.00000000000E+00  0.99999998245E-14  0.12500000000E+03  0.12500000000E+03 0.  0.
        -11    1    3    3    0    0  0.22771752769E+02  0.32594146575E+02 -0.18576906358E+02  0.43886587532E+02  0.51100000000E-03 0.  1.
         23    2    1    0    0    0 -0.16268170320E+02  0.21614434309E+02  0.12713303884E+02  0.95109111226E+02  0.90289965148E+02 0.  0.
         11    1    3    3    0    0 -0.39039923089E+02 -0.10979712266E+02  0.31290210242E+02  0.51222523693E+02  0.51100000000E-03 0. -1.
         22    1    1    0    0    0  0.16268170320E+02 -0.21614434309E+02 -0.12713303884E+02  0.29890888774E+02  0.00000000000E+00 0. -1.
</event>
<event>
 5    1  0.8962567E-005  0.9118800E+02  0.7818608E-02  0.1130116E+00
         25   -1    0    0    0    0  0.00000000000E+00  0.00000000000E+00  0.99999998245E-14  0.12500000000E+03  0.12500000000E+03 0.  0.
        -11    1    3    3    0    0  0.27754372574E+02  0.15069730093E+02 -0.10631314737E+02  0.33323067316E+02  0.51100000000E-03 0. -1.
         23    2    1    0    0    0 -0.14103776760E+02 -0.39597832072E+01  0.28013950153E+02  0.93387062694E+02  0.87873577790E+02 0.  0.
         11    1    3    3    0    0 -0.41858149334E+02 -0.19029513300E+02  0.38645264890E+02  0.60063995378E+02  0.51100000000E-03 0.  1.
         22    1    1    0    0    0  0.14103776760E+02  0.39597832072E+01 -0.28013950153E+02  0.31612937306E+02  0.00000000000E+00 0.  1.
</event>
<event>
 5    1  0.8962567E-005  0.9118800E+02  0.7818608E-02  0.1130116E+00
         25   -1    0    0    0    0  0.00000000000E+00  0.00000000000E+00  0.99999998245E-14  0.12500000000E+03  0.12500000000E+03 0.  0.
        -11    1    3    3    0    0  0.82665906633E+01 -0.37510607934E+02  0.48676727407E+02  0.62006499821E+02  0.51100000000E-03 0.  1.
         23    2    1    0    0    0  0.89376042496E+01 -0.15061849655E+02  0.22084821295E+02  0.96813488750E+02  0.92619502199E+02 0.  0.
         11    1    3    3    0    0  0.67101358628E+00  0.22448758278E+02 -0.26591906111E+02  0.34806988930E+02  0.51100000000E-03 0. -1.
         22    1    1    0    0    0 -0.89376042496E+01  0.15061849655E+02 -0.22084821295E+02  0.28186511250E+02  0.00000000000E+00 0.  1.
</event>
<event>
 5    1  0.8962567E-005  0.9118800E+02  0.7818608E-02  0.1130116E+00
         25   -1    0    0    0    0  0.00000000000E+00  0.00000000000E+00  0.99999998245E-14  0.12500000000E+03  0.12500000000E+03 0.  0.
        -11    1    3    3    0    0 -0.30801681107E+02  0.15245699378E+02 -0.10282662673E+02  0.35873500811E+02  0.51100000000E-03 0.  1.
         23    2    1    0    0    0  0.23544342070E+02  0.87824520909E+01  0.14538859539E+02  0.95968190809E+02  0.91471567725E+02 0.  0.
         11    1    3    3    0    0  0.54346023178E+02 -0.64632472870E+01  0.24821522211E+02  0.60094689997E+02  0.51100000000E-03 0. -1.
         22    1    1    0    0    0 -0.23544342070E+02 -0.87824520909E+01 -0.14538859539E+02  0.29031809191E+02  0.00000000000E+00 0. -1.
</event>
<event>
 5    1  0.8962567E-005  0.9118800E+02  0.7818608E-02  0.1130116E+00
         25   -1    0    0    0    0  0.00000000000E+00  0.00000000000E+00  0.99999998245E-14  0.12500000000E+03  0.12500000000E+03 0.  0.
        -11    1    3    3    0    0  0.59425269767E+01  0.21943787185E+02  0.38404848528E+02  0.44629315630E+02  0.51100000000E-03 0. -1.
         23    2    1    0    0    0  0.33889043705E+02  0.14679073756E+01  0.94321030818E+01  0.89792236597E+02  0.82601810811E+02 0.  0.
         11    1    3    3    0    0  0.27946516729E+02 -0.20475879810E+02 -0.28972745446E+02  0.45162920966E+02  0.51100000000E-03 0.  1.
         22    1    1    0    0    0 -0.33889043705E+02 -0.14679073756E+01 -0.94321030818E+01  0.35207763403E+02  0.00000000000E+00 0.  1.
</event>
<event>
 5    1  0.8962567E-005  0.9118800E+02  0.7818608E-02  0.1130116E+00
         25   -1    0    0    0    0  0.00000000000E+00  0.00000000000E+00  0.99999998245E-14  0.12500000000E+03  0.12500000000E+03 0.  0.
        -11    1    3    3    0    0  0.34408759174E+01  0.50522563592E+02 -0.34271215412E+02  0.61146424794E+02  0.51100000000E-03 0. -1.
         23    2    1    0    0    0  0.34694983068E+01  0.22472434974E+02 -0.26145519739E+02  0.90349805851E+02  0.83441305495E+02 0.  0.
         11    1    3    3    0    0  0.28622389332E-01 -0.28050128618E+02  0.81256956729E+01  0.29203381057E+02  0.51100000000E-03 0.  1.
         22    1    1    0    0    0 -0.34694983068E+01 -0.22472434974E+02  0.26145519739E+02  0.34650194149E+02  0.00000000000E+00 0. -1.
</event>
<event>
 5    1  0.8962567E-005  0.9118800E+02  0.7818608E-02  0.1130116E+00
         25   -1    0    0    0    0  0.00000000000E+00  0.00000000000E+00  0.99999998245E-14  0.12500000000E+03  0.12500000000E+03 0.  0.
        -11    1    3    3    0    0 -0.30631745359E+02 -0.11294604707E+02 -0.33045589387E+02  0.46453018174E+02  0.51100000000E-03 0. -1.
         23    2    1    0    0    0 -0.60675264978E+01  0.23756923872E+02 -0.24958655152E+02  0.90012276772E+02  0.82934125624E+02 0.  0.
         11    1    3    3    0    0  0.24564218862E+02  0.35051528579E+02  0.80869342348E+01  0.43559258598E+02  0.51100000000E-03 0.  1.
         22    1    1    0    0    0  0.60675264978E+01 -0.23756923872E+02  0.24958655152E+02  0.34987723228E+02  0.00000000000E+00 0.  1.
</event>
<event>
 5    1  0.8962567E-005  0.9118800E+02  0.7818608E-02  0.1130116E+00
         25   -1    0    0    0    0  0.00000000000E+00  0.00000000000E+00  0.99999998245E-14  0.12500000000E+03  0.12500000000E+03 0.  0.
        -11    1    3    3    0    0  0.60124844152E+01  0.15297722367E+02  0.30404425961E+02  0.34562977255E+02  0.51100000000E-03 0.  1.
         23    2    1    0    0    0 -0.20902869220E+02 -0.11929130718E+02 -0.17027666917E+02  0.95518216778E+02  0.90854577179E+02 0.  0.
         11    1    3    3    0    0 -0.26915353635E+02 -0.27226853085E+02 -0.47432092878E+02  0.60955239523E+02  0.51100000000E-03 0. -1.
         22    1    1    0    0    0  0.20902869220E+02  0.11929130718E+02  0.17027666917E+02  0.29481783222E+02  0.00000000000E+00 0. -1.
</event>
<event>
 5    1  0.8962567E-005  0.9118800E+02  0.7818608E-02  0.1130116E+00
         25   -1    0    0    0    0  0.00000000000E+00  0.00000000000E+00  0.99999998245E-14  0.12500000000E+03  0.12500000000E+03 0.  0.
        -11    1    3    3    0    0  0.21168042248E+02  0.36522368050E+02 -0.39953477362E+02  0.58122712722E+02  0.51100000000E-03 0.  1.
         23    2    1    0    0    0  0.19451517964E+02  0.20413395114E+02 -0.53926739338E+01  0.96292001405E+02  0.91913004255E+02 0.  0.
         11    1    3    3    0    0 -0.17165242843E+01 -0.16108972936E+02  0.34560803428E+02  0.38169288683E+02  0.51100000000E-03 0. -1.
         22    1    1    0    0    0 -0.19451517964E+02 -0.20413395114E+02  0.53926739338E+01  0.28707998595E+02  0.00000000000E+00 0.  1.
</event>
<event>
 5    1  0.8962567E-005  0.9118800E+02  0.7818608E-02  0.1130116E+00
         25   -1    0    0    0    0  0.00000000000E+00  0.00000000000E+00  0.99999998245E-14  0.12500000000E+03  0.12500000000E+03 0.  0.
        -11    1    3    3    0    0 -0.34057114322E+02 -0.25588340320E+01 -0.55057399749E+01  0.34594043425E+02  0.51100000000E-03 0.  1.
         23    2    1    0    0    0  0.22521931151E+02  0.18135155488E+02  0.47232632994E+01  0.95701015998E+02  0.91105729785E+02 0.  0.
         11    1    3    3    0    0  0.56579045473E+02  0.20693989520E+02  0.10229003274E+02  0.61106972574E+02  0.51100000000E-03 0. -1.
         22    1    1    0    0    0 -0.22521931151E+02 -0.18135155488E+02 -0.47232632994E+01  0.29298984002E+02  0.00000000000E+00 0. -1.
</event>
<event>
 5    1  0.8962567E-005  0.9118800E+02  0.7818608E-02  0.1130116E+00
         25   -1    0    0    0    0  0.00000000000E+00  0.00000000000E+00  0.99999998245E-14  0.12500000000E+03  0.12500000000E+03 0.  0.
        -11    1    3    3    0    0  0.94746684629E+01 -0.19393223106E+01 -0.31768365549E+02  0.33207820817E+02  0.51100000000E-03 0.  1.
         23    2    1    0    0    0 -0.94722848039E+00 -0.48225295080E+01  0.29332734212E+02  0.95258390612E+02  0.90496395801E+02 0.  0.
         11    1    3    3    0    0 -0.10421896943E+02 -0.28832071974E+01  0.61101099761E+02  0.62050569795E+02  0.51100000000E-03 0. -1.
         22    1    1    0    0    0  0.94722848039E+00  0.48225295080E+01 -0.29332734212E+02  0.29741609388E+02  0.00000000000E+00 0. -1.
</event>
<event>
 5    1  0.8962567E-005  0.9118800E+02  0.7818608E-02  0.1130116E+00
         25   -1    0    0    0    0  0.00000000000E+00  0.00000000000E+00  0.99999998245E-14  0.12500000000E+03  0.12500000000E+03 0.  0.
        -11    1    3    3    0    0  0.24991695533E+02 -0.21422016177E+02 -0.92519834730E+01  0.34191911633E+02  0.51100000000E-03 0. -1.
         23    2    1    0    0    0 -0.44402671501E+01  0.24511003652E+02  0.17108858905E+02  0.94780497597E+02  0.89833871114E+02 0.  0.
         11    1    3    3    0    0 -0.29431962683E+02  0.45933019829E+02  0.26360842378E+02  0.60588585964E+02  0.51100000000E-03 0.  1.
         22    1    1    0    0    0  0.44402671501E+01 -0.24511003652E+02 -0.17108858905E+02  0.30219502403E+02  0.00000000000E+00 0.  1.
</event>
<event>
 5    1  0.8962567E-005  0.9118800E+02  0.7818608E-02  0.1130116E+00
         25   -1    0    0    0    0  0.00000000000E+00  0.00000000000E+00  0.99999998245E-14  0.12500000000E+03  0.12500000000E+03 0.  0.
        -11    1    3    3    0    0 -0.26270881951E+02 -0.11703588494E+02  0.36271594721E+02  0.46289975222E+02  0.51100000000E-03 0. -1.
         23    2    1    0    0    0 -0.16040948760E+02  0.25658614176E+02  0.98620612429E+01  0.93173332400E+02  0.87569019065E+02 0.  0.
         11    1    3    3    0    0  0.10229933191E+02  0.37362202671E+02 -0.26409533478E+02  0.46883357178E+02  0.51100000000E-03 0.  1.
         22    1    1    0    0    0  0.16040948760E+02 -0.25658614176E+02 -0.98620612429E+01  0.31826667600E+02  0.00000000000E+00 0.  1.
</event>
<event>
 5    1  0.8962567E-005  0.9118800E+02  0.7818608E-02  0.1130116E+00
         25   -1    0    0    0    0  0.00000000000E+00  0.00000000000E+00  0.99999998245E-14  0.12500000000E+03  0.12500000000E+03 0.  0.
        -11    1    3    3    0    0 -0.53654133177E+01 -0.46613321781E+02  0.99936800028E+01  0.47973566344E+02  0.51100000000E-03 0. -1.
         23    2    1    0    0    0 -0.14968342610E+02 -0.52423138042E+01 -0.19636298052E+02  0.99758816674E+02  0.96512715061E+02 0.  0.
         11    1    3    3    0    0 -0.96029292924E+01  0.41371007976E+02 -0.29629978055E+02  0.51785250330E+02  0.51100000000E-03 0.  1.
         22    1    1    0    0    0  0.14968342610E+02  0.52423138042E+01  0.19636298052E+02  0.25241183326E+02  0.00000000000E+00 0. -1.
</event>
<event>
 5    1  0.8962567E-005  0.9118800E+02  0.7818608E-02  0.1130116E+00
         25   -1    0    0    0    0  0.00000000000E+00  0.00000000000E+00  0.99999998245E-14  0.12500000000E+03  0.12500000000E+03 0.  0.
        -11    1    3    3    0    0  0.10091507766E+02  0.55891913153E+02  0.62449139781E-01  0.56795672239E+02  0.51100000000E-03 0. -1.
         23    2    1    0    0    0 -0.51924427205E+01  0.24550035981E+02  0.16109521858E+02  0.95180837997E+02  0.90389211188E+02 0.  0.
         11    1    3    3    0    0 -0.15283950487E+02 -0.31341877172E+02  0.16047072719E+02  0.38385165758E+02  0.51100000000E-03 0.  1.
         22    1    1    0    0    0  0.51924427205E+01 -0.24550035981E+02 -0.16109521858E+02  0.29819162003E+02  0.00000000000E+00 0. -1.
</event>
<event>
 5    1  0.8962567E-005  0.9118800E+02  0.7818608E-02  0.1130116E+00
         25   -1    0    0    0    0  0.00000000000E+00  0.00000000000E+00  0.99999998245E-14  0.12500000000E+03  0.12500000000E+03 0.  0.
        -11    1    3    3    0    0  0.33091669104E+02  0.63963027548E+01  0.51243009091E+01  0.34091490332E+02  0.51100000000E-03 0. -1.
         23    2    1    0    0    0 -0.22448292346E+02 -0.18335022958E+02 -0.45716893650E+01  0.95657211452E+02  0.91045608697E+02 0.  0.
         11    1    3    3    0    0 -0.55539961450E+02 -0.24731325712E+02 -0.96959902741E+01  0.61565721120E+02  0.51100000000E-03 0.  1.
         22    1    1    0    0    0  0.22448292346E+02  0.18335022958E+02  0.45716893650E+01  0.29342788548E+02  0.00000000000E+00 0.  1.
</event>
<event>
 5    1  0.8962567E-005  0.9118800E+02  0.7818608E-02  0.1130116E+00
         25   -1    0    0    0    0  0.00000000000E+00  0.00000000000E+00  0.99999998245E-14  0.12500000000E+03  0.12500000000E+03 0.  0.
        -11    1    3    3    0    0 -0.28588399189E+02  0.33477663483E+02 -0.33441649043E+00  0.44024565360E+02  0.51100000000E-03 0.  1.
         23    2    1    0    0    0 -0.11523376955E+02 -0.20696143201E+02  0.39542676590E+01  0.10098428030E+03  0.98087053559E+02 0.  0.
         11    1    3    3    0    0  0.17065022234E+02 -0.54173806684E+02  0.42886841494E+01  0.56959714944E+02  0.51100000000E-03 0. -1.
         22    1    1    0    0    0  0.11523376955E+02  0.20696143201E+02 -0.39542676590E+01  0.24015719696E+02  0.00000000000E+00 0. -1.
</event>
<event>
 5    1  0.8962567E-005  0.9118800E+02  0.7818608E-02  0.1130116E+00
         25   -1    0    0    0    0  0.00000000000E+00  0.00000000000E+00  0.99999998245E-14  0.12500000000E+03  0.12500000000E+03 0.  0.
        -11    1    3    3    0    0 -0.87193216549E+01 -0.14717015182E+02  0.10449866450E+02  0.20045368918E+02  0.51100000000E-03 0. -1.
         23    2    1    0    0    0  0.53531574058E+00  0.42357199061E+02 -0.10176868876E+02  0.81434101233E+02  0.68800619970E+02 0.  0.
         11    1    3    3    0    0  0.92546373954E+01  0.57074214243E+02 -0.20626735326E+02  0.61388732315E+02  0.51100000000E-03 0.  1.
         22    1    1    0    0    0 -0.53531574058E+00 -0.42357199061E+02  0.10176868876E+02  0.43565898767E+02  0.00000000000E+00 0.  1.
</event>
<event>
 5    1  0.8962567E-005  0.9118800E+02  0.7818608E-02  0.1130116E+00
         25   -1    0    0    0    0  0.00000000000E+00  0.00000000000E+00  0.99999998245E-14  0.12500000000E+03  0.12500000000E+03 0.  0.
        -11    1    3    3    0    0 -0.54700537152E+02 -0.11872751239E+01 -0.16104528474E+02  0.57034324968E+02  0.51100000000E-03 0.  1.
         23    2    1    0    0    0 -0.27731161989E+02 -0.13797926748E+02  0.51309304408E+01  0.93603717179E+02  0.88181229832E+02 0.  0.
         11    1    3    3    0    0  0.26969375163E+02 -0.12610651624E+02  0.21235458915E+02  0.36569392210E+02  0.51100000000E-03 0. -1.
         22    1    1    0    0    0  0.27731161989E+02  0.13797926748E+02 -0.51309304408E+01  0.31396282821E+02  0.00000000000E+00 0.  1.
</event>
<event>
 5    1  0.8962567E-005  0.9118800E+02  0.7818608E-02  0.1130116E+00
         25   -1    0    0    0    0  0.00000000000E+00  0.00000000000E+00  0.99999998245E-14  0.12500000000E+03  0.12500000000E+03 0.  0.
        -11    1    3    3    0    0 -0.11658655065E+02  0.95702196748E+01  0.35033280680E+02  0.38142418618E+02  0.51100000000E-03 0.  1.
         23    2    1    0    0    0 -0.22082224461E+02 -0.62104411547E+01 -0.18888823460E+02  0.95284989178E+02  0.90533128160E+02 0.  0.
         11    1    3    3    0    0 -0.10423569396E+02 -0.15780660830E+02 -0.53922104139E+02  0.57142570560E+02  0.51100000000E-03 0. -1.
         22    1    1    0    0    0  0.22082224461E+02  0.62104411547E+01  0.18888823460E+02  0.29715010822E+02  0.00000000000E+00 0. -1.
</event>
<event>
 5    1  0.8962567E-005  0.9118800E+02  0.7818608E-02  0.1130116E+00
         25   -1    0    0    0    0  0.00000000000E+00  0.00000000000E+00  0.99999998245E-14  0.12500000000E+03  0.12500000000E+03 0.  0.
        -11    1    3    3    0    0 -0.50500956321E+01  0.10096131589E+02  0.36382489773E+02  0.38093580841E+02  0.51100000000E-03 0. -1.
         23    2    1    0    0    0  0.26499935536E+02 -0.84224979137E+01 -0.84313799348E+01  0.95943619941E+02  0.91437984367E+02 0.  0.
         11    1    3    3    0    0  0.31550031169E+02 -0.18518629503E+02 -0.44813869708E+02  0.57850039100E+02  0.51100000000E-03 0.  1.
         22    1    1    0    0    0 -0.26499935536E+02  0.84224979137E+01  0.84313799348E+01  0.29056380059E+02  0.00000000000E+00 0.  1.
</event>
<event>
 5    1  0.8962567E-005  0.9118800E+02  0.7818608E-02  0.1130116E+00
         25   -1    0    0    0    0  0.00000000000E+00  0.00000000000E+00  0.99999998245E-14  0.12500000000E+03  0.12500000000E+03 0.  0.
        -11    1    3    3    0    0 -0.12858803146E+02 -0.41064500438E+02  0.27753385911E+02  0.51204418212E+02  0.51100000000E-03 0.  1.
         23    2    1    0    0    0 -0.13646321929E+01 -0.29600396178E+02 -0.11134881262E+02  0.93345122719E+02  0.87813897988E+02 0.  0.
         11    1    3    3    0    0  0.11494170953E+02  0.11464104260E+02 -0.38888267174E+02  0.42140704508E+02  0.51100000000E-03 0. -1.
         22    1    1    0    0    0  0.13646321929E+01  0.29600396178E+02  0.11134881262E+02  0.31654877281E+02  0.00000000000E+00 0.  1.
</event>
<event>
 5    1  0.8962567E-005  0.9118800E+02  0.7818608E-02  0.1130116E+00
         25   -1    0    0    0    0  0.00000000000E+00  0.00000000000E+00  0.99999998245E-14  0.12500000000E+03  0.12500000000E+03 0.  0.
        -11    1    3    3    0    0  0.48160813106E+02 -0.11146167164E+00  0.11975320277E+02  0.49627458516E+02  0.51100000000E-03 0.  1.
         23    2    1    0    0    0  0.17927094418E+02  0.12464563436E+02 -0.19996535518E+02  0.95392442035E+02  0.90681368036E+02 0.  0.
         11    1    3    3    0    0 -0.30233718689E+02  0.12576025108E+02 -0.31971855795E+02  0.45764983519E+02  0.51100000000E-03 0. -1.
         22    1    1    0    0    0 -0.17927094418E+02 -0.12464563436E+02  0.19996535518E+02  0.29607557965E+02  0.00000000000E+00 0. -1.
</event>
<event>
 5    1  0.8962567E-005  0.9118800E+02  0.7818608E-02  0.1130116E+00
         25   -1    0    0    0    0  0.00000000000E+00  0.00000000000E+00  0.99999998245E-14  0.12500000000E+03  0.12500000000E+03 0.  0.
        -11    1    3    3    0    0  0.24281393199E+02  0.44335775589E+02  0.10065468268E+02  0.51541834508E+02  0.51100000000E-03 0.  1.
         23    2    1    0    0    0 -0.11855118234E+02  0.17469584406E+02  0.17989189039E+02  0.97263000704E+02  0.93224193083E+02 0.  0.
         11    1    3    3    0    0 -0.36136511433E+02 -0.26866191182E+02  0.79237207709E+01  0.45721166196E+02  0.51100000000E-03 0. -1.
         22    1    1    0    0    0  0.11855118234E+02 -0.17469584406E+02 -0.17989189039E+02  0.27736999296E+02  0.00000000000E+00 0.  1.
</event>
<event>
 5    1  0.8962567E-005  0.9118800E+02  0.7818608E-02  0.1130116E+00
         25   -1    0    0    0    0  0.00000000000E+00  0.00000000000E+00  0.99999998245E-14  0.12500000000E+03  0.12500000000E+03 0.  0.
        -11    1    3    3    0    0  0.46906294590E+02  0.23407023380E+02  0.17215952460E+02  0.55176790728E+02  0.51100000000E-03 0. -1.
         23    2    1    0    0    0  0.13151452725E+02  0.26309425690E+02 -0.42455971522E+01  0.95281795409E+02  0.90528718384E+02 0.  0.
         11    1    3    3    0    0 -0.33754841864E+02  0.29024023102E+01 -0.21461549612E+02  0.40105004681E+02  0.51100000000E-03 0.  1.
         22    1    1    0    0    0 -0.13151452725E+02 -0.26309425690E+02  0.42455971522E+01  0.29718204591E+02  0.00000000000E+00 0.  1.
</event>
<event>
 5    1  0.8962567E-005  0.9118800E+02  0.7818608E-02  0.1130116E+00
         25   -1    0    0    0    0  0.00000000000E+00  0.00000000000E+00  0.99999998245E-14  0.12500000000E+03  0.12500000000E+03 0.  0.
        -11    1    3    3    0    0 -0.35777554669E+02  0.95245109703E+01  0.15490923698E+02  0.40133756921E+02  0.51100000000E-03 0.  1.
         23    2    1    0    0    0  0.85320310615E+01 -0.25164226935E+02  0.97398497689E+01  0.96699849032E+02  0.92466005959E+02 0.  0.
         11    1    3    3    0    0  0.44309585731E+02 -0.34688737906E+02 -0.57510739290E+01  0.56566092111E+02  0.51100000000E-03 0. -1.
         22    1    1    0    0    0 -0.85320310615E+01  0.25164226935E+02 -0.97398497689E+01  0.28300150968E+02  0.00000000000E+00 0. -1.
</event>
<event>
 5    1  0.8962567E-005  0.9118800E+02  0.7818608E-02  0.1130116E+00
         25   -1    0    0    0    0  0.00000000000E+00  0.00000000000E+00  0.99999998245E-14  0.12500000000E+03  0.12500000000E+03 0.  0.
        -11    1    3    3    0    0 -0.14771580289E+02 -0.13882984240E+02  0.32444612190E+02  0.38256890831E+02  0.51100000000E-03 0.  1.
         23    2    1    0    0    0  0.29817206734E+02  0.39202291073E+01  0.25422786477E+01  0.94818926554E+02  0.89887327463E+02 0.  0.
         11    1    3    3    0    0  0.44588787022E+02  0.17803213348E+02 -0.29902333542E+02  0.56562035723E+02  0.51100000000E-03 0. -1.
         22    1    1    0    0    0 -0.29817206734E+02 -0.39202291073E+01 -0.25422786477E+01  0.30181073446E+02  0.00000000000E+00 0. -1.
</event>
<event>
 5    1  0.8962567E-005  0.9118800E+02  0.7818608E-02  0.1130116E+00
         25   -1    0    0    0    0  0.00000000000E+00  0.00000000000E+00  0.99999998245E-14  0.12500000000E+03  0.12500000000E+03 0.  0.
        -11    1    3    3    0    0 -0.36961267225E+02 -0.11024386384E+02  0.13966383810E+02  0.41021119524E+02  0.51100000000E-03 0.  1.
         23    2    1    0    0    0 -0.77678425904E+01  0.26589424346E+02 -0.11487774036E+02  0.95011571934E+02  0.90154827843E+02 0.  0.
         11    1    3    3    0    0  0.29193424634E+02  0.37613810730E+02 -0.25454157847E+02  0.53990452410E+02  0.51100000000E-03 0. -1.
         22    1    1    0    0    0  0.77678425904E+01 -0.26589424346E+02  0.11487774036E+02  0.29988428066E+02  0.00000000000E+00 0. -1.
</event>
<event>
 5    1  0.8962567E-005  0.9118800E+02  0.7818608E-02  0.1130116E+00
         25   -1    0    0    0    0  0.00000000000E+00  0.00000000000E+00  0.99999998245E-14  0.12500000000E+03  0.12500000000E+03 0.  0.
        -11    1    3    3    0    0 -0.56205043009E+02  0.56615220161E+01 -0.16798429743E+02  0.58934259419E+02  0.51100000000E-03 0. -1.
         23    2    1    0    0    0 -0.26946895576E+02  0.30150893405E+01  0.72867399106E+01  0.96922918181E+02  0.92767071450E+02 0.  0.
         11    1    3    3    0    0  0.29258147433E+02 -0.26464326756E+01  0.24085169653E+02  0.37988658763E+02  0.51100000000E-03 0.  1.
         22    1    1    0    0    0  0.26946895576E+02 -0.30150893405E+01 -0.72867399106E+01  0.28077081819E+02  0.00000000000E+00 0. -1.
</event>
<event>
 5    1  0.8962567E-005  0.9118800E+02  0.7818608E-02  0.1130116E+00
         25   -1    0    0    0    0  0.00000000000E+00  0.00000000000E+00  0.99999998245E-14  0.12500000000E+03  0.12500000000E+03 0.  0.
        -11    1    3    3    0    0  0.19628175611E+02 -0.53426181974E+02 -0.72905729541E+01  0.57382703425E+02  0.51100000000E-03 0. -1.
         23    2    1    0    0    0  0.21235740813E+02 -0.21997706440E+02  0.94102397099E+01  0.93009245275E+02  0.87334479552E+02 0.  0.
         11    1    3    3    0    0  0.16075652019E+01  0.31428475534E+02  0.16700812664E+02  0.35626541849E+02  0.51100000000E-03 0.  1.
         22    1    1    0    0    0 -0.21235740813E+02  0.21997706440E+02 -0.94102397099E+01  0.31990754725E+02  0.00000000000E+00 0. -1.
</event>
<event>
 5    1  0.8962567E-005  0.9118800E+02  0.7818608E-02  0.1130116E+00
         25   -1    0    0    0    0  0.00000000000E+00  0.00000000000E+00  0.99999998245E-14  0.12500000000E+03  0.12500000000E+03 0.  0.
        -11    1    3    3    0    0 -0.42144550761E+02 -0.21804199152E+02 -0.62244285386E+01  0.47857389924E+02  0.51100000000E-03 0. -1.
         23    2    1    0    0    0 -0.25855308676E+02  0.11358612182E+02 -0.23137269981E+02  0.88491804761E+02  0.80609870303E+02 0.  0.
         11    1    3    3    0    0  0.16289242085E+02  0.33162811334E+02 -0.16912841442E+02  0.40634414837E+02  0.51100000000E-03 0.  1.
         22    1    1    0    0    0  0.25855308676E+02 -0.11358612182E+02  0.23137269981E+02  0.36508195239E+02  0.00000000000E+00 0. -1.
</event>
<event>
 5    1  0.8962567E-005  0.9118800E+02  0.7818608E-02  0.1130116E+00
         25   -1    0    0    0    0  0.00000000000E+00  0.00000000000E+00  0.99999998245E-14  0.12500000000E+03  0.12500000000E+03 0.  0.
        -11    1    3    3    0    0  0.75291387403E+01 -0.29282510061E+02 -0.39804460930E+02  0.49985482250E+02  0.51100000000E-03 0. -1.
         23    2    1    0    0    0 -0.23653636770E+02 -0.53981051002E+01 -0.16532778002E+02  0.95640728558E+02  0.91022975888E+02 0.  0.
         11    1    3    3    0    0 -0.31182775511E+02  0.23884404960E+02  0.23271682928E+02  0.45655246308E+02  0.51100000000E-03 0.  1.
         22    1    1    0    0    0  0.23653636770E+02  0.53981051002E+01  0.16532778002E+02  0.29359271442E+02  0.00000000000E+00 0. -1.
</event>
<event>
 5    1  0.8962567E-005  0.9118800E+02  0.7818608E-02  0.1130116E+00
         25   -1    0    0    0    0  0.00000000000E+00  0.00000000000E+00  0.99999998245E-14  0.12500000000E+03  0.12500000000E+03 0.  0.
        -11    1    3    3    0    0 -0.19798388937E+02 -0.22728156364E+02 -0.13788967920E+02  0.33146356252E+02  0.51100000000E-03 0. -1.
         23    2    1    0    0    0 -0.40336060555E+00  0.32173549906E+02 -0.75044645918E+00  0.92815171537E+02  0.87056262751E+02 0.  0.
         11    1    3    3    0    0  0.19395028332E+02  0.54901706270E+02  0.13038521461E+02  0.59668815285E+02  0.51100000000E-03 0.  1.
         22    1    1    0    0    0  0.40336060555E+00 -0.32173549906E+02  0.75044645918E+00  0.32184828463E+02  0.00000000000E+00 0.  1.
</event>
<event>
 5    1  0.8962567E-005  0.9118800E+02  0.7818608E-02  0.1130116E+00
         25   -1    0    0    0    0  0.00000000000E+00  0.00000000000E+00  0.99999998245E-14  0.12500000000E+03  0.12500000000E+03 0.  0.
        -11    1    3    3    0    0 -0.37883986819E+02 -0.10403004035E+02 -0.71178266341E+01  0.39925961560E+02  0.51100000000E-03 0.  1.
         23    2    1    0    0    0 -0.11759107558E+01  0.30090991384E+02 -0.20408274206E+01  0.94816966602E+02  0.89884601854E+02 0.  0.
         11    1    3    3    0    0  0.36708076063E+02  0.40493995419E+02  0.50769992136E+01  0.54891005042E+02  0.51100000000E-03 0. -1.
         22    1    1    0    0    0  0.11759107558E+01 -0.30090991384E+02  0.20408274206E+01  0.30183033398E+02  0.00000000000E+00 0. -1.
</event>
<event>
 5    1  0.8962567E-005  0.9118800E+02  0.7818608E-02  0.1130116E+00
         25   -1    0    0    0    0  0.00000000000E+00  0.00000000000E+00  0.99999998245E-14  0.12500000000E+03  0.12500000000E+03 0.  0.
        -11    1    3    3    0    0 -0.22502498367E+02 -0.96319841505E+00  0.39369175062E+02  0.45356610645E+02  0.51100000000E-03 0.  1.
         23    2    1    0    0    0 -0.31311119108E+02 -0.13158295977E+02 -0.35647345822E+01  0.90849827739E+02  0.84187035431E+02 0.  0.
         11    1    3    3    0    0 -0.88086207414E+01 -0.12195097562E+02 -0.42933909644E+02  0.45493217093E+02  0.51100000000E-03 0. -1.
         22    1    1    0    0    0  0.31311119108E+02  0.13158295977E+02  0.35647345822E+01  0.34150172261E+02  0.00000000000E+00 0. -1.
</event>
<event>
 5    1  0.8962567E-005  0.9118800E+02  0.7818608E-02  0.1130116E+00
         25   -1    0    0    0    0  0.00000000000E+00  0.00000000000E+00  0.99999998245E-14  0.12500000000E+03  0.12500000000E+03 0.  0.
        -11    1    3    3    0    0  0.60997509590E+01 -0.45656907163E+02 -0.38139133215E+02  0.59802622151E+02  0.51100000000E-03 0. -1.
         23    2    1    0    0    0 -0.64438402121E+01 -0.31919697136E+02 -0.16005330197E+02  0.88715557925E+02  0.80956096011E+02 0.  0.
         11    1    3    3    0    0 -0.12543591171E+02  0.13737210026E+02  0.22133803019E+02  0.28912935775E+02  0.51100000000E-03 0.  1.
         22    1    1    0    0    0  0.64438402121E+01  0.31919697136E+02  0.16005330197E+02  0.36284442075E+02  0.00000000000E+00 0. -1.
</event>
<event>
 5    1  0.8962567E-005  0.9118800E+02  0.7818608E-02  0.1130116E+00
         25   -1    0    0    0    0  0.00000000000E+00  0.00000000000E+00  0.99999998245E-14  0.12500000000E+03  0.12500000000E+03 0.  0.
        -11    1    3    3    0    0 -0.29178662635E+01  0.26265602769E+02 -0.51691255364E+02  0.58054988707E+02  0.51100000000E-03 0.  1.
         23    2    1    0    0    0 -0.14067141580E+02  0.11635842668E+01 -0.24623607821E+02  0.96617602943E+02  0.92354754809E+02 0.  0.
         11    1    3    3    0    0 -0.11149275316E+02 -0.25102018502E+02  0.27067647543E+02  0.38562614236E+02  0.51100000000E-03 0. -1.
         22    1    1    0    0    0  0.14067141580E+02 -0.11635842668E+01  0.24623607821E+02  0.28382397057E+02  0.00000000000E+00 0.  1.
</event>
<event>
 5    1  0.8962567E-005  0.9118800E+02  0.7818608E-02  0.1130116E+00
         25   -1    0    0    0    0  0.00000000000E+00  0.00000000000E+00  0.99999998245E-14  0.12500000000E+03  0.12500000000E+03 0.  0.
        -11    1    3    3    0    0  0.28623673394E+01  0.26034173816E+02 -0.52675086443E+01  0.26715501130E+02  0.51100000000E-03 0. -1.
         23    2    1    0    0    0 -0.21589057958E+02 -0.26298008485E+02  0.14842784042E+02  0.87878834718E+02  0.79653679636E+02 0.  0.
         11    1    3    3    0    0 -0.24451425297E+02 -0.52332182301E+02  0.20110292686E+02  0.61163333588E+02  0.51100000000E-03 0.  1.
         22    1    1    0    0    0  0.21589057958E+02  0.26298008485E+02 -0.14842784042E+02  0.37121165282E+02  0.00000000000E+00 0.  1.
</event>
<event>
 5    1  0.8962567E-005  0.9118800E+02  0.7818608E-02  0.1130116E+00
         25   -1    0    0    0    0  0.00000000000E+00  0.00000000000E+00  0.99999998245E-14  0.12500000000E+03  0.12500000000E+03 0.  0.
        -11    1    3    3    0    0  0.41296457858E+02  0.14762944980E+02 -0.48034822022E+01  0.44118198259E+02  0.51100000000E-03 0.  1.
         23    2    1    0    0    0  0.17623585927E+02 -0.17360289563E+02  0.21758909972E+02  0.92054278004E+02  0.85956788568E+02 0.  0.
         11    1    3    3    0    0 -0.23672871931E+02 -0.32123234544E+02  0.26562392175E+02  0.47936079745E+02  0.51100000000E-03 0. -1.
         22    1    1    0    0    0 -0.17623585927E+02  0.17360289563E+02 -0.21758909972E+02  0.32945721996E+02  0.00000000000E+00 0. -1.
</event>
<event>
 5    1  0.8962567E-005  0.9118800E+02  0.7818608E-02  0.1130116E+00
         25   -1    0    0    0    0  0.00000000000E+00  0.00000000000E+00  0.99999998245E-14  0.12500000000E+03  0.12500000000E+03 0.  0.
        -11    1    3    3    0    0  0.13584627240E+02 -0.34689907436E+02  0.22728107643E+02  0.43640562010E+02  0.51100000000E-03 0.  1.
         23    2    1    0    0    0  0.21273942452E+02 -0.10548157626E+02 -0.20422843994E+02  0.93680089184E+02  0.88289423466E+02 0.  0.
         11    1    3    3    0    0  0.76893152114E+01  0.24141749810E+02 -0.43150951637E+02  0.50039527174E+02  0.51100000000E-03 0. -1.
         22    1    1    0    0    0 -0.21273942452E+02  0.10548157626E+02  0.20422843994E+02  0.31319910816E+02  0.00000000000E+00 0. -1.
</event>
<event>
 5    1  0.8962567E-005  0.9118800E+02  0.7818608E-02  0.1130116E+00
         25   -1    0    0    0    0  0.00000000000E+00  0.00000000000E+00  0.99999998245E-14  0.12500000000E+03  0.12500000000E+03 0.  0.
        -11    1    3    3    0    0  0.40197307989E+02 -0.45741621529E+01 -0.35813418261E+02  0.54030986080E+02  0.51100000000E-03 0.  1.
         23    2    1    0    0    0  0.27221730109E+02 -0.40789632592E+01  0.51442980211E+01  0.96997779847E+02  0.92867889831E+02 0.  0.
         11    1    3    3    0    0 -0.12975577880E+02  0.49519889376E+00  0.40957716282E+02  0.42966793767E+02  0.51100000000E-03 0. -1.
         22    1    1    0    0    0 -0.27221730109E+02  0.40789632592E+01 -0.51442980211E+01  0.28002220153E+02  0.00000000000E+00 0.  1.
</event>
<event>
 5    1  0.8962567E-005  0.9118800E+02  0.7818608E-02  0.1130116E+00
         25   -1    0    0    0    0  0.00000000000E+00  0.00000000000E+00  0.99999998245E-14  0.12500000000E+03  0.12500000000E+03 0.  0.
        -11    1    3    3    0    0 -0.23253698772E+02  0.23601269772E+02 -0.19948066807E+02  0.38674019846E+02  0.51100000000E-03 0.  1.
         23    2    1    0    0    0 -0.10856097265E+02 -0.16928245628E+02  0.19799159494E+02  0.96778960605E+02  0.92572891017E+02 0.  0.
         11    1    3    3    0    0  0.12397601507E+02 -0.40529515400E+02  0.39747226301E+02  0.58104940759E+02  0.51100000000E-03 0. -1.
         22    1    1    0    0    0  0.10856097265E+02  0.16928245628E+02 -0.19799159494E+02  0.28221039395E+02  0.00000000000E+00 0. -1.
</event>
<event>
 5    1  0.8962567E-005  0.9118800E+02  0.7818608E-02  0.1130116E+00
         25   -1    0    0    0    0  0.00000000000E+00  0.00000000000E+00  0.99999998245E-14  0.12500000000E+03  0.12500000000E+03 0.  0.
        -11    1    3    3    0    0  0.26176591564E+02  0.24400317943E+02  0.10750917315E+02  0.37365380836E+02  0.51100000000E-03 0.  1.
         23    2    1    0    0    0 -0.26935500588E+02  0.55934099136E+01 -0.73141995244E+01  0.96534144294E+02  0.92241726314E+02 0.  0.
         11    1    3    3    0    0 -0.53112092152E+02 -0.18806908030E+02 -0.18065116840E+02  0.59168763458E+02  0.51100000000E-03 0. -1.
         22    1    1    0    0    0  0.26935500588E+02 -0.55934099136E+01  0.73141995244E+01  0.28465855706E+02  0.00000000000E+00 0. -1.
</event>
<event>
 5    1  0.8962567E-005  0.9118800E+02  0.7818608E-02  0.1130116E+00
         25   -1    0    0    0    0  0.00000000000E+00  0.00000000000E+00  0.99999998245E-14  0.12500000000E+03  0.12500000000E+03 0.  0.
        -11    1    3    3    0    0 -0.27330669554E+02 -0.29637807224E+02  0.63877654090E+01  0.40818729310E+02  0.51100000000E-03 0.  1.
         23    2    1    0    0    0  0.48312675626E+00  0.17468676350E+02 -0.17279854307E+02  0.10042396635E+03  0.97370383530E+02 0.  0.
         11    1    3    3    0    0  0.27813796310E+02  0.47106483574E+02 -0.23667619716E+02  0.59605237045E+02  0.51100000000E-03 0. -1.
         22    1    1    0    0    0 -0.48312675626E+00 -0.17468676350E+02  0.17279854307E+02  0.24576033645E+02  0.00000000000E+00 0. -1.
</event>
<event>
 5    1  0.8962567E-005  0.9118800E+02  0.7818608E-02  0.1130116E+00
         25   -1    0    0    0    0  0.00000000000E+00  0.00000000000E+00  0.99999998245E-14  0.12500000000E+03  0.12500000000E+03 0.  0.
        -11    1    3    3    0    0 -0.20783867381E+02  0.40987318756E+02 -0.15575847705E+02  0.48523566173E+02  0.51100000000E-03 0.  1.
         23    2    1    0    0    0  0.19883552960E+02  0.21302742410E+02 -0.16043347475E+01  0.95815476662E+02  0.91262638388E+02 0.  0.
         11    1    3    3    0    0  0.40667420341E+02 -0.19684576347E+02  0.13971512958E+02  0.47291910489E+02  0.51100000000E-03 0. -1.
         22    1    1    0    0    0 -0.19883552960E+02 -0.21302742410E+02  0.16043347475E+01  0.29184523338E+02  0.00000000000E+00 0. -1.
</event>
<event>
 5    1  0.8962567E-005  0.9118800E+02  0.7818608E-02  0.1130116E+00
         25   -1    0    0    0    0  0.00000000000E+00  0.00000000000E+00  0.99999998245E-14  0.12500000000E+03  0.12500000000E+03 0.  0.
        -11    1    3    3    0    0 -0.62981309951E+01  0.32814641123E+02  0.22530081475E+02  0.40299772922E+02  0.51100000000E-03 0.  1.
         23    2    1    0    0    0  0.27737158066E+02 -0.56051814823E+01  0.17156466094E+02  0.91907518590E+02  0.85743102624E+02 0.  0.
         11    1    3    3    0    0  0.34035289061E+02 -0.38419822605E+02 -0.53736153812E+01  0.51607745668E+02  0.51100000000E-03 0. -1.
         22    1    1    0    0    0 -0.27737158066E+02  0.56051814823E+01 -0.17156466094E+02  0.33092481410E+02  0.00000000000E+00 0. -1.
</event>
<event>
 5    1  0.8962567E-005  0.9118800E+02  0.7818608E-02  0.1130116E+00
         25   -1    0    0    0    0  0.00000000000E+00  0.00000000000E+00  0.99999998245E-14  0.12500000000E+03  0.12500000000E+03 0.  0.
        -11    1    3    3    0    0  0.32406433270E+02  0.19030717335E+02  0.18969472846E+02  0.42097339820E+02  0.51100000000E-03 0.  1.
         23    2    1    0    0    0  0.69250811618E+01  0.76411110038E+01 -0.27123516143E+02  0.95982273445E+02  0.91490810256E+02 0.  0.
         11    1    3    3    0    0 -0.25481352108E+02 -0.11389606332E+02 -0.46092988989E+02  0.53884933625E+02  0.51100000000E-03 0. -1.
         22    1    1    0    0    0 -0.69250811618E+01 -0.76411110038E+01  0.27123516143E+02  0.29017726555E+02  0.00000000000E+00 0. -1.
</event>
<event>
 5    1  0.8962567E-005  0.9118800E+02  0.7818608E-02  0.1130116E+00
         25   -1    0    0    0    0  0.00000000000E+00  0.00000000000E+00  0.99999998245E-14  0.12500000000E+03  0.12500000000E+03 0.  0.
        -11    1    3    3    0    0 -0.28205804008E+02  0.41348432863E+02 -0.16026841933E+02  0.52555874482E+02  0.51100000000E-03 0.  1.
         23    2    1    0    0    0  0.70450494978E+01  0.27422296552E+02  0.55196594972E+01  0.96154173411E+02  0.91725369189E+02 0.  0.
         11    1    3    3    0    0  0.35250853506E+02 -0.13926136310E+02  0.21546501430E+02  0.43598298930E+02  0.51100000000E-03 0. -1.
         22    1    1    0    0    0 -0.70450494978E+01 -0.27422296552E+02 -0.55196594972E+01  0.28845826589E+02  0.00000000000E+00 0.  1.
</event>
<event>
 5    1  0.8962567E-005  0.9118800E+02  0.7818608E-02  0.1130116E+00
         25   -1    0    0    0    0  0.00000000000E+00  0.00000000000E+00  0.99999998245E-14  0.12500000000E+03  0.12500000000E+03 0.  0.
        -11    1    3    3    0    0  0.10203130080E+02 -0.31035953739E+00  0.33447333520E+02  0.34970334661E+02  0.51100000000E-03 0.  1.
         23    2    1    0    0    0  0.11255040246E+02 -0.11016615164E+02 -0.25574779135E+02  0.94964836135E+02  0.90090005182E+02 0.  0.
         11    1    3    3    0    0  0.10519101662E+01 -0.10706255626E+02 -0.59022112655E+02  0.59994501473E+02  0.51100000000E-03 0. -1.
         22    1    1    0    0    0 -0.11255040246E+02  0.11016615164E+02  0.25574779135E+02  0.30035163865E+02  0.00000000000E+00 0. -1.
</event>
<event>
 5    1  0.8962567E-005  0.9118800E+02  0.7818608E-02  0.1130116E+00
         25   -1    0    0    0    0  0.00000000000E+00  0.00000000000E+00  0.99999998245E-14  0.12500000000E+03  0.12500000000E+03 0.  0.
        -11    1    3    3    0    0 -0.25774241989E+02  0.13979935922E+02 -0.41368799328E+02  0.50706288728E+02  0.51100000000E-03 0.  1.
         23    2    1    0    0    0 -0.31173009088E+02  0.13284695277E+01 -0.53556227278E+00  0.93794100657E+02  0.88450693407E+02 0.  0.
         11    1    3    3    0    0 -0.53987670983E+01 -0.12651466394E+02  0.40833237055E+02  0.43087811928E+02  0.51100000000E-03 0. -1.
         22    1    1    0    0    0  0.31173009088E+02 -0.13284695277E+01  0.53556227278E+00  0.31205899343E+02  0.00000000000E+00 0.  1.
</event>
<event>
 5    1  0.8962567E-005  0.9118800E+02  0.7818608E-02  0.1130116E+00
         25   -1    0    0    0    0  0.00000000000E+00  0.00000000000E+00  0.99999998245E-14  0.12500000000E+03  0.12500000000E+03 0.  0.
        -11    1    3    3    0    0 -0.39359333722E+02 -0.32485362633E+02  0.33693713523E+02  0.61153268659E+02  0.51100000000E-03 0. -1.
         23    2    1    0    0    0 -0.12456021076E+02 -0.19005171019E+02  0.21801228368E+02  0.93509643621E+02  0.88047776266E+02 0.  0.
         11    1    3    3    0    0  0.26903312646E+02  0.13480191614E+02 -0.11892485156E+02  0.32356374962E+02  0.51100000000E-03 0.  1.
         22    1    1    0    0    0  0.12456021076E+02  0.19005171019E+02 -0.21801228368E+02  0.31490356379E+02  0.00000000000E+00 0. -1.
</event>
<event>
 5    1  0.8962567E-005  0.9118800E+02  0.7818608E-02  0.1130116E+00
         25   -1    0    0    0    0  0.00000000000E+00  0.00000000000E+00  0.99999998245E-14  0.12500000000E+03  0.12500000000E+03 0.  0.
        -11    1    3    3    0    0 -0.12487867794E+02 -0.33803387322E+02  0.13631243694E+02  0.38528257700E+02  0.51100000000E-03 0.  1.
         23    2    1    0    0    0  0.19760595874E+02  0.14999132206E+02  0.12923265927E+02  0.97027407727E+02  0.92907760342E+02 0.  0.
         11    1    3    3    0    0  0.32248463668E+02  0.48802519528E+02 -0.70797776728E+00  0.58499150028E+02  0.51100000000E-03 0. -1.
         22    1    1    0    0    0 -0.19760595874E+02 -0.14999132206E+02 -0.12923265927E+02  0.27972592273E+02  0.00000000000E+00 0. -1.
</event>
<event>
 5    1  0.8962567E-005  0.9118800E+02  0.7818608E-02  0.1130116E+00
         25   -1    0    0    0    0  0.00000000000E+00  0.00000000000E+00  0.99999998245E-14  0.12500000000E+03  0.12500000000E+03 0.  0.
        -11    1    3    3    0    0  0.20325285842E+02  0.35588330413E+02  0.79166200306E+01  0.41741099400E+02  0.51100000000E-03 0.  1.
         23    2    1    0    0    0  0.21357069471E+02 -0.17636105650E+02 -0.57721601373E+01  0.96707342445E+02  0.92476135361E+02 0.  0.
         11    1    3    3    0    0  0.10317836282E+01 -0.53224436063E+02 -0.13688780168E+02  0.54966243045E+02  0.51100000000E-03 0. -1.
         22    1    1    0    0    0 -0.21357069471E+02  0.17636105650E+02  0.57721601373E+01  0.28292657555E+02  0.00000000000E+00 0. -1.
</event>
<event>
 5    1  0.8962567E-005  0.9118800E+02  0.7818608E-02  0.1130116E+00
         25   -1    0    0    0    0  0.00000000000E+00  0.00000000000E+00  0.99999998245E-14  0.12500000000E+03  0.12500000000E+03 0.  0.
        -11    1    3    3    0    0 -0.17348250537E+01  0.10039517262E+02 -0.35382138058E+02  0.36819793843E+02  0.51100000000E-03 0.  1.
         23    2    1    0    0    0  0.17624428757E+02  0.12210943601E+02  0.20092652116E+02  0.95615611258E+02  0.90988476274E+02 0.  0.
         11    1    3    3    0    0  0.19359253811E+02  0.21714263389E+01  0.55474790174E+02  0.58795817416E+02  0.51100000000E-03 0. -1.
         22    1    1    0    0    0 -0.17624428757E+02 -0.12210943601E+02 -0.20092652116E+02  0.29384388742E+02  0.00000000000E+00 0. -1.
</event>
<event>
 5    1  0.8962567E-005  0.9118800E+02  0.7818608E-02  0.1130116E+00
         25   -1    0    0    0    0  0.00000000000E+00  0.00000000000E+00  0.99999998245E-14  0.12500000000E+03  0.12500000000E+03 0.  0.
        -11    1    3    3    0    0  0.38436967705E+02  0.20357799422E+02  0.24069632226E+02  0.49711041826E+02  0.51100000000E-03 0. -1.
         23    2    1    0    0    0 -0.69126564208E+01  0.23484447733E+02  0.15658214269E+02  0.95939996934E+02  0.91433031413E+02 0.  0.
         11    1    3    3    0    0 -0.45349624126E+02  0.31266483113E+01 -0.84114179574E+01  0.46228955108E+02  0.51100000000E-03 0.  1.
         22    1    1    0    0    0  0.69126564208E+01 -0.23484447733E+02 -0.15658214269E+02  0.29060003066E+02  0.00000000000E+00 0. -1.
</event>
<event>
 5    1  0.8962567E-005  0.9118800E+02  0.7818608E-02  0.1130116E+00
         25   -1    0    0    0    0  0.00000000000E+00  0.00000000000E+00  0.99999998245E-14  0.12500000000E+03  0.12500000000E+03 0.  0.
        -11    1    3    3    0    0  0.81218571690E+01 -0.42551565982E+02  0.16276645376E+01  0.43350312842E+02  0.51100000000E-03 0.  1.
         23    2    1    0    0    0 -0.20830856114E+02 -0.34596877590E+01 -0.19379976527E+02  0.96338571285E+02  0.91976316632E+02 0.  0.
         11    1    3    3    0    0 -0.28952713283E+02  0.39091878223E+02 -0.21007641064E+02  0.52988258443E+02  0.51100000000E-03 0. -1.
         22    1    1    0    0    0  0.20830856114E+02  0.34596877590E+01  0.19379976527E+02  0.28661428715E+02  0.00000000000E+00 0. -1.
</event>
<event>
 5    1  0.8962567E-005  0.9118800E+02  0.7818608E-02  0.1130116E+00
         25   -1    0    0    0    0  0.00000000000E+00  0.00000000000E+00  0.99999998245E-14  0.12500000000E+03  0.12500000000E+03 0.  0.
        -11    1    3    3    0    0 -0.36949624914E+01  0.10204861858E+02 -0.28220954892E+02  0.30235976066E+02  0.51100000000E-03 0. -1.
         23    2    1    0    0    0 -0.21153611202E+02 -0.11277006296E+02  0.25086086235E+02  0.90301904080E+02  0.83369514932E+02 0.  0.
         11    1    3    3    0    0 -0.17458648710E+02 -0.21481868154E+02  0.53307041127E+02  0.60065928014E+02  0.51100000000E-03 0.  1.
         22    1    1    0    0    0  0.21153611202E+02  0.11277006296E+02 -0.25086086235E+02  0.34698095920E+02  0.00000000000E+00 0.  1.
</event>
<event>
 5    1  0.8962567E-005  0.9118800E+02  0.7818608E-02  0.1130116E+00
         25   -1    0    0    0    0  0.00000000000E+00  0.00000000000E+00  0.99999998245E-14  0.12500000000E+03  0.12500000000E+03 0.  0.
        -11    1    3    3    0    0 -0.43564908015E+00 -0.37113988022E+02  0.85399703924E-02  0.37116545774E+02  0.51100000000E-03 0. -1.
         23    2    1    0    0    0  0.98063323155E+01  0.14582708990E+02  0.24189703869E+02  0.95100813921E+02  0.90278477392E+02 0.  0.
         11    1    3    3    0    0  0.10241981396E+02  0.51696697011E+02  0.24181163898E+02  0.57984268147E+02  0.51100000000E-03 0.  1.
         22    1    1    0    0    0 -0.98063323155E+01 -0.14582708990E+02 -0.24189703869E+02  0.29899186079E+02  0.00000000000E+00 0.  1.
</event>
<event>
 5    1  0.8962567E-005  0.9118800E+02  0.7818608E-02  0.1130116E+00
         25   -1    0    0    0    0  0.00000000000E+00  0.00000000000E+00  0.99999998245E-14  0.12500000000E+03  0.12500000000E+03 0.  0.
        -11    1    3    3    0    0  0.94592157899E+01  0.10854333932E+02 -0.27417519405E+02  0.30967946317E+02  0.51100000000E-03 0. -1.
         23    2    1    0    0    0  0.20417016889E+02  0.12630969062E+02  0.28361736839E+02  0.87841096967E+02  0.79594435997E+02 0.  0.
         11    1    3    3    0    0  0.10957801100E+02  0.17766351293E+01  0.55779256245E+02  0.56873150650E+02  0.51100000000E-03 0.  1.
         22    1    1    0    0    0 -0.20417016889E+02 -0.12630969062E+02 -0.28361736839E+02  0.37158903033E+02  0.00000000000E+00 0.  1.
</event>
<event>
 5    1  0.8962567E-005  0.9118800E+02  0.7818608E-02  0.1130116E+00
         25   -1    0    0    0    0  0.00000000000E+00  0.00000000000E+00  0.99999998245E-14  0.12500000000E+03  0.12500000000E+03 0.  0.
        -11    1    3    3    0    0  0.21335119257E+01 -0.25709145234E+01  0.33979376896E+02  0.34143220837E+02  0.51100000000E-03 0.  1.
         23    2    1    0    0    0 -0.11462596781E+01 -0.27157507907E+02 -0.18452765505E+02  0.92146557231E+02  0.86090878192E+02 0.  0.
         11    1    3    3    0    0 -0.32797716038E+01 -0.24586593384E+02 -0.52432142400E+02  0.58003336395E+02  0.51100000000E-03 0. -1.
         22    1    1    0    0    0  0.11462596781E+01  0.27157507907E+02  0.18452765505E+02  0.32853442769E+02  0.00000000000E+00 0.  1.
</event>
<event>
 5    1  0.8962567E-005  0.9118800E+02  0.7818608E-02  0.1130116E+00
         25   -1    0    0    0    0  0.00000000000E+00  0.00000000000E+00  0.99999998245E-14  0.12500000000E+03  0.12500000000E+03 0.  0.
        -11    1    3    3    0    0 -0.15137473204E+02 -0.58180404343E+01  0.42488754356E+02  0.45478422757E+02  0.51100000000E-03 0.  1.
         23    2    1    0    0    0 -0.46745115131E+01 -0.27919746511E+02 -0.23943363463E+01  0.96590562314E+02  0.92318148695E+02 0.  0.
         11    1    3    3    0    0  0.10462961690E+02 -0.22101706076E+02 -0.44883090702E+02  0.51112139557E+02  0.51100000000E-03 0. -1.
         22    1    1    0    0    0  0.46745115131E+01  0.27919746511E+02  0.23943363463E+01  0.28409437686E+02  0.00000000000E+00 0.  1.
</event>
<event>
 5    1  0.8962567E-005  0.9118800E+02  0.7818608E-02  0.1130116E+00
         25   -1    0    0    0    0  0.00000000000E+00  0.00000000000E+00  0.99999998245E-14  0.12500000000E+03  0.12500000000E+03 0.  0.
        -11    1    3    3    0    0  0.31403984970E+00 -0.25088508046E+02 -0.27324137340E+02  0.37096365572E+02  0.51100000000E-03 0. -1.
         23    2    1    0    0    0 -0.18163054569E+02  0.23001881522E+02  0.57996539569E+00  0.95685848730E+02  0.91084917425E+02 0.  0.
         11    1    3    3    0    0 -0.18477094419E+02  0.48090389568E+02  0.27904102735E+02  0.58589483158E+02  0.51100000000E-03 0.  1.
         22    1    1    0    0    0  0.18163054569E+02 -0.23001881522E+02 -0.57996539569E+00  0.29314151270E+02  0.00000000000E+00 0.  1.
</event>
<event>
 5    1  0.8962567E-005  0.9118800E+02  0.7818608E-02  0.1130116E+00
         25   -1    0    0    0    0  0.00000000000E+00  0.00000000000E+00  0.99999998245E-14  0.12500000000E+03  0.12500000000E+03 0.  0.
        -11    1    3    3    0    0  0.23388644244E+02 -0.48625500527E+02 -0.13928814050E+02  0.55726832335E+02  0.51100000000E-03 0. -1.
         23    2    1    0    0    0 -0.98810484279E+01 -0.25460275448E+02 -0.61226860068E+01  0.97011644781E+02  0.92886550131E+02 0.  0.
         11    1    3    3    0    0 -0.33269692671E+02  0.23165225079E+02  0.78061280432E+01  0.41284812446E+02  0.51100000000E-03 0.  1.
         22    1    1    0    0    0  0.98810484279E+01  0.25460275448E+02  0.61226860068E+01  0.27988355219E+02  0.00000000000E+00 0. -1.
</event>
<event>
 5    1  0.8962567E-005  0.9118800E+02  0.7818608E-02  0.1130116E+00
         25   -1    0    0    0    0  0.00000000000E+00  0.00000000000E+00  0.99999998245E-14  0.12500000000E+03  0.12500000000E+03 0.  0.
        -11    1    3    3    0    0 -0.33850061902E+02 -0.95871707609E+01 -0.25278734036E+02  0.43321529621E+02  0.51100000000E-03 0. -1.
         23    2    1    0    0    0 -0.10016731912E+02 -0.19724939826E+02  0.19799941946E+02  0.95310845913E+02  0.90568821778E+02 0.  0.
         11    1    3    3    0    0  0.23833329990E+02 -0.10137769065E+02  0.45078675982E+02  0.51989316292E+02  0.51100000000E-03 0.  1.
         22    1    1    0    0    0  0.10016731912E+02  0.19724939826E+02 -0.19799941946E+02  0.29689154087E+02  0.00000000000E+00 0. -1.
</event>
<event>
 5    1  0.8962567E-005  0.9118800E+02  0.7818608E-02  0.1130116E+00
         25   -1    0    0    0    0  0.00000000000E+00  0.00000000000E+00  0.99999998245E-14  0.12500000000E+03  0.12500000000E+03 0.  0.
        -11    1    3    3    0    0 -0.23854311526E+02  0.28356190653E+02 -0.41849873587E+02  0.55897349188E+02  0.51100000000E-03 0. -1.
         23    2    1    0    0    0 -0.34431490569E-01  0.26802700525E+02 -0.85548562527E+01  0.96865119399E+02  0.92689157131E+02 0.  0.
         11    1    3    3    0    0  0.23819880035E+02 -0.15534901286E+01  0.33295017334E+02  0.40967770211E+02  0.51100000000E-03 0.  1.
         22    1    1    0    0    0  0.34431490569E-01 -0.26802700525E+02  0.85548562527E+01  0.28134880601E+02  0.00000000000E+00 0. -1.
</event>
<event>
 5    1  0.8962567E-005  0.9118800E+02  0.7818608E-02  0.1130116E+00
         25   -1    0    0    0    0  0.00000000000E+00  0.00000000000E+00  0.99999998245E-14  0.12500000000E+03  0.12500000000E+03 0.  0.
        -11    1    3    3    0    0  0.21350999099E+00  0.30812584236E+02  0.17882758112E+02  0.35626590796E+02  0.51100000000E-03 0.  1.
         23    2    1    0    0    0 -0.72618585182E+00 -0.49519466829E+01 -0.29544402170E+02  0.95034673013E+02  0.90186851887E+02 0.  0.
         11    1    3    3    0    0 -0.93969584282E+00 -0.35764530918E+02 -0.47427160282E+02  0.59408082217E+02  0.51100000000E-03 0. -1.
         22    1    1    0    0    0  0.72618585182E+00  0.49519466829E+01  0.29544402170E+02  0.29965326987E+02  0.00000000000E+00 0. -1.
</event>
<event>
 5    1  0.8962567E-005  0.9118800E+02  0.7818608E-02  0.1130116E+00
         25   -1    0    0    0    0  0.00000000000E+00  0.00000000000E+00  0.99999998245E-14  0.12500000000E+03  0.12500000000E+03 0.  0.
        -11    1    3    3    0    0 -0.32663004266E+02 -0.12476507865E+02  0.91466931507E+00  0.34976731071E+02  0.51100000000E-03 0.  1.
         23    2    1    0    0    0  0.25086653199E+02  0.10504276484E+02  0.53226323693E+01  0.97286999287E+02  0.93256366119E+02 0.  0.
         11    1    3    3    0    0  0.57749657465E+02  0.22980784349E+02  0.44079630543E+01  0.62310268216E+02  0.51100000000E-03 0. -1.
         22    1    1    0    0    0 -0.25086653199E+02 -0.10504276484E+02 -0.53226323693E+01  0.27713000713E+02  0.00000000000E+00 0. -1.
</event>
<event>
 5    1  0.8962567E-005  0.9118800E+02  0.7818608E-02  0.1130116E+00
         25   -1    0    0    0    0  0.00000000000E+00  0.00000000000E+00  0.99999998245E-14  0.12500000000E+03  0.12500000000E+03 0.  0.
        -11    1    3    3    0    0 -0.97810517490E+01  0.80505930338E+01 -0.39641417404E+02  0.41616378934E+02  0.51100000000E-03 0.  1.
         23    2    1    0    0    0 -0.20157814455E+01 -0.29386289619E+02 -0.16770031798E+01  0.95496953851E+02  0.90825318401E+02 0.  0.
         11    1    3    3    0    0  0.77652703035E+01 -0.37436882653E+02  0.37964414224E+02  0.53880574917E+02  0.51100000000E-03 0. -1.
         22    1    1    0    0    0  0.20157814455E+01  0.29386289619E+02  0.16770031798E+01  0.29503046149E+02  0.00000000000E+00 0. -1.
</event>
<event>
 5    1  0.8962567E-005  0.9118800E+02  0.7818608E-02  0.1130116E+00
         25   -1    0    0    0    0  0.00000000000E+00  0.00000000000E+00  0.99999998245E-14  0.12500000000E+03  0.12500000000E+03 0.  0.
        -11    1    3    3    0    0 -0.34186358524E+02 -0.16681105926E+02 -0.40829168297E+02  0.55803112710E+02  0.51100000000E-03 0.  1.
         23    2    1    0    0    0 -0.27764557691E+02  0.45268228702E+01 -0.73960708718E+01  0.95912809462E+02  0.91395855297E+02 0.  0.
         11    1    3    3    0    0  0.64218008331E+01  0.21207928796E+02  0.33433097425E+02  0.40109696751E+02  0.51100000000E-03 0. -1.
         22    1    1    0    0    0  0.27764557691E+02 -0.45268228702E+01  0.73960708718E+01  0.29087190538E+02  0.00000000000E+00 0.  1.
</event>
<event>
 5    1  0.8962567E-005  0.9118800E+02  0.7818608E-02  0.1130116E+00
         25   -1    0    0    0    0  0.00000000000E+00  0.00000000000E+00  0.99999998245E-14  0.12500000000E+03  0.12500000000E+03 0.  0.
        -11    1    3    3    0    0 -0.94582213413E+01 -0.10741854339E+02  0.35339866163E+02  0.38128093662E+02  0.51100000000E-03 0. -1.
         23    2    1    0    0    0  0.13682147557E+02  0.26580454575E+02 -0.94005187653E+00  0.95090044722E+02  0.90263565078E+02 0.  0.
         11    1    3    3    0    0  0.23140368899E+02  0.37322308914E+02 -0.36279918040E+02  0.56961951061E+02  0.51100000000E-03 0.  1.
         22    1    1    0    0    0 -0.13682147557E+02 -0.26580454575E+02  0.94005187653E+00  0.29909955278E+02  0.00000000000E+00 0.  1.
</event>
<event>
 5    1  0.8962567E-005  0.9118800E+02  0.7818608E-02  0.1130116E+00
         25   -1    0    0    0    0  0.00000000000E+00  0.00000000000E+00  0.99999998245E-14  0.12500000000E+03  0.12500000000E+03 0.  0.
        -11    1    3    3    0    0  0.41775149813E+02  0.11199278837E+02  0.37378796846E+02  0.57164337154E+02  0.51100000000E-03 0.  1.
         23    2    1    0    0    0  0.11923791955E+02  0.21781157130E+02  0.14380222211E+02  0.96305289489E+02  0.91931074029E+02 0.  0.
         11    1    3    3    0    0 -0.29851357858E+02  0.10581878293E+02 -0.22998574635E+02  0.39140952334E+02  0.51100000000E-03 0. -1.
         22    1    1    0    0    0 -0.11923791955E+02 -0.21781157130E+02 -0.14380222211E+02  0.28694710511E+02  0.00000000000E+00 0.  1.
</event>
<event>
 5    1  0.8962567E-005  0.9118800E+02  0.7818608E-02  0.1130116E+00
         25   -1    0    0    0    0  0.00000000000E+00  0.00000000000E+00  0.99999998245E-14  0.12500000000E+03  0.12500000000E+03 0.  0.
        -11    1    3    3    0    0 -0.12351374613E+02 -0.46417131098E+02 -0.25435433210E+02  0.54351336479E+02  0.51100000000E-03 0. -1.
         23    2    1    0    0    0  0.11348289575E+02 -0.26815450237E+02  0.23342305165E+01  0.95788689181E+02  0.91225940912E+02 0.  0.
         11    1    3    3    0    0  0.23699664188E+02  0.19601680862E+02  0.27769663726E+02  0.41437352702E+02  0.51100000000E-03 0.  1.
         22    1    1    0    0    0 -0.11348289575E+02  0.26815450237E+02 -0.23342305165E+01  0.29211310819E+02  0.00000000000E+00 0. -1.
</event>
<event>
 5    1  0.8962567E-005  0.9118800E+02  0.7818608E-02  0.1130116E+00
         25   -1    0    0    0    0  0.00000000000E+00  0.00000000000E+00  0.99999998245E-14  0.12500000000E+03  0.12500000000E+03 0.  0.
        -11    1    3    3    0    0 -0.29812082214E+02 -0.25177997356E+02 -0.46785232374E+02  0.60922489816E+02  0.51100000000E-03 0.  1.
         23    2    1    0    0    0 -0.13880317333E+02 -0.23005187269E-01 -0.17208522490E+02  0.10289124642E+03  0.10048786795E+03 0.  0.
         11    1    3    3    0    0  0.15931764881E+02  0.25154992169E+02  0.29576709884E+02  0.41968756606E+02  0.51100000000E-03 0. -1.
         22    1    1    0    0    0  0.13880317333E+02  0.23005187269E-01  0.17208522490E+02  0.22108753578E+02  0.00000000000E+00 0.  1.
</event>
<event>
 5    1  0.8962567E-005  0.9118800E+02  0.7818608E-02  0.1130116E+00
         25   -1    0    0    0    0  0.00000000000E+00  0.00000000000E+00  0.99999998245E-14  0.12500000000E+03  0.12500000000E+03 0.  0.
        -11    1    3    3    0    0  0.22429956458E+02  0.29938707553E+02  0.22589061529E+02  0.43700055580E+02  0.51100000000E-03 0.  1.
         23    2    1    0    0    0  0.34142701710E+02 -0.10172055484E+02  0.15774986708E+02  0.86037903053E+02  0.76710336744E+02 0.  0.
         11    1    3    3    0    0  0.11712745252E+02 -0.40110763037E+02 -0.68140748217E+01  0.42337847474E+02  0.51100000000E-03 0. -1.
         22    1    1    0    0    0 -0.34142701710E+02  0.10172055484E+02 -0.15774986708E+02  0.38962096947E+02  0.00000000000E+00 0.  1.
</event>
<event>
 5    1  0.8962567E-005  0.9118800E+02  0.7818608E-02  0.1130116E+00
         25   -1    0    0    0    0  0.00000000000E+00  0.00000000000E+00  0.99999998245E-14  0.12500000000E+03  0.12500000000E+03 0.  0.
        -11    1    3    3    0    0 -0.24317232724E+02  0.18869610831E+02 -0.16002228924E+02  0.34690940476E+02  0.51100000000E-03 0.  1.
         23    2    1    0    0    0  0.22831646468E+02 -0.11427269439E+02  0.11356982453E+02  0.97056349242E+02  0.92946690691E+02 0.  0.
         11    1    3    3    0    0  0.47148879192E+02 -0.30296880270E+02  0.27359211377E+02  0.62365408766E+02  0.51100000000E-03 0. -1.
         22    1    1    0    0    0 -0.22831646468E+02  0.11427269439E+02 -0.11356982453E+02  0.27943650758E+02  0.00000000000E+00 0. -1.
</event>
<event>
 5    1  0.8962567E-005  0.9118800E+02  0.7818608E-02  0.1130116E+00
         25   -1    0    0    0    0  0.00000000000E+00  0.00000000000E+00  0.99999998245E-14  0.12500000000E+03  0.12500000000E+03 0.  0.
        -11    1    3    3    0    0  0.46762925838E+02  0.25134901812E+02 -0.32635210419E+02  0.62318468221E+02  0.51100000000E-03 0. -1.
         23    2    1    0    0    0  0.21597391632E+02  0.88734215802E+01 -0.17022354937E+02  0.96104576427E+02  0.91657755301E+02 0.  0.
         11    1    3    3    0    0 -0.25165534206E+02 -0.16261480232E+02  0.15612855482E+02  0.33786108207E+02  0.51100000000E-03 0.  1.
         22    1    1    0    0    0 -0.21597391632E+02 -0.88734215802E+01  0.17022354937E+02  0.28895423573E+02  0.00000000000E+00 0. -1.
</event>
<event>
 5    1  0.8962567E-005  0.9118800E+02  0.7818608E-02  0.1130116E+00
         25   -1    0    0    0    0  0.00000000000E+00  0.00000000000E+00  0.99999998245E-14  0.12500000000E+03  0.12500000000E+03 0.  0.
        -11    1    3    3    0    0  0.28914874254E+02  0.18458766050E+02 -0.62790270721E+01  0.34874377105E+02  0.51100000000E-03 0.  1.
         23    2    1    0    0    0 -0.20270148554E+02 -0.20429811029E+00  0.22398948960E+02  0.94790174204E+02  0.89847334690E+02 0.  0.
         11    1    3    3    0    0 -0.49185022807E+02 -0.18663064160E+02  0.28677976033E+02  0.59915797099E+02  0.51100000000E-03 0. -1.
         22    1    1    0    0    0  0.20270148554E+02  0.20429811029E+00 -0.22398948960E+02  0.30209825796E+02  0.00000000000E+00 0. -1.
</event>
<event>
 5    1  0.8962567E-005  0.9118800E+02  0.7818608E-02  0.1130116E+00
         25   -1    0    0    0    0  0.00000000000E+00  0.00000000000E+00  0.99999998245E-14  0.12500000000E+03  0.12500000000E+03 0.  0.
        -11    1    3    3    0    0  0.16022694866E+02 -0.25655074825E+02 -0.19068684730E+02  0.35756458894E+02  0.51100000000E-03 0. -1.
         23    2    1    0    0    0  0.68378259189E+01  0.28462899564E+02  0.42954224186E+01  0.95413801045E+02  0.90710805647E+02 0.  0.
         11    1    3    3    0    0 -0.91848689474E+01  0.54117974388E+02  0.23364107148E+02  0.59657342151E+02  0.51100000000E-03 0.  1.
         22    1    1    0    0    0 -0.68378259189E+01 -0.28462899564E+02 -0.42954224186E+01  0.29586198955E+02  0.00000000000E+00 0.  1.
</event>
<event>
 5    1  0.8962567E-005  0.9118800E+02  0.7818608E-02  0.1130116E+00
         25   -1    0    0    0    0  0.00000000000E+00  0.00000000000E+00  0.99999998245E-14  0.12500000000E+03  0.12500000000E+03 0.  0.
        -11    1    3    3    0    0  0.40841623416E+02 -0.28213064763E+02 -0.24002294733E+02  0.55137331992E+02  0.51100000000E-03 0. -1.
         23    2    1    0    0    0  0.26515502085E+02  0.63380765327E+01 -0.16006559798E+02  0.93385873071E+02  0.87871885536E+02 0.  0.
         11    1    3    3    0    0 -0.14326121331E+02  0.34551141296E+02  0.79957349351E+01  0.38248541078E+02  0.51100000000E-03 0.  1.
         22    1    1    0    0    0 -0.26515502085E+02 -0.63380765327E+01  0.16006559798E+02  0.31614126929E+02  0.00000000000E+00 0. -1.
</event>
<event>
 5    1  0.8962567E-005  0.9118800E+02  0.7818608E-02  0.1130116E+00
         25   -1    0    0    0    0  0.00000000000E+00  0.00000000000E+00  0.99999998245E-14  0.12500000000E+03  0.12500000000E+03 0.  0.
        -11    1    3    3    0    0 -0.54548041046E+02  0.10589660890E+02 -0.56630739415E+01  0.55854275632E+02  0.51100000000E-03 0.  1.
         23    2    1    0    0    0 -0.24631458246E+02 -0.10600293260E+02  0.10862839996E+02  0.96067730035E+02  0.91607491554E+02 0.  0.
         11    1    3    3    0    0  0.29916582800E+02 -0.21189954150E+02  0.16525913938E+02  0.40213454403E+02  0.51100000000E-03 0. -1.
         22    1    1    0    0    0  0.24631458246E+02  0.10600293260E+02 -0.10862839996E+02  0.28932269965E+02  0.00000000000E+00 0. -1.
</event>
<event>
 5    1  0.8962567E-005  0.9118800E+02  0.7818608E-02  0.1130116E+00
         25   -1    0    0    0    0  0.00000000000E+00  0.00000000000E+00  0.99999998245E-14  0.12500000000E+03  0.12500000000E+03 0.  0.
        -11    1    3    3    0    0 -0.31002223761E+02  0.28672507987E+02  0.38793434833E+02  0.57342664559E+02  0.51100000000E-03 0. -1.
         23    2    1    0    0    0 -0.62129637195E+00  0.24778327289E+02  0.16562272825E+02  0.95189592530E+02  0.90401317094E+02 0.  0.
         11    1    3    3    0    0  0.30380927389E+02 -0.38941806980E+01 -0.22231162008E+02  0.37846927970E+02  0.51100000000E-03 0.  1.
         22    1    1    0    0    0  0.62129637195E+00 -0.24778327289E+02 -0.16562272825E+02  0.29810407470E+02  0.00000000000E+00 0. -1.
</event>
<event>
 5    1  0.8962567E-005  0.9118800E+02  0.7818608E-02  0.1130116E+00
         25   -1    0    0    0    0  0.00000000000E+00  0.00000000000E+00  0.99999998245E-14  0.12500000000E+03  0.12500000000E+03 0.  0.
        -11    1    3    3    0    0 -0.39747999610E+02  0.12884896868E+02 -0.39249973885E+01  0.41968198020E+02  0.51100000000E-03 0.  1.
         23    2    1    0    0    0 -0.52452651333E+01 -0.27625375168E+02  0.63738850531E+01  0.96167716529E+02  0.91743823401E+02 0.  0.
         11    1    3    3    0    0  0.34502734477E+02 -0.40510272035E+02  0.10298882442E+02  0.54199518509E+02  0.51100000000E-03 0. -1.
         22    1    1    0    0    0  0.52452651333E+01  0.27625375168E+02 -0.63738850531E+01  0.28832283471E+02  0.00000000000E+00 0. -1.
</event>
<event>
 4    1  0.8962567E-005  0.9118800E+02  0.7818608E-02  0.1130116E+00
         25   -1    0    0    0    0  0.00000000000E+00  0.00000000000E+00  0.99999998245E-14  0.12500000000E+03  0.12500000000E+03 0.  0.
        -11    1    1    0    0    0 -0.19056575084E+02  0.27896652509E+02  0.29500244581E+01  0.33912813504E+02  0.51100000000E-03 0. -1.
         11    1    1    0    0    0  0.17945734245E+02  0.28728091894E+02 -0.58649006222E+01  0.34376586524E+02  0.51100000000E-03 0.  1.
         22    1    1    0    0    0  0.11108408398E+01 -0.56624744404E+02  0.29148761641E+01  0.56710599972E+02  0.00000000000E+00 0.  1.
</event>
<event>
 5    1  0.8962567E-005  0.9118800E+02  0.7818608E-02  0.1130116E+00
         25   -1    0    0    0    0  0.00000000000E+00  0.00000000000E+00  0.99999998245E-14  0.12500000000E+03  0.12500000000E+03 0.  0.
        -11    1    3    3    0    0  0.59330806170E+01 -0.78634984953E+01 -0.61644696083E+02  0.62426794004E+02  0.51100000000E-03 0.  1.
         23    2    1    0    0    0  0.37345083108E+01 -0.55550025825E+01 -0.28497389530E+02  0.95727046339E+02  0.91141437254E+02 0.  0.
         11    1    3    3    0    0 -0.21985723062E+01  0.23084959129E+01  0.33147306553E+02  0.33300252335E+02  0.51100000000E-03 0. -1.
         22    1    1    0    0    0 -0.37345083108E+01  0.55550025825E+01  0.28497389530E+02  0.29272953661E+02  0.00000000000E+00 0.  1.
</event>
<event>
 5    1  0.8962567E-005  0.9118800E+02  0.7818608E-02  0.1130116E+00
         25   -1    0    0    0    0  0.00000000000E+00  0.00000000000E+00  0.99999998245E-14  0.12500000000E+03  0.12500000000E+03 0.  0.
        -11    1    3    3    0    0  0.22551411846E+02 -0.21828441842E+02  0.16541798295E+02  0.35477854227E+02  0.51100000000E-03 0. -1.
         23    2    1    0    0    0 -0.21306830270E+02  0.18584409905E+02  0.69825074378E+01  0.95877556459E+02  0.91347627855E+02 0.  0.
         11    1    3    3    0    0 -0.43858242115E+02  0.40412851747E+02 -0.95592908567E+01  0.60399702232E+02  0.51100000000E-03 0.  1.
         22    1    1    0    0    0  0.21306830270E+02 -0.18584409905E+02 -0.69825074378E+01  0.29122443541E+02  0.00000000000E+00 0.  1.
</event>
<event>
 5    1  0.8962567E-005  0.9118800E+02  0.7818608E-02  0.1130116E+00
         25   -1    0    0    0    0  0.00000000000E+00  0.00000000000E+00  0.99999998245E-14  0.12500000000E+03  0.12500000000E+03 0.  0.
        -11    1    3    3    0    0 -0.18041035393E+02  0.39025184123E+01 -0.49042415853E+02  0.52401022519E+02  0.51100000000E-03 0. -1.
         23    2    1    0    0    0  0.16151631878E+02  0.77258842745E+01 -0.24464328958E+02  0.94683867471E+02  0.89699313642E+02 0.  0.
         11    1    3    3    0    0  0.34192667271E+02  0.38233658622E+01  0.24578086895E+02  0.42282844953E+02  0.51100000000E-03 0.  1.
         22    1    1    0    0    0 -0.16151631878E+02 -0.77258842745E+01  0.24464328958E+02  0.30316132529E+02  0.00000000000E+00 0. -1.
</event>
<event>
 5    1  0.8962567E-005  0.9118800E+02  0.7818608E-02  0.1130116E+00
         25   -1    0    0    0    0  0.00000000000E+00  0.00000000000E+00  0.99999998245E-14  0.12500000000E+03  0.12500000000E+03 0.  0.
        -11    1    3    3    0    0 -0.21145889702E+02 -0.30533636126E+02 -0.19009188201E+02  0.41722905252E+02  0.51100000000E-03 0.  1.
         23    2    1    0    0    0  0.26861554522E+02 -0.12001825295E+02 -0.41317962515E+01  0.95290428108E+02  0.90540637435E+02 0.  0.
         11    1    3    3    0    0  0.48007444223E+02  0.18531810831E+02  0.14877391949E+02  0.53567522856E+02  0.51100000000E-03 0. -1.
         22    1    1    0    0    0 -0.26861554522E+02  0.12001825295E+02  0.41317962515E+01  0.29709571892E+02  0.00000000000E+00 0. -1.
</event>
<event>
 5    1  0.8962567E-005  0.9118800E+02  0.7818608E-02  0.1130116E+00
         25   -1    0    0    0    0  0.00000000000E+00  0.00000000000E+00  0.99999998245E-14  0.12500000000E+03  0.12500000000E+03 0.  0.
        -11    1    3    3    0    0  0.38926479161E+02 -0.13867717210E+02  0.39705722018E+02  0.57307318222E+02  0.51100000000E-03 0. -1.
         23    2    1    0    0    0  0.10058916836E+02 -0.21428325750E+02  0.24984978555E+02  0.90581921818E+02  0.83788307385E+02 0.  0.
         11    1    3    3    0    0 -0.28867562326E+02 -0.75606085395E+01 -0.14720743463E+02  0.33274603596E+02  0.51100000000E-03 0.  1.
         22    1    1    0    0    0 -0.10058916836E+02  0.21428325750E+02 -0.24984978555E+02  0.34418078182E+02  0.00000000000E+00 0. -1.
</event>
<event>
 5    1  0.8962567E-005  0.9118800E+02  0.7818608E-02  0.1130116E+00
         25   -1    0    0    0    0  0.00000000000E+00  0.00000000000E+00  0.99999998245E-14  0.12500000000E+03  0.12500000000E+03 0.  0.
        -11    1    3    3    0    0 -0.48645127771E+02 -0.22345457342E+02  0.21178193939E+02  0.57568948388E+02  0.51100000000E-03 0.  1.
         23    2    1    0    0    0 -0.21812468518E+02  0.45347087077E+01  0.19180319817E+02  0.95602176370E+02  0.90970017547E+02 0.  0.
         11    1    3    3    0    0  0.26832659253E+02  0.26880166050E+02 -0.19978741219E+01  0.38033227982E+02  0.51100000000E-03 0. -1.
         22    1    1    0    0    0  0.21812468518E+02 -0.45347087077E+01 -0.19180319817E+02  0.29397823630E+02  0.00000000000E+00 0.  1.
</event>
<event>
 5    1  0.8962567E-005  0.9118800E+02  0.7818608E-02  0.1130116E+00
         25   -1    0    0    0    0  0.00000000000E+00  0.00000000000E+00  0.99999998245E-14  0.12500000000E+03  0.12500000000E+03 0.  0.
        -11    1    3    3    0    0 -0.14034982358E+02 -0.31437677653E+02  0.12861955664E+02  0.36752390531E+02  0.51100000000E-03 0. -1.
         23    2    1    0    0    0  0.12783720499E+02  0.22896316288E+02  0.82031883429E+01  0.97523517176E+02  0.93572855541E+02 0.  0.
         11    1    3    3    0    0  0.26818702856E+02  0.54333993941E+02 -0.46587673212E+01  0.60771126645E+02  0.51100000000E-03 0.  1.
         22    1    1    0    0    0 -0.12783720499E+02 -0.22896316288E+02 -0.82031883429E+01  0.27476482824E+02  0.00000000000E+00 0.  1.
</event>
<event>
 5    1  0.8962567E-005  0.9118800E+02  0.7818608E-02  0.1130116E+00
         25   -1    0    0    0    0  0.00000000000E+00  0.00000000000E+00  0.99999998245E-14  0.12500000000E+03  0.12500000000E+03 0.  0.
        -11    1    3    3    0    0  0.24758651260E+02 -0.20542141259E+02 -0.36220656857E+02  0.48444879638E+02  0.51100000000E-03 0. -1.
         23    2    1    0    0    0  0.22962887297E+02 -0.11842174396E+02  0.11308390256E+02  0.96796968645E+02  0.92597203852E+02 0.  0.
         11    1    3    3    0    0 -0.17957639630E+01  0.86999668632E+01  0.47529047112E+02  0.48352089007E+02  0.51100000000E-03 0.  1.
         22    1    1    0    0    0 -0.22962887297E+02  0.11842174396E+02 -0.11308390256E+02  0.28203031355E+02  0.00000000000E+00 0. -1.
</event>
<event>
 5    1  0.8962567E-005  0.9118800E+02  0.7818608E-02  0.1130116E+00
         25   -1    0    0    0    0  0.00000000000E+00  0.00000000000E+00  0.99999998245E-14  0.12500000000E+03  0.12500000000E+03 0.  0.
        -11    1    3    3    0    0  0.26139924632E+02 -0.18757267194E+02  0.30746131285E+02  0.44502306924E+02  0.51100000000E-03 0. -1.
         23    2    1    0    0    0 -0.19278273581E+02  0.15621833547E+01  0.23147420749E+02  0.94835528574E+02  0.89910411763E+02 0.  0.
         11    1    3    3    0    0 -0.45418198213E+02  0.20319450548E+02 -0.75987105357E+01  0.50333221649E+02  0.51100000000E-03 0.  1.
         22    1    1    0    0    0  0.19278273581E+02 -0.15621833547E+01 -0.23147420749E+02  0.30164471426E+02  0.00000000000E+00 0.  1.
</event>
<event>
 5    1  0.8962567E-005  0.9118800E+02  0.7818608E-02  0.1130116E+00
         25   -1    0    0    0    0  0.00000000000E+00  0.00000000000E+00  0.99999998245E-14  0.12500000000E+03  0.12500000000E+03 0.  0.
        -11    1    3    3    0    0 -0.21748615865E+02 -0.53553645404E+02 -0.63153925833E+01  0.58145330095E+02  0.51100000000E-03 0. -1.
         23    2    1    0    0    0 -0.23081946985E+02 -0.15760232779E+02  0.23817001363E+01  0.96949443688E+02  0.92802806649E+02 0.  0.
         11    1    3    3    0    0 -0.13333311201E+01  0.37793412625E+02  0.86970927196E+01  0.38804113593E+02  0.51100000000E-03 0.  1.
         22    1    1    0    0    0  0.23081946985E+02  0.15760232779E+02 -0.23817001363E+01  0.28050556312E+02  0.00000000000E+00 0. -1.
</event>
<event>
 5    1  0.8962567E-005  0.9118800E+02  0.7818608E-02  0.1130116E+00
         25   -1    0    0    0    0  0.00000000000E+00  0.00000000000E+00  0.99999998245E-14  0.12500000000E+03  0.12500000000E+03 0.  0.
        -11    1    3    3    0    0 -0.19083344905E+02 -0.10470323981E+02  0.31242468429E+02  0.38077468021E+02  0.51100000000E-03 0.  1.
         23    2    1    0    0    0 -0.34569990280E+01  0.27649625694E+02 -0.90484951180E+01  0.95702766219E+02  0.91108131113E+02 0.  0.
         11    1    3    3    0    0  0.15626345877E+02  0.38119949675E+02 -0.40290963547E+02  0.57625298199E+02  0.51100000000E-03 0. -1.
         22    1    1    0    0    0  0.34569990280E+01 -0.27649625694E+02  0.90484951180E+01  0.29297233781E+02  0.00000000000E+00 0. -1.
</event>
<event>
 5    1  0.8962567E-005  0.9118800E+02  0.7818608E-02  0.1130116E+00
         25   -1    0    0    0    0  0.00000000000E+00  0.00000000000E+00  0.99999998245E-14  0.12500000000E+03  0.12500000000E+03 0.  0.
        -11    1    3    3    0    0 -0.16556352616E+02 -0.33481529503E+02  0.48927521077E+02  0.61555080609E+02  0.51100000000E-03 0.  1.
         23    2    1    0    0    0 -0.15016754308E+02 -0.14489743323E+02  0.20737232751E+02  0.95580815890E+02  0.90940661822E+02 0.  0.
         11    1    3    3    0    0  0.15395983087E+01  0.18991786180E+02 -0.28190288326E+02  0.34025735281E+02  0.51100000000E-03 0. -1.
         22    1    1    0    0    0  0.15016754308E+02  0.14489743323E+02 -0.20737232751E+02  0.29419184110E+02  0.00000000000E+00 0.  1.
</event>
<event>
 5    1  0.8962567E-005  0.9118800E+02  0.7818608E-02  0.1130116E+00
         25   -1    0    0    0    0  0.00000000000E+00  0.00000000000E+00  0.99999998245E-14  0.12500000000E+03  0.12500000000E+03 0.  0.
        -11    1    3    3    0    0 -0.38208427101E+02  0.63282261555E+01 -0.84363516383E+01  0.39637133815E+02  0.51100000000E-03 0. -1.
         23    2    1    0    0    0  0.46710057041E+01  0.55565907986E+01  0.28100513934E+02  0.95977028427E+02  0.91483643930E+02 0.  0.
         11    1    3    3    0    0  0.42879432805E+02 -0.77163535689E+00  0.36536865572E+02  0.56339894612E+02  0.51100000000E-03 0.  1.
         22    1    1    0    0    0 -0.46710057041E+01 -0.55565907986E+01 -0.28100513934E+02  0.29022971573E+02  0.00000000000E+00 0.  1.
</event>
<event>
 5    1  0.8962567E-005  0.9118800E+02  0.7818608E-02  0.1130116E+00
         25   -1    0    0    0    0  0.00000000000E+00  0.00000000000E+00  0.99999998245E-14  0.12500000000E+03  0.12500000000E+03 0.  0.
        -11    1    3    3    0    0  0.53405952260E+00  0.33277011079E+01  0.40227446205E+02  0.40368381720E+02  0.51100000000E-03 0.  1.
         23    2    1    0    0    0  0.10624725511E+02  0.25922594512E+02 -0.90906883021E+01  0.95546539894E+02  0.90893536478E+02 0.  0.
         11    1    3    3    0    0  0.10090665989E+02  0.22594893404E+02 -0.49318134507E+02  0.55178158174E+02  0.51100000000E-03 0. -1.
         22    1    1    0    0    0 -0.10624725511E+02 -0.25922594512E+02  0.90906883021E+01  0.29453460106E+02  0.00000000000E+00 0. -1.
</event>
<event>
 5    1  0.8962567E-005  0.9118800E+02  0.7818608E-02  0.1130116E+00
         25   -1    0    0    0    0  0.00000000000E+00  0.00000000000E+00  0.99999998245E-14  0.12500000000E+03  0.12500000000E+03 0.  0.
        -11    1    3    3    0    0 -0.10983735544E+01 -0.45082031014E+02  0.20544129804E+02  0.49554588228E+02  0.51100000000E-03 0. -1.
         23    2    1    0    0    0 -0.82445853208E+01 -0.69110312283E-01  0.28066224311E+02  0.95747805033E+02  0.91169903247E+02 0.  0.
         11    1    3    3    0    0 -0.71462117663E+01  0.45012920702E+02  0.75220945068E+01  0.46193216804E+02  0.51100000000E-03 0.  1.
         22    1    1    0    0    0  0.82445853208E+01  0.69110312283E-01 -0.28066224311E+02  0.29252194967E+02  0.00000000000E+00 0.  1.
</event>
<event>
 5    1  0.8962567E-005  0.9118800E+02  0.7818608E-02  0.1130116E+00
         25   -1    0    0    0    0  0.00000000000E+00  0.00000000000E+00  0.99999998245E-14  0.12500000000E+03  0.12500000000E+03 0.  0.
        -11    1    3    3    0    0  0.32707999472E+02 -0.82687909155E+01 -0.35852747057E+01  0.33926985242E+02  0.51100000000E-03 0. -1.
         23    2    1    0    0    0 -0.24529836829E+02  0.39431801881E+01  0.15772762509E+02  0.95571415223E+02  0.90927739473E+02 0.  0.
         11    1    3    3    0    0 -0.57237836300E+02  0.12211971104E+02  0.19358037215E+02  0.61644429981E+02  0.51100000000E-03 0.  1.
         22    1    1    0    0    0  0.24529836829E+02 -0.39431801881E+01 -0.15772762509E+02  0.29428584777E+02  0.00000000000E+00 0.  1.
</event>
<event>
 5    1  0.8962567E-005  0.9118800E+02  0.7818608E-02  0.1130116E+00
         25   -1    0    0    0    0  0.00000000000E+00  0.00000000000E+00  0.99999998245E-14  0.12500000000E+03  0.12500000000E+03 0.  0.
        -11    1    3    3    0    0 -0.23975213222E+02  0.34820681303E+01 -0.24267810845E+02  0.34290848502E+02  0.51100000000E-03 0.  1.
         23    2    1    0    0    0  0.22394424968E+02 -0.12878038278E+02  0.13086255514E+02  0.96041335961E+02  0.91571469303E+02 0.  0.
         11    1    3    3    0    0  0.46369638190E+02 -0.16360106409E+02  0.37354066359E+02  0.61750487459E+02  0.51100000000E-03 0. -1.
         22    1    1    0    0    0 -0.22394424968E+02  0.12878038278E+02 -0.13086255514E+02  0.28958664039E+02  0.00000000000E+00 0. -1.
</event>
<event>
 5    1  0.8962567E-005  0.9118800E+02  0.7818608E-02  0.1130116E+00
         25   -1    0    0    0    0  0.00000000000E+00  0.00000000000E+00  0.99999998245E-14  0.12500000000E+03  0.12500000000E+03 0.  0.
        -11    1    3    3    0    0 -0.21746350371E+02 -0.12605696566E+02 -0.52133922174E+02  0.57877052291E+02  0.51100000000E-03 0.  1.
         23    2    1    0    0    0  0.64084991048E+01 -0.11036223833E+02 -0.24589559558E+02  0.97295965339E+02  0.93268383360E+02 0.  0.
         11    1    3    3    0    0  0.28154849476E+02  0.15694727327E+01  0.27544362616E+02  0.39418913048E+02  0.51100000000E-03 0. -1.
         22    1    1    0    0    0 -0.64084991048E+01  0.11036223833E+02  0.24589559558E+02  0.27704034661E+02  0.00000000000E+00 0.  1.
</event>
<event>
 5    1  0.8962567E-005  0.9118800E+02  0.7818608E-02  0.1130116E+00
         25   -1    0    0    0    0  0.00000000000E+00  0.00000000000E+00  0.99999998245E-14  0.12500000000E+03  0.12500000000E+03 0.  0.
        -11    1    3    3    0    0  0.31832258870E+02  0.35506163418E+01 -0.33008352120E+02  0.45994031038E+02  0.51100000000E-03 0.  1.
         23    2    1    0    0    0  0.93254112785E+01 -0.28330741590E+02 -0.33986112152E+01  0.94980926518E+02  0.90112327844E+02 0.  0.
         11    1    3    3    0    0 -0.22506847591E+02 -0.31881357931E+02  0.29609740905E+02  0.48986895480E+02  0.51100000000E-03 0. -1.
         22    1    1    0    0    0 -0.93254112785E+01  0.28330741590E+02  0.33986112152E+01  0.30019073482E+02  0.00000000000E+00 0. -1.
</event>
<event>
 5    1  0.8962567E-005  0.9118800E+02  0.7818608E-02  0.1130116E+00
         25   -1    0    0    0    0  0.00000000000E+00  0.00000000000E+00  0.99999998245E-14  0.12500000000E+03  0.12500000000E+03 0.  0.
        -11    1    3    3    0    0 -0.19805824179E+02 -0.41659612530E+02  0.39449083052E+02  0.60696162493E+02  0.51100000000E-03 0. -1.
         23    2    1    0    0    0 -0.20620222444E+01 -0.14227774658E+02  0.24430983766E+02  0.96652963554E+02  0.92402602174E+02 0.  0.
         11    1    3    3    0    0  0.17743801935E+02  0.27431837872E+02 -0.15018099285E+02  0.35956801061E+02  0.51100000000E-03 0.  1.
         22    1    1    0    0    0  0.20620222444E+01  0.14227774658E+02 -0.24430983766E+02  0.28347036446E+02  0.00000000000E+00 0. -1.
</event>
<event>
 5    1  0.8962567E-005  0.9118800E+02  0.7818608E-02  0.1130116E+00
         25   -1    0    0    0    0  0.00000000000E+00  0.00000000000E+00  0.99999998245E-14  0.12500000000E+03  0.12500000000E+03 0.  0.
        -11    1    3    3    0    0  0.46730356864E+02 -0.15395709026E+02 -0.32895869796E+01  0.49311007815E+02  0.51100000000E-03 0.  1.
         23    2    1    0    0    0  0.14021218617E+02  0.86168772146E+01  0.22301252892E+02  0.97283740783E+02  0.93251998347E+02 0.  0.
         11    1    3    3    0    0 -0.32709138246E+02  0.24012586241E+02  0.25590839871E+02  0.47972732967E+02  0.51100000000E-03 0. -1.
         22    1    1    0    0    0 -0.14021218617E+02 -0.86168772146E+01 -0.22301252892E+02  0.27716259217E+02  0.00000000000E+00 0.  1.
</event>
<event>
 5    1  0.8962567E-005  0.9118800E+02  0.7818608E-02  0.1130116E+00
         25   -1    0    0    0    0  0.00000000000E+00  0.00000000000E+00  0.99999998245E-14  0.12500000000E+03  0.12500000000E+03 0.  0.
        -11    1    3    3    0    0 -0.34288619142E+01  0.31905033941E+02 -0.16534257287E+02  0.36098060185E+02  0.51100000000E-03 0.  1.
         23    2    1    0    0    0 -0.12766694504E+01 -0.80336435975E+01  0.27933014909E+02  0.95906656496E+02  0.91387439641E+02 0.  0.
         11    1    3    3    0    0  0.21521924639E+01 -0.39938677539E+02  0.44467272196E+02  0.59808596311E+02  0.51100000000E-03 0. -1.
         22    1    1    0    0    0  0.12766694504E+01  0.80336435975E+01 -0.27933014909E+02  0.29093343504E+02  0.00000000000E+00 0. -1.
</event>
<event>
 5    1  0.8962567E-005  0.9118800E+02  0.7818608E-02  0.1130116E+00
         25   -1    0    0    0    0  0.00000000000E+00  0.00000000000E+00  0.99999998245E-14  0.12500000000E+03  0.12500000000E+03 0.  0.
        -11    1    3    3    0    0 -0.34675253425E+02 -0.15926945188E+02  0.19170970521E+02  0.42703242196E+02  0.51100000000E-03 0. -1.
         23    2    1    0    0    0  0.15621165034E+02 -0.89279273396E+01  0.25408645080E+02  0.93865968324E+02  0.88552199752E+02 0.  0.
         11    1    3    3    0    0  0.50296418459E+02  0.69990178483E+01  0.62376745587E+01  0.51162726128E+02  0.51100000000E-03 0.  1.
         22    1    1    0    0    0 -0.15621165034E+02  0.89279273396E+01 -0.25408645080E+02  0.31134031676E+02  0.00000000000E+00 0.  1.
</event>
<event>
 5    1  0.8962567E-005  0.9118800E+02  0.7818608E-02  0.1130116E+00
         25   -1    0    0    0    0  0.00000000000E+00  0.00000000000E+00  0.99999998245E-14  0.12500000000E+03  0.12500000000E+03 0.  0.
        -11    1    3    3    0    0 -0.32748943421E+02 -0.27510194737E+02  0.53210477008E+01  0.43100088846E+02  0.51100000000E-03 0.  1.
         23    2    1    0    0    0  0.12433967268E+02 -0.17813528360E+02 -0.19720219632E+02  0.95660395419E+02  0.91049979982E+02 0.  0.
         11    1    3    3    0    0  0.45182910689E+02  0.96966663776E+01 -0.25041267333E+02  0.52560306573E+02  0.51100000000E-03 0. -1.
         22    1    1    0    0    0 -0.12433967268E+02  0.17813528360E+02  0.19720219632E+02  0.29339604581E+02  0.00000000000E+00 0.  1.
</event>
<event>
 5    1  0.8962567E-005  0.9118800E+02  0.7818608E-02  0.1130116E+00
         25   -1    0    0    0    0  0.00000000000E+00  0.00000000000E+00  0.99999998245E-14  0.12500000000E+03  0.12500000000E+03 0.  0.
        -11    1    3    3    0    0 -0.54687882767E+02 -0.41281950015E+01  0.29595611624E+02  0.62319392994E+02  0.51100000000E-03 0. -1.
         23    2    1    0    0    0 -0.23822185647E+02 -0.12529684701E+01  0.16626970415E+02  0.95922128616E+02  0.91408600001E+02 0.  0.
         11    1    3    3    0    0  0.30865697119E+02  0.28752265314E+01 -0.12968641209E+02  0.33602735623E+02  0.51100000000E-03 0.  1.
         22    1    1    0    0    0  0.23822185647E+02  0.12529684701E+01 -0.16626970415E+02  0.29077871384E+02  0.00000000000E+00 0. -1.
</event>
<event>
 5    1  0.8962567E-005  0.9118800E+02  0.7818608E-02  0.1130116E+00
         25   -1    0    0    0    0  0.00000000000E+00  0.00000000000E+00  0.99999998245E-14  0.12500000000E+03  0.12500000000E+03 0.  0.
        -11    1    3    3    0    0 -0.16456295692E+02  0.42013478354E+02 -0.62335889760E+01  0.45549968860E+02  0.51100000000E-03 0.  1.
         23    2    1    0    0    0 -0.23579372656E+02  0.12409557370E+00  0.18779081169E+02  0.94856076830E+02  0.89938974908E+02 0.  0.
         11    1    3    3    0    0 -0.71230769634E+01 -0.41889382781E+02  0.25012670145E+02  0.49306107970E+02  0.51100000000E-03 0. -1.
         22    1    1    0    0    0  0.23579372656E+02 -0.12409557370E+00 -0.18779081169E+02  0.30143923170E+02  0.00000000000E+00 0. -1.
</event>
<event>
 5    1  0.8962567E-005  0.9118800E+02  0.7818608E-02  0.1130116E+00
         25   -1    0    0    0    0  0.00000000000E+00  0.00000000000E+00  0.99999998245E-14  0.12500000000E+03  0.12500000000E+03 0.  0.
        -11    1    3    3    0    0 -0.20184641757E+02  0.13240347609E+02  0.25888067599E+02  0.35396590400E+02  0.51100000000E-03 0. -1.
         23    2    1    0    0    0  0.22601029632E+02 -0.15840615741E+02 -0.67787623481E+01  0.96580231062E+02  0.92304158983E+02 0.  0.
         11    1    3    3    0    0  0.42785671390E+02 -0.29080963350E+02 -0.32666829947E+02  0.61183640662E+02  0.51100000000E-03 0.  1.
         22    1    1    0    0    0 -0.22601029632E+02  0.15840615741E+02  0.67787623481E+01  0.28419768938E+02  0.00000000000E+00 0.  1.
</event>
<event>
 5    1  0.8962567E-005  0.9118800E+02  0.7818608E-02  0.1130116E+00
         25   -1    0    0    0    0  0.00000000000E+00  0.00000000000E+00  0.99999998245E-14  0.12500000000E+03  0.12500000000E+03 0.  0.
        -11    1    3    3    0    0 -0.43610202358E+02  0.43345455351E+02  0.96907075756E+01  0.62246189143E+02  0.51100000000E-03 0. -1.
         23    2    1    0    0    0 -0.19629204395E+02  0.21869724375E+02  0.97418654626E+00  0.95596946607E+02  0.90962831155E+02 0.  0.
         11    1    3    3    0    0  0.23980997964E+02 -0.21475730976E+02 -0.87165210293E+01  0.33350757463E+02  0.51100000000E-03 0.  1.
         22    1    1    0    0    0  0.19629204395E+02 -0.21869724375E+02 -0.97418654626E+00  0.29403053393E+02  0.00000000000E+00 0. -1.
</event>
<event>
 5    1  0.8962567E-005  0.9118800E+02  0.7818608E-02  0.1130116E+00
         25   -1    0    0    0    0  0.00000000000E+00  0.00000000000E+00  0.99999998245E-14  0.12500000000E+03  0.12500000000E+03 0.  0.
        -11    1    3    3    0    0  0.24058798006E+02  0.46231169053E+02  0.33024281696E+02  0.61698864943E+02  0.51100000000E-03 0. -1.
         23    2    1    0    0    0  0.69866667581E+01  0.27014913863E+02  0.13358248943E+02  0.94063582977E+02  0.88830713969E+02 0.  0.
         11    1    3    3    0    0 -0.17072131248E+02 -0.19216255190E+02 -0.19666032753E+02  0.32364718033E+02  0.51100000000E-03 0.  1.
         22    1    1    0    0    0 -0.69866667581E+01 -0.27014913863E+02 -0.13358248943E+02  0.30936417023E+02  0.00000000000E+00 0. -1.
</event>
<event>
 5    1  0.8962567E-005  0.9118800E+02  0.7818608E-02  0.1130116E+00
         25   -1    0    0    0    0  0.00000000000E+00  0.00000000000E+00  0.99999998245E-14  0.12500000000E+03  0.12500000000E+03 0.  0.
        -11    1    3    3    0    0  0.37509191484E+02  0.45452562544E+02 -0.80081716095E+01  0.59472730729E+02  0.51100000000E-03 0.  1.
         23    2    1    0    0    0  0.94233350943E+01  0.29789190952E+02  0.33474246301E+01  0.93577072168E+02  0.88143451499E+02 0.  0.
         11    1    3    3    0    0 -0.28085856390E+02 -0.15663371592E+02  0.11355596240E+02  0.34104341439E+02  0.51100000000E-03 0. -1.
         22    1    1    0    0    0 -0.94233350943E+01 -0.29789190952E+02 -0.33474246301E+01  0.31422927832E+02  0.00000000000E+00 0.  1.
</event>
<event>
 5    1  0.8962567E-005  0.9118800E+02  0.7818608E-02  0.1130116E+00
         25   -1    0    0    0    0  0.00000000000E+00  0.00000000000E+00  0.99999998245E-14  0.12500000000E+03  0.12500000000E+03 0.  0.
        -11    1    3    3    0    0 -0.20618083357E+02 -0.29015325350E+02 -0.20208662102E+02  0.40931460891E+02  0.51100000000E-03 0. -1.
         23    2    1    0    0    0  0.11043813251E+01 -0.12769629222E+02  0.26849670354E+02  0.95247892735E+02  0.90481894232E+02 0.  0.
         11    1    3    3    0    0  0.21722464682E+02  0.16245696128E+02  0.47058332456E+02  0.54316431844E+02  0.51100000000E-03 0.  1.
         22    1    1    0    0    0 -0.11043813251E+01  0.12769629222E+02 -0.26849670354E+02  0.29752107265E+02  0.00000000000E+00 0.  1.
</event>
<event>
 5    1  0.8962567E-005  0.9118800E+02  0.7818608E-02  0.1130116E+00
         25   -1    0    0    0    0  0.00000000000E+00  0.00000000000E+00  0.99999998245E-14  0.12500000000E+03  0.12500000000E+03 0.  0.
        -11    1    3    3    0    0  0.62203159433E+00  0.13417013659E+02 -0.37272415163E+02  0.39618633383E+02  0.51100000000E-03 0.  1.
         23    2    1    0    0    0 -0.62399700942E+01  0.12103884769E+02  0.21905070122E+02  0.99207106593E+02  0.95795493883E+02 0.  0.
         11    1    3    3    0    0 -0.68620016885E+01 -0.13131288901E+01  0.59177485284E+02  0.59588473210E+02  0.51100000000E-03 0. -1.
         22    1    1    0    0    0  0.62399700942E+01 -0.12103884769E+02 -0.21905070122E+02  0.25792893407E+02  0.00000000000E+00 0. -1.
</event>
<event>
 5    1  0.8962567E-005  0.9118800E+02  0.7818608E-02  0.1130116E+00
         25   -1    0    0    0    0  0.00000000000E+00  0.00000000000E+00  0.99999998245E-14  0.12500000000E+03  0.12500000000E+03 0.  0.
        -11    1    3    3    0    0  0.38477216362E+02  0.44756376315E+02  0.11588848888E+02  0.60149237889E+02  0.51100000000E-03 0. -1.
         23    2    1    0    0    0  0.21799405846E+02  0.13376036662E+02  0.14136115921E+02  0.95777367926E+02  0.91210426934E+02 0.  0.
         11    1    3    3    0    0 -0.16677810516E+02 -0.31380339653E+02  0.25472670328E+01  0.35628130037E+02  0.51100000000E-03 0.  1.
         22    1    1    0    0    0 -0.21799405846E+02 -0.13376036662E+02 -0.14136115921E+02  0.29222632074E+02  0.00000000000E+00 0. -1.
</event>
<event>
 5    1  0.8962567E-005  0.9118800E+02  0.7818608E-02  0.1130116E+00
         25   -1    0    0    0    0  0.00000000000E+00  0.00000000000E+00  0.99999998245E-14  0.12500000000E+03  0.12500000000E+03 0.  0.
        -11    1    3    3    0    0 -0.30345060800E+02 -0.16606360583E+02  0.49402151909E+02  0.60308925876E+02  0.51100000000E-03 0.  1.
         23    2    1    0    0    0 -0.14639370849E+02  0.23838912980E+01  0.29484275508E+02  0.91995203093E+02  0.85870837735E+02 0.  0.
         11    1    3    3    0    0  0.15705689951E+02  0.18990251881E+02 -0.19917876401E+02  0.31686277218E+02  0.51100000000E-03 0. -1.
         22    1    1    0    0    0  0.14639370849E+02 -0.23838912980E+01 -0.29484275508E+02  0.33004796907E+02  0.00000000000E+00 0.  1.
</event>
<event>
 5    1  0.8962567E-005  0.9118800E+02  0.7818608E-02  0.1130116E+00
         25   -1    0    0    0    0  0.00000000000E+00  0.00000000000E+00  0.99999998245E-14  0.12500000000E+03  0.12500000000E+03 0.  0.
        -11    1    3    3    0    0 -0.95950751066E+01  0.47135211480E+01 -0.38035683160E+02  0.39509441170E+02  0.51100000000E-03 0. -1.
         23    2    1    0    0    0 -0.26499428768E+02 -0.73566925133E+01  0.12978154241E+02  0.94589917177E+02  0.89568294024E+02 0.  0.
         11    1    3    3    0    0 -0.16904353662E+02 -0.12070213661E+02  0.51013837401E+02  0.55080476007E+02  0.51100000000E-03 0.  1.
         22    1    1    0    0    0  0.26499428768E+02  0.73566925133E+01 -0.12978154241E+02  0.30410082823E+02  0.00000000000E+00 0.  1.
</event>
<event>
 5    1  0.8962567E-005  0.9118800E+02  0.7818608E-02  0.1130116E+00
         25   -1    0    0    0    0  0.00000000000E+00  0.00000000000E+00  0.99999998245E-14  0.12500000000E+03  0.12500000000E+03 0.  0.
        -11    1    3    3    0    0 -0.53930145877E+01 -0.89874468603E+01 -0.40137299069E+02  0.41483268726E+02  0.51100000000E-03 0.  1.
         23    2    1    0    0    0  0.13130219630E+02  0.26970396573E+02 -0.60061348885E+01  0.94407866777E+02  0.89313866192E+02 0.  0.
         11    1    3    3    0    0  0.18523234218E+02  0.35957843434E+02  0.34131164180E+02  0.52924598051E+02  0.51100000000E-03 0. -1.
         22    1    1    0    0    0 -0.13130219630E+02 -0.26970396573E+02  0.60061348885E+01  0.30592133223E+02  0.00000000000E+00 0. -1.
</event>
<event>
 5    1  0.8962567E-005  0.9118800E+02  0.7818608E-02  0.1130116E+00
         25   -1    0    0    0    0  0.00000000000E+00  0.00000000000E+00  0.99999998245E-14  0.12500000000E+03  0.12500000000E+03 0.  0.
        -11    1    3    3    0    0 -0.26668039194E+02 -0.25217410944E+02  0.12380473222E+02  0.38734716298E+02  0.51100000000E-03 0. -1.
         23    2    1    0    0    0 -0.10584065847E+00 -0.35480356641E+01 -0.30872179515E+02  0.93924427160E+02  0.88634681644E+02 0.  0.
         11    1    3    3    0    0  0.26562198536E+02  0.21669375280E+02 -0.43252652737E+02  0.55189710863E+02  0.51100000000E-03 0.  1.
         22    1    1    0    0    0  0.10584065847E+00  0.35480356641E+01  0.30872179515E+02  0.31075572840E+02  0.00000000000E+00 0.  1.
</event>
<event>
 5    1  0.8962567E-005  0.9118800E+02  0.7818608E-02  0.1130116E+00
         25   -1    0    0    0    0  0.00000000000E+00  0.00000000000E+00  0.99999998245E-14  0.12500000000E+03  0.12500000000E+03 0.  0.
        -11    1    3    3    0    0 -0.21498183065E+02  0.31485847340E+02  0.45729177261E+02  0.59537283369E+02  0.51100000000E-03 0. -1.
         23    2    1    0    0    0 -0.54122974839E+01  0.26054187745E+02  0.15509662669E+02  0.94199621768E+02  0.89021937982E+02 0.  0.
         11    1    3    3    0    0  0.16085885581E+02 -0.54316595949E+01 -0.30219514592E+02  0.34662338399E+02  0.51100000000E-03 0.  1.
         22    1    1    0    0    0  0.54122974839E+01 -0.26054187745E+02 -0.15509662669E+02  0.30800378232E+02  0.00000000000E+00 0. -1.
</event>
<event>
 5    1  0.8962567E-005  0.9118800E+02  0.7818608E-02  0.1130116E+00
         25   -1    0    0    0    0  0.00000000000E+00  0.00000000000E+00  0.99999998245E-14  0.12500000000E+03  0.12500000000E+03 0.  0.
        -11    1    3    3    0    0 -0.30475796378E+02  0.30016144568E+02  0.72538507240E+01  0.43386189625E+02  0.51100000000E-03 0.  1.
         23    2    1    0    0    0  0.70250597460E+01  0.11904786632E+02 -0.25249582660E+02  0.96214294629E+02  0.91807263641E+02 0.  0.
         11    1    3    3    0    0  0.37500856123E+02 -0.18111357936E+02 -0.32503433384E+02  0.52828105004E+02  0.51100000000E-03 0. -1.
         22    1    1    0    0    0 -0.70250597460E+01 -0.11904786632E+02  0.25249582660E+02  0.28785705371E+02  0.00000000000E+00 0. -1.
</event>
<event>
 5    1  0.8962567E-005  0.9118800E+02  0.7818608E-02  0.1130116E+00
         25   -1    0    0    0    0  0.00000000000E+00  0.00000000000E+00  0.99999998245E-14  0.12500000000E+03  0.12500000000E+03 0.  0.
        -11    1    3    3    0    0  0.38029081860E+02 -0.20390206262E+02  0.88075313125E+01  0.44040256432E+02  0.51100000000E-03 0.  1.
         23    2    1    0    0    0 -0.46716501745E+01  0.46089141778E+01 -0.21807773922E+02  0.10222621225E+03  0.99657177671E+02 0.  0.
         11    1    3    3    0    0 -0.42700732034E+02  0.24999120440E+02 -0.30615305234E+02  0.58185955813E+02  0.51100000000E-03 0. -1.
         22    1    1    0    0    0  0.46716501745E+01 -0.46089141778E+01  0.21807773922E+02  0.22773787754E+02  0.00000000000E+00 0. -1.
</event>
<event>
 5    1  0.8962567E-005  0.9118800E+02  0.7818608E-02  0.1130116E+00
         25   -1    0    0    0    0  0.00000000000E+00  0.00000000000E+00  0.99999998245E-14  0.12500000000E+03  0.12500000000E+03 0.  0.
        -11    1    3    3    0    0 -0.61133765356E+02 -0.11595965352E+02 -0.31755200400E+01  0.62304796018E+02  0.51100000000E-03 0. -1.
         23    2    1    0    0    0 -0.37327240673E+02 -0.89929199671E+01 -0.47876165842E+01  0.86307406673E+02  0.77148244752E+02 0.  0.
         11    1    3    3    0    0  0.23806524683E+02  0.26030453850E+01 -0.16120965442E+01  0.24002610655E+02  0.51100000000E-03 0.  1.
         22    1    1    0    0    0  0.37327240673E+02  0.89929199671E+01  0.47876165842E+01  0.38692593327E+02  0.00000000000E+00 0. -1.
</event>
<event>
 5    1  0.8962567E-005  0.9118800E+02  0.7818608E-02  0.1130116E+00
         25   -1    0    0    0    0  0.00000000000E+00  0.00000000000E+00  0.99999998245E-14  0.12500000000E+03  0.12500000000E+03 0.  0.
        -11    1    3    3    0    0 -0.87455198270E+01 -0.21928455147E+02  0.32616977733E+02  0.40264233494E+02  0.51100000000E-03 0.  1.
         23    2    1    0    0    0 -0.29814299985E+01 -0.12071158922E+02 -0.23972753143E+02  0.97994543222E+02  0.94199977736E+02 0.  0.
         11    1    3    3    0    0  0.57640898285E+01  0.98572962247E+01 -0.56589730876E+02  0.57730309728E+02  0.51100000000E-03 0. -1.
         22    1    1    0    0    0  0.29814299985E+01  0.12071158922E+02  0.23972753143E+02  0.27005456778E+02  0.00000000000E+00 0. -1.
</event>
<event>
 5    1  0.8962567E-005  0.9118800E+02  0.7818608E-02  0.1130116E+00
         25   -1    0    0    0    0  0.00000000000E+00  0.00000000000E+00  0.99999998245E-14  0.12500000000E+03  0.12500000000E+03 0.  0.
        -11    1    3    3    0    0  0.36474925300E+02 -0.11339796826E+02 -0.19485156312E+01  0.38246671504E+02  0.51100000000E-03 0. -1.
         23    2    1    0    0    0 -0.52948639910E+01  0.23341842964E+02 -0.18215055083E+02  0.94922343021E+02  0.90031026626E+02 0.  0.
         11    1    3    3    0    0 -0.41769789291E+02  0.34681639790E+02 -0.16266539452E+02  0.56675671517E+02  0.51100000000E-03 0.  1.
         22    1    1    0    0    0  0.52948639910E+01 -0.23341842964E+02  0.18215055083E+02  0.30077656979E+02  0.00000000000E+00 0.  1.
</event>
<event>
 5    1  0.8962567E-005  0.9118800E+02  0.7818608E-02  0.1130116E+00
         25   -1    0    0    0    0  0.00000000000E+00  0.00000000000E+00  0.99999998245E-14  0.12500000000E+03  0.12500000000E+03 0.  0.
        -11    1    3    3    0    0 -0.20194076023E+02 -0.14778182422E+02 -0.26280490478E+02  0.36288559660E+02  0.51100000000E-03 0.  1.
         23    2    1    0    0    0  0.34479750733E+01 -0.14004229662E+02  0.26891643359E+02  0.94484963328E+02  0.89421702243E+02 0.  0.
         11    1    3    3    0    0  0.23642051097E+02  0.77395275992E+00  0.53172133837E+02  0.58196403669E+02  0.51100000000E-03 0. -1.
         22    1    1    0    0    0 -0.34479750733E+01  0.14004229662E+02 -0.26891643359E+02  0.30515036672E+02  0.00000000000E+00 0. -1.
</event>
<event>
 5    1  0.8962567E-005  0.9118800E+02  0.7818608E-02  0.1130116E+00
         25   -1    0    0    0    0  0.00000000000E+00  0.00000000000E+00  0.99999998245E-14  0.12500000000E+03  0.12500000000E+03 0.  0.
        -11    1    3    3    0    0  0.26052719482E+02 -0.24036238002E+02 -0.31158578826E+01  0.35583612806E+02  0.51100000000E-03 0.  1.
         23    2    1    0    0    0 -0.29863160226E+02 -0.50340783817E+01 -0.13636412892E+00  0.94715203830E+02  0.89742971634E+02 0.  0.
         11    1    3    3    0    0 -0.55915879708E+02  0.19002159621E+02  0.29794937536E+01  0.59131591025E+02  0.51100000000E-03 0. -1.
         22    1    1    0    0    0  0.29863160226E+02  0.50340783817E+01  0.13636412892E+00  0.30284796170E+02  0.00000000000E+00 0. -1.
</event>
<event>
 5    1  0.8962567E-005  0.9118800E+02  0.7818608E-02  0.1130116E+00
         25   -1    0    0    0    0  0.00000000000E+00  0.00000000000E+00  0.99999998245E-14  0.12500000000E+03  0.12500000000E+03 0.  0.
        -11    1    3    3    0    0  0.75504203513E+01 -0.19664258478E+02 -0.13362468990E+02  0.24944888991E+02  0.51100000000E-03 0. -1.
         23    2    1    0    0    0  0.99596499858E+01 -0.14186352803E+02  0.41444083735E+02  0.80077184969E+02  0.66289488173E+02 0.  0.
         11    1    3    3    0    0  0.24092296345E+01  0.54779056750E+01  0.54806552725E+02  0.55132295978E+02  0.51100000000E-03 0.  1.
         22    1    1    0    0    0 -0.99596499858E+01  0.14186352803E+02 -0.41444083735E+02  0.44922815031E+02  0.00000000000E+00 0.  1.
</event>
<event>
 5    1  0.8962567E-005  0.9118800E+02  0.7818608E-02  0.1130116E+00
         25   -1    0    0    0    0  0.00000000000E+00  0.00000000000E+00  0.99999998245E-14  0.12500000000E+03  0.12500000000E+03 0.  0.
        -11    1    3    3    0    0 -0.11674942031E+02 -0.32320066408E+02 -0.12723768282E+02  0.36644034215E+02  0.51100000000E-03 0.  1.
         23    2    1    0    0    0 -0.15283357534E+02  0.25001105062E+02  0.94309516894E+00  0.95682331260E+02  0.91080090113E+02 0.  0.
         11    1    3    3    0    0 -0.36084155027E+01  0.57321171470E+02  0.13666863450E+02  0.59038297045E+02  0.51100000000E-03 0. -1.
         22    1    1    0    0    0  0.15283357534E+02 -0.25001105062E+02 -0.94309516894E+00  0.29317668740E+02  0.00000000000E+00 0. -1.
</event>
<event>
 5    1  0.8962567E-005  0.9118800E+02  0.7818608E-02  0.1130116E+00
         25   -1    0    0    0    0  0.00000000000E+00  0.00000000000E+00  0.99999998245E-14  0.12500000000E+03  0.12500000000E+03 0.  0.
        -11    1    3    3    0    0 -0.30153189087E+02  0.15666557309E+02  0.50469672341E+02  0.60842778179E+02  0.51100000000E-03 0.  1.
         23    2    1    0    0    0 -0.22533632650E+02  0.15067795134E+01  0.22403612641E+02  0.93188730860E+02  0.87590996770E+02 0.  0.
         11    1    3    3    0    0  0.76195564373E+01 -0.14159777795E+02 -0.28066059700E+02  0.32345952681E+02  0.51100000000E-03 0. -1.
         22    1    1    0    0    0  0.22533632650E+02 -0.15067795134E+01 -0.22403612641E+02  0.31811269140E+02  0.00000000000E+00 0.  1.
</event>
<event>
 5    1  0.8962567E-005  0.9118800E+02  0.7818608E-02  0.1130116E+00
         25   -1    0    0    0    0  0.00000000000E+00  0.00000000000E+00  0.99999998245E-14  0.12500000000E+03  0.12500000000E+03 0.  0.
        -11    1    3    3    0    0  0.34605473675E+02 -0.38868061174E+02  0.22034564711E+02  0.56513600398E+02  0.51100000000E-03 0.  1.
         23    2    1    0    0    0  0.48264105626E+00 -0.17920507317E+02  0.22087150835E+02  0.96553211835E+02  0.92267561791E+02 0.  0.
         11    1    3    3    0    0 -0.34122832618E+02  0.20947553857E+02  0.52586124431E-01  0.40039611437E+02  0.51100000000E-03 0. -1.
         22    1    1    0    0    0 -0.48264105626E+00  0.17920507317E+02 -0.22087150835E+02  0.28446788165E+02  0.00000000000E+00 0.  1.
</event>
<event>
 5    1  0.8962567E-005  0.9118800E+02  0.7818608E-02  0.1130116E+00
         25   -1    0    0    0    0  0.00000000000E+00  0.00000000000E+00  0.99999998245E-14  0.12500000000E+03  0.12500000000E+03 0.  0.
        -11    1    3    3    0    0 -0.77848369026E+00 -0.23210050574E+02 -0.28407980447E+02  0.36692313062E+02  0.51100000000E-03 0. -1.
         23    2    1    0    0    0  0.24920938531E+02  0.13144668066E+02  0.96038192177E+01  0.95233091874E+02  0.90461444652E+02 0.  0.
         11    1    3    3    0    0  0.25699422221E+02  0.36354718640E+02  0.38011799665E+02  0.58540778812E+02  0.51100000000E-03 0.  1.
         22    1    1    0    0    0 -0.24920938531E+02 -0.13144668066E+02 -0.96038192177E+01  0.29766908126E+02  0.00000000000E+00 0.  1.
</event>
<event>
 5    1  0.8962567E-005  0.9118800E+02  0.7818608E-02  0.1130116E+00
         25   -1    0    0    0    0  0.00000000000E+00  0.00000000000E+00  0.99999998245E-14  0.12500000000E+03  0.12500000000E+03 0.  0.
        -11    1    3    3    0    0  0.26583887236E+02 -0.42177768485E+02  0.77408513105E+01  0.50453820413E+02  0.51100000000E-03 0. -1.
         23    2    1    0    0    0  0.26270790082E+02  0.37014874490E+01  0.10616994795E+02  0.96424206059E+02  0.92092624650E+02 0.  0.
         11    1    3    3    0    0 -0.31309715427E+00  0.45879255934E+02  0.28761434841E+01  0.45970385647E+02  0.51100000000E-03 0.  1.
         22    1    1    0    0    0 -0.26270790082E+02 -0.37014874490E+01 -0.10616994795E+02  0.28575793941E+02  0.00000000000E+00 0.  1.
</event>
<event>
 5    1  0.8962567E-005  0.9118800E+02  0.7818608E-02  0.1130116E+00
         25   -1    0    0    0    0  0.00000000000E+00  0.00000000000E+00  0.99999998245E-14  0.12500000000E+03  0.12500000000E+03 0.  0.
        -11    1    3    3    0    0 -0.16978407079E+02  0.39801574473E+02 -0.83104085292E+01  0.44062393576E+02  0.51100000000E-03 0.  1.
         23    2    1    0    0    0 -0.25758462169E+02 -0.98828656927E+01  0.65192862069E+01  0.96650917118E+02  0.92399833763E+02 0.  0.
         11    1    3    3    0    0 -0.87800550901E+01 -0.49684440166E+02  0.14829694736E+02  0.52588523541E+02  0.51100000000E-03 0. -1.
         22    1    1    0    0    0  0.25758462169E+02  0.98828656927E+01 -0.65192862069E+01  0.28349082882E+02  0.00000000000E+00 0. -1.
</event>
<event>
 5    1  0.8962567E-005  0.9118800E+02  0.7818608E-02  0.1130116E+00
         25   -1    0    0    0    0  0.00000000000E+00  0.00000000000E+00  0.99999998245E-14  0.12500000000E+03  0.12500000000E+03 0.  0.
        -11    1    3    3    0    0  0.42324611004E+01  0.43784699725E+02 -0.23656181982E+02  0.49946257149E+02  0.51100000000E-03 0. -1.
         23    2    1    0    0    0 -0.24833322509E+01 -0.59801249022E+01 -0.23977842426E+02  0.10016321759E+03  0.97035067879E+02 0.  0.
         11    1    3    3    0    0 -0.67157933513E+01 -0.49764824627E+02 -0.32166044423E+00  0.50216960444E+02  0.51100000000E-03 0.  1.
         22    1    1    0    0    0  0.24833322509E+01  0.59801249022E+01  0.23977842426E+02  0.24836782407E+02  0.00000000000E+00 0.  1.
</event>
<event>
 5    1  0.8962567E-005  0.9118800E+02  0.7818608E-02  0.1130116E+00
         25   -1    0    0    0    0  0.00000000000E+00  0.00000000000E+00  0.99999998245E-14  0.12500000000E+03  0.12500000000E+03 0.  0.
        -11    1    3    3    0    0  0.14213597185E+02 -0.26487497452E+02 -0.22763634392E+02  0.37706722440E+02  0.51100000000E-03 0.  1.
         23    2    1    0    0    0 -0.26926017649E+02  0.10547434683E+02 -0.76167445747E+01  0.95095592252E+02  0.90271247156E+02 0.  0.
         11    1    3    3    0    0 -0.41139614834E+02  0.37034932134E+02  0.15146889817E+02  0.57388869812E+02  0.51100000000E-03 0. -1.
         22    1    1    0    0    0  0.26926017649E+02 -0.10547434683E+02  0.76167445747E+01  0.29904407748E+02  0.00000000000E+00 0. -1.
</event>
<event>
 5    1  0.8962567E-005  0.9118800E+02  0.7818608E-02  0.1130116E+00
         25   -1    0    0    0    0  0.00000000000E+00  0.00000000000E+00  0.99999998245E-14  0.12500000000E+03  0.12500000000E+03 0.  0.
        -11    1    3    3    0    0 -0.24063129030E+02  0.22066411766E+02  0.52260083963E+01  0.33064661966E+02  0.51100000000E-03 0. -1.
         23    2    1    0    0    0  0.19104079230E+02 -0.18008407273E+02 -0.14282115417E+02  0.95112755288E+02  0.90295009950E+02 0.  0.
         11    1    3    3    0    0  0.43167208260E+02 -0.40074819038E+02 -0.19508123813E+02  0.62048093322E+02  0.51100000000E-03 0.  1.
         22    1    1    0    0    0 -0.19104079230E+02  0.18008407273E+02  0.14282115417E+02  0.29887244712E+02  0.00000000000E+00 0.  1.
</event>
<event>
 5    1  0.8962567E-005  0.9118800E+02  0.7818608E-02  0.1130116E+00
         25   -1    0    0    0    0  0.00000000000E+00  0.00000000000E+00  0.99999998245E-14  0.12500000000E+03  0.12500000000E+03 0.  0.
        -11    1    3    3    0    0  0.19123284058E+02  0.23965819341E+02  0.20717575569E+02  0.37003762344E+02  0.51100000000E-03 0.  1.
         23    2    1    0    0    0 -0.80027102860E+00 -0.16794858153E+02 -0.20628746980E+02  0.98386978825E+02  0.94719294266E+02 0.  0.
         11    1    3    3    0    0 -0.19923555087E+02 -0.40760677493E+02 -0.41346322549E+02  0.61383216482E+02  0.51100000000E-03 0. -1.
         22    1    1    0    0    0  0.80027102860E+00  0.16794858153E+02  0.20628746980E+02  0.26613021175E+02  0.00000000000E+00 0. -1.
</event>
<event>
 5    1  0.8962567E-005  0.9118800E+02  0.7818608E-02  0.1130116E+00
         25   -1    0    0    0    0  0.00000000000E+00  0.00000000000E+00  0.99999998245E-14  0.12500000000E+03  0.12500000000E+03 0.  0.
        -11    1    3    3    0    0  0.29159961495E+02 -0.14350558859E+02  0.14067489785E+02  0.35413784930E+02  0.51100000000E-03 0. -1.
         23    2    1    0    0    0 -0.26088311851E+02  0.10204564218E+02  0.41441226006E+01  0.96682039299E+02  0.92441926769E+02 0.  0.
         11    1    3    3    0    0 -0.55248273345E+02  0.24555123077E+02 -0.99233671847E+01  0.61268254370E+02  0.51100000000E-03 0.  1.
         22    1    1    0    0    0  0.26088311851E+02 -0.10204564218E+02 -0.41441226006E+01  0.28317960701E+02  0.00000000000E+00 0.  1.
</event>
<event>
 5    1  0.8962567E-005  0.9118800E+02  0.7818608E-02  0.1130116E+00
         25   -1    0    0    0    0  0.00000000000E+00  0.00000000000E+00  0.99999998245E-14  0.12500000000E+03  0.12500000000E+03 0.  0.
        -11    1    3    3    0    0  0.37225426205E+02 -0.22377483739E+02  0.34185520239E+02  0.55273265951E+02  0.51100000000E-03 0. -1.
         23    2    1    0    0    0 -0.25680096856E+01 -0.14440845596E+02  0.23608337744E+02  0.97206362126E+02  0.93148218080E+02 0.  0.
         11    1    3    3    0    0 -0.39793435891E+02  0.79366381428E+01 -0.10577182495E+02  0.41933096175E+02  0.51100000000E-03 0.  1.
         22    1    1    0    0    0  0.25680096856E+01  0.14440845596E+02 -0.23608337744E+02  0.27793637874E+02  0.00000000000E+00 0. -1.
</event>
<event>
 5    1  0.8962567E-005  0.9118800E+02  0.7818608E-02  0.1130116E+00
         25   -1    0    0    0    0  0.00000000000E+00  0.00000000000E+00  0.99999998245E-14  0.12500000000E+03  0.12500000000E+03 0.  0.
        -11    1    3    3    0    0  0.95067106131E+01 -0.45965421271E+01 -0.42846899153E+02  0.44128930573E+02  0.51100000000E-03 0.  1.
         23    2    1    0    0    0  0.31745432903E+02 -0.44379288177E+00  0.74617418458E+00  0.93242697876E+02  0.87667978584E+02 0.  0.
         11    1    3    3    0    0  0.22238722290E+02  0.41527492453E+01  0.43593073338E+02  0.49113767303E+02  0.51100000000E-03 0. -1.
         22    1    1    0    0    0 -0.31745432903E+02  0.44379288177E+00 -0.74617418458E+00  0.31757302124E+02  0.00000000000E+00 0. -1.
</event>
<event>
 5    1  0.8962567E-005  0.9118800E+02  0.7818608E-02  0.1130116E+00
         25   -1    0    0    0    0  0.00000000000E+00  0.00000000000E+00  0.99999998245E-14  0.12500000000E+03  0.12500000000E+03 0.  0.
        -11    1    3    3    0    0 -0.32004741958E+02 -0.16262505817E+02 -0.14928221237E+02  0.38879614103E+02  0.51100000000E-03 0.  1.
         23    2    1    0    0    0 -0.50490818156E+01  0.43839893352E+01  0.29474384071E+02  0.94776633112E+02  0.89828493687E+02 0.  0.
         11    1    3    3    0    0  0.26955660143E+02  0.20646495152E+02  0.44402605308E+02  0.55897019009E+02  0.51100000000E-03 0. -1.
         22    1    1    0    0    0  0.50490818156E+01 -0.43839893352E+01 -0.29474384071E+02  0.30223366888E+02  0.00000000000E+00 0. -1.
</event>
<event>
 5    1  0.8962567E-005  0.9118800E+02  0.7818608E-02  0.1130116E+00
         25   -1    0    0    0    0  0.00000000000E+00  0.00000000000E+00  0.99999998245E-14  0.12500000000E+03  0.12500000000E+03 0.  0.
        -11    1    3    3    0    0  0.25447141150E+02 -0.36377382138E+02  0.35359175273E+02  0.56755107261E+02  0.51100000000E-03 0.  1.
         23    2    1    0    0    0 -0.37605804779E+01 -0.27599220104E+02  0.17719819327E+02  0.91987109899E+02  0.85859055869E+02 0.  0.
         11    1    3    3    0    0 -0.29207721628E+02  0.87781620338E+01 -0.17639355947E+02  0.35232002638E+02  0.51100000000E-03 0. -1.
         22    1    1    0    0    0  0.37605804779E+01  0.27599220104E+02 -0.17719819327E+02  0.33012890101E+02  0.00000000000E+00 0.  1.
</event>
<event>
 5    1  0.8962567E-005  0.9118800E+02  0.7818608E-02  0.1130116E+00
         25   -1    0    0    0    0  0.00000000000E+00  0.00000000000E+00  0.99999998245E-14  0.12500000000E+03  0.12500000000E+03 0.  0.
        -11    1    3    3    0    0 -0.27947791381E+02 -0.35073770646E+02 -0.39963193847E+02  0.60069170904E+02  0.51100000000E-03 0.  1.
         23    2    1    0    0    0 -0.66039667583E+01 -0.25616309829E+02 -0.13697186227E+02  0.95210394149E+02  0.90430075402E+02 0.  0.
         11    1    3    3    0    0  0.21343824622E+02  0.94574608165E+01  0.26266007620E+02  0.35141223245E+02  0.51100000000E-03 0. -1.
         22    1    1    0    0    0  0.66039667583E+01  0.25616309829E+02  0.13697186227E+02  0.29789605851E+02  0.00000000000E+00 0.  1.
</event>
<event>
 5    1  0.8962567E-005  0.9118800E+02  0.7818608E-02  0.1130116E+00
         25   -1    0    0    0    0  0.00000000000E+00  0.00000000000E+00  0.99999998245E-14  0.12500000000E+03  0.12500000000E+03 0.  0.
        -11    1    3    3    0    0  0.45405246742E+01 -0.41729515964E+02 -0.18137901891E+02  0.45726932460E+02  0.51100000000E-03 0.  1.
         23    2    1    0    0    0 -0.25450269689E+02 -0.21983656227E+01 -0.14841563043E+02  0.95456455321E+02  0.90769564449E+02 0.  0.
         11    1    3    3    0    0 -0.29990794363E+02  0.39531150342E+02  0.32963388481E+01  0.49729522861E+02  0.51100000000E-03 0. -1.
         22    1    1    0    0    0  0.25450269689E+02  0.21983656227E+01  0.14841563043E+02  0.29543544679E+02  0.00000000000E+00 0. -1.
</event>
<event>
 5    1  0.8962567E-005  0.9118800E+02  0.7818608E-02  0.1130116E+00
         25   -1    0    0    0    0  0.00000000000E+00  0.00000000000E+00  0.99999998245E-14  0.12500000000E+03  0.12500000000E+03 0.  0.
        -11    1    3    3    0    0 -0.50088899413E+02  0.33314242498E+01 -0.20070370244E+02  0.54063074219E+02  0.51100000000E-03 0. -1.
         23    2    1    0    0    0 -0.21490139592E+02 -0.17413537789E+02  0.43341240876E+01  0.97002821042E+02  0.92874675022E+02 0.  0.
         11    1    3    3    0    0  0.28598759822E+02 -0.20744962039E+02  0.24404494332E+02  0.42939746823E+02  0.51100000000E-03 0.  1.
         22    1    1    0    0    0  0.21490139592E+02  0.17413537789E+02 -0.43341240876E+01  0.27997178958E+02  0.00000000000E+00 0. -1.
</event>
<event>
 5    1  0.8962567E-005  0.9118800E+02  0.7818608E-02  0.1130116E+00
         25   -1    0    0    0    0  0.00000000000E+00  0.00000000000E+00  0.99999998245E-14  0.12500000000E+03  0.12500000000E+03 0.  0.
        -11    1    3    3    0    0  0.31982377444E+02 -0.15792221435E+02 -0.30509837968E+02  0.46937372507E+02  0.51100000000E-03 0. -1.
         23    2    1    0    0    0  0.23518289594E+02 -0.90216335014E+01  0.16307332833E+02  0.94992852175E+02  0.90128869092E+02 0.  0.
         11    1    3    3    0    0 -0.84640878494E+01  0.67705879335E+01  0.46817170800E+02  0.48055479668E+02  0.51100000000E-03 0.  1.
         22    1    1    0    0    0 -0.23518289594E+02  0.90216335014E+01 -0.16307332833E+02  0.30007147825E+02  0.00000000000E+00 0. -1.
</event>
<event>
 5    1  0.8962567E-005  0.9118800E+02  0.7818608E-02  0.1130116E+00
         25   -1    0    0    0    0  0.00000000000E+00  0.00000000000E+00  0.99999998245E-14  0.12500000000E+03  0.12500000000E+03 0.  0.
        -11    1    3    3    0    0  0.24867344771E+02  0.16042200438E+02  0.14556056197E+02  0.32979020652E+02  0.51100000000E-03 0.  1.
         23    2    1    0    0    0 -0.18916378763E+02 -0.17963783573E+02 -0.14057922948E+02  0.95366368711E+02  0.90645420059E+02 0.  0.
         11    1    3    3    0    0 -0.43783723534E+02 -0.34005984011E+02 -0.28613979145E+02  0.62387348059E+02  0.51100000000E-03 0. -1.
         22    1    1    0    0    0  0.18916378763E+02  0.17963783573E+02  0.14057922948E+02  0.29633631289E+02  0.00000000000E+00 0. -1.
</event>
<event>
 5    1  0.8962567E-005  0.9118800E+02  0.7818608E-02  0.1130116E+00
         25   -1    0    0    0    0  0.00000000000E+00  0.00000000000E+00  0.99999998245E-14  0.12500000000E+03  0.12500000000E+03 0.  0.
        -11    1    3    3    0    0 -0.30993339209E+02  0.27053923281E+02  0.38784142480E+01  0.41322438670E+02  0.51100000000E-03 0.  1.
         23    2    1    0    0    0 -0.69336273197E+00 -0.45548383043E+01 -0.28721431315E+02  0.95911378158E+02  0.91393897715E+02 0.  0.
         11    1    3    3    0    0  0.30299976477E+02 -0.31608761586E+02 -0.32599845563E+02  0.54588939489E+02  0.51100000000E-03 0. -1.
         22    1    1    0    0    0  0.69336273197E+00  0.45548383043E+01  0.28721431315E+02  0.29088621842E+02  0.00000000000E+00 0. -1.
</event>
<event>
 5    1  0.8962567E-005  0.9118800E+02  0.7818608E-02  0.1130116E+00
         25   -1    0    0    0    0  0.00000000000E+00  0.00000000000E+00  0.99999998245E-14  0.12500000000E+03  0.12500000000E+03 0.  0.
        -11    1    3    3    0    0  0.16927662998E+02 -0.13645323931E+02 -0.42202607036E+02  0.47474210690E+02  0.51100000000E-03 0. -1.
         23    2    1    0    0    0  0.76839061858E+01  0.24505815021E+02 -0.14655918836E+02  0.95430195451E+02  0.90733394419E+02 0.  0.
         11    1    3    3    0    0 -0.92437568119E+01  0.38151138952E+02  0.27546688200E+02  0.47955984761E+02  0.51100000000E-03 0.  1.
         22    1    1    0    0    0 -0.76839061858E+01 -0.24505815021E+02  0.14655918836E+02  0.29569804549E+02  0.00000000000E+00 0. -1.
</event>
<event>
 5    1  0.8962567E-005  0.9118800E+02  0.7818608E-02  0.1130116E+00
         25   -1    0    0    0    0  0.00000000000E+00  0.00000000000E+00  0.99999998245E-14  0.12500000000E+03  0.12500000000E+03 0.  0.
        -11    1    3    3    0    0 -0.20360946649E+02  0.52495797011E+02  0.21971714451E+02  0.60441153930E+02  0.51100000000E-03 0. -1.
         23    2    1    0    0    0 -0.19979045582E+02  0.20824447048E+02  0.80476459871E+01  0.95040285996E+02  0.90194631210E+02 0.  0.
         11    1    3    3    0    0  0.38190106700E+00 -0.31671349963E+02 -0.13924068464E+02  0.34599132066E+02  0.51100000000E-03 0.  1.
         22    1    1    0    0    0  0.19979045582E+02 -0.20824447048E+02 -0.80476459871E+01  0.29959714004E+02  0.00000000000E+00 0. -1.
</event>
<event>
 5    1  0.8962567E-005  0.9118800E+02  0.7818608E-02  0.1130116E+00
         25   -1    0    0    0    0  0.00000000000E+00  0.00000000000E+00  0.99999998245E-14  0.12500000000E+03  0.12500000000E+03 0.  0.
        -11    1    3    3    0    0 -0.89127306479E+01 -0.18190137017E+02 -0.27717911314E+02  0.34330750941E+02  0.51100000000E-03 0.  1.
         23    2    1    0    0    0  0.18236167354E+02  0.27342270362E+02 -0.61417057525E+01  0.91565315945E+02  0.85242765008E+02 0.  0.
         11    1    3    3    0    0  0.27148898002E+02  0.45532407379E+02  0.21576205561E+02  0.57234565004E+02  0.51100000000E-03 0. -1.
         22    1    1    0    0    0 -0.18236167354E+02 -0.27342270362E+02  0.61417057525E+01  0.33434684055E+02  0.00000000000E+00 0. -1.
</event>
<event>
 5    1  0.8962567E-005  0.9118800E+02  0.7818608E-02  0.1130116E+00
         25   -1    0    0    0    0  0.00000000000E+00  0.00000000000E+00  0.99999998245E-14  0.12500000000E+03  0.12500000000E+03 0.  0.
        -11    1    3    3    0    0  0.25939151550E+02 -0.51913749984E+02  0.98203300774E+00  0.58041721284E+02  0.51100000000E-03 0. -1.
         23    2    1    0    0    0  0.23768355546E+02 -0.13845230217E+02 -0.61018335356E+01  0.96824523116E+02  0.92634393068E+02 0.  0.
         11    1    3    3    0    0 -0.21707960043E+01  0.38068519767E+02 -0.70838665433E+01  0.38782801832E+02  0.51100000000E-03 0.  1.
         22    1    1    0    0    0 -0.23768355546E+02  0.13845230217E+02  0.61018335356E+01  0.28175476884E+02  0.00000000000E+00 0. -1.
</event>
<event>
 5    1  0.8962567E-005  0.9118800E+02  0.7818608E-02  0.1130116E+00
         25   -1    0    0    0    0  0.00000000000E+00  0.00000000000E+00  0.99999998245E-14  0.12500000000E+03  0.12500000000E+03 0.  0.
        -11    1    3    3    0    0 -0.21464310090E+02 -0.43630539571E+02  0.11377277890E+02  0.49937791734E+02  0.51100000000E-03 0.  1.
         23    2    1    0    0    0 -0.26557384599E+02  0.26457078061E+01  0.99543583818E+01  0.96515202347E+02  0.92216053845E+02 0.  0.
         11    1    3    3    0    0 -0.50930745091E+01  0.46276247377E+02 -0.14229195079E+01  0.46577410613E+02  0.51100000000E-03 0. -1.
         22    1    1    0    0    0  0.26557384599E+02 -0.26457078061E+01 -0.99543583818E+01  0.28484797653E+02  0.00000000000E+00 0. -1.
</event>
<event>
 5    1  0.8962567E-005  0.9118800E+02  0.7818608E-02  0.1130116E+00
         25   -1    0    0    0    0  0.00000000000E+00  0.00000000000E+00  0.99999998245E-14  0.12500000000E+03  0.12500000000E+03 0.  0.
        -11    1    3    3    0    0  0.46076573914E+01 -0.47109474570E+02 -0.39911898858E+02  0.61915206304E+02  0.51100000000E-03 0. -1.
         23    2    1    0    0    0  0.66252312818E+01 -0.19139615091E+02 -0.21502827077E+02  0.95460363447E+02  0.90774946222E+02 0.  0.
         11    1    3    3    0    0  0.20175738904E+01  0.27969859478E+02  0.18409071781E+02  0.33545157143E+02  0.51100000000E-03 0.  1.
         22    1    1    0    0    0 -0.66252312818E+01  0.19139615091E+02  0.21502827077E+02  0.29539636553E+02  0.00000000000E+00 0. -1.
</event>
<event>
 4    1  0.8962567E-005  0.9118800E+02  0.7818608E-02  0.1130116E+00
         25   -1    0    0    0    0  0.00000000000E+00  0.00000000000E+00  0.99999998245E-14  0.12500000000E+03  0.12500000000E+03 0.  0.
        -11    1    1    0    0    0  0.16369064729E+02 -0.17220983935E+02  0.62059771256E+00  0.23767492707E+02  0.51100000000E-03 0. -1.
         11    1    1    0    0    0  0.67481270502E+01  0.86147368435E+01 -0.47239159185E+02  0.48490092497E+02  0.51100000000E-03 0.  1.
         22    1    1    0    0    0 -0.23117191779E+02  0.86062470912E+01  0.46618561473E+02  0.52742414796E+02  0.00000000000E+00 0.  1.
</event>
<event>
 5    1  0.8962567E-005  0.9118800E+02  0.7818608E-02  0.1130116E+00
         25   -1    0    0    0    0  0.00000000000E+00  0.00000000000E+00  0.99999998245E-14  0.12500000000E+03  0.12500000000E+03 0.  0.
        -11    1    3    3    0    0  0.32590390795E+02 -0.23187340382E+02 -0.45749405033E+02  0.60768366667E+02  0.51100000000E-03 0.  1.
         23    2    1    0    0    0  0.23390777491E+02 -0.64257126349E+01 -0.16683816981E+02  0.95559076041E+02  0.90910774995E+02 0.  0.
         11    1    3    3    0    0 -0.91996133044E+01  0.16761627748E+02  0.29065588052E+02  0.34790709374E+02  0.51100000000E-03 0. -1.
         22    1    1    0    0    0 -0.23390777491E+02  0.64257126349E+01  0.16683816981E+02  0.29440923959E+02  0.00000000000E+00 0.  1.
</event>
<event>
 5    1  0.8962567E-005  0.9118800E+02  0.7818608E-02  0.1130116E+00
         25   -1    0    0    0    0  0.00000000000E+00  0.00000000000E+00  0.99999998245E-14  0.12500000000E+03  0.12500000000E+03 0.  0.
        -11    1    3    3    0    0  0.14822329131E+01 -0.33675945867E+02  0.89921996388E+01  0.34887332932E+02  0.51100000000E-03 0.  1.
         23    2    1    0    0    0  0.17733424559E+02  0.23065882341E+02 -0.48289940333E+01  0.95507145643E+02  0.90839343958E+02 0.  0.
         11    1    3    3    0    0  0.16251191646E+02  0.56741828208E+02 -0.13821193672E+02  0.60619812711E+02  0.51100000000E-03 0. -1.
         22    1    1    0    0    0 -0.17733424559E+02 -0.23065882341E+02  0.48289940333E+01  0.29492854357E+02  0.00000000000E+00 0. -1.
</event>
<event>
 5    1  0.8962567E-005  0.9118800E+02  0.7818608E-02  0.1130116E+00
         25   -1    0    0    0    0  0.00000000000E+00  0.00000000000E+00  0.99999998245E-14  0.12500000000E+03  0.12500000000E+03 0.  0.
        -11    1    3    3    0    0 -0.51913584136E+02  0.25858491690E+01  0.29783552557E+02  0.59906317171E+02  0.51100000000E-03 0.  1.
         23    2    1    0    0    0 -0.19059520013E+02 -0.81426989596E+01  0.20844587710E+02  0.95605005761E+02  0.90973905271E+02 0.  0.
         11    1    3    3    0    0  0.32854064122E+02 -0.10728548129E+02 -0.89389648472E+01  0.35698688591E+02  0.51100000000E-03 0. -1.
         22    1    1    0    0    0  0.19059520013E+02  0.81426989596E+01 -0.20844587710E+02  0.29394994239E+02  0.00000000000E+00 0.  1.
</event>
<event>
 5    1  0.8962567E-005  0.9118800E+02  0.7818608E-02  0.1130116E+00
         25   -1    0    0    0    0  0.00000000000E+00  0.00000000000E+00  0.99999998245E-14  0.12500000000E+03  0.12500000000E+03 0.  0.
        -11    1    3    3    0    0  0.28353351184E+02 -0.17833834495E+01  0.18083895961E+02  0.33676702233E+02  0.51100000000E-03 0. -1.
         23    2    1    0    0    0 -0.26221744216E+02  0.41729986126E+01 -0.11528967064E+02  0.96053309883E+02  0.91587812895E+02 0.  0.
         11    1    3    3    0    0 -0.54575095400E+02  0.59563820622E+01 -0.29612863025E+02  0.62376607650E+02  0.51100000000E-03 0.  1.
         22    1    1    0    0    0  0.26221744216E+02 -0.41729986126E+01  0.11528967064E+02  0.28946690117E+02  0.00000000000E+00 0.  1.
</event>
<event>
 5    1  0.8962567E-005  0.9118800E+02  0.7818608E-02  0.1130116E+00
         25   -1    0    0    0    0  0.00000000000E+00  0.00000000000E+00  0.99999998245E-14  0.12500000000E+03  0.12500000000E+03 0.  0.
        -11    1    3    3    0    0 -0.12803103041E+01 -0.45951299913E+02 -0.38149936808E+02  0.59737583119E+02  0.51100000000E-03 0.  1.
         23    2    1    0    0    0  0.10648505108E+02 -0.24818467623E+02 -0.11894033877E+02  0.95490424638E+02  0.90816332008E+02 0.  0.
         11    1    3    3    0    0  0.11928815412E+02  0.21132832290E+02  0.26255902931E+02  0.35752841519E+02  0.51100000000E-03 0. -1.
         22    1    1    0    0    0 -0.10648505108E+02  0.24818467623E+02  0.11894033877E+02  0.29509575362E+02  0.00000000000E+00 0.  1.
</event>
<event>
 5    1  0.8962567E-005  0.9118800E+02  0.7818608E-02  0.1130116E+00
         25   -1    0    0    0    0  0.00000000000E+00  0.00000000000E+00  0.99999998245E-14  0.12500000000E+03  0.12500000000E+03 0.  0.
        -11    1    3    3    0    0  0.44584653410E+02 -0.15398616923E+02 -0.17482331209E+01  0.47201324580E+02  0.51100000000E-03 0. -1.
         23    2    1    0    0    0  0.25205651565E+01 -0.27572078960E+02 -0.15713796270E+02  0.93164545235E+02  0.87556474968E+02 0.  0.
         11    1    3    3    0    0 -0.42064088254E+02 -0.12173462037E+02 -0.13965563150E+02  0.45963220655E+02  0.51100000000E-03 0.  1.
         22    1    1    0    0    0 -0.25205651565E+01  0.27572078960E+02  0.15713796270E+02  0.31835454765E+02  0.00000000000E+00 0.  1.
</event>
<event>
 5    1  0.8962567E-005  0.9118800E+02  0.7818608E-02  0.1130116E+00
         25   -1    0    0    0    0  0.00000000000E+00  0.00000000000E+00  0.99999998245E-14  0.12500000000E+03  0.12500000000E+03 0.  0.
        -11    1    3    3    0    0  0.15900065918E+02  0.44377075410E+02  0.40988350308E+02  0.62467445756E+02  0.51100000000E-03 0. -1.
         23    2    1    0    0    0  0.10031980104E+02  0.24845739806E+02  0.22037618443E+02  0.90306945393E+02  0.83377073278E+02 0.  0.
         11    1    3    3    0    0 -0.58680858137E+01 -0.19531335604E+02 -0.18950731865E+02  0.27839499637E+02  0.51100000000E-03 0.  1.
         22    1    1    0    0    0 -0.10031980104E+02 -0.24845739806E+02 -0.22037618443E+02  0.34693054607E+02  0.00000000000E+00 0. -1.
</event>
<event>
 5    1  0.8962567E-005  0.9118800E+02  0.7818608E-02  0.1130116E+00
         25   -1    0    0    0    0  0.00000000000E+00  0.00000000000E+00  0.99999998245E-14  0.12500000000E+03  0.12500000000E+03 0.  0.
        -11    1    3    3    0    0  0.43567861674E+01  0.37748523835E+02 -0.12656569595E+02  0.40051484262E+02  0.51100000000E-03 0.  1.
         23    2    1    0    0    0 -0.28747647722E+02 -0.36979448474E+01  0.42064611539E+01  0.95711839234E+02  0.91120578403E+02 0.  0.
         11    1    3    3    0    0 -0.33104433889E+02 -0.41446468682E+02  0.16863030749E+02  0.55660354972E+02  0.51100000000E-03 0. -1.
         22    1    1    0    0    0  0.28747647722E+02  0.36979448474E+01 -0.42064611539E+01  0.29288160766E+02  0.00000000000E+00 0. -1.
</event>
<event>
 5    1  0.8962567E-005  0.9118800E+02  0.7818608E-02  0.1130116E+00
         25   -1    0    0    0    0  0.00000000000E+00  0.00000000000E+00  0.99999998245E-14  0.12500000000E+03  0.12500000000E+03 0.  0.
        -11    1    3    3    0    0 -0.43216209587E+02 -0.33090486998E+02  0.28997569326E+02  0.61672361135E+02  0.51100000000E-03 0. -1.
         23    2    1    0    0    0 -0.15909457242E+02 -0.21220245371E+02  0.13427543804E+02  0.95272763735E+02  0.90516246794E+02 0.  0.
         11    1    3    3    0    0  0.27306752345E+02  0.11870241627E+02 -0.15570025522E+02  0.33600402600E+02  0.51100000000E-03 0.  1.
         22    1    1    0    0    0  0.15909457242E+02  0.21220245371E+02 -0.13427543804E+02  0.29727236265E+02  0.00000000000E+00 0. -1.
</event>
<event>
 5    1  0.8962567E-005  0.9118800E+02  0.7818608E-02  0.1130116E+00
         25   -1    0    0    0    0  0.00000000000E+00  0.00000000000E+00  0.99999998245E-14  0.12500000000E+03  0.12500000000E+03 0.  0.
        -11    1    3    3    0    0 -0.36447789546E+02 -0.58481695712E+01  0.30528061997E+02  0.47902035653E+02  0.51100000000E-03 0. -1.
         23    2    1    0    0    0 -0.21324986263E+02  0.11846607867E+02 -0.13070035273E+02  0.97324686468E+02  0.93306868005E+02 0.  0.
         11    1    3    3    0    0  0.15122803283E+02  0.17694777438E+02 -0.43598097270E+02  0.49422650815E+02  0.51100000000E-03 0.  1.
         22    1    1    0    0    0  0.21324986263E+02 -0.11846607867E+02  0.13070035273E+02  0.27675313532E+02  0.00000000000E+00 0. -1.
</event>
<event>
 5    1  0.8962567E-005  0.9118800E+02  0.7818608E-02  0.1130116E+00
         25   -1    0    0    0    0  0.00000000000E+00  0.00000000000E+00  0.99999998245E-14  0.12500000000E+03  0.12500000000E+03 0.  0.
        -11    1    3    3    0    0 -0.19908885221E+02 -0.24692016587E+02  0.23441061353E+02  0.39440369566E+02  0.51100000000E-03 0.  1.
         23    2    1    0    0    0 -0.12864094724E+02 -0.10489208068E+01 -0.26712295397E+02  0.95332983074E+02  0.90599369581E+02 0.  0.
         11    1    3    3    0    0  0.70447904970E+01  0.23643095781E+02 -0.50153356750E+02  0.55892613508E+02  0.51100000000E-03 0. -1.
         22    1    1    0    0    0  0.12864094724E+02  0.10489208068E+01  0.26712295397E+02  0.29667016926E+02  0.00000000000E+00 0. -1.
</event>
<event>
 5    1  0.8962567E-005  0.9118800E+02  0.7818608E-02  0.1130116E+00
         25   -1    0    0    0    0  0.00000000000E+00  0.00000000000E+00  0.99999998245E-14  0.12500000000E+03  0.12500000000E+03 0.  0.
        -11    1    3    3    0    0  0.29241940427E+01 -0.80196817134E+01 -0.57901930199E+02  0.58527768850E+02  0.51100000000E-03 0.  1.
         23    2    1    0    0    0 -0.16794684032E+01 -0.18628698728E+02 -0.22666180127E+02  0.95612847161E+02  0.90984678877E+02 0.  0.
         11    1    3    3    0    0 -0.46036624459E+01 -0.10609017015E+02  0.35235750072E+02  0.37085078311E+02  0.51100000000E-03 0. -1.
         22    1    1    0    0    0  0.16794684032E+01  0.18628698728E+02  0.22666180127E+02  0.29387152839E+02  0.00000000000E+00 0.  1.
</event>
<event>
 5    1  0.8962567E-005  0.9118800E+02  0.7818608E-02  0.1130116E+00
         25   -1    0    0    0    0  0.00000000000E+00  0.00000000000E+00  0.99999998245E-14  0.12500000000E+03  0.12500000000E+03 0.  0.
        -11    1    3    3    0    0 -0.37797238581E+02  0.43373634086E+02  0.11917928808E+02  0.58753216129E+02  0.51100000000E-03 0. -1.
         23    2    1    0    0    0 -0.46472025791E+01  0.28406759887E+02  0.58246440658E+01  0.95632211905E+02  0.91011279390E+02 0.  0.
         11    1    3    3    0    0  0.33150036002E+02 -0.14966874199E+02 -0.60932847422E+01  0.36878995776E+02  0.51100000000E-03 0.  1.
         22    1    1    0    0    0  0.46472025791E+01 -0.28406759887E+02 -0.58246440658E+01  0.29367788095E+02  0.00000000000E+00 0. -1.
</event>
<event>
 5    1  0.8962567E-005  0.9118800E+02  0.7818608E-02  0.1130116E+00
         25   -1    0    0    0    0  0.00000000000E+00  0.00000000000E+00  0.99999998245E-14  0.12500000000E+03  0.12500000000E+03 0.  0.
        -11    1    3    3    0    0 -0.43644232530E+02 -0.52585012266E+01 -0.38465281618E+02  0.58412744829E+02  0.51100000000E-03 0.  1.
         23    2    1    0    0    0 -0.21087892426E+02  0.13448140903E+02 -0.16469610520E+02  0.95053384642E+02  0.90212782689E+02 0.  0.
         11    1    3    3    0    0  0.22556340104E+02  0.18706642129E+02  0.21995671098E+02  0.36640639813E+02  0.51100000000E-03 0. -1.
         22    1    1    0    0    0  0.21087892426E+02 -0.13448140903E+02  0.16469610520E+02  0.29946615358E+02  0.00000000000E+00 0.  1.
</event>
<event>
 5    1  0.8962567E-005  0.9118800E+02  0.7818608E-02  0.1130116E+00
         25   -1    0    0    0    0  0.00000000000E+00  0.00000000000E+00  0.99999998245E-14  0.12500000000E+03  0.12500000000E+03 0.  0.
        -11    1    3    3    0    0  0.31139079905E+02 -0.10891720532E+02  0.37443266501E+02  0.49902605944E+02  0.51100000000E-03 0.  1.
         23    2    1    0    0    0  0.25683812402E+02  0.12350076982E+02 -0.24525967963E+01  0.96395842050E+02  0.92054117304E+02 0.  0.
         11    1    3    3    0    0 -0.54552675028E+01  0.23241797514E+02 -0.39895863297E+02  0.46493236107E+02  0.51100000000E-03 0. -1.
         22    1    1    0    0    0 -0.25683812402E+02 -0.12350076982E+02  0.24525967963E+01  0.28604157950E+02  0.00000000000E+00 0.  1.
</event>
<event>
 5    1  0.8962567E-005  0.9118800E+02  0.7818608E-02  0.1130116E+00
         25   -1    0    0    0    0  0.00000000000E+00  0.00000000000E+00  0.99999998245E-14  0.12500000000E+03  0.12500000000E+03 0.  0.
        -11    1    3    3    0    0 -0.20961717350E+02 -0.99643932277E+01 -0.26737808062E+02  0.35406116800E+02  0.51100000000E-03 0. -1.
         23    2    1    0    0    0  0.15453767838E+02  0.26135964785E+02  0.26742896744E+01  0.94519523939E+02  0.89470000474E+02 0.  0.
         11    1    3    3    0    0  0.36415485187E+02  0.36100358013E+02  0.29412097736E+02  0.59113407139E+02  0.51100000000E-03 0.  1.
         22    1    1    0    0    0 -0.15453767838E+02 -0.26135964785E+02 -0.26742896744E+01  0.30480476061E+02  0.00000000000E+00 0.  1.
</event>
<event>
 5    1  0.8962567E-005  0.9118800E+02  0.7818608E-02  0.1130116E+00
         25   -1    0    0    0    0  0.00000000000E+00  0.00000000000E+00  0.99999998245E-14  0.12500000000E+03  0.12500000000E+03 0.  0.
        -11    1    3    3    0    0  0.23074466894E+02 -0.33128857432E+02  0.34598459171E+02  0.53169592762E+02  0.51100000000E-03 0.  1.
         23    2    1    0    0    0 -0.13816633958E+02 -0.17238320632E+02  0.17461579488E+02  0.96840351026E+02  0.92655748642E+02 0.  0.
         11    1    3    3    0    0 -0.36891100852E+02  0.15890536800E+02 -0.17136879683E+02  0.43670758264E+02  0.51100000000E-03 0. -1.
         22    1    1    0    0    0  0.13816633958E+02  0.17238320632E+02 -0.17461579488E+02  0.28159648974E+02  0.00000000000E+00 0.  1.
</event>
<event>
 5    1  0.8962567E-005  0.9118800E+02  0.7818608E-02  0.1130116E+00
         25   -1    0    0    0    0  0.00000000000E+00  0.00000000000E+00  0.99999998245E-14  0.12500000000E+03  0.12500000000E+03 0.  0.
        -11    1    3    3    0    0  0.13461585089E+01 -0.38128709850E+02 -0.32096961628E+02  0.49858054551E+02  0.51100000000E-03 0.  1.
         23    2    1    0    0    0  0.12850108179E+01 -0.26058404363E+02  0.12507464749E+02  0.96066829326E+02  0.91606262513E+02 0.  0.
         11    1    3    3    0    0 -0.61147691006E-01  0.12070305487E+02  0.44604426377E+02  0.46208774776E+02  0.51100000000E-03 0. -1.
         22    1    1    0    0    0 -0.12850108179E+01  0.26058404363E+02 -0.12507464749E+02  0.28933170674E+02  0.00000000000E+00 0. -1.
</event>
<event>
 5    1  0.8962567E-005  0.9118800E+02  0.7818608E-02  0.1130116E+00
         25   -1    0    0    0    0  0.00000000000E+00  0.00000000000E+00  0.99999998245E-14  0.12500000000E+03  0.12500000000E+03 0.  0.
        -11    1    3    3    0    0 -0.25010175294E+02 -0.27817609235E+02 -0.17739870695E+02  0.41400860671E+02  0.51100000000E-03 0.  1.
         23    2    1    0    0    0  0.23786244228E+02 -0.20304575601E+02 -0.41656881614E+00  0.93723255694E+02  0.88350517392E+02 0.  0.
         11    1    3    3    0    0  0.48796419523E+02  0.75130336340E+01  0.17323301879E+02  0.52322395022E+02  0.51100000000E-03 0. -1.
         22    1    1    0    0    0 -0.23786244228E+02  0.20304575601E+02  0.41656881614E+00  0.31276744306E+02  0.00000000000E+00 0. -1.
</event>
<event>
 5    1  0.8962567E-005  0.9118800E+02  0.7818608E-02  0.1130116E+00
         25   -1    0    0    0    0  0.00000000000E+00  0.00000000000E+00  0.99999998245E-14  0.12500000000E+03  0.12500000000E+03 0.  0.
        -11    1    3    3    0    0  0.33847153737E+02  0.33268898525E+02 -0.24374109209E+02  0.53353037638E+02  0.51100000000E-03 0.  1.
         23    2    1    0    0    0  0.75831106062E+01  0.21494679886E+00 -0.28250491566E+02  0.95748674521E+02  0.91171095366E+02 0.  0.
         11    1    3    3    0    0 -0.26264043131E+02 -0.33053951726E+02 -0.38763823567E+01  0.42395636883E+02  0.51100000000E-03 0. -1.
         22    1    1    0    0    0 -0.75831106062E+01 -0.21494679886E+00  0.28250491566E+02  0.29251325479E+02  0.00000000000E+00 0. -1.
</event>
<event>
 5    1  0.8962567E-005  0.9118800E+02  0.7818608E-02  0.1130116E+00
         25   -1    0    0    0    0  0.00000000000E+00  0.00000000000E+00  0.99999998245E-14  0.12500000000E+03  0.12500000000E+03 0.  0.
        -11    1    3    3    0    0  0.40732506357E+02  0.47268697318E+01  0.12960108038E+01  0.41026333201E+02  0.51100000000E-03 0.  1.
         23    2    1    0    0    0 -0.13811776565E+01 -0.28733795799E+02 -0.68519909281E+01  0.95428249081E+02  0.90730712938E+02 0.  0.
         11    1    3    3    0    0 -0.42113684014E+02 -0.33460665531E+02 -0.81480017318E+01  0.54401915880E+02  0.51100000000E-03 0. -1.
         22    1    1    0    0    0  0.13811776565E+01  0.28733795799E+02  0.68519909281E+01  0.29571750919E+02  0.00000000000E+00 0. -1.
</event>
<event>
 5    1  0.8962567E-005  0.9118800E+02  0.7818608E-02  0.1130116E+00
         25   -1    0    0    0    0  0.00000000000E+00  0.00000000000E+00  0.99999998245E-14  0.12500000000E+03  0.12500000000E+03 0.  0.
        -11    1    3    3    0    0 -0.41540709773E+02  0.15274039744E+02 -0.42423352021E+02  0.61307973833E+02  0.51100000000E-03 0. -1.
         23    2    1    0    0    0 -0.20471017075E+02  0.14043922653E+02 -0.14706885342E+02  0.96145420120E+02  0.91713439746E+02 0.  0.
         11    1    3    3    0    0  0.21069692698E+02 -0.12301170909E+01  0.27716466679E+02  0.34837446288E+02  0.51100000000E-03 0.  1.
         22    1    1    0    0    0  0.20471017075E+02 -0.14043922653E+02  0.14706885342E+02  0.28854579880E+02  0.00000000000E+00 0. -1.
</event>
<event>
 5    1  0.8962567E-005  0.9118800E+02  0.7818608E-02  0.1130116E+00
         25   -1    0    0    0    0  0.00000000000E+00  0.00000000000E+00  0.99999998245E-14  0.12500000000E+03  0.12500000000E+03 0.  0.
        -11    1    3    3    0    0 -0.78947455855E+01 -0.85503797733E+00  0.58931199878E+02  0.59463807624E+02  0.51100000000E-03 0.  1.
         23    2    1    0    0    0 -0.67959179733E+01 -0.13672426056E+02  0.25583683084E+02  0.95206635378E+02  0.90424879566E+02 0.  0.
         11    1    3    3    0    0  0.10988276123E+01 -0.12817388079E+02 -0.33347516794E+02  0.35742827754E+02  0.51100000000E-03 0. -1.
         22    1    1    0    0    0  0.67959179733E+01  0.13672426056E+02 -0.25583683084E+02  0.29793364622E+02  0.00000000000E+00 0.  1.
</event>
<event>
 5    1  0.8962567E-005  0.9118800E+02  0.7818608E-02  0.1130116E+00
         25   -1    0    0    0    0  0.00000000000E+00  0.00000000000E+00  0.99999998245E-14  0.12500000000E+03  0.12500000000E+03 0.  0.
        -11    1    3    3    0    0  0.24018864253E+02 -0.43659181686E+02  0.10678020365E+01  0.49841450490E+02  0.51100000000E-03 0. -1.
         23    2    1    0    0    0  0.28141182119E+02  0.12160483955E+01 -0.78058328667E+01  0.95770974503E+02  0.91201664600E+02 0.  0.
         11    1    3    3    0    0  0.41223178661E+01  0.44875230082E+02 -0.88736349031E+01  0.45929524014E+02  0.51100000000E-03 0.  1.
         22    1    1    0    0    0 -0.28141182119E+02 -0.12160483955E+01  0.78058328667E+01  0.29229025497E+02  0.00000000000E+00 0. -1.
</event>
<event>
 5    1  0.8962567E-005  0.9118800E+02  0.7818608E-02  0.1130116E+00
         25   -1    0    0    0    0  0.00000000000E+00  0.00000000000E+00  0.99999998245E-14  0.12500000000E+03  0.12500000000E+03 0.  0.
        -11    1    3    3    0    0 -0.49787909583E+02 -0.64420300651E+01 -0.31491671847E+02  0.59262644963E+02  0.51100000000E-03 0.  1.
         23    2    1    0    0    0 -0.16432140429E+02 -0.14446104043E+02 -0.19767060500E+02  0.95513700777E+02  0.90848363740E+02 0.  0.
         11    1    3    3    0    0  0.33355769154E+02 -0.80040739775E+01  0.11724611347E+02  0.36251055814E+02  0.51100000000E-03 0. -1.
         22    1    1    0    0    0  0.16432140429E+02  0.14446104043E+02  0.19767060500E+02  0.29486299223E+02  0.00000000000E+00 0.  1.
</event>
<event>
 5    1  0.8962567E-005  0.9118800E+02  0.7818608E-02  0.1130116E+00
         25   -1    0    0    0    0  0.00000000000E+00  0.00000000000E+00  0.99999998245E-14  0.12500000000E+03  0.12500000000E+03 0.  0.
        -11    1    3    3    0    0 -0.39145205240E+02 -0.35684316272E+02 -0.15533640435E+02  0.55199741906E+02  0.51100000000E-03 0.  1.
         23    2    1    0    0    0 -0.16647677261E+02 -0.19526114542E+02  0.14065822855E+02  0.95738050648E+02  0.91156528357E+02 0.  0.
         11    1    3    3    0    0  0.22497527979E+02  0.16158201730E+02  0.29599463290E+02  0.40538308742E+02  0.51100000000E-03 0. -1.
         22    1    1    0    0    0  0.16647677261E+02  0.19526114542E+02 -0.14065822855E+02  0.29261949352E+02  0.00000000000E+00 0.  1.
</event>
<event>
 5    1  0.8962567E-005  0.9118800E+02  0.7818608E-02  0.1130116E+00
         25   -1    0    0    0    0  0.00000000000E+00  0.00000000000E+00  0.99999998245E-14  0.12500000000E+03  0.12500000000E+03 0.  0.
        -11    1    3    3    0    0 -0.54020229487E+01  0.41425781906E+02 -0.23053569333E+02  0.47715241985E+02  0.51100000000E-03 0. -1.
         23    2    1    0    0    0  0.11223452638E+02  0.21401107981E+01 -0.31754657368E+02  0.91252344853E+02  0.84782582016E+02 0.  0.
         11    1    3    3    0    0  0.16625475587E+02 -0.39285671108E+02 -0.87010880351E+01  0.43537102868E+02  0.51100000000E-03 0.  1.
         22    1    1    0    0    0 -0.11223452638E+02 -0.21401107981E+01  0.31754657368E+02  0.33747655147E+02  0.00000000000E+00 0.  1.
</event>
<event>
 5    1  0.8962567E-005  0.9118800E+02  0.7818608E-02  0.1130116E+00
         25   -1    0    0    0    0  0.00000000000E+00  0.00000000000E+00  0.99999998245E-14  0.12500000000E+03  0.12500000000E+03 0.  0.
        -11    1    3    3    0    0 -0.20145986741E+02  0.48568610125E+02  0.10554209464E+02  0.53629861168E+02  0.51100000000E-03 0.  1.
         23    2    1    0    0    0  0.13727120288E+02  0.26875114369E+02  0.19845026138E+01  0.94756920554E+02  0.89801058672E+02 0.  0.
         11    1    3    3    0    0  0.33873107029E+02 -0.21693495757E+02 -0.85697068504E+01  0.41127059386E+02  0.51100000000E-03 0. -1.
         22    1    1    0    0    0 -0.13727120288E+02 -0.26875114369E+02 -0.19845026138E+01  0.30243079446E+02  0.00000000000E+00 0.  1.
</event>
<event>
 5    1  0.8962567E-005  0.9118800E+02  0.7818608E-02  0.1130116E+00
         25   -1    0    0    0    0  0.00000000000E+00  0.00000000000E+00  0.99999998245E-14  0.12500000000E+03  0.12500000000E+03 0.  0.
        -11    1    3    3    0    0 -0.29012237065E+02  0.42780254666E+02 -0.22512327216E+02  0.56379650281E+02  0.51100000000E-03 0.  1.
         23    2    1    0    0    0 -0.24928932261E+02  0.46561454057E+01 -0.15263211837E+02  0.95401064389E+02  0.90693252767E+02 0.  0.
         11    1    3    3    0    0  0.40833048050E+01 -0.38124109260E+02  0.72491153786E+01  0.39021414109E+02  0.51100000000E-03 0. -1.
         22    1    1    0    0    0  0.24928932261E+02 -0.46561454057E+01  0.15263211837E+02  0.29598935611E+02  0.00000000000E+00 0.  1.
</event>
<event>
 5    1  0.8962567E-005  0.9118800E+02  0.7818608E-02  0.1130116E+00
         25   -1    0    0    0    0  0.00000000000E+00  0.00000000000E+00  0.99999998245E-14  0.12500000000E+03  0.12500000000E+03 0.  0.
        -11    1    3    3    0    0 -0.28073799696E+01  0.49431903432E+01  0.34679038063E+02  0.35141886607E+02  0.51100000000E-03 0. -1.
         23    2    1    0    0    0 -0.35258555876E+01 -0.20666133668E+02 -0.20312847565E+02  0.95808691111E+02  0.91253343927E+02 0.  0.
         11    1    3    3    0    0 -0.71847561798E+00 -0.25609324011E+02 -0.54991885628E+02  0.60666804504E+02  0.51100000000E-03 0.  1.
         22    1    1    0    0    0  0.35258555876E+01  0.20666133668E+02  0.20312847565E+02  0.29191308889E+02  0.00000000000E+00 0.  1.
</event>
<event>
 5    1  0.8962567E-005  0.9118800E+02  0.7818608E-02  0.1130116E+00
         25   -1    0    0    0    0  0.00000000000E+00  0.00000000000E+00  0.99999998245E-14  0.12500000000E+03  0.12500000000E+03 0.  0.
        -11    1    3    3    0    0  0.37610965770E+02  0.41949912634E+02 -0.22959538231E+02  0.60840120909E+02  0.51100000000E-03 0.  1.
         23    2    1    0    0    0  0.10717795048E+02  0.26343965428E+02 -0.73839820376E+01  0.95616350875E+02  0.90989492354E+02 0.  0.
         11    1    3    3    0    0 -0.26893170722E+02 -0.15605947206E+02  0.15575556194E+02  0.34776229966E+02  0.51100000000E-03 0. -1.
         22    1    1    0    0    0 -0.10717795048E+02 -0.26343965428E+02  0.73839820376E+01  0.29383649125E+02  0.00000000000E+00 0. -1.
</event>
<event>
 5    1  0.8962567E-005  0.9118800E+02  0.7818608E-02  0.1130116E+00
         25   -1    0    0    0    0  0.00000000000E+00  0.00000000000E+00  0.99999998245E-14  0.12500000000E+03  0.12500000000E+03 0.  0.
        -11    1    3    3    0    0 -0.15328784031E+02 -0.39950621974E+02  0.10907232191E+02  0.44158708431E+02  0.51100000000E-03 0. -1.
         23    2    1    0    0    0  0.21995615293E+02  0.98396749572E+00 -0.61818499873E+01  0.10213101328E+03  0.99537697989E+02 0.  0.
         11    1    3    3    0    0  0.37324399324E+02  0.40934589470E+02 -0.17089082178E+02  0.57972304853E+02  0.51100000000E-03 0.  1.
         22    1    1    0    0    0 -0.21995615293E+02 -0.98396749572E+00  0.61818499873E+01  0.22868986716E+02  0.00000000000E+00 0.  1.
</event>
<event>
 5    1  0.8962567E-005  0.9118800E+02  0.7818608E-02  0.1130116E+00
         25   -1    0    0    0    0  0.00000000000E+00  0.00000000000E+00  0.99999998245E-14  0.12500000000E+03  0.12500000000E+03 0.  0.
        -11    1    3    3    0    0 -0.29785044447E+02 -0.50852544096E+02 -0.23784436247E+01  0.58981243697E+02  0.51100000000E-03 0.  1.
         23    2    1    0    0    0 -0.50339977311E+01 -0.27497224227E+02  0.10172241796E+02  0.95252513106E+02  0.90488277011E+02 0.  0.
         11    1    3    3    0    0  0.24751046716E+02  0.23355319869E+02  0.12550685421E+02  0.36271269408E+02  0.51100000000E-03 0. -1.
         22    1    1    0    0    0  0.50339977311E+01  0.27497224227E+02 -0.10172241796E+02  0.29747486894E+02  0.00000000000E+00 0.  1.
</event>
<event>
 5    1  0.8962567E-005  0.9118800E+02  0.7818608E-02  0.1130116E+00
         25   -1    0    0    0    0  0.00000000000E+00  0.00000000000E+00  0.99999998245E-14  0.12500000000E+03  0.12500000000E+03 0.  0.
        -11    1    3    3    0    0 -0.35437837468E+02  0.11662800890E+02  0.14945561912E+02  0.40189937424E+02  0.51100000000E-03 0. -1.
         23    2    1    0    0    0  0.88863524052E+01 -0.22662523500E+02  0.15293009518E+02  0.96252245817E+02  0.91858921474E+02 0.  0.
         11    1    3    3    0    0  0.44324189873E+02 -0.34325324390E+02  0.34744760587E+00  0.56062308394E+02  0.51100000000E-03 0.  1.
         22    1    1    0    0    0 -0.88863524052E+01  0.22662523500E+02 -0.15293009518E+02  0.28747754183E+02  0.00000000000E+00 0.  1.
</event>
<event>
 5    1  0.8962567E-005  0.9118800E+02  0.7818608E-02  0.1130116E+00
         25   -1    0    0    0    0  0.00000000000E+00  0.00000000000E+00  0.99999998245E-14  0.12500000000E+03  0.12500000000E+03 0.  0.
        -11    1    3    3    0    0 -0.20168267212E+02 -0.30685893714E+02 -0.24031194995E+02  0.43884865370E+02  0.51100000000E-03 0. -1.
         23    2    1    0    0    0 -0.22680029321E+02 -0.56011885843E+01  0.19752138793E+02  0.94407451390E+02  0.89313284832E+02 0.  0.
         11    1    3    3    0    0 -0.25117621097E+01  0.25084705130E+02  0.43783333788E+02  0.50522586020E+02  0.51100000000E-03 0.  1.
         22    1    1    0    0    0  0.22680029321E+02  0.56011885843E+01 -0.19752138793E+02  0.30592548610E+02  0.00000000000E+00 0. -1.
</event>
<event>
 5    1  0.8962567E-005  0.9118800E+02  0.7818608E-02  0.1130116E+00
         25   -1    0    0    0    0  0.00000000000E+00  0.00000000000E+00  0.99999998245E-14  0.12500000000E+03  0.12500000000E+03 0.  0.
        -11    1    3    3    0    0 -0.28709461347E+02  0.29004207021E+02 -0.13783088099E+02  0.43074942989E+02  0.51100000000E-03 0.  1.
         23    2    1    0    0    0  0.20898479436E+02  0.15412233601E+02  0.62780356201E+01  0.98284889696E+02  0.94584472425E+02 0.  0.
         11    1    3    3    0    0  0.49607940783E+02 -0.13591973420E+02  0.20061123719E+02  0.55209946706E+02  0.51100000000E-03 0. -1.
         22    1    1    0    0    0 -0.20898479436E+02 -0.15412233601E+02 -0.62780356201E+01  0.26715110304E+02  0.00000000000E+00 0. -1.
</event>
<event>
 5    1  0.8962567E-005  0.9118800E+02  0.7818608E-02  0.1130116E+00
         25   -1    0    0    0    0  0.00000000000E+00  0.00000000000E+00  0.99999998245E-14  0.12500000000E+03  0.12500000000E+03 0.  0.
        -11    1    3    3    0    0 -0.14970524497E+01 -0.36022570955E+02 -0.48483929262E+02  0.60419849232E+02  0.51100000000E-03 0.  1.
         23    2    1    0    0    0  0.27145800607E+00 -0.69126367727E+01 -0.28249931882E+02  0.95915349616E+02  0.91399329341E+02 0.  0.
         11    1    3    3    0    0  0.17685104557E+01  0.29109934182E+02  0.20233997379E+02  0.35495500384E+02  0.51100000000E-03 0. -1.
         22    1    1    0    0    0 -0.27145800607E+00  0.69126367727E+01  0.28249931882E+02  0.29084650384E+02  0.00000000000E+00 0.  1.
</event>
<event>
 5    1  0.8962567E-005  0.9118800E+02  0.7818608E-02  0.1130116E+00
         25   -1    0    0    0    0  0.00000000000E+00  0.00000000000E+00  0.99999998245E-14  0.12500000000E+03  0.12500000000E+03 0.  0.
        -11    1    3    3    0    0  0.45366345256E+02 -0.58913415601E+01  0.42347351608E+02  0.62338682820E+02  0.51100000000E-03 0.  1.
         23    2    1    0    0    0  0.20282391275E+02 -0.49509821800E+01  0.22192733941E+02  0.94530259926E+02  0.89484998640E+02 0.  0.
         11    1    3    3    0    0 -0.25083953981E+02  0.94035938006E+00 -0.20154617666E+02  0.32191577107E+02  0.51100000000E-03 0. -1.
         22    1    1    0    0    0 -0.20282391275E+02  0.49509821800E+01 -0.22192733941E+02  0.30469740074E+02  0.00000000000E+00 0.  1.
</event>
<event>
 5    1  0.8962567E-005  0.9118800E+02  0.7818608E-02  0.1130116E+00
         25   -1    0    0    0    0  0.00000000000E+00  0.00000000000E+00  0.99999998245E-14  0.12500000000E+03  0.12500000000E+03 0.  0.
        -11    1    3    3    0    0 -0.12237922420E+02 -0.36332641145E+02 -0.14704083288E+02  0.41061388473E+02  0.51100000000E-03 0. -1.
         23    2    1    0    0    0  0.23258523575E+02  0.89706487714E+01 -0.20657530907E+01  0.99986028022E+02  0.96806544229E+02 0.  0.
         11    1    3    3    0    0  0.35496445996E+02  0.45303289916E+02  0.12638330197E+02  0.58924639549E+02  0.51100000000E-03 0.  1.
         22    1    1    0    0    0 -0.23258523575E+02 -0.89706487714E+01  0.20657530907E+01  0.25013971978E+02  0.00000000000E+00 0.  1.
</event>
<event>
 5    1  0.8962567E-005  0.9118800E+02  0.7818608E-02  0.1130116E+00
         25   -1    0    0    0    0  0.00000000000E+00  0.00000000000E+00  0.99999998245E-14  0.12500000000E+03  0.12500000000E+03 0.  0.
        -11    1    3    3    0    0  0.44085269668E+02 -0.25435511462E+02  0.35600513771E+02  0.62111776871E+02  0.51100000000E-03 0. -1.
         23    2    1    0    0    0  0.17217877135E+02 -0.15158506948E+02  0.13545464681E+02  0.98359518786E+02  0.94683048622E+02 0.  0.
         11    1    3    3    0    0 -0.26867392533E+02  0.10277004515E+02 -0.22055049089E+02  0.36247741915E+02  0.51100000000E-03 0.  1.
         22    1    1    0    0    0 -0.17217877135E+02  0.15158506948E+02 -0.13545464681E+02  0.26640481214E+02  0.00000000000E+00 0. -1.
</event>
<event>
 5    1  0.8962567E-005  0.9118800E+02  0.7818608E-02  0.1130116E+00
         25   -1    0    0    0    0  0.00000000000E+00  0.00000000000E+00  0.99999998245E-14  0.12500000000E+03  0.12500000000E+03 0.  0.
        -11    1    3    3    0    0  0.32984779703E+02  0.37774903803E+01 -0.89953087055E+01  0.34397393863E+02  0.51100000000E-03 0.  1.
         23    2    1    0    0    0  0.20510778709E+02 -0.32297314389E+02 -0.28527878882E+02  0.77275284878E+02  0.60776814818E+02 0.  0.
         11    1    3    3    0    0 -0.12474000993E+02 -0.36074804769E+02 -0.19532570176E+02  0.42877891015E+02  0.51100000000E-03 0. -1.
         22    1    1    0    0    0 -0.20510778709E+02  0.32297314389E+02  0.28527878882E+02  0.47724715122E+02  0.00000000000E+00 0. -1.
</event>
<event>
 5    1  0.8962567E-005  0.9118800E+02  0.7818608E-02  0.1130116E+00
         25   -1    0    0    0    0  0.00000000000E+00  0.00000000000E+00  0.99999998245E-14  0.12500000000E+03  0.12500000000E+03 0.  0.
        -11    1    3    3    0    0  0.68463078563E+01 -0.39423096288E+02  0.43694365893E+02  0.59247363344E+02  0.51100000000E-03 0.  1.
         23    2    1    0    0    0 -0.41966522288E+01 -0.10052555588E+02  0.29244329472E+02  0.93792684030E+02  0.88448691384E+02 0.  0.
         11    1    3    3    0    0 -0.11042960085E+02  0.29370540700E+02 -0.14450036420E+02  0.34545320686E+02  0.51100000000E-03 0. -1.
         22    1    1    0    0    0  0.41966522288E+01  0.10052555588E+02 -0.29244329472E+02  0.31207315970E+02  0.00000000000E+00 0.  1.
</event>
<event>
 5    1  0.8962567E-005  0.9118800E+02  0.7818608E-02  0.1130116E+00
         25   -1    0    0    0    0  0.00000000000E+00  0.00000000000E+00  0.99999998245E-14  0.12500000000E+03  0.12500000000E+03 0.  0.
        -11    1    3    3    0    0  0.25389366658E+02 -0.30760453968E+02 -0.20602923906E+02  0.44892159019E+02  0.51100000000E-03 0.  1.
         23    2    1    0    0    0  0.21322290172E+02  0.13603852544E+02 -0.24721584308E+02  0.89632478276E+02  0.82359696266E+02 0.  0.
         11    1    3    3    0    0 -0.40670764858E+01  0.44364306513E+02 -0.41186604019E+01  0.44740319257E+02  0.51100000000E-03 0. -1.
         22    1    1    0    0    0 -0.21322290172E+02 -0.13603852544E+02  0.24721584308E+02  0.35367521724E+02  0.00000000000E+00 0.  1.
</event>
<event>
 5    1  0.8962567E-005  0.9118800E+02  0.7818608E-02  0.1130116E+00
         25   -1    0    0    0    0  0.00000000000E+00  0.00000000000E+00  0.99999998245E-14  0.12500000000E+03  0.12500000000E+03 0.  0.
        -11    1    3    3    0    0 -0.24247053456E+02 -0.20584650811E+02 -0.53269007556E+01  0.32249392587E+02  0.51100000000E-03 0. -1.
         23    2    1    0    0    0  0.66580771448E+01  0.31411624081E+02 -0.19913195008E+01  0.92828809906E+02  0.87075843243E+02 0.  0.
         11    1    3    3    0    0  0.30905130601E+02  0.51996274892E+02  0.33355812547E+01  0.60579417319E+02  0.51100000000E-03 0.  1.
         22    1    1    0    0    0 -0.66580771448E+01 -0.31411624081E+02  0.19913195008E+01  0.32171190094E+02  0.00000000000E+00 0.  1.
</event>
<event>
 5    1  0.8962567E-005  0.9118800E+02  0.7818608E-02  0.1130116E+00
         25   -1    0    0    0    0  0.00000000000E+00  0.00000000000E+00  0.99999998245E-14  0.12500000000E+03  0.12500000000E+03 0.  0.
        -11    1    3    3    0    0 -0.23231257076E+02 -0.58801645919E+01  0.29128405104E+02  0.37719114851E+02  0.51100000000E-03 0.  1.
         23    2    1    0    0    0  0.27143059813E+02  0.10794848977E+02  0.10730373573E+02  0.93880626975E+02  0.88572889440E+02 0.  0.
         11    1    3    3    0    0  0.50374316889E+02  0.16675013569E+02 -0.18398031531E+02  0.56161512124E+02  0.51100000000E-03 0. -1.
         22    1    1    0    0    0 -0.27143059813E+02 -0.10794848977E+02 -0.10730373573E+02  0.31119373025E+02  0.00000000000E+00 0. -1.
</event>
<event>
 5    1  0.8962567E-005  0.9118800E+02  0.7818608E-02  0.1130116E+00
         25   -1    0    0    0    0  0.00000000000E+00  0.00000000000E+00  0.99999998245E-14  0.12500000000E+03  0.12500000000E+03 0.  0.
        -11    1    3    3    0    0  0.24779480449E+02 -0.13146630665E+02 -0.25524393535E+02  0.37925601046E+02  0.51100000000E-03 0.  1.
         23    2    1    0    0    0  0.12170353471E+02  0.34151520338E+01  0.27415528125E+02  0.94810731221E+02  0.89875930066E+02 0.  0.
         11    1    3    3    0    0 -0.12609126978E+02  0.16561782698E+02  0.52939921660E+02  0.56885130174E+02  0.51100000000E-03 0. -1.
         22    1    1    0    0    0 -0.12170353471E+02 -0.34151520338E+01 -0.27415528125E+02  0.30189268779E+02  0.00000000000E+00 0. -1.
</event>
<event>
 5    1  0.8962567E-005  0.9118800E+02  0.7818608E-02  0.1130116E+00
         25   -1    0    0    0    0  0.00000000000E+00  0.00000000000E+00  0.99999998245E-14  0.12500000000E+03  0.12500000000E+03 0.  0.
        -11    1    3    3    0    0  0.52768934143E+02 -0.73770342092E+01  0.25975616001E+02  0.59276586197E+02  0.51100000000E-03 0. -1.
         23    2    1    0    0    0  0.21999627488E+02 -0.16892774847E+02  0.81368745658E+01  0.96093976764E+02  0.91643298669E+02 0.  0.
         11    1    3    3    0    0 -0.30769306655E+02 -0.95157406376E+01 -0.17838741435E+02  0.36817390567E+02  0.51100000000E-03 0.  1.
         22    1    1    0    0    0 -0.21999627488E+02  0.16892774847E+02 -0.81368745658E+01  0.28906023236E+02  0.00000000000E+00 0. -1.
</event>
<event>
 5    1  0.8962567E-005  0.9118800E+02  0.7818608E-02  0.1130116E+00
         25   -1    0    0    0    0  0.00000000000E+00  0.00000000000E+00  0.99999998245E-14  0.12500000000E+03  0.12500000000E+03 0.  0.
        -11    1    3    3    0    0 -0.38376308102E+02 -0.46273372376E+02 -0.60941025329E+01  0.60424366778E+02  0.51100000000E-03 0.  1.
         23    2    1    0    0    0 -0.22654027315E+02 -0.15042781051E+02 -0.10871018122E+02  0.95714009316E+02  0.91123555291E+02 0.  0.
         11    1    3    3    0    0  0.15722280787E+02  0.31230591325E+02 -0.47769155890E+01  0.35289642538E+02  0.51100000000E-03 0. -1.
         22    1    1    0    0    0  0.22654027315E+02  0.15042781051E+02  0.10871018122E+02  0.29285990684E+02  0.00000000000E+00 0.  1.
</event>
<event>
 5    1  0.8962567E-005  0.9118800E+02  0.7818608E-02  0.1130116E+00
         25   -1    0    0    0    0  0.00000000000E+00  0.00000000000E+00  0.99999998245E-14  0.12500000000E+03  0.12500000000E+03 0.  0.
        -11    1    3    3    0    0 -0.24078932649E+02  0.54692214701E+02  0.44685748959E+01  0.59924965651E+02  0.51100000000E-03 0. -1.
         23    2    1    0    0    0 -0.35343624907E+00  0.31030033501E+02 -0.13687043942E+01  0.93937784240E+02  0.88653516906E+02 0.  0.
         11    1    3    3    0    0  0.23725496400E+02 -0.23662181200E+02 -0.58372792901E+01  0.34012818589E+02  0.51100000000E-03 0.  1.
         22    1    1    0    0    0  0.35343624907E+00 -0.31030033501E+02  0.13687043942E+01  0.31062215760E+02  0.00000000000E+00 0. -1.
</event>
<event>
 5    1  0.8962567E-005  0.9118800E+02  0.7818608E-02  0.1130116E+00
         25   -1    0    0    0    0  0.00000000000E+00  0.00000000000E+00  0.99999998245E-14  0.12500000000E+03  0.12500000000E+03 0.  0.
        -11    1    3    3    0    0  0.15783961268E+02  0.24042412727E+02  0.33463561621E+02  0.44124607643E+02  0.51100000000E-03 0. -1.
         23    2    1    0    0    0  0.48612600261E+01  0.25809314145E+02 -0.15622046716E+02  0.94441844145E+02  0.89361406861E+02 0.  0.
         11    1    3    3    0    0 -0.10922701242E+02  0.17669014173E+01 -0.49085608337E+02  0.50317236501E+02  0.51100000000E-03 0.  1.
         22    1    1    0    0    0 -0.48612600261E+01 -0.25809314145E+02  0.15622046716E+02  0.30558155855E+02  0.00000000000E+00 0.  1.
</event>
<event>
 5    1  0.8962567E-005  0.9118800E+02  0.7818608E-02  0.1130116E+00
         25   -1    0    0    0    0  0.00000000000E+00  0.00000000000E+00  0.99999998245E-14  0.12500000000E+03  0.12500000000E+03 0.  0.
        -11    1    3    3    0    0  0.58031301089E+02  0.31931275282E+01 -0.20355972375E+02  0.61580789059E+02  0.51100000000E-03 0.  1.
         23    2    1    0    0    0  0.26852234631E+02 -0.10060658584E+01 -0.18850171521E+01  0.98062888743E+02  0.94290626182E+02 0.  0.
         11    1    3    3    0    0 -0.31179066458E+02 -0.41991933866E+01  0.18470955223E+02  0.36482099685E+02  0.51100000000E-03 0. -1.
         22    1    1    0    0    0 -0.26852234631E+02  0.10060658584E+01  0.18850171521E+01  0.26937111257E+02  0.00000000000E+00 0.  1.
</event>
<event>
 5    1  0.8962567E-005  0.9118800E+02  0.7818608E-02  0.1130116E+00
         25   -1    0    0    0    0  0.00000000000E+00  0.00000000000E+00  0.99999998245E-14  0.12500000000E+03  0.12500000000E+03 0.  0.
        -11    1    3    3    0    0  0.22943310684E+02  0.40569620940E+02 -0.29836947927E+02  0.55340158206E+02  0.51100000000E-03 0. -1.
         23    2    1    0    0    0 -0.74811829781E+01  0.27986465240E+02 -0.76642379478E+01  0.95034171483E+02  0.90186156758E+02 0.  0.
         11    1    3    3    0    0 -0.30424493662E+02 -0.12583155700E+02  0.22172709979E+02  0.39694013277E+02  0.51100000000E-03 0.  1.
         22    1    1    0    0    0  0.74811829781E+01 -0.27986465240E+02  0.76642379478E+01  0.29965828517E+02  0.00000000000E+00 0. -1.
</event>
<event>
 5    1  0.8962567E-005  0.9118800E+02  0.7818608E-02  0.1130116E+00
         25   -1    0    0    0    0  0.00000000000E+00  0.00000000000E+00  0.99999998245E-14  0.12500000000E+03  0.12500000000E+03 0.  0.
        -11    1    3    3    0    0  0.19049555587E+01 -0.32904723637E+02  0.36864271641E+01  0.33165334896E+02  0.51100000000E-03 0. -1.
         23    2    1    0    0    0 -0.11268892328E+02  0.26291866982E+02  0.11213718724E+02  0.94275454579E+02  0.89128354886E+02 0.  0.
         11    1    3    3    0    0 -0.13173847887E+02  0.59196590619E+02  0.75272915600E+01  0.61110119682E+02  0.51100000000E-03 0.  1.
         22    1    1    0    0    0  0.11268892328E+02 -0.26291866982E+02 -0.11213718724E+02  0.30724545421E+02  0.00000000000E+00 0.  1.
</event>
<event>
 5    1  0.8962567E-005  0.9118800E+02  0.7818608E-02  0.1130116E+00
         25   -1    0    0    0    0  0.00000000000E+00  0.00000000000E+00  0.99999998245E-14  0.12500000000E+03  0.12500000000E+03 0.  0.
        -11    1    3    3    0    0 -0.61994906495E+01 -0.55029672876E+01 -0.56463186781E+02  0.57068448332E+02  0.51100000000E-03 0.  1.
         23    2    1    0    0    0  0.13470110749E+02  0.53438919719E+01 -0.29270265443E+02  0.92338868604E+02  0.86369654109E+02 0.  0.
         11    1    3    3    0    0  0.19669601399E+02  0.10846859260E+02  0.27192921338E+02  0.35270420272E+02  0.51100000000E-03 0. -1.
         22    1    1    0    0    0 -0.13470110749E+02 -0.53438919719E+01  0.29270265443E+02  0.32661131396E+02  0.00000000000E+00 0.  1.
</event>
<event>
 5    1  0.8962567E-005  0.9118800E+02  0.7818608E-02  0.1130116E+00
         25   -1    0    0    0    0  0.00000000000E+00  0.00000000000E+00  0.99999998245E-14  0.12500000000E+03  0.12500000000E+03 0.  0.
        -11    1    3    3    0    0  0.10053303915E+01  0.14853637668E+02  0.34533030537E+02  0.37605470872E+02  0.51100000000E-03 0.  1.
         23    2    1    0    0    0 -0.46004981933E+01  0.21210846982E+02 -0.21602682655E+02  0.94377450935E+02  0.89271287287E+02 0.  0.
         11    1    3    3    0    0 -0.56058285848E+01  0.63572093137E+01 -0.56135713193E+02  0.56771980063E+02  0.51100000000E-03 0. -1.
         22    1    1    0    0    0  0.46004981933E+01 -0.21210846982E+02  0.21602682655E+02  0.30622549065E+02  0.00000000000E+00 0. -1.
</event>
<event>
 5    1  0.8962567E-005  0.9118800E+02  0.7818608E-02  0.1130116E+00
         25   -1    0    0    0    0  0.00000000000E+00  0.00000000000E+00  0.99999998245E-14  0.12500000000E+03  0.12500000000E+03 0.  0.
        -11    1    3    3    0    0  0.36418019345E+02 -0.45694180124E+02 -0.96135371053E+01  0.59216976672E+02  0.51100000000E-03 0.  1.
         23    2    1    0    0    0  0.23547702825E+02 -0.16526898810E+02  0.73186058118E+01  0.95315076493E+02  0.90574660491E+02 0.  0.
         11    1    3    3    0    0 -0.12870316520E+02  0.29167281315E+02  0.16932142917E+02  0.36098099820E+02  0.51100000000E-03 0. -1.
         22    1    1    0    0    0 -0.23547702825E+02  0.16526898810E+02 -0.73186058118E+01  0.29684923507E+02  0.00000000000E+00 0.  1.
</event>
<event>
 5    1  0.8962567E-005  0.9118800E+02  0.7818608E-02  0.1130116E+00
         25   -1    0    0    0    0  0.00000000000E+00  0.00000000000E+00  0.99999998245E-14  0.12500000000E+03  0.12500000000E+03 0.  0.
        -11    1    3    3    0    0 -0.33394947811E+02  0.11148857813E+02 -0.45737455408E+02  0.57718579308E+02  0.51100000000E-03 0. -1.
         23    2    1    0    0    0  0.55785711135E+00  0.13695272989E+02 -0.21462021219E+02  0.99534531978E+02  0.96221790642E+02 0.  0.
         11    1    3    3    0    0  0.33952804922E+02  0.25464151754E+01  0.24275434189E+02  0.41815952670E+02  0.51100000000E-03 0.  1.
         22    1    1    0    0    0 -0.55785711135E+00 -0.13695272989E+02  0.21462021219E+02  0.25465468022E+02  0.00000000000E+00 0. -1.
</event>
<event>
 5    1  0.8962567E-005  0.9118800E+02  0.7818608E-02  0.1130116E+00
         25   -1    0    0    0    0  0.00000000000E+00  0.00000000000E+00  0.99999998245E-14  0.12500000000E+03  0.12500000000E+03 0.  0.
        -11    1    3    3    0    0  0.35362869244E+02  0.42627557855E+02 -0.77070547500E+01  0.55919941908E+02  0.51100000000E-03 0.  1.
         23    2    1    0    0    0  0.18760653017E+02  0.16695215682E+02  0.16382776293E+02  0.95015209066E+02  0.90159870600E+02 0.  0.
         11    1    3    3    0    0 -0.16602216227E+02 -0.25932342173E+02  0.24089831043E+02  0.39095267158E+02  0.51100000000E-03 0. -1.
         22    1    1    0    0    0 -0.18760653017E+02 -0.16695215682E+02 -0.16382776293E+02  0.29984790934E+02  0.00000000000E+00 0.  1.
</event>
<event>
 5    1  0.8962567E-005  0.9118800E+02  0.7818608E-02  0.1130116E+00
         25   -1    0    0    0    0  0.00000000000E+00  0.00000000000E+00  0.99999998245E-14  0.12500000000E+03  0.12500000000E+03 0.  0.
        -11    1    3    3    0    0 -0.22739247714E+02 -0.24292008982E+02 -0.49137785738E+01  0.33635105279E+02  0.51100000000E-03 0.  1.
         23    2    1    0    0    0  0.31478374067E+02  0.56100204063E+00  0.40275273985E+00  0.93514051278E+02  0.88054033522E+02 0.  0.
         11    1    3    3    0    0  0.54217621781E+02  0.24853011022E+02  0.53165313137E+01  0.59878945999E+02  0.51100000000E-03 0. -1.
         22    1    1    0    0    0 -0.31478374067E+02 -0.56100204063E+00 -0.40275273985E+00  0.31485948722E+02  0.00000000000E+00 0. -1.
</event>
<event>
 5    1  0.8962567E-005  0.9118800E+02  0.7818608E-02  0.1130116E+00
         25   -1    0    0    0    0  0.00000000000E+00  0.00000000000E+00  0.99999998245E-14  0.12500000000E+03  0.12500000000E+03 0.  0.
        -11    1    3    3    0    0  0.35542609202E+02  0.23299039758E+01 -0.44517383483E+02  0.57013182282E+02  0.51100000000E-03 0. -1.
         23    2    1    0    0    0  0.23911115541E+02  0.13194660726E+02 -0.84885885012E+01  0.96401107489E+02  0.92061266950E+02 0.  0.
         11    1    3    3    0    0 -0.11631493661E+02  0.10864756750E+02  0.36028794982E+02  0.39387925208E+02  0.51100000000E-03 0.  1.
         22    1    1    0    0    0 -0.23911115541E+02 -0.13194660726E+02  0.84885885012E+01  0.28598892511E+02  0.00000000000E+00 0. -1.
</event>
<event>
 5    1  0.8962567E-005  0.9118800E+02  0.7818608E-02  0.1130116E+00
         25   -1    0    0    0    0  0.00000000000E+00  0.00000000000E+00  0.99999998245E-14  0.12500000000E+03  0.12500000000E+03 0.  0.
        -11    1    3    3    0    0  0.31194716053E+02 -0.32458048544E+02 -0.36632047271E+02  0.58039142934E+02  0.51100000000E-03 0.  1.
         23    2    1    0    0    0  0.26930920360E+02 -0.59249093273E+01 -0.10587944708E+02  0.95462166716E+02  0.90777429348E+02 0.  0.
         11    1    3    3    0    0 -0.42637956925E+01  0.26533139217E+02  0.26044102564E+02  0.37423023782E+02  0.51100000000E-03 0. -1.
         22    1    1    0    0    0 -0.26930920360E+02  0.59249093273E+01  0.10587944708E+02  0.29537833284E+02  0.00000000000E+00 0.  1.
</event>
<event>
 5    1  0.8962567E-005  0.9118800E+02  0.7818608E-02  0.1130116E+00
         25   -1    0    0    0    0  0.00000000000E+00  0.00000000000E+00  0.99999998245E-14  0.12500000000E+03  0.12500000000E+03 0.  0.
        -11    1    3    3    0    0  0.33335396447E+02 -0.10836057789E+02  0.45502497801E+02  0.57438193835E+02  0.51100000000E-03 0.  1.
         23    2    1    0    0    0  0.14782883223E+02  0.12944588192E+02  0.20359393044E+02  0.96705108500E+02  0.92473115688E+02 0.  0.
         11    1    3    3    0    0 -0.18552513224E+02  0.23780645982E+02 -0.25143104757E+02  0.39266914665E+02  0.51100000000E-03 0. -1.
         22    1    1    0    0    0 -0.14782883223E+02 -0.12944588192E+02 -0.20359393044E+02  0.28294891500E+02  0.00000000000E+00 0.  1.
</event>
<event>
 5    1  0.8962567E-005  0.9118800E+02  0.7818608E-02  0.1130116E+00
         25   -1    0    0    0    0  0.00000000000E+00  0.00000000000E+00  0.99999998245E-14  0.12500000000E+03  0.12500000000E+03 0.  0.
        -11    1    3    3    0    0 -0.24028769185E+02  0.36155515577E+02  0.40424039329E+02  0.59318681805E+02  0.51100000000E-03 0.  1.
         23    2    1    0    0    0 -0.28547295860E+01  0.86335457036E+01  0.26935380914E+02  0.96571100313E+02  0.92291793126E+02 0.  0.
         11    1    3    3    0    0  0.21174039599E+02 -0.27521969873E+02 -0.13488658415E+02  0.37252418508E+02  0.51100000000E-03 0. -1.
         22    1    1    0    0    0  0.28547295860E+01 -0.86335457036E+01 -0.26935380914E+02  0.28428899687E+02  0.00000000000E+00 0.  1.
</event>
<event>
 5    1  0.8962567E-005  0.9118800E+02  0.7818608E-02  0.1130116E+00
         25   -1    0    0    0    0  0.00000000000E+00  0.00000000000E+00  0.99999998245E-14  0.12500000000E+03  0.12500000000E+03 0.  0.
        -11    1    3    3    0    0 -0.76367735722E+01  0.42222480346E+02  0.30854395835E+02  0.52849332065E+02  0.51100000000E-03 0. -1.
         23    2    1    0    0    0  0.15229887645E+02  0.81815715820E+01  0.25480466828E+02  0.94208089033E+02  0.89033826483E+02 0.  0.
         11    1    3    3    0    0  0.22866661217E+02 -0.34040908764E+02 -0.53739290070E+01  0.41358756968E+02  0.51100000000E-03 0.  1.
         22    1    1    0    0    0 -0.15229887645E+02 -0.81815715820E+01 -0.25480466828E+02  0.30791910967E+02  0.00000000000E+00 0. -1.
</event>
<event>
 5    1  0.8962567E-005  0.9118800E+02  0.7818608E-02  0.1130116E+00
         25   -1    0    0    0    0  0.00000000000E+00  0.00000000000E+00  0.99999998245E-14  0.12500000000E+03  0.12500000000E+03 0.  0.
        -11    1    3    3    0    0 -0.28374019907E+02 -0.13847471364E+02 -0.29919846351E+02  0.43497524927E+02  0.51100000000E-03 0.  1.
         23    2    1    0    0    0  0.13479272739E+02  0.16315921055E+02 -0.19692724994E+02  0.96091463352E+02  0.91639870351E+02 0.  0.
         11    1    3    3    0    0  0.41853292646E+02  0.30163392419E+02  0.10227121357E+02  0.52593938425E+02  0.51100000000E-03 0. -1.
         22    1    1    0    0    0 -0.13479272739E+02 -0.16315921055E+02  0.19692724994E+02  0.28908536648E+02  0.00000000000E+00 0. -1.
</event>
<event>
 5    1  0.8962567E-005  0.9118800E+02  0.7818608E-02  0.1130116E+00
         25   -1    0    0    0    0  0.00000000000E+00  0.00000000000E+00  0.99999998245E-14  0.12500000000E+03  0.12500000000E+03 0.  0.
        -11    1    3    3    0    0  0.40301039014E+01  0.24280676281E+01  0.37637091265E+02  0.37930039402E+02  0.51100000000E-03 0.  1.
         23    2    1    0    0    0 -0.70544035533E+00  0.26683106625E+02 -0.13767228643E+02  0.94966312085E+02  0.90092053042E+02 0.  0.
         11    1    3    3    0    0 -0.47355442567E+01  0.24255038997E+02 -0.51404319908E+02  0.57036272684E+02  0.51100000000E-03 0. -1.
         22    1    1    0    0    0  0.70544035533E+00 -0.26683106625E+02  0.13767228643E+02  0.30033687915E+02  0.00000000000E+00 0. -1.
</event>
<event>
 5    1  0.8962567E-005  0.9118800E+02  0.7818608E-02  0.1130116E+00
         25   -1    0    0    0    0  0.00000000000E+00  0.00000000000E+00  0.99999998245E-14  0.12500000000E+03  0.12500000000E+03 0.  0.
        -11    1    3    3    0    0  0.81155551119E+01 -0.16359351569E+01 -0.23332821098E+02  0.24758010002E+02  0.51100000000E-03 0. -1.
         23    2    1    0    0    0  0.48480345644E+02  0.52035754321E+01  0.70414543766E+01  0.75735375869E+02  0.57522551814E+02 0.  0.
         11    1    3    3    0    0  0.40364790532E+02  0.68395105890E+01  0.30374275475E+02  0.50977365867E+02  0.51100000000E-03 0.  1.
         22    1    1    0    0    0 -0.48480345644E+02 -0.52035754321E+01 -0.70414543766E+01  0.49264624131E+02  0.00000000000E+00 0.  1.
</event>
<event>
 4    1  0.8962567E-005  0.9118800E+02  0.7818608E-02  0.1130116E+00
         25   -1    0    0    0    0  0.00000000000E+00  0.00000000000E+00  0.99999998245E-14  0.12500000000E+03  0.12500000000E+03 0.  0.
        -11    1    1    0    0    0 -0.44861882180E+01  0.22345512014E+02 -0.46071916869E+01  0.23252397885E+02  0.51100000000E-03 0.  1.
         11    1    1    0    0    0  0.24928049062E+02  0.10130394854E+02 -0.36608361007E+02  0.45433518747E+02  0.51100000000E-03 0. -1.
         22    1    1    0    0    0 -0.20441860844E+02 -0.32475906868E+02  0.41215552693E+02  0.56314083367E+02  0.00000000000E+00 0. -1.
</event>
<event>
 5    1  0.8962567E-005  0.9118800E+02  0.7818608E-02  0.1130116E+00
         25   -1    0    0    0    0  0.00000000000E+00  0.00000000000E+00  0.99999998245E-14  0.12500000000E+03  0.12500000000E+03 0.  0.
        -11    1    3    3    0    0 -0.15488965499E+02  0.22964868213E+02  0.29170937148E+02  0.40227314087E+02  0.51100000000E-03 0.  1.
         23    2    1    0    0    0  0.28823970996E+02  0.90602629205E+01  0.55129380961E+00  0.94780575898E+02  0.89833980066E+02 0.  0.
         11    1    3    3    0    0  0.44312936496E+02 -0.13904605293E+02 -0.28619643338E+02  0.54553261812E+02  0.51100000000E-03 0. -1.
         22    1    1    0    0    0 -0.28823970996E+02 -0.90602629205E+01 -0.55129380961E+00  0.30219424102E+02  0.00000000000E+00 0.  1.
</event>
<event>
 5    1  0.8962567E-005  0.9118800E+02  0.7818608E-02  0.1130116E+00
         25   -1    0    0    0    0  0.00000000000E+00  0.00000000000E+00  0.99999998245E-14  0.12500000000E+03  0.12500000000E+03 0.  0.
        -11    1    3    3    0    0  0.31833771078E+02 -0.48642989301E+01 -0.18353708590E+02  0.37066278534E+02  0.51100000000E-03 0. -1.
         23    2    1    0    0    0  0.45873538277E+01 -0.25489764001E+02  0.22755495156E+02  0.90524146947E+02  0.83702071281E+02 0.  0.
         11    1    3    3    0    0 -0.27246417250E+02 -0.20625465071E+02  0.41109203746E+02  0.53457868413E+02  0.51100000000E-03 0.  1.
         22    1    1    0    0    0 -0.45873538277E+01  0.25489764001E+02 -0.22755495156E+02  0.34475853053E+02  0.00000000000E+00 0.  1.
</event>
<event>
 5    1  0.8962567E-005  0.9118800E+02  0.7818608E-02  0.1130116E+00
         25   -1    0    0    0    0  0.00000000000E+00  0.00000000000E+00  0.99999998245E-14  0.12500000000E+03  0.12500000000E+03 0.  0.
        -11    1    3    3    0    0  0.40278429260E+02 -0.25422335275E+02  0.26033752988E+01  0.47701410437E+02  0.51100000000E-03 0.  1.
         23    2    1    0    0    0  0.21276064426E+02  0.19038251529E+02 -0.25985268109E+01  0.96331580436E+02  0.91966815259E+02 0.  0.
         11    1    3    3    0    0 -0.19002364834E+02  0.44460586804E+02 -0.52019021097E+01  0.48630169998E+02  0.51100000000E-03 0. -1.
         22    1    1    0    0    0 -0.21276064426E+02 -0.19038251529E+02  0.25985268109E+01  0.28668419564E+02  0.00000000000E+00 0. -1.
</event>
<event>
 5    1  0.8962567E-005  0.9118800E+02  0.7818608E-02  0.1130116E+00
         25   -1    0    0    0    0  0.00000000000E+00  0.00000000000E+00  0.99999998245E-14  0.12500000000E+03  0.12500000000E+03 0.  0.
        -11    1    3    3    0    0  0.18341033678E+02  0.30923395426E+02  0.28505666951E+02  0.45882708612E+02  0.51100000000E-03 0. -1.
         23    2    1    0    0    0 -0.16402635517E+02 -0.27588507365E+01  0.25742064048E+02  0.94351809666E+02  0.89235376486E+02 0.  0.
         11    1    3    3    0    0 -0.34743669195E+02 -0.33682246162E+02 -0.27636029025E+01  0.48469101054E+02  0.51100000000E-03 0.  1.
         22    1    1    0    0    0  0.16402635517E+02  0.27588507365E+01 -0.25742064048E+02  0.30648190334E+02  0.00000000000E+00 0.  1.
</event>
<event>
 5    1  0.8962567E-005  0.9118800E+02  0.7818608E-02  0.1130116E+00
         25   -1    0    0    0    0  0.00000000000E+00  0.00000000000E+00  0.99999998245E-14  0.12500000000E+03  0.12500000000E+03 0.  0.
        -11    1    3    3    0    0  0.55192046864E+01  0.14682620923E+02  0.58265925396E+02  0.60340359960E+02  0.51100000000E-03 0. -1.
         23    2    1    0    0    0 -0.83792612212E+01  0.10673039472E+02  0.28065595687E+02  0.93826237772E+02  0.88496098462E+02 0.  0.
         11    1    3    3    0    0 -0.13898465908E+02 -0.40095814509E+01 -0.30200329709E+02  0.33485877812E+02  0.51100000000E-03 0.  1.
         22    1    1    0    0    0  0.83792612212E+01 -0.10673039472E+02 -0.28065595687E+02  0.31173762228E+02  0.00000000000E+00 0. -1.
</event>
<event>
 5    1  0.8962567E-005  0.9118800E+02  0.7818608E-02  0.1130116E+00
         25   -1    0    0    0    0  0.00000000000E+00  0.00000000000E+00  0.99999998245E-14  0.12500000000E+03  0.12500000000E+03 0.  0.
        -11    1    3    3    0    0 -0.43961219025E+02 -0.84923726314E+01 -0.17627960088E+00  0.44774325744E+02  0.51100000000E-03 0. -1.
         23    2    1    0    0    0 -0.10626203719E+01 -0.27297571874E+02  0.14775174408E+02  0.93942112579E+02  0.88659619584E+02 0.  0.
         11    1    3    3    0    0  0.42898598653E+02 -0.18805199243E+02  0.14951454009E+02  0.49167786835E+02  0.51100000000E-03 0.  1.
         22    1    1    0    0    0  0.10626203719E+01  0.27297571874E+02 -0.14775174408E+02  0.31057887421E+02  0.00000000000E+00 0. -1.
</event>
<event>
 5    1  0.8962567E-005  0.9118800E+02  0.7818608E-02  0.1130116E+00
         25   -1    0    0    0    0  0.00000000000E+00  0.00000000000E+00  0.99999998245E-14  0.12500000000E+03  0.12500000000E+03 0.  0.
        -11    1    3    3    0    0  0.34767917039E+02 -0.24568158711E+01  0.21557783186E+02  0.40982703860E+02  0.51100000000E-03 0.  1.
         23    2    1    0    0    0 -0.15816027045E+02 -0.19254352278E+02 -0.34269349867E+01  0.99848048256E+02  0.96628215672E+02 0.  0.
         11    1    3    3    0    0 -0.50583944084E+02 -0.16797536407E+02 -0.24984718173E+02  0.58865344396E+02  0.51100000000E-03 0. -1.
         22    1    1    0    0    0  0.15816027045E+02  0.19254352278E+02  0.34269349867E+01  0.25151951744E+02  0.00000000000E+00 0. -1.
</event>
<event>
 5    1  0.8962567E-005  0.9118800E+02  0.7818608E-02  0.1130116E+00
         25   -1    0    0    0    0  0.00000000000E+00  0.00000000000E+00  0.99999998245E-14  0.12500000000E+03  0.12500000000E+03 0.  0.
        -11    1    3    3    0    0  0.11329973886E+02 -0.45056163667E+02 -0.10638248905E+02  0.47661289667E+02  0.51100000000E-03 0.  1.
         23    2    1    0    0    0 -0.84994663960E+01 -0.22779573160E+02  0.22238707984E+02  0.92049885962E+02  0.85950401339E+02 0.  0.
         11    1    3    3    0    0 -0.19829440282E+02  0.22276590507E+02  0.32876956888E+02  0.44388596295E+02  0.51100000000E-03 0. -1.
         22    1    1    0    0    0  0.84994663960E+01  0.22779573160E+02 -0.22238707984E+02  0.32950114038E+02  0.00000000000E+00 0.  1.
</event>
<event>
 5    1  0.8962567E-005  0.9118800E+02  0.7818608E-02  0.1130116E+00
         25   -1    0    0    0    0  0.00000000000E+00  0.00000000000E+00  0.99999998245E-14  0.12500000000E+03  0.12500000000E+03 0.  0.
        -11    1    3    3    0    0  0.39795910950E+02  0.27225658594E+02  0.16082472370E+02  0.50829095330E+02  0.51100000000E-03 0. -1.
         23    2    1    0    0    0  0.26327030713E+02 -0.10345909408E+02 -0.54697059456E+01  0.96189098057E+02  0.91772950886E+02 0.  0.
         11    1    3    3    0    0 -0.13468880238E+02 -0.37571568002E+02 -0.21552178316E+02  0.45360002727E+02  0.51100000000E-03 0.  1.
         22    1    1    0    0    0 -0.26327030713E+02  0.10345909408E+02  0.54697059456E+01  0.28810901943E+02  0.00000000000E+00 0. -1.
</event>
<event>
 5    1  0.8962567E-005  0.9118800E+02  0.7818608E-02  0.1130116E+00
         25   -1    0    0    0    0  0.00000000000E+00  0.00000000000E+00  0.99999998245E-14  0.12500000000E+03  0.12500000000E+03 0.  0.
        -11    1    3    3    0    0  0.17800095971E+02 -0.29950016419E+02  0.10877663422E+02  0.36498910420E+02  0.51100000000E-03 0. -1.
         23    2    1    0    0    0 -0.16012370124E+02  0.18788954229E+02 -0.84814757936E+01  0.98897198816E+02  0.95390249523E+02 0.  0.
         11    1    3    3    0    0 -0.33812466095E+02  0.48738970648E+02 -0.19359139215E+02  0.62398288396E+02  0.51100000000E-03 0.  1.
         22    1    1    0    0    0  0.16012370124E+02 -0.18788954229E+02  0.84814757936E+01  0.26102801184E+02  0.00000000000E+00 0.  1.
</event>
<event>
 5    1  0.8962567E-005  0.9118800E+02  0.7818608E-02  0.1130116E+00
         25   -1    0    0    0    0  0.00000000000E+00  0.00000000000E+00  0.99999998245E-14  0.12500000000E+03  0.12500000000E+03 0.  0.
        -11    1    3    3    0    0 -0.49358873061E+02 -0.19056698907E+02 -0.78628329328E+01  0.53490936289E+02  0.51100000000E-03 0. -1.
         23    2    1    0    0    0 -0.17365280658E+02  0.34930936461E+01 -0.23441232172E+02  0.95618950984E+02  0.90993064274E+02 0.  0.
         11    1    3    3    0    0  0.31993592402E+02  0.22549792553E+02 -0.15578399239E+02  0.42128014695E+02  0.51100000000E-03 0.  1.
         22    1    1    0    0    0  0.17365280658E+02 -0.34930936461E+01  0.23441232172E+02  0.29381049016E+02  0.00000000000E+00 0. -1.
</event>
<event>
 5    1  0.8962567E-005  0.9118800E+02  0.7818608E-02  0.1130116E+00
         25   -1    0    0    0    0  0.00000000000E+00  0.00000000000E+00  0.99999998245E-14  0.12500000000E+03  0.12500000000E+03 0.  0.
        -11    1    3    3    0    0  0.28088654312E+02 -0.15154482878E+01  0.48372523324E+02  0.55956859254E+02  0.51100000000E-03 0.  1.
         23    2    1    0    0    0  0.56782119046E+01  0.18219349133E+02  0.22764377712E+02  0.95294719899E+02  0.90546562468E+02 0.  0.
         11    1    3    3    0    0 -0.22410442407E+02  0.19734797421E+02 -0.25608145612E+02  0.39337860644E+02  0.51100000000E-03 0. -1.
         22    1    1    0    0    0 -0.56782119046E+01 -0.18219349133E+02 -0.22764377712E+02  0.29705280101E+02  0.00000000000E+00 0.  1.
</event>
<event>
 5    1  0.8962567E-005  0.9118800E+02  0.7818608E-02  0.1130116E+00
         25   -1    0    0    0    0  0.00000000000E+00  0.00000000000E+00  0.99999998245E-14  0.12500000000E+03  0.12500000000E+03 0.  0.
        -11    1    3    3    0    0  0.22890631665E+02 -0.62915823102E+01  0.27401277600E+02  0.36254586473E+02  0.51100000000E-03 0.  1.
         23    2    1    0    0    0 -0.20341442682E+02  0.23867497506E+02  0.64149754590E+01  0.92990881960E+02  0.87308192570E+02 0.  0.
         11    1    3    3    0    0 -0.43232074347E+02  0.30159079816E+02 -0.20986302141E+02  0.56736295486E+02  0.51100000000E-03 0. -1.
         22    1    1    0    0    0  0.20341442682E+02 -0.23867497506E+02 -0.64149754590E+01  0.32009118040E+02  0.00000000000E+00 0. -1.
</event>
<event>
 5    1  0.8962567E-005  0.9118800E+02  0.7818608E-02  0.1130116E+00
         25   -1    0    0    0    0  0.00000000000E+00  0.00000000000E+00  0.99999998245E-14  0.12500000000E+03  0.12500000000E+03 0.  0.
        -11    1    3    3    0    0 -0.32307938141E+02  0.25532946002E+02 -0.65880493660E+00  0.41184562917E+02  0.51100000000E-03 0.  1.
         23    2    1    0    0    0 -0.14437375097E+02 -0.25505502155E+02  0.38086633282E+01  0.95445400422E+02  0.90754339320E+02 0.  0.
         11    1    3    3    0    0  0.17870563044E+02 -0.51038448157E+02  0.44674682648E+01  0.54260837505E+02  0.51100000000E-03 0. -1.
         22    1    1    0    0    0  0.14437375097E+02  0.25505502155E+02 -0.38086633282E+01  0.29554599578E+02  0.00000000000E+00 0. -1.
</event>
<event>
 5    1  0.8962567E-005  0.9118800E+02  0.7818608E-02  0.1130116E+00
         25   -1    0    0    0    0  0.00000000000E+00  0.00000000000E+00  0.99999998245E-14  0.12500000000E+03  0.12500000000E+03 0.  0.
        -11    1    3    3    0    0  0.24251516272E+02  0.15067691814E+02  0.40629269929E+02  0.49657919342E+02  0.51100000000E-03 0. -1.
         23    2    1    0    0    0  0.49788266630E+01 -0.19048868843E+02  0.27889849527E+02  0.90860699688E+02  0.84203176437E+02 0.  0.
         11    1    3    3    0    0 -0.19272689609E+02 -0.34116560657E+02 -0.12739420403E+02  0.41202780347E+02  0.51100000000E-03 0.  1.
         22    1    1    0    0    0 -0.49788266630E+01  0.19048868843E+02 -0.27889849527E+02  0.34139300312E+02  0.00000000000E+00 0. -1.
</event>
<event>
 5    1  0.8962567E-005  0.9118800E+02  0.7818608E-02  0.1130116E+00
         25   -1    0    0    0    0  0.00000000000E+00  0.00000000000E+00  0.99999998245E-14  0.12500000000E+03  0.12500000000E+03 0.  0.
        -11    1    3    3    0    0  0.20881291496E+02  0.35287129890E+02  0.36711446842E+02  0.55035808343E+02  0.51100000000E-03 0. -1.
         23    2    1    0    0    0  0.12731832704E+02  0.25860870570E+02 -0.23912737047E+01  0.96075920402E+02  0.91618666769E+02 0.  0.
         11    1    3    3    0    0 -0.81494587923E+01 -0.94262593202E+01 -0.39102720547E+02  0.41040112059E+02  0.51100000000E-03 0.  1.
         22    1    1    0    0    0 -0.12731832704E+02 -0.25860870570E+02  0.23912737047E+01  0.28924079598E+02  0.00000000000E+00 0. -1.
</event>
<event>
 5    1  0.8962567E-005  0.9118800E+02  0.7818608E-02  0.1130116E+00
         25   -1    0    0    0    0  0.00000000000E+00  0.00000000000E+00  0.99999998245E-14  0.12500000000E+03  0.12500000000E+03 0.  0.
        -11    1    3    3    0    0 -0.26865325960E+01 -0.33008883134E+02  0.18997955726E+01  0.33172474232E+02  0.51100000000E-03 0.  1.
         23    2    1    0    0    0  0.18523659087E+02  0.23341346643E+02 -0.78942501553E+01  0.94173654213E+02  0.88985468214E+02 0.  0.
         11    1    3    3    0    0  0.21210191683E+02  0.56350229777E+02 -0.97940457279E+01  0.61001179982E+02  0.51100000000E-03 0. -1.
         22    1    1    0    0    0 -0.18523659087E+02 -0.23341346643E+02  0.78942501553E+01  0.30826345787E+02  0.00000000000E+00 0. -1.
</event>
<event>
 5    1  0.8962567E-005  0.9118800E+02  0.7818608E-02  0.1130116E+00
         25   -1    0    0    0    0  0.00000000000E+00  0.00000000000E+00  0.99999998245E-14  0.12500000000E+03  0.12500000000E+03 0.  0.
        -11    1    3    3    0    0 -0.14964380723E+02  0.51735587007E+02 -0.27546746089E+02  0.60492370377E+02  0.51100000000E-03 0.  1.
         23    2    1    0    0    0 -0.17943893244E+02  0.23665082609E+02 -0.10333686078E+02  0.93554737915E+02  0.88111772646E+02 0.  0.
         11    1    3    3    0    0 -0.29795125205E+01 -0.28070504398E+02  0.17213060012E+02  0.33062367539E+02  0.51100000000E-03 0. -1.
         22    1    1    0    0    0  0.17943893244E+02 -0.23665082609E+02  0.10333686078E+02  0.31445262085E+02  0.00000000000E+00 0.  1.
</event>
<event>
 5    1  0.8962567E-005  0.9118800E+02  0.7818608E-02  0.1130116E+00
         25   -1    0    0    0    0  0.00000000000E+00  0.00000000000E+00  0.99999998245E-14  0.12500000000E+03  0.12500000000E+03 0.  0.
        -11    1    3    3    0    0  0.16020539255E+02  0.90283644824E+00 -0.29743573093E+02  0.33795753170E+02  0.51100000000E-03 0. -1.
         23    2    1    0    0    0 -0.22293716169E+02  0.16503487836E+02  0.13937872479E+02  0.93957461756E+02  0.88681257541E+02 0.  0.
         11    1    3    3    0    0 -0.38314255424E+02  0.15600651388E+02  0.43681445573E+02  0.60161708586E+02  0.51100000000E-03 0.  1.
         22    1    1    0    0    0  0.22293716169E+02 -0.16503487836E+02 -0.13937872479E+02  0.31042538244E+02  0.00000000000E+00 0.  1.
</event>
<event>
 5    1  0.8962567E-005  0.9118800E+02  0.7818608E-02  0.1130116E+00
         25   -1    0    0    0    0  0.00000000000E+00  0.00000000000E+00  0.99999998245E-14  0.12500000000E+03  0.12500000000E+03 0.  0.
        -11    1    3    3    0    0 -0.19034148063E+02  0.24528126053E+02  0.21734025820E+02  0.37898491247E+02  0.51100000000E-03 0.  1.
         23    2    1    0    0    0 -0.82669021413E+01 -0.51767903168E+01 -0.27176005708E+02  0.96126549995E+02  0.91687717272E+02 0.  0.
         11    1    3    3    0    0  0.10767245922E+02 -0.29704916370E+02 -0.48910031527E+02  0.58228058748E+02  0.51100000000E-03 0. -1.
         22    1    1    0    0    0  0.82669021413E+01  0.51767903168E+01  0.27176005708E+02  0.28873450005E+02  0.00000000000E+00 0. -1.
</event>
<event>
 5    1  0.8962567E-005  0.9118800E+02  0.7818608E-02  0.1130116E+00
         25   -1    0    0    0    0  0.00000000000E+00  0.00000000000E+00  0.99999998245E-14  0.12500000000E+03  0.12500000000E+03 0.  0.
        -11    1    3    3    0    0 -0.77461077243E+01 -0.12548718443E+02  0.46219547850E+02  0.48515143235E+02  0.51100000000E-03 0. -1.
         23    2    1    0    0    0  0.23593268858E+02 -0.99420035222E+01  0.76523318225E+01  0.98278399154E+02  0.94575894331E+02 0.  0.
         11    1    3    3    0    0  0.31339376583E+02  0.26067149206E+01 -0.38567216027E+02  0.49763255919E+02  0.51100000000E-03 0.  1.
         22    1    1    0    0    0 -0.23593268858E+02  0.99420035222E+01 -0.76523318225E+01  0.26721600846E+02  0.00000000000E+00 0.  1.
</event>
<event>
 5    1  0.8962567E-005  0.9118800E+02  0.7818608E-02  0.1130116E+00
         25   -1    0    0    0    0  0.00000000000E+00  0.00000000000E+00  0.99999998245E-14  0.12500000000E+03  0.12500000000E+03 0.  0.
        -11    1    3    3    0    0 -0.26727268645E+02  0.16676180141E+02  0.85462329604E+01  0.32641690695E+02  0.51100000000E-03 0. -1.
         23    2    1    0    0    0  0.28308572356E+02 -0.89639683235E+01 -0.50988577125E+01  0.94871502744E+02  0.89960411771E+02 0.  0.
         11    1    3    3    0    0  0.55035841001E+02 -0.25640148465E+02 -0.13645090673E+02  0.62229812049E+02  0.51100000000E-03 0.  1.
         22    1    1    0    0    0 -0.28308572356E+02  0.89639683235E+01  0.50988577125E+01  0.30128497256E+02  0.00000000000E+00 0.  1.
</event>
<event>
 5    1  0.8962567E-005  0.9118800E+02  0.7818608E-02  0.1130116E+00
         25   -1    0    0    0    0  0.00000000000E+00  0.00000000000E+00  0.99999998245E-14  0.12500000000E+03  0.12500000000E+03 0.  0.
        -11    1    3    3    0    0  0.49090577407E+02 -0.10373075724E+02  0.99415786732E+01  0.51149980224E+02  0.51100000000E-03 0. -1.
         23    2    1    0    0    0  0.77912162419E+01 -0.18256639259E+02  0.22466375100E+02  0.95020908324E+02  0.90167771854E+02 0.  0.
         11    1    3    3    0    0 -0.41299361165E+02 -0.78835635347E+01  0.12524796427E+02  0.43870928101E+02  0.51100000000E-03 0.  1.
         22    1    1    0    0    0 -0.77912162419E+01  0.18256639259E+02 -0.22466375100E+02  0.29979091676E+02  0.00000000000E+00 0. -1.
</event>
<event>
 5    1  0.8962567E-005  0.9118800E+02  0.7818608E-02  0.1130116E+00
         25   -1    0    0    0    0  0.00000000000E+00  0.00000000000E+00  0.99999998245E-14  0.12500000000E+03  0.12500000000E+03 0.  0.
        -11    1    3    3    0    0  0.22511548276E+02  0.24475710766E+02 -0.25844011294E+02  0.42115830080E+02  0.51100000000E-03 0. -1.
         23    2    1    0    0    0  0.56362387128E+01 -0.24497922545E+02 -0.16970528620E+02  0.94669912010E+02  0.89679863974E+02 0.  0.
         11    1    3    3    0    0 -0.16875309563E+02 -0.48973633311E+02  0.88734826740E+01  0.52554081930E+02  0.51100000000E-03 0.  1.
         22    1    1    0    0    0 -0.56362387128E+01  0.24497922545E+02  0.16970528620E+02  0.30330087990E+02  0.00000000000E+00 0.  1.
</event>
<event>
 5    1  0.8962567E-005  0.9118800E+02  0.7818608E-02  0.1130116E+00
         25   -1    0    0    0    0  0.00000000000E+00  0.00000000000E+00  0.99999998245E-14  0.12500000000E+03  0.12500000000E+03 0.  0.
        -11    1    3    3    0    0 -0.36197946378E+02 -0.47457959626E+01 -0.11511569342E+02  0.38279630749E+02  0.51100000000E-03 0. -1.
         23    2    1    0    0    0  0.11997869552E+02 -0.21418182339E+02  0.15477140926E+02  0.95978812916E+02  0.91486082161E+02 0.  0.
         11    1    3    3    0    0  0.48195815929E+02 -0.16672386377E+02  0.26988710269E+02  0.57699182168E+02  0.51100000000E-03 0.  1.
         22    1    1    0    0    0 -0.11997869552E+02  0.21418182339E+02 -0.15477140926E+02  0.29021187084E+02  0.00000000000E+00 0. -1.
</event>
<event>
 5    1  0.8962567E-005  0.9118800E+02  0.7818608E-02  0.1130116E+00
         25   -1    0    0    0    0  0.00000000000E+00  0.00000000000E+00  0.99999998245E-14  0.12500000000E+03  0.12500000000E+03 0.  0.
        -11    1    3    3    0    0  0.23269287478E+02 -0.12502036102E+02  0.39833836946E+02  0.47796393301E+02  0.51100000000E-03 0. -1.
         23    2    1    0    0    0 -0.19333834491E+02 -0.12867386272E+02  0.17645974309E+02  0.95832429054E+02  0.91285854674E+02 0.  0.
         11    1    3    3    0    0 -0.42603121968E+02 -0.36535016935E+00 -0.22187862638E+02  0.48036035753E+02  0.51100000000E-03 0.  1.
         22    1    1    0    0    0  0.19333834491E+02  0.12867386272E+02 -0.17645974309E+02  0.29167570946E+02  0.00000000000E+00 0. -1.
</event>
<event>
 5    1  0.8962567E-005  0.9118800E+02  0.7818608E-02  0.1130116E+00
         25   -1    0    0    0    0  0.00000000000E+00  0.00000000000E+00  0.99999998245E-14  0.12500000000E+03  0.12500000000E+03 0.  0.
        -11    1    3    3    0    0 -0.27413398057E+02 -0.11004341350E+02  0.25229524187E+02  0.38847378451E+02  0.51100000000E-03 0.  1.
         23    2    1    0    0    0 -0.80776913526E+01  0.24121951113E+02 -0.14853226436E+02  0.95542641689E+02  0.90888175371E+02 0.  0.
         11    1    3    3    0    0  0.19335706704E+02  0.35126292462E+02 -0.40082750623E+02  0.56695263239E+02  0.51100000000E-03 0. -1.
         22    1    1    0    0    0  0.80776913526E+01 -0.24121951113E+02  0.14853226436E+02  0.29457358311E+02  0.00000000000E+00 0.  1.
</event>
<event>
 5    1  0.8962567E-005  0.9118800E+02  0.7818608E-02  0.1130116E+00
         25   -1    0    0    0    0  0.00000000000E+00  0.00000000000E+00  0.99999998245E-14  0.12500000000E+03  0.12500000000E+03 0.  0.
        -11    1    3    3    0    0  0.37385889873E+02  0.75847627519E+01  0.98417265392E+00  0.38160214671E+02  0.51100000000E-03 0.  1.
         23    2    1    0    0    0 -0.18466752875E+02  0.50238283814E+01  0.20097337772E+02  0.97248192872E+02  0.93204335832E+02 0.  0.
         11    1    3    3    0    0 -0.55852642748E+02 -0.25609343705E+01  0.19113165118E+02  0.59087978201E+02  0.51100000000E-03 0. -1.
         22    1    1    0    0    0  0.18466752875E+02 -0.50238283814E+01 -0.20097337772E+02  0.27751807128E+02  0.00000000000E+00 0. -1.
</event>
<event>
 5    1  0.8962567E-005  0.9118800E+02  0.7818608E-02  0.1130116E+00
         25   -1    0    0    0    0  0.00000000000E+00  0.00000000000E+00  0.99999998245E-14  0.12500000000E+03  0.12500000000E+03 0.  0.
        -11    1    3    3    0    0 -0.38443685733E+02 -0.31628264204E+02  0.17340142927E+02  0.52715696204E+02  0.51100000000E-03 0.  1.
         23    2    1    0    0    0 -0.22740397370E+02  0.48840651833E+01  0.22309620651E+02  0.92771147416E+02  0.86993027618E+02 0.  0.
         11    1    3    3    0    0  0.15703288364E+02  0.36512329387E+02  0.49694777244E+01  0.40055451212E+02  0.51100000000E-03 0. -1.
         22    1    1    0    0    0  0.22740397370E+02 -0.48840651833E+01 -0.22309620651E+02  0.32228852584E+02  0.00000000000E+00 0.  1.
</event>
<event>
 5    1  0.8962567E-005  0.9118800E+02  0.7818608E-02  0.1130116E+00
         25   -1    0    0    0    0  0.00000000000E+00  0.00000000000E+00  0.99999998245E-14  0.12500000000E+03  0.12500000000E+03 0.  0.
        -11    1    3    3    0    0  0.37983783976E+02  0.31076267587E+02 -0.32162702991E+02  0.58676585758E+02  0.51100000000E-03 0. -1.
         23    2    1    0    0    0  0.26650512812E+02  0.14509717145E+02 -0.24191647447E+01  0.94559335046E+02  0.89525603944E+02 0.  0.
         11    1    3    3    0    0 -0.11333271164E+02 -0.16566550442E+02  0.29743538246E+02  0.35882749288E+02  0.51100000000E-03 0.  1.
         22    1    1    0    0    0 -0.26650512812E+02 -0.14509717145E+02  0.24191647447E+01  0.30440664954E+02  0.00000000000E+00 0. -1.
</event>
<event>
 5    1  0.8962567E-005  0.9118800E+02  0.7818608E-02  0.1130116E+00
         25   -1    0    0    0    0  0.00000000000E+00  0.00000000000E+00  0.99999998245E-14  0.12500000000E+03  0.12500000000E+03 0.  0.
        -11    1    3    3    0    0  0.29900755399E+01  0.38430916726E+02 -0.82881077007E+00  0.38555970221E+02  0.51100000000E-03 0.  1.
         23    2    1    0    0    0  0.27278384866E+02 -0.11730266013E+02  0.60044135581E+01  0.94705406360E+02  0.89729324025E+02 0.  0.
         11    1    3    3    0    0  0.24288309326E+02 -0.50161182739E+02  0.68332243282E+01  0.56149436139E+02  0.51100000000E-03 0. -1.
         22    1    1    0    0    0 -0.27278384866E+02  0.11730266013E+02 -0.60044135581E+01  0.30294593640E+02  0.00000000000E+00 0. -1.
</event>
<event>
 5    1  0.8962567E-005  0.9118800E+02  0.7818608E-02  0.1130116E+00
         25   -1    0    0    0    0  0.00000000000E+00  0.00000000000E+00  0.99999998245E-14  0.12500000000E+03  0.12500000000E+03 0.  0.
        -11    1    3    3    0    0  0.33756815489E+01  0.15394218656E+02  0.49188997815E+02  0.51652054172E+02  0.51100000000E-03 0.  1.
         23    2    1    0    0    0 -0.11761172779E+02 -0.15521458658E+02  0.22730544126E+02  0.95068102294E+02  0.90233173354E+02 0.  0.
         11    1    3    3    0    0 -0.15136854328E+02 -0.30915677313E+02 -0.26458453689E+02  0.43416048122E+02  0.51100000000E-03 0. -1.
         22    1    1    0    0    0  0.11761172779E+02  0.15521458658E+02 -0.22730544126E+02  0.29931897706E+02  0.00000000000E+00 0.  1.
</event>
<event>
 5    1  0.8962567E-005  0.9118800E+02  0.7818608E-02  0.1130116E+00
         25   -1    0    0    0    0  0.00000000000E+00  0.00000000000E+00  0.99999998245E-14  0.12500000000E+03  0.12500000000E+03 0.  0.
        -11    1    3    3    0    0  0.16463067348E+02  0.32118584964E+02 -0.15399121904E+02  0.39239890956E+02  0.51100000000E-03 0. -1.
         23    2    1    0    0    0  0.14674062700E+00 -0.23952048774E+02 -0.13140107705E+02  0.97679959667E+02  0.93781607561E+02 0.  0.
         11    1    3    3    0    0 -0.16316326721E+02 -0.56070633738E+02  0.22590141986E+01  0.58440068710E+02  0.51100000000E-03 0.  1.
         22    1    1    0    0    0 -0.14674062700E+00  0.23952048774E+02  0.13140107705E+02  0.27320040333E+02  0.00000000000E+00 0.  1.
</event>
<event>
 5    1  0.8962567E-005  0.9118800E+02  0.7818608E-02  0.1130116E+00
         25   -1    0    0    0    0  0.00000000000E+00  0.00000000000E+00  0.99999998245E-14  0.12500000000E+03  0.12500000000E+03 0.  0.
        -11    1    3    3    0    0 -0.17643911541E+02  0.14952986075E+02 -0.24770615592E+02  0.33889272699E+02  0.51100000000E-03 0. -1.
         23    2    1    0    0    0 -0.22273599866E+01 -0.35602580858E+01  0.30515684460E+02  0.94196695499E+02  0.89017828971E+02 0.  0.
         11    1    3    3    0    0  0.15416551554E+02 -0.18513244161E+02  0.55286300051E+02  0.60307422800E+02  0.51100000000E-03 0.  1.
         22    1    1    0    0    0  0.22273599866E+01  0.35602580858E+01 -0.30515684460E+02  0.30803304501E+02  0.00000000000E+00 0.  1.
</event>
<event>
 5    1  0.8962567E-005  0.9118800E+02  0.7818608E-02  0.1130116E+00
         25   -1    0    0    0    0  0.00000000000E+00  0.00000000000E+00  0.99999998245E-14  0.12500000000E+03  0.12500000000E+03 0.  0.
        -11    1    3    3    0    0  0.30082054808E+02  0.23592377115E+02  0.10828623025E+02  0.39733982387E+02  0.51100000000E-03 0.  1.
         23    2    1    0    0    0 -0.24872132450E+02  0.14679748383E+02  0.27715359248E+01  0.95986220574E+02  0.91496202891E+02 0.  0.
         11    1    3    3    0    0 -0.54954187259E+02 -0.89126287325E+01 -0.80570871007E+01  0.56252238187E+02  0.51100000000E-03 0. -1.
         22    1    1    0    0    0  0.24872132450E+02 -0.14679748383E+02 -0.27715359248E+01  0.29013779426E+02  0.00000000000E+00 0. -1.
</event>
<event>
 5    1  0.8962567E-005  0.9118800E+02  0.7818608E-02  0.1130116E+00
         25   -1    0    0    0    0  0.00000000000E+00  0.00000000000E+00  0.99999998245E-14  0.12500000000E+03  0.12500000000E+03 0.  0.
        -11    1    3    3    0    0 -0.30318947432E+02  0.25336651765E+02 -0.33779095380E+02  0.51982802743E+02  0.51100000000E-03 0.  1.
         23    2    1    0    0    0 -0.16518456011E+01 -0.47668816722E+01 -0.30942419142E+02  0.93649002295E+02  0.88245399731E+02 0.  0.
         11    1    3    3    0    0  0.28667101831E+02 -0.30103533437E+02  0.28366762381E+01  0.41666199552E+02  0.51100000000E-03 0. -1.
         22    1    1    0    0    0  0.16518456011E+01  0.47668816722E+01  0.30942419142E+02  0.31350997705E+02  0.00000000000E+00 0.  1.
</event>
<event>
 5    1  0.8962567E-005  0.9118800E+02  0.7818608E-02  0.1130116E+00
         25   -1    0    0    0    0  0.00000000000E+00  0.00000000000E+00  0.99999998245E-14  0.12500000000E+03  0.12500000000E+03 0.  0.
        -11    1    3    3    0    0  0.57713583678E+02 -0.17554892030E+02  0.39574408236E+01  0.60454059527E+02  0.51100000000E-03 0.  1.
         23    2    1    0    0    0  0.22067956580E+02 -0.17772909638E+02  0.55104651937E+01  0.96134168100E+02  0.91698102625E+02 0.  0.
         11    1    3    3    0    0 -0.35645627098E+02 -0.21801760815E+00  0.15530243701E+01  0.35680108574E+02  0.51100000000E-03 0. -1.
         22    1    1    0    0    0 -0.22067956580E+02  0.17772909638E+02 -0.55104651937E+01  0.28865831900E+02  0.00000000000E+00 0.  1.
</event>
<event>
 5    1  0.8962567E-005  0.9118800E+02  0.7818608E-02  0.1130116E+00
         25   -1    0    0    0    0  0.00000000000E+00  0.00000000000E+00  0.99999998245E-14  0.12500000000E+03  0.12500000000E+03 0.  0.
        -11    1    3    3    0    0  0.56644991333E+02  0.12759495377E+02  0.97002233962E+01  0.58868957011E+02  0.51100000000E-03 0.  1.
         23    2    1    0    0    0  0.34780528671E+02  0.13084862412E+02 -0.79837310054E+01  0.86991596196E+02  0.78248955577E+02 0.  0.
         11    1    3    3    0    0 -0.21864462661E+02  0.32536703463E+00 -0.17683954402E+02  0.28122639185E+02  0.51100000000E-03 0. -1.
         22    1    1    0    0    0 -0.34780528671E+02 -0.13084862412E+02  0.79837310054E+01  0.38008403804E+02  0.00000000000E+00 0.  1.
</event>
<event>
 5    1  0.8962567E-005  0.9118800E+02  0.7818608E-02  0.1130116E+00
         25   -1    0    0    0    0  0.00000000000E+00  0.00000000000E+00  0.99999998245E-14  0.12500000000E+03  0.12500000000E+03 0.  0.
        -11    1    3    3    0    0  0.30097782943E+02 -0.33544816867E+00  0.48815550851E+02  0.57349342357E+02  0.51100000000E-03 0.  1.
         23    2    1    0    0    0  0.27084950376E+02  0.15401702855E+01  0.10372321922E+02  0.95956038090E+02  0.91454958982E+02 0.  0.
         11    1    3    3    0    0 -0.30128325664E+01  0.18756184542E+01 -0.38443228929E+02  0.38606695733E+02  0.51100000000E-03 0. -1.
         22    1    1    0    0    0 -0.27084950376E+02 -0.15401702855E+01 -0.10372321922E+02  0.29043961910E+02  0.00000000000E+00 0.  1.
</event>
<event>
 5    1  0.8962567E-005  0.9118800E+02  0.7818608E-02  0.1130116E+00
         25   -1    0    0    0    0  0.00000000000E+00  0.00000000000E+00  0.99999998245E-14  0.12500000000E+03  0.12500000000E+03 0.  0.
        -11    1    3    3    0    0 -0.58515063288E+01 -0.42517380991E+02  0.15285881553E+02  0.45559038486E+02  0.51100000000E-03 0. -1.
         23    2    1    0    0    0  0.13658759128E+02 -0.51137568684E+01 -0.19785737754E+02  0.10041977159E+03  0.97364998319E+02 0.  0.
         11    1    3    3    0    0  0.19510265456E+02  0.37403624123E+02 -0.35071619306E+02  0.54860733104E+02  0.51100000000E-03 0.  1.
         22    1    1    0    0    0 -0.13658759128E+02  0.51137568684E+01  0.19785737754E+02  0.24580228410E+02  0.00000000000E+00 0.  1.
</event>
<event>
 5    1  0.8962567E-005  0.9118800E+02  0.7818608E-02  0.1130116E+00
         25   -1    0    0    0    0  0.00000000000E+00  0.00000000000E+00  0.99999998245E-14  0.12500000000E+03  0.12500000000E+03 0.  0.
        -11    1    3    3    0    0 -0.14265761844E+02  0.38155013047E+02  0.78680726405E+01  0.41487631276E+02  0.51100000000E-03 0.  1.
         23    2    1    0    0    0 -0.17144826065E+02 -0.13851282334E+00 -0.26774703174E+02  0.93206148761E+02  0.87615850108E+02 0.  0.
         11    1    3    3    0    0 -0.28790642209E+01 -0.38293525870E+02 -0.34642775814E+02  0.51718517484E+02  0.51100000000E-03 0. -1.
         22    1    1    0    0    0  0.17144826065E+02  0.13851282334E+00  0.26774703174E+02  0.31793851239E+02  0.00000000000E+00 0.  1.
</event>
<event>
 5    1  0.8962567E-005  0.9118800E+02  0.7818608E-02  0.1130116E+00
         25   -1    0    0    0    0  0.00000000000E+00  0.00000000000E+00  0.99999998245E-14  0.12500000000E+03  0.12500000000E+03 0.  0.
        -11    1    3    3    0    0 -0.28040544148E+02 -0.28191972490E+01  0.49327137662E+02  0.56810091528E+02  0.51100000000E-03 0. -1.
         23    2    1    0    0    0  0.13114076862E+01  0.10134153642E+02  0.27629467988E+02  0.95541412772E+02  0.90886485205E+02 0.  0.
         11    1    3    3    0    0  0.29351951834E+02  0.12953350891E+02 -0.21697669673E+02  0.38731321244E+02  0.51100000000E-03 0.  1.
         22    1    1    0    0    0 -0.13114076862E+01 -0.10134153642E+02 -0.27629467988E+02  0.29458587228E+02  0.00000000000E+00 0. -1.
</event>
<event>
 5    1  0.8962567E-005  0.9118800E+02  0.7818608E-02  0.1130116E+00
         25   -1    0    0    0    0  0.00000000000E+00  0.00000000000E+00  0.99999998245E-14  0.12500000000E+03  0.12500000000E+03 0.  0.
        -11    1    3    3    0    0 -0.35908339826E+02 -0.53575714209E+01 -0.15817950120E+02  0.39602019984E+02  0.51100000000E-03 0.  1.
         23    2    1    0    0    0  0.12335320476E+02  0.24299143901E+02 -0.39179825712E+01  0.97468942755E+02  0.93499923469E+02 0.  0.
         11    1    3    3    0    0  0.48243660302E+02  0.29656715322E+02  0.11899967549E+02  0.57866922771E+02  0.51100000000E-03 0. -1.
         22    1    1    0    0    0 -0.12335320476E+02 -0.24299143901E+02  0.39179825712E+01  0.27531057245E+02  0.00000000000E+00 0. -1.
</event>
<event>
 5    1  0.8962567E-005  0.9118800E+02  0.7818608E-02  0.1130116E+00
         25   -1    0    0    0    0  0.00000000000E+00  0.00000000000E+00  0.99999998245E-14  0.12500000000E+03  0.12500000000E+03 0.  0.
        -11    1    3    3    0    0 -0.24398198435E+02 -0.37605090348E+02 -0.42448647527E+02  0.61735748024E+02  0.51100000000E-03 0.  1.
         23    2    1    0    0    0 -0.10015880701E+02 -0.23070976283E+02 -0.15905487145E+02  0.95241432592E+02  0.90472969156E+02 0.  0.
         11    1    3    3    0    0  0.14382317734E+02  0.14534114066E+02  0.26543160381E+02  0.33505684568E+02  0.51100000000E-03 0. -1.
         22    1    1    0    0    0  0.10015880701E+02  0.23070976283E+02  0.15905487145E+02  0.29758567408E+02  0.00000000000E+00 0.  1.
</event>
<event>
 5    1  0.8962567E-005  0.9118800E+02  0.7818608E-02  0.1130116E+00
         25   -1    0    0    0    0  0.00000000000E+00  0.00000000000E+00  0.99999998245E-14  0.12500000000E+03  0.12500000000E+03 0.  0.
        -11    1    3    3    0    0 -0.20313400322E+01 -0.30691194037E+02 -0.15706025075E+02  0.34536284653E+02  0.51100000000E-03 0.  1.
         23    2    1    0    0    0 -0.11118466668E+02  0.26885141508E+02  0.29973624025E+01  0.95752516068E+02  0.91176362162E+02 0.  0.
         11    1    3    3    0    0 -0.90871266361E+01  0.57576335545E+02  0.18703387478E+02  0.61216231415E+02  0.51100000000E-03 0. -1.
         22    1    1    0    0    0  0.11118466668E+02 -0.26885141508E+02 -0.29973624025E+01  0.29247483932E+02  0.00000000000E+00 0. -1.
</event>
<event>
 5    1  0.8962567E-005  0.9118800E+02  0.7818608E-02  0.1130116E+00
         25   -1    0    0    0    0  0.00000000000E+00  0.00000000000E+00  0.99999998245E-14  0.12500000000E+03  0.12500000000E+03 0.  0.
        -11    1    3    3    0    0  0.28588577539E+02  0.23940800888E+02  0.79761639430E+01  0.38132504565E+02  0.51100000000E-03 0.  1.
         23    2    1    0    0    0 -0.19559584815E+02 -0.53377274652E+01  0.20830598613E+02  0.95931416766E+02  0.91421300535E+02 0.  0.
         11    1    3    3    0    0 -0.48148162355E+02 -0.29278528354E+02  0.12854434670E+02  0.57798912201E+02  0.51100000000E-03 0. -1.
         22    1    1    0    0    0  0.19559584815E+02  0.53377274652E+01 -0.20830598613E+02  0.29068583234E+02  0.00000000000E+00 0. -1.
</event>
<event>
 5    1  0.8962567E-005  0.9118800E+02  0.7818608E-02  0.1130116E+00
         25   -1    0    0    0    0  0.00000000000E+00  0.00000000000E+00  0.99999998245E-14  0.12500000000E+03  0.12500000000E+03 0.  0.
        -11    1    3    3    0    0  0.11217972968E+02 -0.41119729325E+02  0.27282995068E+02  0.50606688070E+02  0.51100000000E-03 0.  1.
         23    2    1    0    0    0  0.94617195841E+01  0.26278900719E+01  0.28958736864E+02  0.94421602651E+02  0.89333088286E+02 0.  0.
         11    1    3    3    0    0 -0.17562533837E+01  0.43747619397E+02  0.16757417954E+01  0.43814914580E+02  0.51100000000E-03 0. -1.
         22    1    1    0    0    0 -0.94617195841E+01 -0.26278900719E+01 -0.28958736864E+02  0.30578397349E+02  0.00000000000E+00 0.  1.
</event>
<event>
 5    1  0.8962567E-005  0.9118800E+02  0.7818608E-02  0.1130116E+00
         25   -1    0    0    0    0  0.00000000000E+00  0.00000000000E+00  0.99999998245E-14  0.12500000000E+03  0.12500000000E+03 0.  0.
        -11    1    3    3    0    0  0.17976599058E+02  0.66401801871E+00 -0.30262808970E+02  0.35205633649E+02  0.51100000000E-03 0.  1.
         23    2    1    0    0    0 -0.13876833184E+02  0.26176993619E+01  0.23416462135E+02  0.97654990435E+02  0.93748320565E+02 0.  0.
         11    1    3    3    0    0 -0.31853432242E+02  0.19536813432E+01  0.53679271105E+02  0.62449356786E+02  0.51100000000E-03 0. -1.
         22    1    1    0    0    0  0.13876833184E+02 -0.26176993619E+01 -0.23416462135E+02  0.27345009565E+02  0.00000000000E+00 0. -1.
</event>
<event>
 5    1  0.8962567E-005  0.9118800E+02  0.7818608E-02  0.1130116E+00
         25   -1    0    0    0    0  0.00000000000E+00  0.00000000000E+00  0.99999998245E-14  0.12500000000E+03  0.12500000000E+03 0.  0.
        -11    1    3    3    0    0  0.99181494847E+01 -0.41338269031E+01  0.37013006445E+02  0.38541158005E+02  0.51100000000E-03 0.  1.
         23    2    1    0    0    0 -0.74031093419E+01  0.13702673919E+02 -0.19359630347E+02  0.10015317751E+03  0.97022133447E+02 0.  0.
         11    1    3    3    0    0 -0.17321258827E+02  0.17836500822E+02 -0.56372636791E+02  0.61612019509E+02  0.51100000000E-03 0. -1.
         22    1    1    0    0    0  0.74031093419E+01 -0.13702673919E+02  0.19359630347E+02  0.24846822485E+02  0.00000000000E+00 0. -1.
</event>
<event>
 5    1  0.8962567E-005  0.9118800E+02  0.7818608E-02  0.1130116E+00
         25   -1    0    0    0    0  0.00000000000E+00  0.00000000000E+00  0.99999998245E-14  0.12500000000E+03  0.12500000000E+03 0.  0.
        -11    1    3    3    0    0  0.26284472181E+02 -0.33241438402E+02 -0.11748904483E+02  0.43976169247E+02  0.51100000000E-03 0.  1.
         23    2    1    0    0    0 -0.22412504155E+02 -0.19069036121E+02 -0.33773400375E+01  0.95379822640E+02  0.90663971125E+02 0.  0.
         11    1    3    3    0    0 -0.48696976336E+02  0.14172402281E+02  0.83715644458E+01  0.51403653393E+02  0.51100000000E-03 0. -1.
         22    1    1    0    0    0  0.22412504155E+02  0.19069036121E+02  0.33773400375E+01  0.29620177360E+02  0.00000000000E+00 0.  1.
</event>
<event>
 5    1  0.8962567E-005  0.9118800E+02  0.7818608E-02  0.1130116E+00
         25   -1    0    0    0    0  0.00000000000E+00  0.00000000000E+00  0.99999998245E-14  0.12500000000E+03  0.12500000000E+03 0.  0.
        -11    1    3    3    0    0  0.30303786387E+02  0.34146732665E+02  0.42365687123E+02  0.62282985371E+02  0.51100000000E-03 0.  1.
         23    2    1    0    0    0  0.12791582157E+02  0.19509702434E+02  0.19439186013E+02  0.94633323923E+02  0.89628851274E+02 0.  0.
         11    1    3    3    0    0 -0.17512204231E+02 -0.14637030231E+02 -0.22926501110E+02  0.32350338551E+02  0.51100000000E-03 0. -1.
         22    1    1    0    0    0 -0.12791582157E+02 -0.19509702434E+02 -0.19439186013E+02  0.30366676077E+02  0.00000000000E+00 0.  1.
</event>
<event>
 5    1  0.8962567E-005  0.9118800E+02  0.7818608E-02  0.1130116E+00
         25   -1    0    0    0    0  0.00000000000E+00  0.00000000000E+00  0.99999998245E-14  0.12500000000E+03  0.12500000000E+03 0.  0.
        -11    1    3    3    0    0 -0.96403457915E+00 -0.43586659985E+02 -0.32849873760E+02  0.54587915307E+02  0.51100000000E-03 0.  1.
         23    2    1    0    0    0 -0.89112719121E+01 -0.33081819253E+01 -0.27393782433E+02  0.96003894214E+02  0.91520345025E+02 0.  0.
         11    1    3    3    0    0 -0.79472373329E+01  0.40278478059E+02  0.54560913268E+01  0.41415978907E+02  0.51100000000E-03 0. -1.
         22    1    1    0    0    0  0.89112719121E+01  0.33081819253E+01  0.27393782433E+02  0.28996105786E+02  0.00000000000E+00 0.  1.
</event>
<event>
 5    1  0.8962567E-005  0.9118800E+02  0.7818608E-02  0.1130116E+00
         25   -1    0    0    0    0  0.00000000000E+00  0.00000000000E+00  0.99999998245E-14  0.12500000000E+03  0.12500000000E+03 0.  0.
        -11    1    3    3    0    0  0.49929642797E+02  0.17922818234E+02 -0.44703996647E+01  0.53237027685E+02  0.51100000000E-03 0. -1.
         23    2    1    0    0    0  0.18773280861E+02  0.35291933525E+01  0.21473264259E+02  0.96259917225E+02  0.91869359997E+02 0.  0.
         11    1    3    3    0    0 -0.31156361936E+02 -0.14393624882E+02  0.25943663923E+02  0.43022889540E+02  0.51100000000E-03 0.  1.
         22    1    1    0    0    0 -0.18773280861E+02 -0.35291933525E+01 -0.21473264259E+02  0.28740082775E+02  0.00000000000E+00 0. -1.
</event>
<event>
 5    1  0.8962567E-005  0.9118800E+02  0.7818608E-02  0.1130116E+00
         25   -1    0    0    0    0  0.00000000000E+00  0.00000000000E+00  0.99999998245E-14  0.12500000000E+03  0.12500000000E+03 0.  0.
        -11    1    3    3    0    0 -0.16638654357E+02 -0.22231039000E+02  0.47905353834E+02  0.55371353966E+02  0.51100000000E-03 0. -1.
         23    2    1    0    0    0 -0.81693328172E+01 -0.19751615632E+02  0.47015751887E+00  0.10362044512E+03  0.10139088361E+03 0.  0.
         11    1    3    3    0    0  0.84693215401E+01  0.24794233681E+01 -0.47435196315E+02  0.48249091155E+02  0.51100000000E-03 0.  1.
         22    1    1    0    0    0  0.81693328172E+01  0.19751615632E+02 -0.47015751887E+00  0.21379554879E+02  0.00000000000E+00 0. -1.
</event>
<event>
 5    1  0.8962567E-005  0.9118800E+02  0.7818608E-02  0.1130116E+00
         25   -1    0    0    0    0  0.00000000000E+00  0.00000000000E+00  0.99999998245E-14  0.12500000000E+03  0.12500000000E+03 0.  0.
        -11    1    3    3    0    0  0.24755197422E+02 -0.28847648435E+02  0.34400794133E+02  0.51268131006E+02  0.51100000000E-03 0. -1.
         23    2    1    0    0    0  0.22296598236E+02  0.10125550675E+02  0.21552931608E+02  0.92378014618E+02  0.86426290297E+02 0.  0.
         11    1    3    3    0    0 -0.24585991861E+01  0.38973199110E+02 -0.12847862525E+02  0.41109883612E+02  0.51100000000E-03 0.  1.
         22    1    1    0    0    0 -0.22296598236E+02 -0.10125550675E+02 -0.21552931608E+02  0.32621985382E+02  0.00000000000E+00 0. -1.
</event>
<event>
 5    1  0.8962567E-005  0.9118800E+02  0.7818608E-02  0.1130116E+00
         25   -1    0    0    0    0  0.00000000000E+00  0.00000000000E+00  0.99999998245E-14  0.12500000000E+03  0.12500000000E+03 0.  0.
        -11    1    3    3    0    0  0.33017582626E+01 -0.23504814366E+02  0.24775891693E+02  0.34310679321E+02  0.51100000000E-03 0.  1.
         23    2    1    0    0    0 -0.19341891194E+02  0.21203727460E+02 -0.92039709962E+01  0.94859995102E+02  0.89944420481E+02 0.  0.
         11    1    3    3    0    0 -0.22643649456E+02  0.44708541826E+02 -0.33979862690E+02  0.60549315781E+02  0.51100000000E-03 0. -1.
         22    1    1    0    0    0  0.19341891194E+02 -0.21203727460E+02  0.92039709962E+01  0.30140004898E+02  0.00000000000E+00 0. -1.
</event>
<event>
 5    1  0.8962567E-005  0.9118800E+02  0.7818608E-02  0.1130116E+00
         25   -1    0    0    0    0  0.00000000000E+00  0.00000000000E+00  0.99999998245E-14  0.12500000000E+03  0.12500000000E+03 0.  0.
        -11    1    3    3    0    0  0.94416223393E+01 -0.50556523480E+02  0.26075151924E+02  0.57662985068E+02  0.51100000000E-03 0.  1.
         23    2    1    0    0    0  0.16920364322E+02 -0.13965905942E+02  0.19626795315E+02  0.95562670775E+02  0.90915717529E+02 0.  0.
         11    1    3    3    0    0  0.74787419822E+01  0.36590617538E+02 -0.64483566093E+01  0.37899685707E+02  0.51100000000E-03 0. -1.
         22    1    1    0    0    0 -0.16920364322E+02  0.13965905942E+02 -0.19626795315E+02  0.29437329225E+02  0.00000000000E+00 0.  1.
</event>
<event>
 5    1  0.8962567E-005  0.9118800E+02  0.7818608E-02  0.1130116E+00
         25   -1    0    0    0    0  0.00000000000E+00  0.00000000000E+00  0.99999998245E-14  0.12500000000E+03  0.12500000000E+03 0.  0.
        -11    1    3    3    0    0  0.13096354384E+02 -0.42481211149E+02 -0.29108764233E+02  0.53136503030E+02  0.51100000000E-03 0. -1.
         23    2    1    0    0    0 -0.15279137050E+02 -0.25139053022E+02 -0.29748857215E+01  0.95431875932E+02  0.90735709525E+02 0.  0.
         11    1    3    3    0    0 -0.28375491434E+02  0.17342158127E+02  0.26133878512E+02  0.42295372902E+02  0.51100000000E-03 0.  1.
         22    1    1    0    0    0  0.15279137050E+02  0.25139053022E+02  0.29748857215E+01  0.29568124068E+02  0.00000000000E+00 0. -1.
</event>
<event>
 5    1  0.8962567E-005  0.9118800E+02  0.7818608E-02  0.1130116E+00
         25   -1    0    0    0    0  0.00000000000E+00  0.00000000000E+00  0.99999998245E-14  0.12500000000E+03  0.12500000000E+03 0.  0.
        -11    1    3    3    0    0 -0.14061004058E+02 -0.54945843787E+02 -0.69112775715E+01  0.57136007408E+02  0.51100000000E-03 0. -1.
         23    2    1    0    0    0 -0.17780686384E+02 -0.13809660418E+02 -0.13178794040E+02  0.98912835695E+02  0.95410737989E+02 0.  0.
         11    1    3    3    0    0 -0.37196823259E+01  0.41136183369E+02 -0.62675164680E+01  0.41776828287E+02  0.51100000000E-03 0.  1.
         22    1    1    0    0    0  0.17780686384E+02  0.13809660418E+02  0.13178794040E+02  0.26087164305E+02  0.00000000000E+00 0. -1.
</event>
<event>
 5    1  0.8962567E-005  0.9118800E+02  0.7818608E-02  0.1130116E+00
         25   -1    0    0    0    0  0.00000000000E+00  0.00000000000E+00  0.99999998245E-14  0.12500000000E+03  0.12500000000E+03 0.  0.
        -11    1    3    3    0    0 -0.18754787905E+02 -0.58027462992E+02 -0.26592694748E+01  0.61040971856E+02  0.51100000000E-03 0.  1.
         23    2    1    0    0    0 -0.89185612245E+00 -0.27765169769E+02  0.43721766776E+01  0.96878549316E+02  0.92707266862E+02 0.  0.
         11    1    3    3    0    0  0.17862931783E+02  0.30262293223E+02  0.70314461524E+01  0.35837577461E+02  0.51100000000E-03 0. -1.
         22    1    1    0    0    0  0.89185612245E+00  0.27765169769E+02 -0.43721766776E+01  0.28121450684E+02  0.00000000000E+00 0.  1.
</event>
<event>
 5    1  0.8962567E-005  0.9118800E+02  0.7818608E-02  0.1130116E+00
         25   -1    0    0    0    0  0.00000000000E+00  0.00000000000E+00  0.99999998245E-14  0.12500000000E+03  0.12500000000E+03 0.  0.
        -11    1    3    3    0    0  0.36264609521E+02 -0.10999908926E+02 -0.13411597814E+01  0.37919897282E+02  0.51100000000E-03 0.  1.
         23    2    1    0    0    0 -0.13212966221E+02  0.11840455617E+02  0.21600517321E+02  0.97047160894E+02  0.92934332856E+02 0.  0.
         11    1    3    3    0    0 -0.49477575741E+02  0.22840364542E+02  0.22941677103E+02  0.59127263612E+02  0.51100000000E-03 0. -1.
         22    1    1    0    0    0  0.13212966221E+02 -0.11840455617E+02 -0.21600517321E+02  0.27952839106E+02  0.00000000000E+00 0. -1.
</event>
<event>
 5    1  0.8962567E-005  0.9118800E+02  0.7818608E-02  0.1130116E+00
         25   -1    0    0    0    0  0.00000000000E+00  0.00000000000E+00  0.99999998245E-14  0.12500000000E+03  0.12500000000E+03 0.  0.
        -11    1    3    3    0    0  0.36370040588E+02 -0.27779731912E+02 -0.79761846251E+01  0.46455493528E+02  0.51100000000E-03 0.  1.
         23    2    1    0    0    0 -0.13651027231E+02 -0.17214074727E+02 -0.15474820248E+02  0.98127244747E+02  0.94375903634E+02 0.  0.
         11    1    3    3    0    0 -0.50021067819E+02  0.10565657185E+02 -0.74986356231E+01  0.51671751219E+02  0.51100000000E-03 0. -1.
         22    1    1    0    0    0  0.13651027231E+02  0.17214074727E+02  0.15474820248E+02  0.26872755253E+02  0.00000000000E+00 0.  1.
</event>
<event>
 5    1  0.8962567E-005  0.9118800E+02  0.7818608E-02  0.1130116E+00
         25   -1    0    0    0    0  0.00000000000E+00  0.00000000000E+00  0.99999998245E-14  0.12500000000E+03  0.12500000000E+03 0.  0.
        -11    1    3    3    0    0  0.20681941076E+02  0.37300731441E+02 -0.16526440706E+02  0.45740687526E+02  0.51100000000E-03 0.  1.
         23    2    1    0    0    0  0.16640167943E+02  0.72055341726E+01  0.23080497669E+02  0.95648266073E+02  0.91033326415E+02 0.  0.
         11    1    3    3    0    0 -0.40417731331E+01 -0.30095197268E+02  0.39606938375E+02  0.49907578547E+02  0.51100000000E-03 0. -1.
         22    1    1    0    0    0 -0.16640167943E+02 -0.72055341726E+01 -0.23080497669E+02  0.29351733927E+02  0.00000000000E+00 0.  1.
</event>
<event>
 5    1  0.8962567E-005  0.9118800E+02  0.7818608E-02  0.1130116E+00
         25   -1    0    0    0    0  0.00000000000E+00  0.00000000000E+00  0.99999998245E-14  0.12500000000E+03  0.12500000000E+03 0.  0.
        -11    1    3    3    0    0  0.29978256586E+01  0.48171229922E+02 -0.30279998255E+02  0.56976597348E+02  0.51100000000E-03 0.  1.
         23    2    1    0    0    0 -0.74229594293E+01  0.28188473316E+02  0.13559216225E+01  0.95819032264E+02  0.91267508270E+02 0.  0.
         11    1    3    3    0    0 -0.10420785088E+02 -0.19982756606E+02  0.31635919877E+02  0.38842434915E+02  0.51100000000E-03 0. -1.
         22    1    1    0    0    0  0.74229594293E+01 -0.28188473316E+02 -0.13559216225E+01  0.29180967736E+02  0.00000000000E+00 0.  1.
</event>
<event>
 5    1  0.8962567E-005  0.9118800E+02  0.7818608E-02  0.1130116E+00
         25   -1    0    0    0    0  0.00000000000E+00  0.00000000000E+00  0.99999998245E-14  0.12500000000E+03  0.12500000000E+03 0.  0.
        -11    1    3    3    0    0 -0.93486836249E+01 -0.13765593652E+00  0.55284575600E+02  0.56069609720E+02  0.51100000000E-03 0. -1.
         23    2    1    0    0    0  0.15602260386E+02 -0.28740212210E+01  0.24821796952E+02  0.95541348791E+02  0.90886397209E+02 0.  0.
         11    1    3    3    0    0  0.24950944011E+02 -0.27363652845E+01 -0.30462778648E+02  0.39471739071E+02  0.51100000000E-03 0.  1.
         22    1    1    0    0    0 -0.15602260386E+02  0.28740212210E+01 -0.24821796952E+02  0.29458651209E+02  0.00000000000E+00 0. -1.
</event>
<event>
 5    1  0.8962567E-005  0.9118800E+02  0.7818608E-02  0.1130116E+00
         25   -1    0    0    0    0  0.00000000000E+00  0.00000000000E+00  0.99999998245E-14  0.12500000000E+03  0.12500000000E+03 0.  0.
        -11    1    3    3    0    0 -0.17742355145E+01  0.24503365944E+02  0.15786099046E+02  0.29202119403E+02  0.51100000000E-03 0. -1.
         23    2    1    0    0    0 -0.10479358332E+02 -0.27606230238E+02 -0.16555794237E+02  0.91147153416E+02  0.84627349918E+02 0.  0.
         11    1    3    3    0    0 -0.87051228180E+01 -0.52109596182E+02 -0.32341893283E+02  0.61945034013E+02  0.51100000000E-03 0.  1.
         22    1    1    0    0    0  0.10479358332E+02  0.27606230238E+02  0.16555794237E+02  0.33852846584E+02  0.00000000000E+00 0.  1.
</event>
<event>
 5    1  0.8962567E-005  0.9118800E+02  0.7818608E-02  0.1130116E+00
         25   -1    0    0    0    0  0.00000000000E+00  0.00000000000E+00  0.99999998245E-14  0.12500000000E+03  0.12500000000E+03 0.  0.
        -11    1    3    3    0    0 -0.13315679308E+02 -0.35858315266E+02 -0.29189370987E+02  0.48115958559E+02  0.51100000000E-03 0.  1.
         23    2    1    0    0    0  0.21922649499E+02 -0.55468610899E+01 -0.18432642295E+02  0.95825824245E+02  0.91276810096E+02 0.  0.
         11    1    3    3    0    0  0.35238328807E+02  0.30311454176E+02  0.10756728693E+02  0.47709865686E+02  0.51100000000E-03 0. -1.
         22    1    1    0    0    0 -0.21922649499E+02  0.55468610899E+01  0.18432642295E+02  0.29174175755E+02  0.00000000000E+00 0. -1.
</event>
<event>
 5    1  0.8962567E-005  0.9118800E+02  0.7818608E-02  0.1130116E+00
         25   -1    0    0    0    0  0.00000000000E+00  0.00000000000E+00  0.99999998245E-14  0.12500000000E+03  0.12500000000E+03 0.  0.
        -11    1    3    3    0    0 -0.20229316801E+02 -0.35251238954E+02 -0.11655570049E+02  0.42281525746E+02  0.51100000000E-03 0. -1.
         23    2    1    0    0    0  0.98278212329E+01 -0.13035956724E+02  0.25330717681E+02  0.94864182504E+02  0.89950239722E+02 0.  0.
         11    1    3    3    0    0  0.30057138034E+02  0.22215282230E+02  0.36986287730E+02  0.52582656758E+02  0.51100000000E-03 0.  1.
         22    1    1    0    0    0 -0.98278212329E+01  0.13035956724E+02 -0.25330717681E+02  0.30135817496E+02  0.00000000000E+00 0.  1.
</event>
<event>
 5    1  0.8962567E-005  0.9118800E+02  0.7818608E-02  0.1130116E+00
         25   -1    0    0    0    0  0.00000000000E+00  0.00000000000E+00  0.99999998245E-14  0.12500000000E+03  0.12500000000E+03 0.  0.
        -11    1    3    3    0    0  0.21402190282E+02  0.35886730307E+02  0.20864944018E+02  0.46703929708E+02  0.51100000000E-03 0. -1.
         23    2    1    0    0    0  0.27649680951E+02  0.10111145276E+02 -0.15512156322E+02  0.91722874084E+02  0.85473496015E+02 0.  0.
         11    1    3    3    0    0  0.62474906694E+01 -0.25775585031E+02 -0.36377100340E+02  0.45018944376E+02  0.51100000000E-03 0.  1.
         22    1    1    0    0    0 -0.27649680951E+02 -0.10111145276E+02  0.15512156322E+02  0.33277125916E+02  0.00000000000E+00 0.  1.
</event>
<event>
 5    1  0.8962567E-005  0.9118800E+02  0.7818608E-02  0.1130116E+00
         25   -1    0    0    0    0  0.00000000000E+00  0.00000000000E+00  0.99999998245E-14  0.12500000000E+03  0.12500000000E+03 0.  0.
        -11    1    3    3    0    0  0.12464161923E+02 -0.13521037006E+02 -0.32367158783E+02  0.37226425320E+02  0.51100000000E-03 0.  1.
         23    2    1    0    0    0 -0.25767274721E+02 -0.12986179602E+02  0.10154641671E+02  0.94410621865E+02  0.89317722017E+02 0.  0.
         11    1    3    3    0    0 -0.38231436644E+02  0.53485740389E+00  0.42521800455E+02  0.57184196545E+02  0.51100000000E-03 0. -1.
         22    1    1    0    0    0  0.25767274721E+02  0.12986179602E+02 -0.10154641671E+02  0.30589378135E+02  0.00000000000E+00 0. -1.
</event>
<event>
 5    1  0.8962567E-005  0.9118800E+02  0.7818608E-02  0.1130116E+00
         25   -1    0    0    0    0  0.00000000000E+00  0.00000000000E+00  0.99999998245E-14  0.12500000000E+03  0.12500000000E+03 0.  0.
        -11    1    3    3    0    0  0.14493720377E+02  0.29257315987E+02 -0.76140741295E+01  0.33526595328E+02  0.51100000000E-03 0.  1.
         23    2    1    0    0    0 -0.83003435445E+01 -0.27555959264E+02 -0.92718076513E+01  0.94764375134E+02  0.89811434592E+02 0.  0.
         11    1    3    3    0    0 -0.22794063921E+02 -0.56813275252E+02 -0.16577335218E+01  0.61237779806E+02  0.51100000000E-03 0. -1.
         22    1    1    0    0    0  0.83003435445E+01  0.27555959264E+02  0.92718076513E+01  0.30235624866E+02  0.00000000000E+00 0. -1.
</event>
<event>
 5    1  0.8962567E-005  0.9118800E+02  0.7818608E-02  0.1130116E+00
         25   -1    0    0    0    0  0.00000000000E+00  0.00000000000E+00  0.99999998245E-14  0.12500000000E+03  0.12500000000E+03 0.  0.
        -11    1    3    3    0    0 -0.23054748897E+02 -0.94620104086E+01 -0.54708805359E+02  0.60117422365E+02  0.51100000000E-03 0.  1.
         23    2    1    0    0    0  0.99983284071E+00 -0.33318070580E+01 -0.28770230956E+02  0.96020234762E+02  0.91542660495E+02 0.  0.
         11    1    3    3    0    0  0.24054581738E+02  0.61302033506E+01  0.25938574403E+02  0.35902812397E+02  0.51100000000E-03 0. -1.
         22    1    1    0    0    0 -0.99983284071E+00  0.33318070580E+01  0.28770230956E+02  0.28979765238E+02  0.00000000000E+00 0.  1.
</event>
<event>
 5    1  0.8962567E-005  0.9118800E+02  0.7818608E-02  0.1130116E+00
         25   -1    0    0    0    0  0.00000000000E+00  0.00000000000E+00  0.99999998245E-14  0.12500000000E+03  0.12500000000E+03 0.  0.
        -11    1    3    3    0    0 -0.12971585757E+02  0.37755835766E+02 -0.21072659574E+02  0.45142243555E+02  0.51100000000E-03 0.  1.
         23    2    1    0    0    0  0.82533907285E-01  0.17799282422E+02  0.23396792976E+02  0.95602190760E+02  0.90970037320E+02 0.  0.
         11    1    3    3    0    0  0.13054119664E+02 -0.19956553344E+02  0.44469452549E+02  0.50459947205E+02  0.51100000000E-03 0. -1.
         22    1    1    0    0    0 -0.82533907285E-01 -0.17799282422E+02 -0.23396792976E+02  0.29397809240E+02  0.00000000000E+00 0. -1.
</event>
<event>
 5    1  0.8962567E-005  0.9118800E+02  0.7818608E-02  0.1130116E+00
         25   -1    0    0    0    0  0.00000000000E+00  0.00000000000E+00  0.99999998245E-14  0.12500000000E+03  0.12500000000E+03 0.  0.
        -11    1    3    3    0    0  0.38353546324E+02  0.16442305386E+02  0.17917782198E+02  0.45413553497E+02  0.51100000000E-03 0.  1.
         23    2    1    0    0    0  0.70559743689E+01 -0.24500584944E+02  0.10269977567E+02  0.97512950756E+02  0.93558739245E+02 0.  0.
         11    1    3    3    0    0 -0.31297571955E+02 -0.40942890330E+02 -0.76478046313E+01  0.52099397260E+02  0.51100000000E-03 0. -1.
         22    1    1    0    0    0 -0.70559743689E+01  0.24500584944E+02 -0.10269977567E+02  0.27487049244E+02  0.00000000000E+00 0. -1.
</event>
<event>
 5    1  0.8962567E-005  0.9118800E+02  0.7818608E-02  0.1130116E+00
         25   -1    0    0    0    0  0.00000000000E+00  0.00000000000E+00  0.99999998245E-14  0.12500000000E+03  0.12500000000E+03 0.  0.
        -11    1    3    3    0    0  0.31387698377E+02 -0.29828430682E+02  0.29307934986E+02  0.52286498638E+02  0.51100000000E-03 0. -1.
         23    2    1    0    0    0 -0.69877979487E+01 -0.27068585937E+02  0.10233339889E+02  0.95229899058E+02  0.90457032697E+02 0.  0.
         11    1    3    3    0    0 -0.38375496325E+02  0.27598447450E+01 -0.19074595097E+02  0.42943400420E+02  0.51100000000E-03 0.  1.
         22    1    1    0    0    0  0.69877979487E+01  0.27068585937E+02 -0.10233339889E+02  0.29770100942E+02  0.00000000000E+00 0. -1.
</event>
<event>
 5    1  0.8962567E-005  0.9118800E+02  0.7818608E-02  0.1130116E+00
         25   -1    0    0    0    0  0.00000000000E+00  0.00000000000E+00  0.99999998245E-14  0.12500000000E+03  0.12500000000E+03 0.  0.
        -11    1    3    3    0    0  0.74375598313E+01  0.28353002106E+02 -0.37160855784E+02  0.47330109102E+02  0.51100000000E-03 0. -1.
         23    2    1    0    0    0  0.29542941950E+02  0.42594679526E+01 -0.23963642993E+01  0.95055533931E+02  0.90215760722E+02 0.  0.
         11    1    3    3    0    0  0.22105382119E+02 -0.24093534154E+02  0.34764491485E+02  0.47725424829E+02  0.51100000000E-03 0.  1.
         22    1    1    0    0    0 -0.29542941950E+02 -0.42594679526E+01  0.23963642993E+01  0.29944466069E+02  0.00000000000E+00 0. -1.
</event>
<event>
 5    1  0.8962567E-005  0.9118800E+02  0.7818608E-02  0.1130116E+00
         25   -1    0    0    0    0  0.00000000000E+00  0.00000000000E+00  0.99999998245E-14  0.12500000000E+03  0.12500000000E+03 0.  0.
        -11    1    3    3    0    0  0.36745532881E+02 -0.40059774052E+02 -0.82035985493E+01  0.54975619262E+02  0.51100000000E-03 0.  1.
         23    2    1    0    0    0  0.14235417533E+02 -0.11154580545E+02 -0.24064057286E+02  0.94897664002E+02  0.89996755500E+02 0.  0.
         11    1    3    3    0    0 -0.22510115348E+02  0.28905193507E+02 -0.15860458736E+02  0.39922044740E+02  0.51100000000E-03 0. -1.
         22    1    1    0    0    0 -0.14235417533E+02  0.11154580545E+02  0.24064057286E+02  0.30102335998E+02  0.00000000000E+00 0.  1.
</event>
<event>
 5    1  0.8962567E-005  0.9118800E+02  0.7818608E-02  0.1130116E+00
         25   -1    0    0    0    0  0.00000000000E+00  0.00000000000E+00  0.99999998245E-14  0.12500000000E+03  0.12500000000E+03 0.  0.
        -11    1    3    3    0    0 -0.19182997782E+02  0.39058647734E+02  0.44009980847E+02  0.61890579098E+02  0.51100000000E-03 0.  1.
         23    2    1    0    0    0 -0.37432551558E+01  0.18199385113E+02  0.23929261447E+02  0.94704140035E+02  0.89727559917E+02 0.  0.
         11    1    3    3    0    0  0.15439742626E+02 -0.20859262622E+02 -0.20080719400E+02  0.32813560936E+02  0.51100000000E-03 0. -1.
         22    1    1    0    0    0  0.37432551558E+01 -0.18199385113E+02 -0.23929261447E+02  0.30295859965E+02  0.00000000000E+00 0.  1.
</event>
<event>
 5    1  0.8962567E-005  0.9118800E+02  0.7818608E-02  0.1130116E+00
         25   -1    0    0    0    0  0.00000000000E+00  0.00000000000E+00  0.99999998245E-14  0.12500000000E+03  0.12500000000E+03 0.  0.
        -11    1    3    3    0    0  0.71266128523E+01 -0.41448425784E+02  0.23859406772E+02  0.48353199506E+02  0.51100000000E-03 0.  1.
         23    2    1    0    0    0 -0.16325706922E+02 -0.19545545737E+02 -0.12317003209E+02  0.96711033375E+02  0.92481124256E+02 0.  0.
         11    1    3    3    0    0 -0.23452319774E+02  0.21902880047E+02 -0.36176409981E+02  0.48357833869E+02  0.51100000000E-03 0. -1.
         22    1    1    0    0    0  0.16325706922E+02  0.19545545737E+02  0.12317003209E+02  0.28288966625E+02  0.00000000000E+00 0. -1.
</event>
<event>
 5    1  0.8962567E-005  0.9118800E+02  0.7818608E-02  0.1130116E+00
         25   -1    0    0    0    0  0.00000000000E+00  0.00000000000E+00  0.99999998245E-14  0.12500000000E+03  0.12500000000E+03 0.  0.
        -11    1    3    3    0    0  0.29861554999E+02  0.30213814179E+02  0.52378478256E+01  0.42802127100E+02  0.51100000000E-03 0. -1.
         23    2    1    0    0    0  0.61212974023E+01 -0.12110463940E+02  0.26068056807E+02  0.95611614463E+02  0.90982985310E+02 0.  0.
         11    1    3    3    0    0 -0.23740257597E+02 -0.42324278119E+02  0.20830208982E+02  0.52809487363E+02  0.51100000000E-03 0.  1.
         22    1    1    0    0    0 -0.61212974023E+01  0.12110463940E+02 -0.26068056807E+02  0.29388385537E+02  0.00000000000E+00 0.  1.
</event>
<event>
 5    1  0.8962567E-005  0.9118800E+02  0.7818608E-02  0.1130116E+00
         25   -1    0    0    0    0  0.00000000000E+00  0.00000000000E+00  0.99999998245E-14  0.12500000000E+03  0.12500000000E+03 0.  0.
        -11    1    3    3    0    0 -0.34049421300E+02 -0.24034747829E+02 -0.12115469233E+02  0.43402958299E+02  0.51100000000E-03 0. -1.
         23    2    1    0    0    0 -0.98784349755E+01 -0.62843497299E+01  0.28672770526E+02  0.94028976466E+02  0.88782003337E+02 0.  0.
         11    1    3    3    0    0  0.24170986325E+02  0.17750398099E+02  0.40788239759E+02  0.50626018167E+02  0.51100000000E-03 0.  1.
         22    1    1    0    0    0  0.98784349755E+01  0.62843497299E+01 -0.28672770526E+02  0.30971023534E+02  0.00000000000E+00 0.  1.
</event>
<event>
 5    1  0.8962567E-005  0.9118800E+02  0.7818608E-02  0.1130116E+00
         25   -1    0    0    0    0  0.00000000000E+00  0.00000000000E+00  0.99999998245E-14  0.12500000000E+03  0.12500000000E+03 0.  0.
        -11    1    3    3    0    0  0.16354325839E+01  0.32521635309E+02 -0.13657392163E+02  0.35310844848E+02  0.51100000000E-03 0.  1.
         23    2    1    0    0    0 -0.16045574432E+02 -0.15228106165E+02  0.19031291060E+02  0.95818743762E+02  0.91267113138E+02 0.  0.
         11    1    3    3    0    0 -0.17681007016E+02 -0.47749741474E+02  0.32688683223E+02  0.60507898914E+02  0.51100000000E-03 0. -1.
         22    1    1    0    0    0  0.16045574432E+02  0.15228106165E+02 -0.19031291060E+02  0.29181256238E+02  0.00000000000E+00 0. -1.
</event>
<event>
 5    1  0.8962567E-005  0.9118800E+02  0.7818608E-02  0.1130116E+00
         25   -1    0    0    0    0  0.00000000000E+00  0.00000000000E+00  0.99999998245E-14  0.12500000000E+03  0.12500000000E+03 0.  0.
        -11    1    3    3    0    0 -0.10565124522E+02  0.18608267786E+02 -0.37696614550E+02  0.43346559667E+02  0.51100000000E-03 0. -1.
         23    2    1    0    0    0  0.24111827820E+02  0.15930952938E+02  0.18867396491E+01  0.96039073067E+02  0.91568380278E+02 0.  0.
         11    1    3    3    0    0  0.34676952342E+02 -0.26773148477E+01  0.39583354199E+02  0.52692513400E+02  0.51100000000E-03 0.  1.
         22    1    1    0    0    0 -0.24111827820E+02 -0.15930952938E+02 -0.18867396491E+01  0.28960926933E+02  0.00000000000E+00 0.  1.
</event>
<event>
 5    1  0.8962567E-005  0.9118800E+02  0.7818608E-02  0.1130116E+00
         25   -1    0    0    0    0  0.00000000000E+00  0.00000000000E+00  0.99999998245E-14  0.12500000000E+03  0.12500000000E+03 0.  0.
        -11    1    3    3    0    0  0.19573204542E+02  0.24326556423E+02  0.15396952100E+02  0.34813184538E+02  0.51100000000E-03 0. -1.
         23    2    1    0    0    0 -0.31369295437E+00 -0.18341868937E+02 -0.23012951128E+02  0.95570109090E+02  0.90925943891E+02 0.  0.
         11    1    3    3    0    0 -0.19886897497E+02 -0.42668425360E+02 -0.38409903228E+02  0.60756924552E+02  0.51100000000E-03 0.  1.
         22    1    1    0    0    0  0.31369295437E+00  0.18341868937E+02  0.23012951128E+02  0.29429890910E+02  0.00000000000E+00 0.  1.
</event>
<event>
 5    1  0.8962567E-005  0.9118800E+02  0.7818608E-02  0.1130116E+00
         25   -1    0    0    0    0  0.00000000000E+00  0.00000000000E+00  0.99999998245E-14  0.12500000000E+03  0.12500000000E+03 0.  0.
        -11    1    3    3    0    0  0.24521381460E+02 -0.11159844125E+02 -0.40978180100E+02  0.49041324556E+02  0.51100000000E-03 0.  1.
         23    2    1    0    0    0  0.22360462844E+02 -0.17720832614E+02  0.54266793037E+01  0.95957495711E+02  0.91456951226E+02 0.  0.
         11    1    3    3    0    0 -0.21609186161E+01 -0.65609884888E+01  0.46404859404E+02  0.46916171154E+02  0.51100000000E-03 0. -1.
         22    1    1    0    0    0 -0.22360462844E+02  0.17720832614E+02 -0.54266793037E+01  0.29042504289E+02  0.00000000000E+00 0.  1.
</event>
<event>
 5    1  0.8962567E-005  0.9118800E+02  0.7818608E-02  0.1130116E+00
         25   -1    0    0    0    0  0.00000000000E+00  0.00000000000E+00  0.99999998245E-14  0.12500000000E+03  0.12500000000E+03 0.  0.
        -11    1    3    3    0    0  0.35274076882E+02  0.11224845361E+02 -0.45637102257E+02  0.58762256219E+02  0.51100000000E-03 0.  1.
         23    2    1    0    0    0  0.17013133507E+02 -0.99539752921E+01 -0.22751755030E+02  0.94897330804E+02  0.89996292706E+02 0.  0.
         11    1    3    3    0    0 -0.18260943376E+02 -0.21178820653E+02  0.22885347227E+02  0.36135074584E+02  0.51100000000E-03 0. -1.
         22    1    1    0    0    0 -0.17013133507E+02  0.99539752921E+01  0.22751755030E+02  0.30102669196E+02  0.00000000000E+00 0.  1.
</event>
<event>
 5    1  0.8962567E-005  0.9118800E+02  0.7818608E-02  0.1130116E+00
         25   -1    0    0    0    0  0.00000000000E+00  0.00000000000E+00  0.99999998245E-14  0.12500000000E+03  0.12500000000E+03 0.  0.
        -11    1    3    3    0    0  0.59675789076E+01 -0.91108199219E+01  0.47717450928E+02  0.48944602981E+02  0.51100000000E-03 0.  1.
         23    2    1    0    0    0  0.14605183689E+02  0.20975740344E+02  0.11054510462E+02  0.97152284203E+02  0.93075620066E+02 0.  0.
         11    1    3    3    0    0  0.86376047812E+01  0.30086560266E+02 -0.36662940465E+02  0.48207681222E+02  0.51100000000E-03 0. -1.
         22    1    1    0    0    0 -0.14605183689E+02 -0.20975740344E+02 -0.11054510462E+02  0.27847715797E+02  0.00000000000E+00 0.  1.
</event>
<event>
 5    1  0.8962567E-005  0.9118800E+02  0.7818608E-02  0.1130116E+00
         25   -1    0    0    0    0  0.00000000000E+00  0.00000000000E+00  0.99999998245E-14  0.12500000000E+03  0.12500000000E+03 0.  0.
        -11    1    3    3    0    0  0.48480827815E+02 -0.38061408905E+02 -0.76928875059E+01  0.62114748908E+02  0.51100000000E-03 0.  1.
         23    2    1    0    0    0  0.19158057268E+02 -0.19240738539E+02  0.22835668461E+00  0.97846927897E+02  0.94003893400E+02 0.  0.
         11    1    3    3    0    0 -0.29322770546E+02  0.18820670366E+02  0.79212441905E+01  0.35732178989E+02  0.51100000000E-03 0. -1.
         22    1    1    0    0    0 -0.19158057268E+02  0.19240738539E+02 -0.22835668461E+00  0.27153072103E+02  0.00000000000E+00 0.  1.
</event>
<event>
 5    1  0.8962567E-005  0.9118800E+02  0.7818608E-02  0.1130116E+00
         25   -1    0    0    0    0  0.00000000000E+00  0.00000000000E+00  0.99999998245E-14  0.12500000000E+03  0.12500000000E+03 0.  0.
        -11    1    3    3    0    0  0.18430869436E+02  0.31336824104E+02 -0.19460773453E+02  0.41236090949E+02  0.51100000000E-03 0. -1.
         23    2    1    0    0    0 -0.28209415757E+02  0.88670867027E+01 -0.47988569159E+01  0.95042940872E+02  0.90198310505E+02 0.  0.
         11    1    3    3    0    0 -0.46640285193E+02 -0.22469737401E+02  0.14661916538E+02  0.53806849923E+02  0.51100000000E-03 0.  1.
         22    1    1    0    0    0  0.28209415757E+02 -0.88670867027E+01  0.47988569159E+01  0.29957059128E+02  0.00000000000E+00 0.  1.
</event>
<event>
 5    1  0.8962567E-005  0.9118800E+02  0.7818608E-02  0.1130116E+00
         25   -1    0    0    0    0  0.00000000000E+00  0.00000000000E+00  0.99999998245E-14  0.12500000000E+03  0.12500000000E+03 0.  0.
        -11    1    3    3    0    0 -0.31756171974E+02  0.51879295925E+02  0.67259613537E+01  0.61197666300E+02  0.51100000000E-03 0.  1.
         23    2    1    0    0    0 -0.21589954790E+02  0.19443988310E+02 -0.46534903720E+00  0.95941242646E+02  0.91434734437E+02 0.  0.
         11    1    3    3    0    0  0.10166217184E+02 -0.32435307616E+02 -0.71913103909E+01  0.34743576347E+02  0.51100000000E-03 0. -1.
         22    1    1    0    0    0  0.21589954790E+02 -0.19443988310E+02  0.46534903720E+00  0.29058757354E+02  0.00000000000E+00 0.  1.
</event>
<event>
 5    1  0.8962567E-005  0.9118800E+02  0.7818608E-02  0.1130116E+00
         25   -1    0    0    0    0  0.00000000000E+00  0.00000000000E+00  0.99999998245E-14  0.12500000000E+03  0.12500000000E+03 0.  0.
        -11    1    3    3    0    0 -0.71747503142E+01  0.39661627788E+01 -0.38314919199E+02  0.39182145458E+02  0.51100000000E-03 0. -1.
         23    2    1    0    0    0  0.14245917823E+02  0.21740329750E+02  0.11758545849E+02  0.96471917121E+02  0.92157361509E+02 0.  0.
         11    1    3    3    0    0  0.21420668137E+02  0.17774166971E+02  0.50073465048E+02  0.57289771663E+02  0.51100000000E-03 0.  1.
         22    1    1    0    0    0 -0.14245917823E+02 -0.21740329750E+02 -0.11758545849E+02  0.28528082879E+02  0.00000000000E+00 0.  1.
</event>
<event>
 5    1  0.8962567E-005  0.9118800E+02  0.7818608E-02  0.1130116E+00
         25   -1    0    0    0    0  0.00000000000E+00  0.00000000000E+00  0.99999998245E-14  0.12500000000E+03  0.12500000000E+03 0.  0.
        -11    1    3    3    0    0  0.38427874674E+02 -0.39425151491E+02 -0.85908845052E+01  0.55721157731E+02  0.51100000000E-03 0. -1.
         23    2    1    0    0    0  0.16927368404E+02 -0.42659618094E+02 -0.11575376249E+02  0.77667472576E+02  0.61578146643E+02 0.  0.
         11    1    3    3    0    0 -0.21500506270E+02 -0.32344666029E+01 -0.29844917435E+01  0.21946314845E+02  0.51100000000E-03 0.  1.
         22    1    1    0    0    0 -0.16927368404E+02  0.42659618094E+02  0.11575376249E+02  0.47332527424E+02  0.00000000000E+00 0. -1.
</event>
<event>
 5    1  0.8962567E-005  0.9118800E+02  0.7818608E-02  0.1130116E+00
         25   -1    0    0    0    0  0.00000000000E+00  0.00000000000E+00  0.99999998245E-14  0.12500000000E+03  0.12500000000E+03 0.  0.
        -11    1    3    3    0    0 -0.30308713699E+02 -0.31603851816E+02  0.13788859227E+02  0.45908106198E+02  0.51100000000E-03 0.  1.
         23    2    1    0    0    0 -0.25665024029E+02  0.10452876589E+02 -0.11269847107E+02  0.95084025318E+02  0.90255228821E+02 0.  0.
         11    1    3    3    0    0  0.46436896705E+01  0.42056728405E+02 -0.25058706334E+02  0.49175919119E+02  0.51100000000E-03 0. -1.
         22    1    1    0    0    0  0.25665024029E+02 -0.10452876589E+02  0.11269847107E+02  0.29915974682E+02  0.00000000000E+00 0. -1.
</event>
<event>
 5    1  0.8962567E-005  0.9118800E+02  0.7818608E-02  0.1130116E+00
         25   -1    0    0    0    0  0.00000000000E+00  0.00000000000E+00  0.99999998245E-14  0.12500000000E+03  0.12500000000E+03 0.  0.
        -11    1    3    3    0    0 -0.73279096537E+01 -0.42679873215E+02 -0.12329526712E+02  0.45025404682E+02  0.51100000000E-03 0.  1.
         23    2    1    0    0    0  0.18393695116E+02 -0.66912032760E+01 -0.27019223557E+02  0.91636267252E+02  0.85346744595E+02 0.  0.
         11    1    3    3    0    0  0.25721604769E+02  0.35988669939E+02 -0.14689696844E+02  0.46610862570E+02  0.51100000000E-03 0. -1.
         22    1    1    0    0    0 -0.18393695116E+02  0.66912032760E+01  0.27019223557E+02  0.33363732748E+02  0.00000000000E+00 0.  1.
</event>
<event>
 5    1  0.8962567E-005  0.9118800E+02  0.7818608E-02  0.1130116E+00
         25   -1    0    0    0    0  0.00000000000E+00  0.00000000000E+00  0.99999998245E-14  0.12500000000E+03  0.12500000000E+03 0.  0.
        -11    1    3    3    0    0 -0.11876420997E+02  0.19732710573E+02 -0.27388567529E+02  0.35784953176E+02  0.51100000000E-03 0.  1.
         23    2    1    0    0    0  0.18846163351E+02  0.52034165677E+01  0.21892464021E+02  0.95648110829E+02  0.91033113245E+02 0.  0.
         11    1    3    3    0    0  0.30722584348E+02 -0.14529294005E+02  0.49281031549E+02  0.59863157653E+02  0.51100000000E-03 0. -1.
         22    1    1    0    0    0 -0.18846163351E+02 -0.52034165677E+01 -0.21892464021E+02  0.29351889171E+02  0.00000000000E+00 0. -1.
</event>
<event>
 5    1  0.8962567E-005  0.9118800E+02  0.7818608E-02  0.1130116E+00
         25   -1    0    0    0    0  0.00000000000E+00  0.00000000000E+00  0.99999998245E-14  0.12500000000E+03  0.12500000000E+03 0.  0.
        -11    1    3    3    0    0  0.18521275724E+02 -0.27594382416E+02 -0.52169109852E+02  0.61855505966E+02  0.51100000000E-03 0. -1.
         23    2    1    0    0    0  0.87082561355E+01 -0.74626531674E+01 -0.27663385614E+02  0.95053584174E+02  0.90213059163E+02 0.  0.
         11    1    3    3    0    0 -0.98130195883E+01  0.20131729249E+02  0.24505724238E+02  0.33198078208E+02  0.51100000000E-03 0.  1.
         22    1    1    0    0    0 -0.87082561355E+01  0.74626531674E+01  0.27663385614E+02  0.29946415826E+02  0.00000000000E+00 0. -1.
</event>
<event>
 5    1  0.8962567E-005  0.9118800E+02  0.7818608E-02  0.1130116E+00
         25   -1    0    0    0    0  0.00000000000E+00  0.00000000000E+00  0.99999998245E-14  0.12500000000E+03  0.12500000000E+03 0.  0.
        -11    1    3    3    0    0 -0.35533310637E+02  0.10841628537E+02  0.11398902576E+02  0.38859902912E+02  0.51100000000E-03 0. -1.
         23    2    1    0    0    0  0.20256242193E+02  0.20337720965E+02  0.20102490691E+01  0.96225369800E+02  0.91822341780E+02 0.  0.
         11    1    3    3    0    0  0.55789552830E+02  0.94960924271E+01 -0.93886535070E+01  0.57365466888E+02  0.51100000000E-03 0.  1.
         22    1    1    0    0    0 -0.20256242193E+02 -0.20337720965E+02 -0.20102490691E+01  0.28774630200E+02  0.00000000000E+00 0.  1.
</event>
<event>
 5    1  0.8962567E-005  0.9118800E+02  0.7818608E-02  0.1130116E+00
         25   -1    0    0    0    0  0.00000000000E+00  0.00000000000E+00  0.99999998245E-14  0.12500000000E+03  0.12500000000E+03 0.  0.
        -11    1    3    3    0    0  0.53505524732E+02 -0.12670149006E+02 -0.67334791121E+01  0.55395970918E+02  0.51100000000E-03 0.  1.
         23    2    1    0    0    0  0.23488484414E+02  0.13506988271E+02 -0.11611689530E+02  0.95521550822E+02  0.90859164125E+02 0.  0.
         11    1    3    3    0    0 -0.30017040319E+02  0.26177137277E+02 -0.48782104183E+01  0.40125579904E+02  0.51100000000E-03 0. -1.
         22    1    1    0    0    0 -0.23488484414E+02 -0.13506988271E+02  0.11611689530E+02  0.29478449178E+02  0.00000000000E+00 0.  1.
</event>
<event>
 5    1  0.8962567E-005  0.9118800E+02  0.7818608E-02  0.1130116E+00
         25   -1    0    0    0    0  0.00000000000E+00  0.00000000000E+00  0.99999998245E-14  0.12500000000E+03  0.12500000000E+03 0.  0.
        -11    1    3    3    0    0 -0.38085507645E+02  0.11929753668E+02  0.12618500684E+02  0.41857513960E+02  0.51100000000E-03 0.  1.
         23    2    1    0    0    0  0.59650320324E+00 -0.23835752242E+02  0.18436153027E+02  0.94860480437E+02  0.89945094971E+02 0.  0.
         11    1    3    3    0    0  0.38682010848E+02 -0.35765505910E+02  0.58176523436E+01  0.53002966477E+02  0.51100000000E-03 0. -1.
         22    1    1    0    0    0 -0.59650320324E+00  0.23835752242E+02 -0.18436153027E+02  0.30139519563E+02  0.00000000000E+00 0. -1.
</event>
<event>
 5    1  0.8962567E-005  0.9118800E+02  0.7818608E-02  0.1130116E+00
         25   -1    0    0    0    0  0.00000000000E+00  0.00000000000E+00  0.99999998245E-14  0.12500000000E+03  0.12500000000E+03 0.  0.
        -11    1    3    3    0    0 -0.35721184639E+02 -0.22784227312E+01  0.44255944218E+02  0.56919090304E+02  0.51100000000E-03 0.  1.
         23    2    1    0    0    0 -0.63138095158E+01 -0.16483196880E+02  0.23478275790E+02  0.95626722960E+02  0.91003740253E+02 0.  0.
         11    1    3    3    0    0  0.29407375123E+02 -0.14204774149E+02 -0.20777668428E+02  0.38707632656E+02  0.51100000000E-03 0. -1.
         22    1    1    0    0    0  0.63138095158E+01  0.16483196880E+02 -0.23478275790E+02  0.29373277040E+02  0.00000000000E+00 0.  1.
</event>
<event>
 5    1  0.8962567E-005  0.9118800E+02  0.7818608E-02  0.1130116E+00
         25   -1    0    0    0    0  0.00000000000E+00  0.00000000000E+00  0.99999998245E-14  0.12500000000E+03  0.12500000000E+03 0.  0.
        -11    1    3    3    0    0 -0.27650473235E+02 -0.21690110983E+02  0.44759028632E+00  0.35145553373E+02  0.51100000000E-03 0.  1.
         23    2    1    0    0    0  0.59112220239E+01  0.26194593081E+02  0.13326013490E+02  0.95021976583E+02  0.90169252773E+02 0.  0.
         11    1    3    3    0    0  0.33561695259E+02  0.47884704064E+02  0.12878423203E+02  0.59876423210E+02  0.51100000000E-03 0. -1.
         22    1    1    0    0    0 -0.59112220239E+01 -0.26194593081E+02 -0.13326013490E+02  0.29978023417E+02  0.00000000000E+00 0. -1.
</event>
<event>
 5    1  0.8962567E-005  0.9118800E+02  0.7818608E-02  0.1130116E+00
         25   -1    0    0    0    0  0.00000000000E+00  0.00000000000E+00  0.99999998245E-14  0.12500000000E+03  0.12500000000E+03 0.  0.
        -11    1    3    3    0    0 -0.35626425335E+02  0.84377495291E+01 -0.65222531131E+01  0.37188406597E+02  0.51100000000E-03 0. -1.
         23    2    1    0    0    0  0.85948378338E+01 -0.87463452673E+01 -0.31780431266E+02  0.90935860434E+02  0.84314679081E+02 0.  0.
         11    1    3    3    0    0  0.44221263169E+02 -0.17184094796E+02 -0.25258178152E+02  0.53747453838E+02  0.51100000000E-03 0.  1.
         22    1    1    0    0    0 -0.85948378338E+01  0.87463452673E+01  0.31780431266E+02  0.34064139566E+02  0.00000000000E+00 0.  1.
</event>
<event>
 5    1  0.8962567E-005  0.9118800E+02  0.7818608E-02  0.1130116E+00
         25   -1    0    0    0    0  0.00000000000E+00  0.00000000000E+00  0.99999998245E-14  0.12500000000E+03  0.12500000000E+03 0.  0.
        -11    1    3    3    0    0  0.22905059452E+02  0.18671442610E+01  0.27650466120E+02  0.35953807213E+02  0.51100000000E-03 0.  1.
         23    2    1    0    0    0 -0.90244925534E+01  0.14681739377E+02 -0.22430170042E+02  0.96713829084E+02  0.92484902936E+02 0.  0.
         11    1    3    3    0    0 -0.31929552005E+02  0.12814595116E+02 -0.50080636162E+02  0.60760021872E+02  0.51100000000E-03 0. -1.
         22    1    1    0    0    0  0.90244925534E+01 -0.14681739377E+02  0.22430170042E+02  0.28286170916E+02  0.00000000000E+00 0. -1.
</event>
<event>
 5    1  0.8962567E-005  0.9118800E+02  0.7818608E-02  0.1130116E+00
         25   -1    0    0    0    0  0.00000000000E+00  0.00000000000E+00  0.99999998245E-14  0.12500000000E+03  0.12500000000E+03 0.  0.
        -11    1    3    3    0    0 -0.39820031543E+02  0.29930012431E+02 -0.24608006726E+02  0.55560728501E+02  0.51100000000E-03 0.  1.
         23    2    1    0    0    0 -0.21695633826E+02  0.11129757857E+02  0.97694036411E+01  0.98731896061E+02  0.95173389217E+02 0.  0.
         11    1    3    3    0    0  0.18124397717E+02 -0.18800254574E+02  0.34377410367E+02  0.43171167560E+02  0.51100000000E-03 0. -1.
         22    1    1    0    0    0  0.21695633826E+02 -0.11129757857E+02 -0.97694036411E+01  0.26268103939E+02  0.00000000000E+00 0.  1.
</event>
<event>
 5    1  0.8962567E-005  0.9118800E+02  0.7818608E-02  0.1130116E+00
         25   -1    0    0    0    0  0.00000000000E+00  0.00000000000E+00  0.99999998245E-14  0.12500000000E+03  0.12500000000E+03 0.  0.
        -11    1    3    3    0    0  0.49082993360E+02 -0.12948189330E+02 -0.15069743646E+02  0.52951799006E+02  0.51100000000E-03 0.  1.
         23    2    1    0    0    0  0.19021632289E+02 -0.26150346678E+02  0.62032128234E+01  0.92073673517E+02  0.85984989268E+02 0.  0.
         11    1    3    3    0    0 -0.30061361071E+02 -0.13202157348E+02  0.21272956470E+02  0.39121874512E+02  0.51100000000E-03 0. -1.
         22    1    1    0    0    0 -0.19021632289E+02  0.26150346678E+02 -0.62032128234E+01  0.32926326483E+02  0.00000000000E+00 0.  1.
</event>
<event>
 5    1  0.8962567E-005  0.9118800E+02  0.7818608E-02  0.1130116E+00
         25   -1    0    0    0    0  0.00000000000E+00  0.00000000000E+00  0.99999998245E-14  0.12500000000E+03  0.12500000000E+03 0.  0.
        -11    1    3    3    0    0 -0.22072427904E+02  0.36652805827E+02 -0.24424619825E+02  0.49266441950E+02  0.51100000000E-03 0.  1.
         23    2    1    0    0    0 -0.16487151448E+02 -0.88574807567E+01 -0.23276236179E+02  0.95132554531E+02  0.90322414896E+02 0.  0.
         11    1    3    3    0    0  0.55852764563E+01 -0.45510286584E+02  0.11483836460E+01  0.45866112581E+02  0.51100000000E-03 0. -1.
         22    1    1    0    0    0  0.16487151448E+02  0.88574807567E+01  0.23276236179E+02  0.29867445469E+02  0.00000000000E+00 0.  1.
</event>
<event>
 5    1  0.8962567E-005  0.9118800E+02  0.7818608E-02  0.1130116E+00
         25   -1    0    0    0    0  0.00000000000E+00  0.00000000000E+00  0.99999998245E-14  0.12500000000E+03  0.12500000000E+03 0.  0.
        -11    1    3    3    0    0 -0.12915994547E+02 -0.40588623125E+02  0.34824746144E+02  0.55018380443E+02  0.51100000000E-03 0.  1.
         23    2    1    0    0    0  0.49344964707E+01 -0.84565154851E+01  0.31601046338E+02  0.91916952389E+02  0.85756854521E+02 0.  0.
         11    1    3    3    0    0  0.17850491018E+02  0.32132107640E+02 -0.32236998066E+01  0.36898571946E+02  0.51100000000E-03 0. -1.
         22    1    1    0    0    0 -0.49344964707E+01  0.84565154851E+01 -0.31601046338E+02  0.33083047611E+02  0.00000000000E+00 0.  1.
</event>
<event>
 5    1  0.8962567E-005  0.9118800E+02  0.7818608E-02  0.1130116E+00
         25   -1    0    0    0    0  0.00000000000E+00  0.00000000000E+00  0.99999998245E-14  0.12500000000E+03  0.12500000000E+03 0.  0.
        -11    1    3    3    0    0  0.22376797549E+02  0.10724018769E+02 -0.32762040727E+02  0.41098381476E+02  0.51100000000E-03 0.  1.
         23    2    1    0    0    0 -0.26035791455E+02  0.75777999958E+01 -0.37506896118E+01  0.97625684264E+02  0.93709236823E+02 0.  0.
         11    1    3    3    0    0 -0.48412589004E+02 -0.31462187732E+01  0.29011351115E+02  0.56527302788E+02  0.51100000000E-03 0. -1.
         22    1    1    0    0    0  0.26035791455E+02 -0.75777999958E+01  0.37506896118E+01  0.27374315736E+02  0.00000000000E+00 0. -1.
</event>
<event>
 5    1  0.8962567E-005  0.9118800E+02  0.7818608E-02  0.1130116E+00
         25   -1    0    0    0    0  0.00000000000E+00  0.00000000000E+00  0.99999998245E-14  0.12500000000E+03  0.12500000000E+03 0.  0.
        -11    1    3    3    0    0  0.20074133481E+02 -0.25522462727E+02  0.50154774784E+02  0.59748375480E+02  0.51100000000E-03 0.  1.
         23    2    1    0    0    0  0.20353555875E+02 -0.10960157421E+02  0.15979979896E+02  0.96897472623E+02  0.92732778217E+02 0.  0.
         11    1    3    3    0    0  0.27942239462E+00  0.14562305306E+02 -0.34174794887E+02  0.37149097143E+02  0.51100000000E-03 0. -1.
         22    1    1    0    0    0 -0.20353555875E+02  0.10960157421E+02 -0.15979979896E+02  0.28102527377E+02  0.00000000000E+00 0.  1.
</event>
<event>
 5    1  0.8962567E-005  0.9118800E+02  0.7818608E-02  0.1130116E+00
         25   -1    0    0    0    0  0.00000000000E+00  0.00000000000E+00  0.99999998245E-14  0.12500000000E+03  0.12500000000E+03 0.  0.
        -11    1    3    3    0    0 -0.18709839871E+02 -0.20590147541E+02 -0.23035214687E+02  0.36119709297E+02  0.51100000000E-03 0. -1.
         23    2    1    0    0    0 -0.73794424401E+01  0.13314746676E+02  0.24838563144E+02  0.95867666265E+02  0.91334093121E+02 0.  0.
         11    1    3    3    0    0  0.11330397431E+02  0.33904894217E+02  0.47873777831E+02  0.59747956968E+02  0.51100000000E-03 0.  1.
         22    1    1    0    0    0  0.73794424401E+01 -0.13314746676E+02 -0.24838563144E+02  0.29132333735E+02  0.00000000000E+00 0.  1.
</event>
<event>
 5    1  0.8962567E-005  0.9118800E+02  0.7818608E-02  0.1130116E+00
         25   -1    0    0    0    0  0.00000000000E+00  0.00000000000E+00  0.99999998245E-14  0.12500000000E+03  0.12500000000E+03 0.  0.
        -11    1    3    3    0    0 -0.15801262636E+02  0.20349638181E+02  0.50732439010E+02  0.56899631309E+02  0.51100000000E-03 0.  1.
         23    2    1    0    0    0  0.11268456477E+02  0.65840983247E+01  0.25384996756E+02  0.96456585305E+02  0.92136563461E+02 0.  0.
         11    1    3    3    0    0  0.27069719113E+02 -0.13765539856E+02 -0.25347442253E+02  0.39556953996E+02  0.51100000000E-03 0. -1.
         22    1    1    0    0    0 -0.11268456477E+02 -0.65840983247E+01 -0.25384996756E+02  0.28543414695E+02  0.00000000000E+00 0.  1.
</event>
<event>
 5    1  0.8962567E-005  0.9118800E+02  0.7818608E-02  0.1130116E+00
         25   -1    0    0    0    0  0.00000000000E+00  0.00000000000E+00  0.99999998245E-14  0.12500000000E+03  0.12500000000E+03 0.  0.
        -11    1    3    3    0    0 -0.43944563517E+01 -0.33646232140E+02 -0.16703214157E+02  0.37820332459E+02  0.51100000000E-03 0.  1.
         23    2    1    0    0    0  0.19673589908E+02  0.99396110384E+01  0.16327035929E+02  0.97569759212E+02  0.93634607935E+02 0.  0.
         11    1    3    3    0    0  0.24068046259E+02  0.43585843179E+02  0.33030250086E+02  0.59749426753E+02  0.51100000000E-03 0. -1.
         22    1    1    0    0    0 -0.19673589908E+02 -0.99396110384E+01 -0.16327035929E+02  0.27430240788E+02  0.00000000000E+00 0. -1.
</event>
<event>
 5    1  0.8962567E-005  0.9118800E+02  0.7818608E-02  0.1130116E+00
         25   -1    0    0    0    0  0.00000000000E+00  0.00000000000E+00  0.99999998245E-14  0.12500000000E+03  0.12500000000E+03 0.  0.
        -11    1    3    3    0    0  0.55079350309E+01 -0.39558001926E+02  0.38991971653E+02  0.55817082675E+02  0.51100000000E-03 0.  1.
         23    2    1    0    0    0  0.17333120697E+02 -0.22663200417E+02  0.43414350584E+01  0.96139892852E+02  0.91705906096E+02 0.  0.
         11    1    3    3    0    0  0.11825185666E+02  0.16894801509E+02 -0.34650536594E+02  0.40322810177E+02  0.51100000000E-03 0. -1.
         22    1    1    0    0    0 -0.17333120697E+02  0.22663200417E+02 -0.43414350584E+01  0.28860107148E+02  0.00000000000E+00 0.  1.
</event>
<event>
 5    1  0.8962567E-005  0.9118800E+02  0.7818608E-02  0.1130116E+00
         25   -1    0    0    0    0  0.00000000000E+00  0.00000000000E+00  0.99999998245E-14  0.12500000000E+03  0.12500000000E+03 0.  0.
        -11    1    3    3    0    0 -0.59902615902E+02 -0.89920595629E+01 -0.12574897214E+01  0.60586812161E+02  0.51100000000E-03 0. -1.
         23    2    1    0    0    0 -0.33072522457E+02 -0.45289944496E+01  0.10192510580E+02  0.90097409776E+02  0.83062340709E+02 0.  0.
         11    1    3    3    0    0  0.26830093445E+02  0.44630651133E+01  0.11450000301E+02  0.29510597616E+02  0.51100000000E-03 0.  1.
         22    1    1    0    0    0  0.33072522457E+02  0.45289944496E+01 -0.10192510580E+02  0.34902590224E+02  0.00000000000E+00 0. -1.
</event>
<event>
 5    1  0.8962567E-005  0.9118800E+02  0.7818608E-02  0.1130116E+00
         25   -1    0    0    0    0  0.00000000000E+00  0.00000000000E+00  0.99999998245E-14  0.12500000000E+03  0.12500000000E+03 0.  0.
        -11    1    3    3    0    0 -0.39244800030E+02 -0.55959045298E+01  0.19402616594E+02  0.44135360063E+02  0.51100000000E-03 0.  1.
         23    2    1    0    0    0  0.81636923614E+01 -0.25446638983E+02  0.10447380765E+02  0.96306358311E+02  0.91932527311E+02 0.  0.
         11    1    3    3    0    0  0.47408492392E+02 -0.19850734454E+02 -0.89552358294E+01  0.52170998248E+02  0.51100000000E-03 0. -1.
         22    1    1    0    0    0 -0.81636923614E+01  0.25446638983E+02 -0.10447380765E+02  0.28693641689E+02  0.00000000000E+00 0. -1.
</event>
<event>
 5    1  0.8962567E-005  0.9118800E+02  0.7818608E-02  0.1130116E+00
         25   -1    0    0    0    0  0.00000000000E+00  0.00000000000E+00  0.99999998245E-14  0.12500000000E+03  0.12500000000E+03 0.  0.
        -11    1    3    3    0    0  0.73430981975E+01 -0.14694204033E+02 -0.56962129286E+02  0.59283428514E+02  0.51100000000E-03 0. -1.
         23    2    1    0    0    0  0.18019045576E+02 -0.65893323694E+01 -0.36879502526E+02  0.83428338846E+02  0.72333150847E+02 0.  0.
         11    1    3    3    0    0  0.10675947378E+02  0.81048716632E+01  0.20082626760E+02  0.24144910332E+02  0.51100000000E-03 0.  1.
         22    1    1    0    0    0 -0.18019045576E+02  0.65893323694E+01  0.36879502526E+02  0.41571661154E+02  0.00000000000E+00 0. -1.
</event>
<event>
 5    1  0.8962567E-005  0.9118800E+02  0.7818608E-02  0.1130116E+00
         25   -1    0    0    0    0  0.00000000000E+00  0.00000000000E+00  0.99999998245E-14  0.12500000000E+03  0.12500000000E+03 0.  0.
        -11    1    3    3    0    0  0.27698234828E+02 -0.12276621211E+02 -0.22515336844E+02  0.37747159290E+02  0.51100000000E-03 0. -1.
         23    2    1    0    0    0 -0.77550022003E+01 -0.12605777002E+02  0.24345246903E+02  0.96509006340E+02  0.92207654699E+02 0.  0.
         11    1    3    3    0    0 -0.35453237029E+02 -0.32915579125E+00  0.46860583747E+02  0.58761847050E+02  0.51100000000E-03 0.  1.
         22    1    1    0    0    0  0.77550022003E+01  0.12605777002E+02 -0.24345246903E+02  0.28490993660E+02  0.00000000000E+00 0.  1.
</event>
<event>
 5    1  0.8962567E-005  0.9118800E+02  0.7818608E-02  0.1130116E+00
         25   -1    0    0    0    0  0.00000000000E+00  0.00000000000E+00  0.99999998245E-14  0.12500000000E+03  0.12500000000E+03 0.  0.
        -11    1    3    3    0    0 -0.31350454038E+02  0.12569752622E+02  0.11133283524E+02  0.35564021871E+02  0.51100000000E-03 0. -1.
         23    2    1    0    0    0  0.18599860879E+02  0.47613544926E+01 -0.21837926411E+02  0.95922167357E+02  0.91408652978E+02 0.  0.
         11    1    3    3    0    0  0.49950314917E+02 -0.78083981295E+01 -0.32971209934E+02  0.60358145485E+02  0.51100000000E-03 0.  1.
         22    1    1    0    0    0 -0.18599860879E+02 -0.47613544926E+01  0.21837926411E+02  0.29077832643E+02  0.00000000000E+00 0.  1.
</event>
<event>
 5    1  0.8962567E-005  0.9118800E+02  0.7818608E-02  0.1130116E+00
         25   -1    0    0    0    0  0.00000000000E+00  0.00000000000E+00  0.99999998245E-14  0.12500000000E+03  0.12500000000E+03 0.  0.
        -11    1    3    3    0    0 -0.68436493031E+01  0.24052951620E+01  0.61088252686E+02  0.61517441406E+02  0.51100000000E-03 0.  1.
         23    2    1    0    0    0 -0.89781782565E+01  0.64805908048E+01  0.28572992225E+02  0.94356540230E+02  0.89242002765E+02 0.  0.
         11    1    3    3    0    0 -0.21345289534E+01  0.40752956428E+01 -0.32515260461E+02  0.32839098824E+02  0.51100000000E-03 0. -1.
         22    1    1    0    0    0  0.89781782565E+01 -0.64805908048E+01 -0.28572992225E+02  0.30643459770E+02  0.00000000000E+00 0.  1.
</event>
<event>
 5    1  0.8962567E-005  0.9118800E+02  0.7818608E-02  0.1130116E+00
         25   -1    0    0    0    0  0.00000000000E+00  0.00000000000E+00  0.99999998245E-14  0.12500000000E+03  0.12500000000E+03 0.  0.
        -11    1    3    3    0    0 -0.25199700684E+02 -0.13981524545E+01 -0.47058124030E+02  0.53398939899E+02  0.51100000000E-03 0. -1.
         23    2    1    0    0    0  0.10540446798E+02  0.66251516865E+01 -0.27248553330E+02  0.95042074302E+02  0.90197109574E+02 0.  0.
         11    1    3    3    0    0  0.35740147481E+02  0.80233041410E+01  0.19809570700E+02  0.41643134403E+02  0.51100000000E-03 0.  1.
         22    1    1    0    0    0 -0.10540446798E+02 -0.66251516865E+01  0.27248553330E+02  0.29957925698E+02  0.00000000000E+00 0. -1.
</event>
<event>
 5    1  0.8962567E-005  0.9118800E+02  0.7818608E-02  0.1130116E+00
         25   -1    0    0    0    0  0.00000000000E+00  0.00000000000E+00  0.99999998245E-14  0.12500000000E+03  0.12500000000E+03 0.  0.
        -11    1    3    3    0    0 -0.77381034398E+01 -0.18817552103E+02  0.26718674432E+02  0.33583717419E+02  0.51100000000E-03 0.  1.
         23    2    1    0    0    0  0.11415419839E+02  0.25001787235E+02 -0.11897557981E+02  0.95050825371E+02  0.90209236460E+02 0.  0.
         11    1    3    3    0    0  0.19153523279E+02  0.43819339338E+02 -0.38616232413E+02  0.61467107952E+02  0.51100000000E-03 0. -1.
         22    1    1    0    0    0 -0.11415419839E+02 -0.25001787235E+02  0.11897557981E+02  0.29949174629E+02  0.00000000000E+00 0. -1.
</event>
<event>
 5    1  0.8962567E-005  0.9118800E+02  0.7818608E-02  0.1130116E+00
         25   -1    0    0    0    0  0.00000000000E+00  0.00000000000E+00  0.99999998245E-14  0.12500000000E+03  0.12500000000E+03 0.  0.
        -11    1    3    3    0    0  0.61580864029E+02  0.62746981426E+01  0.70826307010E+00  0.61903766349E+02  0.51100000000E-03 0. -1.
         23    2    1    0    0    0  0.27523782633E+02  0.83578464196E+01  0.28668967118E+01  0.96092711923E+02  0.91641573430E+02 0.  0.
         11    1    3    3    0    0 -0.34057081396E+02  0.20831482770E+01  0.21586336417E+01  0.34188945574E+02  0.51100000000E-03 0.  1.
         22    1    1    0    0    0 -0.27523782633E+02 -0.83578464196E+01 -0.28668967118E+01  0.28907288077E+02  0.00000000000E+00 0. -1.
</event>
<event>
 5    1  0.8962567E-005  0.9118800E+02  0.7818608E-02  0.1130116E+00
         25   -1    0    0    0    0  0.00000000000E+00  0.00000000000E+00  0.99999998245E-14  0.12500000000E+03  0.12500000000E+03 0.  0.
        -11    1    3    3    0    0 -0.16926641273E+02 -0.30523160033E+02 -0.17404858210E+02  0.39001327833E+02  0.51100000000E-03 0. -1.
         23    2    1    0    0    0  0.28708150304E+02 -0.91084337295E+00  0.50113642831E+00  0.96273032405E+02  0.91887203141E+02 0.  0.
         11    1    3    3    0    0  0.45634791577E+02  0.29612316660E+02  0.17905994638E+02  0.57271704571E+02  0.51100000000E-03 0.  1.
         22    1    1    0    0    0 -0.28708150304E+02  0.91084337295E+00 -0.50113642831E+00  0.28726967595E+02  0.00000000000E+00 0.  1.
</event>
<event>
 5    1  0.8962567E-005  0.9118800E+02  0.7818608E-02  0.1130116E+00
         25   -1    0    0    0    0  0.00000000000E+00  0.00000000000E+00  0.99999998245E-14  0.12500000000E+03  0.12500000000E+03 0.  0.
        -11    1    3    3    0    0  0.27168916866E+02  0.83085495558E+01 -0.46943117376E+02  0.54871106318E+02  0.51100000000E-03 0.  1.
         23    2    1    0    0    0 -0.93308007526E+01  0.61790566318E+01 -0.25242392994E+02  0.97387991967E+02  0.93391637698E+02 0.  0.
         11    1    3    3    0    0 -0.36499717618E+02 -0.21294929240E+01  0.21700724382E+02  0.42516885649E+02  0.51100000000E-03 0. -1.
         22    1    1    0    0    0  0.93308007526E+01 -0.61790566318E+01  0.25242392994E+02  0.27612008033E+02  0.00000000000E+00 0.  1.
</event>
<event>
 5    1  0.8962567E-005  0.9118800E+02  0.7818608E-02  0.1130116E+00
         25   -1    0    0    0    0  0.00000000000E+00  0.00000000000E+00  0.99999998245E-14  0.12500000000E+03  0.12500000000E+03 0.  0.
        -11    1    3    3    0    0  0.87756318940E+01 -0.32892562325E+02  0.51536951955E+02  0.61765603604E+02  0.51100000000E-03 0.  1.
         23    2    1    0    0    0  0.10823571519E+02 -0.14374204275E+02  0.24392561626E+02  0.94688871488E+02  0.89706286692E+02 0.  0.
         11    1    3    3    0    0  0.20479396252E+01  0.18518358051E+02 -0.27144390329E+02  0.32923267885E+02  0.51100000000E-03 0. -1.
         22    1    1    0    0    0 -0.10823571519E+02  0.14374204275E+02 -0.24392561626E+02  0.30311128512E+02  0.00000000000E+00 0.  1.
</event>
<event>
 5    1  0.8962567E-005  0.9118800E+02  0.7818608E-02  0.1130116E+00
         25   -1    0    0    0    0  0.00000000000E+00  0.00000000000E+00  0.99999998245E-14  0.12500000000E+03  0.12500000000E+03 0.  0.
        -11    1    3    3    0    0 -0.27265036907E+02  0.44407944389E+02  0.19996109318E+02  0.55814802253E+02  0.51100000000E-03 0.  1.
         23    2    1    0    0    0  0.14235814327E+00  0.14725474955E+02  0.24447382484E+02  0.96459951142E+02  0.92141129717E+02 0.  0.
         11    1    3    3    0    0  0.27407395051E+02 -0.29682469434E+02  0.44512731660E+01  0.40645148889E+02  0.51100000000E-03 0. -1.
         22    1    1    0    0    0 -0.14235814327E+00 -0.14725474955E+02 -0.24447382484E+02  0.28540048858E+02  0.00000000000E+00 0.  1.
</event>
<event>
 5    1  0.8962567E-005  0.9118800E+02  0.7818608E-02  0.1130116E+00
         25   -1    0    0    0    0  0.00000000000E+00  0.00000000000E+00  0.99999998245E-14  0.12500000000E+03  0.12500000000E+03 0.  0.
        -11    1    3    3    0    0 -0.42997473765E+02  0.41002062843E+02 -0.15739300712E+02  0.61462813918E+02  0.51100000000E-03 0. -1.
         23    2    1    0    0    0 -0.20998528535E+02  0.19142425509E+02  0.72785865071E+00  0.96576410620E+02  0.92298985125E+02 0.  0.
         11    1    3    3    0    0  0.21998945231E+02 -0.21859637333E+02  0.16467159363E+02  0.35113596702E+02  0.51100000000E-03 0.  1.
         22    1    1    0    0    0  0.20998528535E+02 -0.19142425509E+02 -0.72785865071E+00  0.28423589380E+02  0.00000000000E+00 0. -1.
</event>
<event>
 5    1  0.8962567E-005  0.9118800E+02  0.7818608E-02  0.1130116E+00
         25   -1    0    0    0    0  0.00000000000E+00  0.00000000000E+00  0.99999998245E-14  0.12500000000E+03  0.12500000000E+03 0.  0.
        -11    1    3    3    0    0 -0.27963034610E+02  0.41127244610E+02 -0.12190417397E+02  0.51205349627E+02  0.51100000000E-03 0.  1.
         23    2    1    0    0    0 -0.22792253314E+02 -0.32902003289E+01 -0.17276815625E+02  0.96211103052E+02  0.91802918053E+02 0.  0.
         11    1    3    3    0    0  0.51707812959E+01 -0.44417444939E+02 -0.50863982279E+01  0.45005753425E+02  0.51100000000E-03 0. -1.
         22    1    1    0    0    0  0.22792253314E+02  0.32902003289E+01  0.17276815625E+02  0.28788896948E+02  0.00000000000E+00 0. -1.
</event>
<event>
 5    1  0.8962567E-005  0.9118800E+02  0.7818608E-02  0.1130116E+00
         25   -1    0    0    0    0  0.00000000000E+00  0.00000000000E+00  0.99999998245E-14  0.12500000000E+03  0.12500000000E+03 0.  0.
        -11    1    3    3    0    0 -0.35611774778E+01 -0.52913910174E+01 -0.25973173024E+02  0.26744841019E+02  0.51100000000E-03 0. -1.
         23    2    1    0    0    0  0.93470284399E+01 -0.23150667154E+02  0.29452032088E+02  0.86389865004E+02  0.77281732971E+02 0.  0.
         11    1    3    3    0    0  0.12908205918E+02 -0.17859276136E+02  0.55425205112E+02  0.59645023985E+02  0.51100000000E-03 0.  1.
         22    1    1    0    0    0 -0.93470284399E+01  0.23150667154E+02 -0.29452032088E+02  0.38610134996E+02  0.00000000000E+00 0.  1.
</event>
<event>
 5    1  0.8962567E-005  0.9118800E+02  0.7818608E-02  0.1130116E+00
         25   -1    0    0    0    0  0.00000000000E+00  0.00000000000E+00  0.99999998245E-14  0.12500000000E+03  0.12500000000E+03 0.  0.
        -11    1    3    3    0    0 -0.14391292200E+02  0.22050493534E+02 -0.31933053812E+02  0.41389050270E+02  0.51100000000E-03 0. -1.
         23    2    1    0    0    0 -0.12554301513E+02 -0.25342159912E+02 -0.39851501223E+01  0.96439240609E+02  0.92113029221E+02 0.  0.
         11    1    3    3    0    0  0.18369906865E+01 -0.47392653446E+02  0.27947903690E+02  0.55050190339E+02  0.51100000000E-03 0.  1.
         22    1    1    0    0    0  0.12554301513E+02  0.25342159912E+02  0.39851501223E+01  0.28560759391E+02  0.00000000000E+00 0.  1.
</event>
<event>
 5    1  0.8962567E-005  0.9118800E+02  0.7818608E-02  0.1130116E+00
         25   -1    0    0    0    0  0.00000000000E+00  0.00000000000E+00  0.99999998245E-14  0.12500000000E+03  0.12500000000E+03 0.  0.
        -11    1    3    3    0    0  0.34301220148E+02  0.29562788350E+02 -0.39151437312E+02  0.59861232885E+02  0.51100000000E-03 0. -1.
         23    2    1    0    0    0  0.16153622447E+02  0.30940898976E+01 -0.25319125129E+02  0.94807765770E+02  0.89871805604E+02 0.  0.
         11    1    3    3    0    0 -0.18147597701E+02 -0.26468698452E+02  0.13832312183E+02  0.34946532885E+02  0.51100000000E-03 0.  1.
         22    1    1    0    0    0 -0.16153622447E+02 -0.30940898976E+01  0.25319125129E+02  0.30192234230E+02  0.00000000000E+00 0. -1.
</event>
<event>
 5    1  0.8962567E-005  0.9118800E+02  0.7818608E-02  0.1130116E+00
         25   -1    0    0    0    0  0.00000000000E+00  0.00000000000E+00  0.99999998245E-14  0.12500000000E+03  0.12500000000E+03 0.  0.
        -11    1    3    3    0    0  0.22752198046E+02  0.22957367474E+02  0.21812789111E+02  0.38993602120E+02  0.51100000000E-03 0.  1.
         23    2    1    0    0    0 -0.15036035350E+02 -0.18154350044E+02  0.18683129933E+02  0.94921400820E+02  0.90029718454E+02 0.  0.
         11    1    3    3    0    0 -0.37788233396E+02 -0.41111717518E+02 -0.31296591787E+01  0.55927798699E+02  0.51100000000E-03 0. -1.
         22    1    1    0    0    0  0.15036035350E+02  0.18154350044E+02 -0.18683129933E+02  0.30078599180E+02  0.00000000000E+00 0. -1.
</event>
<event>
 5    1  0.8962567E-005  0.9118800E+02  0.7818608E-02  0.1130116E+00
         25   -1    0    0    0    0  0.00000000000E+00  0.00000000000E+00  0.99999998245E-14  0.12500000000E+03  0.12500000000E+03 0.  0.
        -11    1    3    3    0    0 -0.10738944728E+02  0.26727952452E+02  0.44701399187E+02  0.53178223604E+02  0.51100000000E-03 0.  1.
         23    2    1    0    0    0 -0.82840447608E+01  0.27242588648E+02  0.14642071376E+01  0.96488108860E+02  0.92179320973E+02 0.  0.
         11    1    3    3    0    0  0.24548999675E+01  0.51463619635E+00 -0.43237192050E+02  0.43309885256E+02  0.51100000000E-03 0. -1.
         22    1    1    0    0    0  0.82840447608E+01 -0.27242588648E+02 -0.14642071376E+01  0.28511891140E+02  0.00000000000E+00 0. -1.
</event>
<event>
 5    1  0.8962567E-005  0.9118800E+02  0.7818608E-02  0.1130116E+00
         25   -1    0    0    0    0  0.00000000000E+00  0.00000000000E+00  0.99999998245E-14  0.12500000000E+03  0.12500000000E+03 0.  0.
        -11    1    3    3    0    0  0.26469240862E+02  0.19305742701E+02  0.11544815460E+02  0.34736366784E+02  0.51100000000E-03 0. -1.
         23    2    1    0    0    0 -0.29038047390E+02 -0.36472169486E+01  0.65524210686E+01  0.95009257936E+02  0.90151619419E+02 0.  0.
         11    1    3    3    0    0 -0.55507288252E+02 -0.22952959650E+02 -0.49923943919E+01  0.60272891152E+02  0.51100000000E-03 0.  1.
         22    1    1    0    0    0  0.29038047390E+02  0.36472169486E+01 -0.65524210686E+01  0.29990742064E+02  0.00000000000E+00 0.  1.
</event>
<event>
 5    1  0.8962567E-005  0.9118800E+02  0.7818608E-02  0.1130116E+00
         25   -1    0    0    0    0  0.00000000000E+00  0.00000000000E+00  0.99999998245E-14  0.12500000000E+03  0.12500000000E+03 0.  0.
        -11    1    3    3    0    0 -0.55175118133E+02  0.57356332817E+00 -0.17130379962E+02  0.57776055194E+02  0.51100000000E-03 0.  1.
         23    2    1    0    0    0 -0.32832325704E+02  0.16411363211E+02 -0.42220563913E+01  0.88052466743E+02  0.79925694778E+02 0.  0.
         11    1    3    3    0    0  0.22342792428E+02  0.15837799883E+02  0.12908323571E+02  0.30276411549E+02  0.51100000000E-03 0. -1.
         22    1    1    0    0    0  0.32832325704E+02 -0.16411363211E+02  0.42220563913E+01  0.36947533257E+02  0.00000000000E+00 0.  1.
</event>
<event>
 5    1  0.8962567E-005  0.9118800E+02  0.7818608E-02  0.1130116E+00
         25   -1    0    0    0    0  0.00000000000E+00  0.00000000000E+00  0.99999998245E-14  0.12500000000E+03  0.12500000000E+03 0.  0.
        -11    1    3    3    0    0 -0.11749418785E+02 -0.11854857657E+02  0.21840644729E+02  0.27488183903E+02  0.51100000000E-03 0.  1.
         23    2    1    0    0    0  0.29616147508E+02  0.20531066968E+02  0.26557176544E+02  0.80234784374E+02  0.66586005237E+02 0.  0.
         11    1    3    3    0    0  0.41365566293E+02  0.32385924625E+02  0.47165318150E+01  0.52746600470E+02  0.51100000000E-03 0. -1.
         22    1    1    0    0    0 -0.29616147508E+02 -0.20531066968E+02 -0.26557176544E+02  0.44765215626E+02  0.00000000000E+00 0. -1.
</event>
<event>
 5    1  0.8962567E-005  0.9118800E+02  0.7818608E-02  0.1130116E+00
         25   -1    0    0    0    0  0.00000000000E+00  0.00000000000E+00  0.99999998245E-14  0.12500000000E+03  0.12500000000E+03 0.  0.
        -11    1    3    3    0    0  0.70113496394E+01 -0.32855139363E+02  0.19467410006E+02  0.38827815531E+02  0.51100000000E-03 0.  1.
         23    2    1    0    0    0  0.99800993388E+01  0.13755805203E+02 -0.19125262364E+02  0.99414843755E+02  0.96066179994E+02 0.  0.
         11    1    3    3    0    0  0.29687496995E+01  0.46610944566E+02 -0.38592672370E+02  0.60587028224E+02  0.51100000000E-03 0. -1.
         22    1    1    0    0    0 -0.99800993388E+01 -0.13755805203E+02  0.19125262364E+02  0.25585156245E+02  0.00000000000E+00 0. -1.
</event>
<event>
 5    1  0.8962567E-005  0.9118800E+02  0.7818608E-02  0.1130116E+00
         25   -1    0    0    0    0  0.00000000000E+00  0.00000000000E+00  0.99999998245E-14  0.12500000000E+03  0.12500000000E+03 0.  0.
        -11    1    3    3    0    0  0.48941424875E+02 -0.15715200803E+02 -0.35053170865E+02  0.62217002444E+02  0.51100000000E-03 0.  1.
         23    2    1    0    0    0  0.20702446993E+02 -0.70724992150E+01 -0.19974810319E+02  0.95375607957E+02  0.90658160081E+02 0.  0.
         11    1    3    3    0    0 -0.28238977882E+02  0.86427015883E+01  0.15078360546E+02  0.33158605513E+02  0.51100000000E-03 0. -1.
         22    1    1    0    0    0 -0.20702446993E+02  0.70724992150E+01  0.19974810319E+02  0.29624392043E+02  0.00000000000E+00 0.  1.
</event>
<event>
 5    1  0.8962567E-005  0.9118800E+02  0.7818608E-02  0.1130116E+00
         25   -1    0    0    0    0  0.00000000000E+00  0.00000000000E+00  0.99999998245E-14  0.12500000000E+03  0.12500000000E+03 0.  0.
        -11    1    3    3    0    0 -0.27742421493E+02 -0.40183374098E+01  0.32931909863E+02  0.43246961434E+02  0.51100000000E-03 0. -1.
         23    2    1    0    0    0  0.20614215382E+02  0.11795124510E+02  0.13296112891E+02  0.97781303190E+02  0.93916589576E+02 0.  0.
         11    1    3    3    0    0  0.48356636875E+02  0.15813461920E+02 -0.19635796972E+02  0.54534341756E+02  0.51100000000E-03 0.  1.
         22    1    1    0    0    0 -0.20614215382E+02 -0.11795124510E+02 -0.13296112891E+02  0.27218696810E+02  0.00000000000E+00 0.  1.
</event>
<event>
 5    1  0.8962567E-005  0.9118800E+02  0.7818608E-02  0.1130116E+00
         25   -1    0    0    0    0  0.00000000000E+00  0.00000000000E+00  0.99999998245E-14  0.12500000000E+03  0.12500000000E+03 0.  0.
        -11    1    3    3    0    0  0.27084087702E+02  0.53069662242E+02 -0.17866097979E+02  0.62202365826E+02  0.51100000000E-03 0.  1.
         23    2    1    0    0    0  0.95922386363E+01  0.24833540598E+02 -0.11395511888E+02  0.96041866913E+02  0.91572194078E+02 0.  0.
         11    1    3    3    0    0 -0.17491849065E+02 -0.28236121643E+02  0.64705860917E+01  0.33839501087E+02  0.51100000000E-03 0. -1.
         22    1    1    0    0    0 -0.95922386363E+01 -0.24833540598E+02  0.11395511888E+02  0.28958133087E+02  0.00000000000E+00 0.  1.
</event>
<event>
 5    1  0.8962567E-005  0.9118800E+02  0.7818608E-02  0.1130116E+00
         25   -1    0    0    0    0  0.00000000000E+00  0.00000000000E+00  0.99999998245E-14  0.12500000000E+03  0.12500000000E+03 0.  0.
        -11    1    3    3    0    0 -0.16607543458E+02 -0.54038005878E+02 -0.23188557109E+02  0.61103402197E+02  0.51100000000E-03 0.  1.
         23    2    1    0    0    0 -0.52918981597E+01 -0.27628797762E+02 -0.20091994407E+01  0.96797313350E+02  0.92597669179E+02 0.  0.
         11    1    3    3    0    0  0.11315645298E+02  0.26409208116E+02  0.21179357669E+02  0.35693911152E+02  0.51100000000E-03 0. -1.
         22    1    1    0    0    0  0.52918981597E+01  0.27628797762E+02  0.20091994407E+01  0.28202686650E+02  0.00000000000E+00 0.  1.
</event>
<event>
 5    1  0.8962567E-005  0.9118800E+02  0.7818608E-02  0.1130116E+00
         25   -1    0    0    0    0  0.00000000000E+00  0.00000000000E+00  0.99999998245E-14  0.12500000000E+03  0.12500000000E+03 0.  0.
        -11    1    3    3    0    0  0.13810255742E+02  0.34106495916E+00  0.33375065023E+02  0.36121108157E+02  0.51100000000E-03 0. -1.
         23    2    1    0    0    0 -0.30169548406E+02 -0.69312523298E+01 -0.33310289893E+01  0.93865779856E+02  0.88551933711E+02 0.  0.
         11    1    3    3    0    0 -0.43979804148E+02 -0.72723172889E+01 -0.36706094012E+02  0.57744671698E+02  0.51100000000E-03 0.  1.
         22    1    1    0    0    0  0.30169548406E+02  0.69312523298E+01  0.33310289893E+01  0.31134220144E+02  0.00000000000E+00 0.  1.
</event>
<event>
 5    1  0.8962567E-005  0.9118800E+02  0.7818608E-02  0.1130116E+00
         25   -1    0    0    0    0  0.00000000000E+00  0.00000000000E+00  0.99999998245E-14  0.12500000000E+03  0.12500000000E+03 0.  0.
        -11    1    3    3    0    0 -0.53814127743E+01 -0.25130047315E+02 -0.31397763665E+02  0.40574603448E+02  0.51100000000E-03 0.  1.
         23    2    1    0    0    0  0.86024695241E+00  0.26360586635E+02 -0.12877746831E+02  0.95649413702E+02  0.91034902239E+02 0.  0.
         11    1    3    3    0    0  0.62416597267E+01  0.51490633950E+02  0.18520016834E+02  0.55074810254E+02  0.51100000000E-03 0. -1.
         22    1    1    0    0    0 -0.86024695241E+00 -0.26360586635E+02  0.12877746831E+02  0.29350586298E+02  0.00000000000E+00 0. -1.
</event>
<event>
 5    1  0.8962567E-005  0.9118800E+02  0.7818608E-02  0.1130116E+00
         25   -1    0    0    0    0  0.00000000000E+00  0.00000000000E+00  0.99999998245E-14  0.12500000000E+03  0.12500000000E+03 0.  0.
        -11    1    3    3    0    0  0.44960346279E+02 -0.41097643612E+02  0.11627149618E+02  0.62013221626E+02  0.51100000000E-03 0.  1.
         23    2    1    0    0    0  0.21829751233E+02 -0.22465250028E+02  0.67996186475E+00  0.93668101783E+02  0.88272450095E+02 0.  0.
         11    1    3    3    0    0 -0.23130595046E+02  0.18632393583E+02 -0.10947187753E+02  0.31654880158E+02  0.51100000000E-03 0. -1.
         22    1    1    0    0    0 -0.21829751233E+02  0.22465250028E+02 -0.67996186475E+00  0.31331898217E+02  0.00000000000E+00 0.  1.
</event>
<event>
 5    1  0.8962567E-005  0.9118800E+02  0.7818608E-02  0.1130116E+00
         25   -1    0    0    0    0  0.00000000000E+00  0.00000000000E+00  0.99999998245E-14  0.12500000000E+03  0.12500000000E+03 0.  0.
        -11    1    3    3    0    0  0.73058233414E+01 -0.96318943804E+01 -0.31763379820E+02  0.33986184574E+02  0.51100000000E-03 0.  1.
         23    2    1    0    0    0  0.16239974361E+02 -0.10320736762E+02  0.26119202531E+02  0.92558250426E+02  0.86686576853E+02 0.  0.
         11    1    3    3    0    0  0.89341510198E+01 -0.68884238181E+00  0.57882582351E+02  0.58572065852E+02  0.51100000000E-03 0. -1.
         22    1    1    0    0    0 -0.16239974361E+02  0.10320736762E+02 -0.26119202531E+02  0.32441749574E+02  0.00000000000E+00 0. -1.
</event>
<event>
 5    1  0.8962567E-005  0.9118800E+02  0.7818608E-02  0.1130116E+00
         25   -1    0    0    0    0  0.00000000000E+00  0.00000000000E+00  0.99999998245E-14  0.12500000000E+03  0.12500000000E+03 0.  0.
        -11    1    3    3    0    0 -0.40045188338E+02  0.16893204364E+02  0.84025135358E+01  0.44267366047E+02  0.51100000000E-03 0. -1.
         23    2    1    0    0    0 -0.11100014214E+02 -0.42500646087E+01 -0.27525095750E+02  0.95018267883E+02  0.90164111323E+02 0.  0.
         11    1    3    3    0    0  0.28945174124E+02 -0.21143268973E+02 -0.35927609285E+02  0.50750901836E+02  0.51100000000E-03 0.  1.
         22    1    1    0    0    0  0.11100014214E+02  0.42500646087E+01  0.27525095750E+02  0.29981732117E+02  0.00000000000E+00 0. -1.
</event>
<event>
 5    1  0.8962567E-005  0.9118800E+02  0.7818608E-02  0.1130116E+00
         25   -1    0    0    0    0  0.00000000000E+00  0.00000000000E+00  0.99999998245E-14  0.12500000000E+03  0.12500000000E+03 0.  0.
        -11    1    3    3    0    0 -0.21300569206E+02  0.25965383313E+02 -0.29270543960E+01  0.33711763923E+02  0.51100000000E-03 0.  1.
         23    2    1    0    0    0  0.19705541475E+02  0.73545392093E+01  0.29188669761E+02  0.89022561872E+02  0.81428744729E+02 0.  0.
         11    1    3    3    0    0  0.41006110681E+02 -0.18610844104E+02  0.32115724157E+02  0.55310797950E+02  0.51100000000E-03 0. -1.
         22    1    1    0    0    0 -0.19705541475E+02 -0.73545392093E+01 -0.29188669761E+02  0.35977438128E+02  0.00000000000E+00 0. -1.
</event>
<event>
 5    1  0.8962567E-005  0.9118800E+02  0.7818608E-02  0.1130116E+00
         25   -1    0    0    0    0  0.00000000000E+00  0.00000000000E+00  0.99999998245E-14  0.12500000000E+03  0.12500000000E+03 0.  0.
        -11    1    3    3    0    0  0.14319517746E+02  0.66153016490E+01  0.40668895850E+02  0.43620750730E+02  0.51100000000E-03 0.  1.
         23    2    1    0    0    0 -0.36359316982E+01 -0.27827954676E+02  0.47285961835E+01  0.96539945843E+02  0.92249587862E+02 0.  0.
         11    1    3    3    0    0 -0.17955449445E+02 -0.34443256325E+02 -0.35940299666E+02  0.52919195113E+02  0.51100000000E-03 0. -1.
         22    1    1    0    0    0  0.36359316982E+01  0.27827954676E+02 -0.47285961835E+01  0.28460054157E+02  0.00000000000E+00 0.  1.
</event>
<event>
 5    1  0.8962567E-005  0.9118800E+02  0.7818608E-02  0.1130116E+00
         25   -1    0    0    0    0  0.00000000000E+00  0.00000000000E+00  0.99999998245E-14  0.12500000000E+03  0.12500000000E+03 0.  0.
        -11    1    3    3    0    0 -0.52798586786E+01  0.25662302553E+02  0.12249952587E+02  0.28922171748E+02  0.51100000000E-03 0.  1.
         23    2    1    0    0    0  0.11442714517E+02 -0.32459870038E+02  0.86647804458E+01  0.89508348889E+02  0.82171085074E+02 0.  0.
         11    1    3    3    0    0  0.16722573196E+02 -0.58122172591E+02 -0.35851721416E+01  0.60586177141E+02  0.51100000000E-03 0. -1.
         22    1    1    0    0    0 -0.11442714517E+02  0.32459870038E+02 -0.86647804458E+01  0.35491651111E+02  0.00000000000E+00 0. -1.
</event>
<event>
 5    1  0.8962567E-005  0.9118800E+02  0.7818608E-02  0.1130116E+00
         25   -1    0    0    0    0  0.00000000000E+00  0.00000000000E+00  0.99999998245E-14  0.12500000000E+03  0.12500000000E+03 0.  0.
        -11    1    3    3    0    0 -0.28333199447E+02 -0.19362908836E+02 -0.23247130248E+02  0.41450229125E+02  0.51100000000E-03 0.  1.
         23    2    1    0    0    0  0.14176321097E+02  0.15134986344E+02 -0.19836800846E+02  0.96302708154E+02  0.91927564085E+02 0.  0.
         11    1    3    3    0    0  0.42509520545E+02  0.34497895180E+02  0.34103294019E+01  0.54852479029E+02  0.51100000000E-03 0. -1.
         22    1    1    0    0    0 -0.14176321097E+02 -0.15134986344E+02  0.19836800846E+02  0.28697291846E+02  0.00000000000E+00 0. -1.
</event>
<event>
 5    1  0.8962567E-005  0.9118800E+02  0.7818608E-02  0.1130116E+00
         25   -1    0    0    0    0  0.00000000000E+00  0.00000000000E+00  0.99999998245E-14  0.12500000000E+03  0.12500000000E+03 0.  0.
        -11    1    3    3    0    0  0.24539508595E+02  0.38960050683E+01  0.49815016442E+02  0.55667784229E+02  0.51100000000E-03 0. -1.
         23    2    1    0    0    0  0.80394002756E+01  0.21745374953E+02  0.18323520925E+02  0.95449285834E+02  0.90759690714E+02 0.  0.
         11    1    3    3    0    0 -0.16500108319E+02  0.17849369885E+02 -0.31491495517E+02  0.39781501605E+02  0.51100000000E-03 0.  1.
         22    1    1    0    0    0 -0.80394002756E+01 -0.21745374953E+02 -0.18323520925E+02  0.29550714166E+02  0.00000000000E+00 0. -1.
</event>
<event>
 5    1  0.8962567E-005  0.9118800E+02  0.7818608E-02  0.1130116E+00
         25   -1    0    0    0    0  0.00000000000E+00  0.00000000000E+00  0.99999998245E-14  0.12500000000E+03  0.12500000000E+03 0.  0.
        -11    1    3    3    0    0  0.30443752417E+02 -0.36846819699E+02 -0.28678643124E+01  0.47882510681E+02  0.51100000000E-03 0. -1.
         23    2    1    0    0    0  0.22452995428E+01 -0.10779466315E+02 -0.28764661621E+02  0.94199934704E+02  0.89022377388E+02 0.  0.
         11    1    3    3    0    0 -0.28198452874E+02  0.26067353384E+02 -0.25896797309E+02  0.46317424022E+02  0.51100000000E-03 0.  1.
         22    1    1    0    0    0 -0.22452995428E+01  0.10779466315E+02  0.28764661621E+02  0.30800065296E+02  0.00000000000E+00 0. -1.
</event>
<event>
 5    1  0.8962567E-005  0.9118800E+02  0.7818608E-02  0.1130116E+00
         25   -1    0    0    0    0  0.00000000000E+00  0.00000000000E+00  0.99999998245E-14  0.12500000000E+03  0.12500000000E+03 0.  0.
        -11    1    3    3    0    0  0.27399842457E+02  0.20602369897E+02 -0.25546373159E+02  0.42753084027E+02  0.51100000000E-03 0.  1.
         23    2    1    0    0    0  0.26710346114E+02 -0.30018107816E+01  0.18250867612E+02  0.92510807550E+02  0.86618138328E+02 0.  0.
         11    1    3    3    0    0 -0.68949634296E+00 -0.23604180679E+02  0.43797240771E+02  0.49757723522E+02  0.51100000000E-03 0. -1.
         22    1    1    0    0    0 -0.26710346114E+02  0.30018107816E+01 -0.18250867612E+02  0.32489192450E+02  0.00000000000E+00 0. -1.
</event>
<event>
 5    1  0.8962567E-005  0.9118800E+02  0.7818608E-02  0.1130116E+00
         25   -1    0    0    0    0  0.00000000000E+00  0.00000000000E+00  0.99999998245E-14  0.12500000000E+03  0.12500000000E+03 0.  0.
        -11    1    3    3    0    0  0.25689201724E+02  0.37833570959E+02 -0.57817775097E+00  0.45734543471E+02  0.51100000000E-03 0. -1.
         23    2    1    0    0    0  0.11040987513E+02 -0.29567971065E+01  0.26015836442E+02  0.96583986906E+02  0.92309245075E+02 0.  0.
         11    1    3    3    0    0 -0.14648214211E+02 -0.40790368065E+02  0.26594014193E+02  0.50849443435E+02  0.51100000000E-03 0.  1.
         22    1    1    0    0    0 -0.11040987513E+02  0.29567971065E+01 -0.26015836442E+02  0.28416013094E+02  0.00000000000E+00 0.  1.
</event>
<event>
 5    1  0.8962567E-005  0.9118800E+02  0.7818608E-02  0.1130116E+00
         25   -1    0    0    0    0  0.00000000000E+00  0.00000000000E+00  0.99999998245E-14  0.12500000000E+03  0.12500000000E+03 0.  0.
        -11    1    3    3    0    0 -0.16542821332E+02 -0.11764673538E+02 -0.53093367744E+02  0.56841694026E+02  0.51100000000E-03 0.  1.
         23    2    1    0    0    0  0.49906345717E+01  0.11111116218E+01 -0.39095201174E+02  0.85571891279E+02  0.75947171243E+02 0.  0.
         11    1    3    3    0    0  0.21533455904E+02  0.12875785160E+02  0.13998166570E+02  0.28730197254E+02  0.51100000000E-03 0. -1.
         22    1    1    0    0    0 -0.49906345717E+01 -0.11111116218E+01  0.39095201174E+02  0.39428108721E+02  0.00000000000E+00 0.  1.
</event>
<event>
 5    1  0.8962567E-005  0.9118800E+02  0.7818608E-02  0.1130116E+00
         25   -1    0    0    0    0  0.00000000000E+00  0.00000000000E+00  0.99999998245E-14  0.12500000000E+03  0.12500000000E+03 0.  0.
        -11    1    3    3    0    0 -0.69492186896E+01 -0.17486016421E+02 -0.49976552811E+02  0.53401388013E+02  0.51100000000E-03 0. -1.
         23    2    1    0    0    0 -0.15082330237E+02  0.12857829376E+02 -0.20661818915E+02  0.96369400591E+02  0.92018205523E+02 0.  0.
         11    1    3    3    0    0 -0.81331115478E+01  0.30343845797E+02  0.29314733896E+02  0.42968012577E+02  0.51100000000E-03 0.  1.
         22    1    1    0    0    0  0.15082330237E+02 -0.12857829376E+02  0.20661818915E+02  0.28630599409E+02  0.00000000000E+00 0. -1.
</event>
<event>
 5    1  0.8962567E-005  0.9118800E+02  0.7818608E-02  0.1130116E+00
         25   -1    0    0    0    0  0.00000000000E+00  0.00000000000E+00  0.99999998245E-14  0.12500000000E+03  0.12500000000E+03 0.  0.
        -11    1    3    3    0    0 -0.27887523553E+01  0.95132666625E+01 -0.47577331218E+02  0.48599195759E+02  0.51100000000E-03 0. -1.
         23    2    1    0    0    0 -0.25708158441E+02  0.15347708945E+02 -0.92021809579E+01  0.93676818254E+02  0.88284792369E+02 0.  0.
         11    1    3    3    0    0 -0.22919406086E+02  0.58344422821E+01  0.38375150261E+02  0.45077622495E+02  0.51100000000E-03 0.  1.
         22    1    1    0    0    0  0.25708158441E+02 -0.15347708945E+02  0.92021809579E+01  0.31323181746E+02  0.00000000000E+00 0.  1.
</event>
<event>
 5    1  0.8962567E-005  0.9118800E+02  0.7818608E-02  0.1130116E+00
         25   -1    0    0    0    0  0.00000000000E+00  0.00000000000E+00  0.99999998245E-14  0.12500000000E+03  0.12500000000E+03 0.  0.
        -11    1    3    3    0    0  0.27816343650E+02  0.43074493635E+02 -0.12963959409E+02  0.52888800513E+02  0.51100000000E-03 0.  1.
         23    2    1    0    0    0  0.24421583521E+02  0.64456151627E+01 -0.22807082538E+02  0.90968797988E+02  0.84363496235E+02 0.  0.
         11    1    3    3    0    0 -0.33947601291E+01 -0.36628878472E+02 -0.98431231292E+01  0.38079997474E+02  0.51100000000E-03 0. -1.
         22    1    1    0    0    0 -0.24421583521E+02 -0.64456151627E+01  0.22807082538E+02  0.34031202012E+02  0.00000000000E+00 0.  1.
</event>
<event>
 5    1  0.8962567E-005  0.9118800E+02  0.7818608E-02  0.1130116E+00
         25   -1    0    0    0    0  0.00000000000E+00  0.00000000000E+00  0.99999998245E-14  0.12500000000E+03  0.12500000000E+03 0.  0.
        -11    1    3    3    0    0  0.53083122177E+02  0.14667597388E+02  0.13681147018E+02  0.56746189803E+02  0.51100000000E-03 0.  1.
         23    2    1    0    0    0  0.15913791884E+02  0.19618460198E+02  0.17246387986E+02  0.94412900575E+02  0.89320911011E+02 0.  0.
         11    1    3    3    0    0 -0.37169330293E+02  0.49508628101E+01  0.35652409684E+01  0.37666710772E+02  0.51100000000E-03 0. -1.
         22    1    1    0    0    0 -0.15913791884E+02 -0.19618460198E+02 -0.17246387986E+02  0.30587099425E+02  0.00000000000E+00 0.  1.
</event>
<event>
 5    1  0.8962567E-005  0.9118800E+02  0.7818608E-02  0.1130116E+00
         25   -1    0    0    0    0  0.00000000000E+00  0.00000000000E+00  0.99999998245E-14  0.12500000000E+03  0.12500000000E+03 0.  0.
        -11    1    3    3    0    0 -0.68960287723E+01 -0.24458637073E+02 -0.39983783057E+02  0.47375975432E+02  0.51100000000E-03 0. -1.
         23    2    1    0    0    0  0.81274430145E+01  0.17025501961E+02 -0.24376253727E+02  0.94175905646E+02  0.88988630799E+02 0.  0.
         11    1    3    3    0    0  0.15023471787E+02  0.41484139034E+02  0.15607529330E+02  0.46799930214E+02  0.51100000000E-03 0.  1.
         22    1    1    0    0    0 -0.81274430145E+01 -0.17025501961E+02  0.24376253727E+02  0.30824094354E+02  0.00000000000E+00 0. -1.
</event>
<event>
 5    1  0.8962567E-005  0.9118800E+02  0.7818608E-02  0.1130116E+00
         25   -1    0    0    0    0  0.00000000000E+00  0.00000000000E+00  0.99999998245E-14  0.12500000000E+03  0.12500000000E+03 0.  0.
        -11    1    3    3    0    0  0.32303406529E+02 -0.13955685741E+02 -0.42022738423E+02  0.54810416735E+02  0.51100000000E-03 0. -1.
         23    2    1    0    0    0  0.33247192127E-01  0.64215637175E+01 -0.29245434454E+02  0.95057838716E+02  0.90218954100E+02 0.  0.
         11    1    3    3    0    0 -0.32270159336E+02  0.20377249459E+02  0.12777303968E+02  0.40247421980E+02  0.51100000000E-03 0.  1.
         22    1    1    0    0    0 -0.33247192127E-01 -0.64215637175E+01  0.29245434454E+02  0.29942161284E+02  0.00000000000E+00 0. -1.
</event>
<event>
 5    1  0.8962567E-005  0.9118800E+02  0.7818608E-02  0.1130116E+00
         25   -1    0    0    0    0  0.00000000000E+00  0.00000000000E+00  0.99999998245E-14  0.12500000000E+03  0.12500000000E+03 0.  0.
        -11    1    3    3    0    0 -0.87963190080E+01  0.36998694896E+02 -0.30640028293E+02  0.48837383080E+02  0.51100000000E-03 0. -1.
         23    2    1    0    0    0 -0.26944429039E+02 -0.15194597675E+01 -0.93815887275E+01  0.96428594342E+02  0.92098580800E+02 0.  0.
         11    1    3    3    0    0 -0.18148110031E+02 -0.38518154663E+02  0.21258439565E+02  0.47591211262E+02  0.51100000000E-03 0.  1.
         22    1    1    0    0    0  0.26944429039E+02  0.15194597675E+01  0.93815887275E+01  0.28571405658E+02  0.00000000000E+00 0. -1.
</event>
<event>
 5    1  0.8962567E-005  0.9118800E+02  0.7818608E-02  0.1130116E+00
         25   -1    0    0    0    0  0.00000000000E+00  0.00000000000E+00  0.99999998245E-14  0.12500000000E+03  0.12500000000E+03 0.  0.
        -11    1    3    3    0    0 -0.10128508967E+02 -0.34055163138E+02  0.84101761113E+01  0.36511257069E+02  0.51100000000E-03 0. -1.
         23    2    1    0    0    0  0.25713527089E+02  0.12747937482E+02  0.69040705205E+01  0.95481165756E+02  0.90803587148E+02 0.  0.
         11    1    3    3    0    0  0.35842036056E+02  0.46803100620E+02 -0.15061055909E+01  0.58969908687E+02  0.51100000000E-03 0.  1.
         22    1    1    0    0    0 -0.25713527089E+02 -0.12747937482E+02 -0.69040705205E+01  0.29518834244E+02  0.00000000000E+00 0.  1.
</event>
<event>
 5    1  0.8962567E-005  0.9118800E+02  0.7818608E-02  0.1130116E+00
         25   -1    0    0    0    0  0.00000000000E+00  0.00000000000E+00  0.99999998245E-14  0.12500000000E+03  0.12500000000E+03 0.  0.
        -11    1    3    3    0    0  0.59202712291E-01 -0.18254058687E+02  0.48450561003E+02  0.51775197008E+02  0.51100000000E-03 0.  1.
         23    2    1    0    0    0 -0.24772397606E+02 -0.78009661309E+01  0.14046426053E+02  0.95473252116E+02  0.90792692597E+02 0.  0.
         11    1    3    3    0    0 -0.24831600318E+02  0.10453092556E+02 -0.34404134949E+02  0.43698055108E+02  0.51100000000E-03 0. -1.
         22    1    1    0    0    0  0.24772397606E+02  0.78009661309E+01 -0.14046426053E+02  0.29526747884E+02  0.00000000000E+00 0.  1.
</event>
<event>
 5    1  0.8962567E-005  0.9118800E+02  0.7818608E-02  0.1130116E+00
         25   -1    0    0    0    0  0.00000000000E+00  0.00000000000E+00  0.99999998245E-14  0.12500000000E+03  0.12500000000E+03 0.  0.
        -11    1    3    3    0    0  0.35049828361E+02 -0.21386113961E+02 -0.34907358003E+02  0.53892299835E+02  0.51100000000E-03 0. -1.
         23    2    1    0    0    0  0.28967130618E+02  0.22942896285E+01 -0.70636922112E+00  0.95933569558E+02  0.91424243992E+02 0.  0.
         11    1    3    3    0    0 -0.60826977424E+01  0.23680403590E+02  0.34200988782E+02  0.42041269723E+02  0.51100000000E-03 0.  1.
         22    1    1    0    0    0 -0.28967130618E+02 -0.22942896285E+01  0.70636922112E+00  0.29066430442E+02  0.00000000000E+00 0. -1.
</event>
<event>
 5    1  0.8962567E-005  0.9118800E+02  0.7818608E-02  0.1130116E+00
         25   -1    0    0    0    0  0.00000000000E+00  0.00000000000E+00  0.99999998245E-14  0.12500000000E+03  0.12500000000E+03 0.  0.
        -11    1    3    3    0    0 -0.56219136456E+02  0.19062700295E+02  0.14579181723E+02  0.61127165699E+02  0.51100000000E-03 0.  1.
         23    2    1    0    0    0 -0.22644518743E+02  0.17400165375E+02  0.73548534674E+01  0.95510445007E+02  0.90843883954E+02 0.  0.
         11    1    3    3    0    0  0.33574617714E+02 -0.16625349203E+01 -0.72243282553E+01  0.34383279308E+02  0.51100000000E-03 0. -1.
         22    1    1    0    0    0  0.22644518743E+02 -0.17400165375E+02 -0.73548534674E+01  0.29489554993E+02  0.00000000000E+00 0.  1.
</event>
<event>
 5    1  0.8962567E-005  0.9118800E+02  0.7818608E-02  0.1130116E+00
         25   -1    0    0    0    0  0.00000000000E+00  0.00000000000E+00  0.99999998245E-14  0.12500000000E+03  0.12500000000E+03 0.  0.
        -11    1    3    3    0    0 -0.22806244532E+02  0.22424070590E+02  0.18242693867E+01  0.32035787653E+02  0.51100000000E-03 0. -1.
         23    2    1    0    0    0  0.89428497101E+01 -0.30123589768E+02 -0.16988623141E+01  0.93531104967E+02  0.88078239320E+02 0.  0.
         11    1    3    3    0    0  0.31749094242E+02 -0.52547660358E+02 -0.35231317008E+01  0.61495317314E+02  0.51100000000E-03 0.  1.
         22    1    1    0    0    0 -0.89428497101E+01  0.30123589768E+02  0.16988623141E+01  0.31468895033E+02  0.00000000000E+00 0.  1.
</event>
<event>
 5    1  0.8962567E-005  0.9118800E+02  0.7818608E-02  0.1130116E+00
         25   -1    0    0    0    0  0.00000000000E+00  0.00000000000E+00  0.99999998245E-14  0.12500000000E+03  0.12500000000E+03 0.  0.
        -11    1    3    3    0    0  0.32455878941E+02  0.12646174766E+02  0.17345357543E+02  0.38912353342E+02  0.51100000000E-03 0.  1.
         23    2    1    0    0    0 -0.20783244970E+02  0.21468897637E+02  0.18317283068E+01  0.95063198804E+02  0.90226380294E+02 0.  0.
         11    1    3    3    0    0 -0.53239123912E+02  0.88227228708E+01 -0.15513629236E+02  0.56150845462E+02  0.51100000000E-03 0. -1.
         22    1    1    0    0    0  0.20783244970E+02 -0.21468897637E+02 -0.18317283068E+01  0.29936801196E+02  0.00000000000E+00 0. -1.
</event>
<event>
 5    1  0.8962567E-005  0.9118800E+02  0.7818608E-02  0.1130116E+00
         25   -1    0    0    0    0  0.00000000000E+00  0.00000000000E+00  0.99999998245E-14  0.12500000000E+03  0.12500000000E+03 0.  0.
        -11    1    3    3    0    0  0.29419569440E+02 -0.48205013678E+01 -0.22074915567E+02  0.37095150587E+02  0.51100000000E-03 0. -1.
         23    2    1    0    0    0 -0.11564057583E+02 -0.13351622660E+02  0.21268221914E+02  0.97353471849E+02  0.93345422825E+02 0.  0.
         11    1    3    3    0    0 -0.40983627023E+02 -0.85311212920E+01  0.43343137480E+02  0.60258321263E+02  0.51100000000E-03 0.  1.
         22    1    1    0    0    0  0.11564057583E+02  0.13351622660E+02 -0.21268221914E+02  0.27646528151E+02  0.00000000000E+00 0.  1.
</event>
<event>
 5    1  0.8962567E-005  0.9118800E+02  0.7818608E-02  0.1130116E+00
         25   -1    0    0    0    0  0.00000000000E+00  0.00000000000E+00  0.99999998245E-14  0.12500000000E+03  0.12500000000E+03 0.  0.
        -11    1    3    3    0    0 -0.13601666223E+02  0.31191483125E+02 -0.17165132889E+02  0.38112409147E+02  0.51100000000E-03 0.  1.
         23    2    1    0    0    0  0.25777222217E+02 -0.10493291548E+02 -0.55310589327E+01  0.96624535851E+02  0.92364137861E+02 0.  0.
         11    1    3    3    0    0  0.39378888440E+02 -0.41684774674E+02  0.11634073957E+02  0.58512126704E+02  0.51100000000E-03 0. -1.
         22    1    1    0    0    0 -0.25777222217E+02  0.10493291548E+02  0.55310589327E+01  0.28375464149E+02  0.00000000000E+00 0. -1.
</event>
<event>
 5    1  0.8962567E-005  0.9118800E+02  0.7818608E-02  0.1130116E+00
         25   -1    0    0    0    0  0.00000000000E+00  0.00000000000E+00  0.99999998245E-14  0.12500000000E+03  0.12500000000E+03 0.  0.
        -11    1    3    3    0    0  0.39810039550E+01 -0.58359282871E+02 -0.28088119818E+01  0.58562306262E+02  0.51100000000E-03 0.  1.
         23    2    1    0    0    0 -0.12818599061E+02 -0.24974225913E+02 -0.67050909353E+01  0.96138491268E+02  0.91703995643E+02 0.  0.
         11    1    3    3    0    0 -0.16799603016E+02  0.33385056958E+02 -0.38962789536E+01  0.37576185005E+02  0.51100000000E-03 0. -1.
         22    1    1    0    0    0  0.12818599061E+02  0.24974225913E+02  0.67050909353E+01  0.28861508732E+02  0.00000000000E+00 0.  1.
</event>
<event>
 5    1  0.8962567E-005  0.9118800E+02  0.7818608E-02  0.1130116E+00
         25   -1    0    0    0    0  0.00000000000E+00  0.00000000000E+00  0.99999998245E-14  0.12500000000E+03  0.12500000000E+03 0.  0.
        -11    1    3    3    0    0  0.42603626761E+02 -0.16956167391E+02 -0.16038839204E+00  0.45854185746E+02  0.51100000000E-03 0. -1.
         23    2    1    0    0    0  0.15697651591E+02  0.24545132003E+02  0.44418211582E+01  0.95527817425E+02  0.90867785031E+02 0.  0.
         11    1    3    3    0    0 -0.26905975170E+02  0.41501299393E+02  0.46022095503E+01  0.49673631679E+02  0.51100000000E-03 0.  1.
         22    1    1    0    0    0 -0.15697651591E+02 -0.24545132003E+02 -0.44418211582E+01  0.29472182575E+02  0.00000000000E+00 0.  1.
</event>
<event>
 5    1  0.8962567E-005  0.9118800E+02  0.7818608E-02  0.1130116E+00
         25   -1    0    0    0    0  0.00000000000E+00  0.00000000000E+00  0.99999998245E-14  0.12500000000E+03  0.12500000000E+03 0.  0.
        -11    1    3    3    0    0  0.34314412455E+02  0.74362324992E+01 -0.86302597871E+01  0.36156020801E+02  0.51100000000E-03 0.  1.
         23    2    1    0    0    0 -0.17769816920E+02  0.24535857372E+02  0.84042718472E+01  0.93561067518E+02  0.88120751696E+02 0.  0.
         11    1    3    3    0    0 -0.52084229374E+02  0.17099624873E+02  0.17034531634E+02  0.57405046717E+02  0.51100000000E-03 0. -1.
         22    1    1    0    0    0  0.17769816920E+02 -0.24535857372E+02 -0.84042718472E+01  0.31438932482E+02  0.00000000000E+00 0. -1.
</event>
<event>
 5    1  0.8962567E-005  0.9118800E+02  0.7818608E-02  0.1130116E+00
         25   -1    0    0    0    0  0.00000000000E+00  0.00000000000E+00  0.99999998245E-14  0.12500000000E+03  0.12500000000E+03 0.  0.
        -11    1    3    3    0    0 -0.35668477159E+02  0.23029997634E+02 -0.21214384636E+01  0.42510252355E+02  0.51100000000E-03 0.  1.
         23    2    1    0    0    0 -0.78565839056E+01 -0.20026547693E+02 -0.18817519864E+02  0.96418754803E+02  0.92085225203E+02 0.  0.
         11    1    3    3    0    0  0.27811893253E+02 -0.43056545327E+02 -0.16696081400E+02  0.53908502448E+02  0.51100000000E-03 0. -1.
         22    1    1    0    0    0  0.78565839056E+01  0.20026547693E+02  0.18817519864E+02  0.28581245197E+02  0.00000000000E+00 0.  1.
</event>
<event>
 5    1  0.8962567E-005  0.9118800E+02  0.7818608E-02  0.1130116E+00
         25   -1    0    0    0    0  0.00000000000E+00  0.00000000000E+00  0.99999998245E-14  0.12500000000E+03  0.12500000000E+03 0.  0.
        -11    1    3    3    0    0 -0.47663779655E+01 -0.53078676946E+02  0.16867645132E+02  0.55897958440E+02  0.51100000000E-03 0. -1.
         23    2    1    0    0    0 -0.16059319416E+02 -0.24408870381E+02 -0.70953887105E+01  0.94932754793E+02  0.90045481276E+02 0.  0.
         11    1    3    3    0    0 -0.11292941451E+02  0.28669806565E+02 -0.23963033842E+02  0.39034796352E+02  0.51100000000E-03 0.  1.
         22    1    1    0    0    0  0.16059319416E+02  0.24408870381E+02  0.70953887105E+01  0.30067245207E+02  0.00000000000E+00 0.  1.
</event>
<event>
 5    1  0.8962567E-005  0.9118800E+02  0.7818608E-02  0.1130116E+00
         25   -1    0    0    0    0  0.00000000000E+00  0.00000000000E+00  0.99999998245E-14  0.12500000000E+03  0.12500000000E+03 0.  0.
        -11    1    3    3    0    0 -0.12703736534E+02  0.47931490682E+02 -0.61847824700E+01  0.49970633930E+02  0.51100000000E-03 0.  1.
         23    2    1    0    0    0  0.11796027785E+02  0.18916367729E+02  0.19141830185E+02  0.95616587972E+02  0.90989818074E+02 0.  0.
         11    1    3    3    0    0  0.24499764319E+02 -0.29015122953E+02  0.25326612655E+02  0.45645954043E+02  0.51100000000E-03 0. -1.
         22    1    1    0    0    0 -0.11796027785E+02 -0.18916367729E+02 -0.19141830185E+02  0.29383412028E+02  0.00000000000E+00 0. -1.
</event>
<event>
 5    1  0.8962567E-005  0.9118800E+02  0.7818608E-02  0.1130116E+00
         25   -1    0    0    0    0  0.00000000000E+00  0.00000000000E+00  0.99999998245E-14  0.12500000000E+03  0.12500000000E+03 0.  0.
        -11    1    3    3    0    0  0.21590067130E+02  0.19404463356E+02 -0.47868355486E+02  0.55982529900E+02  0.51100000000E-03 0.  1.
         23    2    1    0    0    0 -0.10276227619E+02  0.99856176888E+01 -0.24540505275E+02  0.96582579043E+02  0.92307338607E+02 0.  0.
         11    1    3    3    0    0 -0.31866294749E+02 -0.94188456675E+01  0.23327850211E+02  0.40600049143E+02  0.51100000000E-03 0. -1.
         22    1    1    0    0    0  0.10276227619E+02 -0.99856176888E+01  0.24540505275E+02  0.28417420957E+02  0.00000000000E+00 0.  1.
</event>
<event>
 5    1  0.8962567E-005  0.9118800E+02  0.7818608E-02  0.1130116E+00
         25   -1    0    0    0    0  0.00000000000E+00  0.00000000000E+00  0.99999998245E-14  0.12500000000E+03  0.12500000000E+03 0.  0.
        -11    1    3    3    0    0  0.76482260338E+01 -0.32748644556E+02 -0.15108446211E+02  0.36867793925E+02  0.51100000000E-03 0. -1.
         23    2    1    0    0    0 -0.28465422126E+02  0.10251743905E+02 -0.11863217207E+01  0.94721527959E+02  0.89751779870E+02 0.  0.
         11    1    3    3    0    0 -0.36113648160E+02  0.43000388461E+02  0.13922124490E+02  0.57853734035E+02  0.51100000000E-03 0.  1.
         22    1    1    0    0    0  0.28465422126E+02 -0.10251743905E+02  0.11863217207E+01  0.30278472041E+02  0.00000000000E+00 0.  1.
</event>
<event>
 5    1  0.8962567E-005  0.9118800E+02  0.7818608E-02  0.1130116E+00
         25   -1    0    0    0    0  0.00000000000E+00  0.00000000000E+00  0.99999998245E-14  0.12500000000E+03  0.12500000000E+03 0.  0.
        -11    1    3    3    0    0 -0.77567477603E+01  0.11245297106E+02 -0.39580946203E+02  0.41872128503E+02  0.51100000000E-03 0. -1.
         23    2    1    0    0    0  0.62752113886E+01  0.19951821952E+02  0.15236742819E+02  0.99123141441E+02  0.95685868132E+02 0.  0.
         11    1    3    3    0    0  0.14031959149E+02  0.87065248459E+01  0.54817689022E+02  0.57251012938E+02  0.51100000000E-03 0.  1.
         22    1    1    0    0    0 -0.62752113886E+01 -0.19951821952E+02 -0.15236742819E+02  0.25876858559E+02  0.00000000000E+00 0.  1.
</event>
<event>
 5    1  0.8962567E-005  0.9118800E+02  0.7818608E-02  0.1130116E+00
         25   -1    0    0    0    0  0.00000000000E+00  0.00000000000E+00  0.99999998245E-14  0.12500000000E+03  0.12500000000E+03 0.  0.
        -11    1    3    3    0    0 -0.20370065342E+02  0.31212742841E+02 -0.30609429819E+00  0.37272893256E+02  0.51100000000E-03 0.  1.
         23    2    1    0    0    0  0.29494210900E+02  0.70806213805E+01 -0.90294827822E+01  0.93352326546E+02  0.87824151783E+02 0.  0.
         11    1    3    3    0    0  0.49864276242E+02 -0.24132121460E+02 -0.87233884840E+01  0.56079433290E+02  0.51100000000E-03 0. -1.
         22    1    1    0    0    0 -0.29494210900E+02 -0.70806213805E+01  0.90294827822E+01  0.31647673454E+02  0.00000000000E+00 0. -1.
</event>
<event>
 5    1  0.8962567E-005  0.9118800E+02  0.7818608E-02  0.1130116E+00
         25   -1    0    0    0    0  0.00000000000E+00  0.00000000000E+00  0.99999998245E-14  0.12500000000E+03  0.12500000000E+03 0.  0.
        -11    1    3    3    0    0 -0.16327500368E+02 -0.17784380193E+02 -0.56276972873E+02  0.61236991460E+02  0.51100000000E-03 0.  1.
         23    2    1    0    0    0  0.24857274178E+01 -0.63624463586E+01 -0.21932346674E+02  0.10202855261E+03  0.99408944030E+02 0.  0.
         11    1    3    3    0    0  0.18813227786E+02  0.11421933834E+02  0.34344626199E+02  0.40791561152E+02  0.51100000000E-03 0. -1.
         22    1    1    0    0    0 -0.24857274178E+01  0.63624463586E+01  0.21932346674E+02  0.22971447388E+02  0.00000000000E+00 0.  1.
</event>
<event>
 5    1  0.8962567E-005  0.9118800E+02  0.7818608E-02  0.1130116E+00
         25   -1    0    0    0    0  0.00000000000E+00  0.00000000000E+00  0.99999998245E-14  0.12500000000E+03  0.12500000000E+03 0.  0.
        -11    1    3    3    0    0  0.10639720475E+02  0.33113863722E+02  0.35562290257E+02  0.49743422791E+02  0.51100000000E-03 0. -1.
         23    2    1    0    0    0 -0.19713670268E+02  0.20016753062E+02  0.20286076336E+01  0.96832386549E+02  0.92645003304E+02 0.  0.
         11    1    3    3    0    0 -0.30353390743E+02 -0.13097110660E+02 -0.33533682624E+02  0.47088963758E+02  0.51100000000E-03 0.  1.
         22    1    1    0    0    0  0.19713670268E+02 -0.20016753062E+02 -0.20286076336E+01  0.28167613451E+02  0.00000000000E+00 0. -1.
</event>
<event>
 5    1  0.8962567E-005  0.9118800E+02  0.7818608E-02  0.1130116E+00
         25   -1    0    0    0    0  0.00000000000E+00  0.00000000000E+00  0.99999998245E-14  0.12500000000E+03  0.12500000000E+03 0.  0.
        -11    1    3    3    0    0 -0.49248061499E+02 -0.16882278854E+02  0.89393122170E+01  0.52823235454E+02  0.51100000000E-03 0.  1.
         23    2    1    0    0    0 -0.19734983066E+02  0.15036132762E+02  0.13873303533E+02  0.96574247662E+02  0.92296055797E+02 0.  0.
         11    1    3    3    0    0  0.29513078433E+02  0.31918411616E+02  0.49339913159E+01  0.43751012208E+02  0.51100000000E-03 0. -1.
         22    1    1    0    0    0  0.19734983066E+02 -0.15036132762E+02 -0.13873303533E+02  0.28425752338E+02  0.00000000000E+00 0.  1.
</event>
<event>
 5    1  0.8962567E-005  0.9118800E+02  0.7818608E-02  0.1130116E+00
         25   -1    0    0    0    0  0.00000000000E+00  0.00000000000E+00  0.99999998245E-14  0.12500000000E+03  0.12500000000E+03 0.  0.
        -11    1    3    3    0    0  0.33397910431E+02 -0.15764123590E+02  0.44631374531E+02  0.57930023360E+02  0.51100000000E-03 0.  1.
         23    2    1    0    0    0  0.47386543814E+00 -0.12781121709E+02  0.26357222898E+02  0.95703501583E+02  0.91109140023E+02 0.  0.
         11    1    3    3    0    0 -0.32924044992E+02  0.29830018809E+01 -0.18274151633E+02  0.37773478223E+02  0.51100000000E-03 0. -1.
         22    1    1    0    0    0 -0.47386543814E+00  0.12781121709E+02 -0.26357222898E+02  0.29296498417E+02  0.00000000000E+00 0.  1.
</event>
<event>
 5    1  0.8962567E-005  0.9118800E+02  0.7818608E-02  0.1130116E+00
         25   -1    0    0    0    0  0.00000000000E+00  0.00000000000E+00  0.99999998245E-14  0.12500000000E+03  0.12500000000E+03 0.  0.
        -11    1    3    3    0    0 -0.95101584344E+01  0.36580152646E+02  0.46080113288E+02  0.59598049649E+02  0.51100000000E-03 0. -1.
         23    2    1    0    0    0 -0.16222765209E+02  0.17559509002E+02  0.14593174823E+02  0.96991515235E+02  0.92859457293E+02 0.  0.
         11    1    3    3    0    0 -0.67126067747E+01 -0.19020643645E+02 -0.31486938465E+02  0.37393465586E+02  0.51100000000E-03 0.  1.
         22    1    1    0    0    0  0.16222765209E+02 -0.17559509002E+02 -0.14593174823E+02  0.28008484765E+02  0.00000000000E+00 0. -1.
</event>
<event>
 5    1  0.8962567E-005  0.9118800E+02  0.7818608E-02  0.1130116E+00
         25   -1    0    0    0    0  0.00000000000E+00  0.00000000000E+00  0.99999998245E-14  0.12500000000E+03  0.12500000000E+03 0.  0.
        -11    1    3    3    0    0  0.90185193377E+01  0.23961978688E+02  0.47950914460E+02  0.54358074943E+02  0.51100000000E-03 0.  1.
         23    2    1    0    0    0 -0.10450531911E+02  0.28330681409E+02  0.19697739130E+02  0.88946677640E+02  0.81312172582E+02 0.  0.
         11    1    3    3    0    0 -0.19469051249E+02  0.43687027211E+01 -0.28253175330E+02  0.34588602696E+02  0.51100000000E-03 0. -1.
         22    1    1    0    0    0  0.10450531911E+02 -0.28330681409E+02 -0.19697739130E+02  0.36053322360E+02  0.00000000000E+00 0.  1.
</event>
<event>
 5    1  0.8962567E-005  0.9118800E+02  0.7818608E-02  0.1130116E+00
         25   -1    0    0    0    0  0.00000000000E+00  0.00000000000E+00  0.99999998245E-14  0.12500000000E+03  0.12500000000E+03 0.  0.
        -11    1    3    3    0    0 -0.23205387549E+02 -0.19232357372E+02  0.15760979795E+02  0.34011499022E+02  0.51100000000E-03 0. -1.
         23    2    1    0    0    0  0.12514874134E+02  0.26482987302E+02 -0.42939893813E+01  0.95395793612E+02  0.90685987909E+02 0.  0.
         11    1    3    3    0    0  0.35720261683E+02  0.45715344674E+02 -0.20054969176E+02  0.61384294590E+02  0.51100000000E-03 0.  1.
         22    1    1    0    0    0 -0.12514874134E+02 -0.26482987302E+02  0.42939893813E+01  0.29604206388E+02  0.00000000000E+00 0.  1.
</event>
<event>
 5    1  0.8962567E-005  0.9118800E+02  0.7818608E-02  0.1130116E+00
         25   -1    0    0    0    0  0.00000000000E+00  0.00000000000E+00  0.99999998245E-14  0.12500000000E+03  0.12500000000E+03 0.  0.
        -11    1    3    3    0    0 -0.33654535868E+02  0.34645994038E+02 -0.19557262985E+02  0.52110068347E+02  0.51100000000E-03 0. -1.
         23    2    1    0    0    0 -0.11358176496E+02  0.24544950483E+02  0.14703035394E+02  0.94216205280E+02  0.89045220647E+02 0.  0.
         11    1    3    3    0    0  0.22296359373E+02 -0.10101043555E+02  0.34260298379E+02  0.42106136933E+02  0.51100000000E-03 0.  1.
         22    1    1    0    0    0  0.11358176496E+02 -0.24544950483E+02 -0.14703035394E+02  0.30783794720E+02  0.00000000000E+00 0. -1.
</event>
<event>
 5    1  0.8962567E-005  0.9118800E+02  0.7818608E-02  0.1130116E+00
         25   -1    0    0    0    0  0.00000000000E+00  0.00000000000E+00  0.99999998245E-14  0.12500000000E+03  0.12500000000E+03 0.  0.
        -11    1    3    3    0    0 -0.50727127542E+02  0.11660365077E+02 -0.30806644672E+02  0.60483509642E+02  0.51100000000E-03 0.  1.
         23    2    1    0    0    0 -0.17204641470E+02  0.74790660288E+01 -0.23294005767E+02  0.95091024400E+02  0.90264921758E+02 0.  0.
         11    1    3    3    0    0  0.33522486071E+02 -0.41812990482E+01  0.75126389058E+01  0.34607514758E+02  0.51100000000E-03 0. -1.
         22    1    1    0    0    0  0.17204641470E+02 -0.74790660288E+01  0.23294005767E+02  0.29908975600E+02  0.00000000000E+00 0.  1.
</event>
<event>
 5    1  0.8962567E-005  0.9118800E+02  0.7818608E-02  0.1130116E+00
         25   -1    0    0    0    0  0.00000000000E+00  0.00000000000E+00  0.99999998245E-14  0.12500000000E+03  0.12500000000E+03 0.  0.
        -11    1    3    3    0    0 -0.28316808767E+02 -0.15481070887E+02 -0.46396809038E+02  0.56516980667E+02  0.51100000000E-03 0.  1.
         23    2    1    0    0    0  0.29690235866E+01 -0.18487954045E+02 -0.20440179619E+02  0.97279601578E+02  0.93246449768E+02 0.  0.
         11    1    3    3    0    0  0.31285832354E+02 -0.30068831586E+01  0.25956629419E+02  0.40762620910E+02  0.51100000000E-03 0. -1.
         22    1    1    0    0    0 -0.29690235866E+01  0.18487954045E+02  0.20440179619E+02  0.27720398422E+02  0.00000000000E+00 0.  1.
</event>
<event>
 5    1  0.8962567E-005  0.9118800E+02  0.7818608E-02  0.1130116E+00
         25   -1    0    0    0    0  0.00000000000E+00  0.00000000000E+00  0.99999998245E-14  0.12500000000E+03  0.12500000000E+03 0.  0.
        -11    1    3    3    0    0  0.40950269768E+02  0.36225338584E+02 -0.66699421657E+01  0.55078924085E+02  0.51100000000E-03 0.  1.
         23    2    1    0    0    0  0.22131473773E+01  0.24584233462E+02 -0.14634604172E+02  0.96304108386E+02  0.91929468054E+02 0.  0.
         11    1    3    3    0    0 -0.38737122391E+02 -0.11641105122E+02 -0.79646620065E+01  0.41225184302E+02  0.51100000000E-03 0. -1.
         22    1    1    0    0    0 -0.22131473773E+01 -0.24584233462E+02  0.14634604172E+02  0.28695891614E+02  0.00000000000E+00 0.  1.
</event>
<event>
 5    1  0.8962567E-005  0.9118800E+02  0.7818608E-02  0.1130116E+00
         25   -1    0    0    0    0  0.00000000000E+00  0.00000000000E+00  0.99999998245E-14  0.12500000000E+03  0.12500000000E+03 0.  0.
        -11    1    3    3    0    0 -0.82570137130E+01  0.36544439199E+02  0.15484553576E+02  0.40539434031E+02  0.51100000000E-03 0. -1.
         23    2    1    0    0    0 -0.22708309680E+02 -0.27299437281E+01 -0.19390360866E+02  0.95014903438E+02  0.90159446868E+02 0.  0.
         11    1    3    3    0    0 -0.14451295967E+02 -0.39274382927E+02 -0.34874914443E+02  0.54475469407E+02  0.51100000000E-03 0.  1.
         22    1    1    0    0    0  0.22708309680E+02  0.27299437281E+01  0.19390360866E+02  0.29985096562E+02  0.00000000000E+00 0.  1.
</event>
<event>
 5    1  0.8962567E-005  0.9118800E+02  0.7818608E-02  0.1130116E+00
         25   -1    0    0    0    0  0.00000000000E+00  0.00000000000E+00  0.99999998245E-14  0.12500000000E+03  0.12500000000E+03 0.  0.
        -11    1    3    3    0    0  0.18735693498E+02 -0.28485045122E+02  0.11760197166E+02  0.36065582542E+02  0.51100000000E-03 0.  1.
         23    2    1    0    0    0 -0.27287023073E+02  0.89420622364E+01  0.16802565817E+01  0.96236040478E+02  0.91836866886E+02 0.  0.
         11    1    3    3    0    0 -0.46022716571E+02  0.37427107358E+02 -0.10079940584E+02  0.60170457936E+02  0.51100000000E-03 0. -1.
         22    1    1    0    0    0  0.27287023073E+02 -0.89420622364E+01 -0.16802565817E+01  0.28763959522E+02  0.00000000000E+00 0. -1.
</event>
<event>
 5    1  0.8962567E-005  0.9118800E+02  0.7818608E-02  0.1130116E+00
         25   -1    0    0    0    0  0.00000000000E+00  0.00000000000E+00  0.99999998245E-14  0.12500000000E+03  0.12500000000E+03 0.  0.
        -11    1    3    3    0    0  0.20243206764E+02 -0.68808020881E+01  0.29434456644E+02  0.36380215717E+02  0.51100000000E-03 0.  1.
         23    2    1    0    0    0  0.59015993287E+01  0.33007062761E+02 -0.51366260517E+01  0.91078325602E+02  0.84525625704E+02 0.  0.
         11    1    3    3    0    0 -0.14341607435E+02  0.39887864849E+02 -0.34571082695E+02  0.54698109885E+02  0.51100000000E-03 0. -1.
         22    1    1    0    0    0 -0.59015993287E+01 -0.33007062761E+02  0.51366260517E+01  0.33921674398E+02  0.00000000000E+00 0. -1.
</event>
<event>
 5    1  0.8962567E-005  0.9118800E+02  0.7818608E-02  0.1130116E+00
         25   -1    0    0    0    0  0.00000000000E+00  0.00000000000E+00  0.99999998245E-14  0.12500000000E+03  0.12500000000E+03 0.  0.
        -11    1    3    3    0    0  0.29785817552E+02  0.36790387575E+02 -0.24980567740E+01  0.47402192281E+02  0.51100000000E-03 0. -1.
         23    2    1    0    0    0  0.16583614013E+02 -0.21872193259E+01  0.23555961364E+02  0.96109110469E+02  0.91663938478E+02 0.  0.
         11    1    3    3    0    0 -0.13202203539E+02 -0.38977606901E+02  0.26054018138E+02  0.48706918188E+02  0.51100000000E-03 0.  1.
         22    1    1    0    0    0 -0.16583614013E+02  0.21872193259E+01 -0.23555961364E+02  0.28890889531E+02  0.00000000000E+00 0. -1.
</event>
<event>
 5    1  0.8962567E-005  0.9118800E+02  0.7818608E-02  0.1130116E+00
         25   -1    0    0    0    0  0.00000000000E+00  0.00000000000E+00  0.99999998245E-14  0.12500000000E+03  0.12500000000E+03 0.  0.
        -11    1    3    3    0    0  0.31037844541E+01  0.44862905004E+02 -0.13454211135E+01  0.44990264297E+02  0.51100000000E-03 0. -1.
         23    2    1    0    0    0  0.28918550555E+02  0.53288162897E+01 -0.11741288671E+02  0.93337139913E+02  0.87802534008E+02 0.  0.
         11    1    3    3    0    0  0.25814766101E+02 -0.39534088714E+02 -0.10395867558E+02  0.48346875616E+02  0.51100000000E-03 0.  1.
         22    1    1    0    0    0 -0.28918550555E+02 -0.53288162897E+01  0.11741288671E+02  0.31662860087E+02  0.00000000000E+00 0.  1.
</event>
<event>
 5    1  0.8962567E-005  0.9118800E+02  0.7818608E-02  0.1130116E+00
         25   -1    0    0    0    0  0.00000000000E+00  0.00000000000E+00  0.99999998245E-14  0.12500000000E+03  0.12500000000E+03 0.  0.
        -11    1    3    3    0    0 -0.13845140966E+02 -0.45318465708E+02 -0.22112555099E+02  0.52291647094E+02  0.51100000000E-03 0.  1.
         23    2    1    0    0    0 -0.20790470225E+02 -0.12061814376E+02  0.99309933194E+01  0.98993161543E+02  0.95515916923E+02 0.  0.
         11    1    3    3    0    0 -0.69453292591E+01  0.33256651332E+02  0.32043548419E+02  0.46701514449E+02  0.51100000000E-03 0. -1.
         22    1    1    0    0    0  0.20790470225E+02  0.12061814376E+02 -0.99309933194E+01  0.26006838457E+02  0.00000000000E+00 0.  1.
</event>
<event>
 5    1  0.8962567E-005  0.9118800E+02  0.7818608E-02  0.1130116E+00
         25   -1    0    0    0    0  0.00000000000E+00  0.00000000000E+00  0.99999998245E-14  0.12500000000E+03  0.12500000000E+03 0.  0.
        -11    1    3    3    0    0 -0.18815187196E+01 -0.42507771208E+02 -0.23625724084E+02  0.48668527454E+02  0.51100000000E-03 0. -1.
         23    2    1    0    0    0  0.11568264413E+02 -0.21018781555E+02  0.16322809230E+02  0.95981936303E+02  0.91490349631E+02 0.  0.
         11    1    3    3    0    0  0.13449783133E+02  0.21488989654E+02  0.39948533314E+02  0.47313408849E+02  0.51100000000E-03 0.  1.
         22    1    1    0    0    0 -0.11568264413E+02  0.21018781555E+02 -0.16322809230E+02  0.29018063697E+02  0.00000000000E+00 0. -1.
</event>
<event>
 5    1  0.8962567E-005  0.9118800E+02  0.7818608E-02  0.1130116E+00
         25   -1    0    0    0    0  0.00000000000E+00  0.00000000000E+00  0.99999998245E-14  0.12500000000E+03  0.12500000000E+03 0.  0.
        -11    1    3    3    0    0 -0.40967023393E+01  0.14463923101E+02  0.50163210357E+02  0.52367315333E+02  0.51100000000E-03 0. -1.
         23    2    1    0    0    0 -0.65082594951E+01  0.25722228578E+02  0.62823235017E+01  0.97733572415E+02  0.93853039928E+02 0.  0.
         11    1    3    3    0    0 -0.24115571559E+01  0.11258305477E+02 -0.43880886856E+02  0.45366257082E+02  0.51100000000E-03 0.  1.
         22    1    1    0    0    0  0.65082594951E+01 -0.25722228578E+02 -0.62823235017E+01  0.27266427585E+02  0.00000000000E+00 0.  1.
</event>
<event>
 5    1  0.8962567E-005  0.9118800E+02  0.7818608E-02  0.1130116E+00
         25   -1    0    0    0    0  0.00000000000E+00  0.00000000000E+00  0.99999998245E-14  0.12500000000E+03  0.12500000000E+03 0.  0.
        -11    1    3    3    0    0 -0.38382114013E+02 -0.12349793156E+02 -0.19700838661E+02  0.44875685079E+02  0.51100000000E-03 0. -1.
         23    2    1    0    0    0 -0.91828180492E+01 -0.13932421805E+02  0.22972462137E+02  0.96606857494E+02  0.92340209950E+02 0.  0.
         11    1    3    3    0    0  0.29199295964E+02 -0.15826286495E+01  0.42673300798E+02  0.51731172416E+02  0.51100000000E-03 0.  1.
         22    1    1    0    0    0  0.91828180492E+01  0.13932421805E+02 -0.22972462137E+02  0.28393142506E+02  0.00000000000E+00 0. -1.
</event>
<event>
 5    1  0.8962567E-005  0.9118800E+02  0.7818608E-02  0.1130116E+00
         25   -1    0    0    0    0  0.00000000000E+00  0.00000000000E+00  0.99999998245E-14  0.12500000000E+03  0.12500000000E+03 0.  0.
        -11    1    3    3    0    0 -0.11257063936E+02  0.31707755324E+02 -0.31660100141E+02  0.46200272481E+02  0.51100000000E-03 0.  1.
         23    2    1    0    0    0 -0.12341046293E+02 -0.16593628496E+02 -0.20697407052E+02  0.95741965395E+02  0.91161896364E+02 0.  0.
         11    1    3    3    0    0 -0.10839823575E+01 -0.48301383820E+02  0.10962693089E+02  0.49541692914E+02  0.51100000000E-03 0. -1.
         22    1    1    0    0    0  0.12341046293E+02  0.16593628496E+02  0.20697407052E+02  0.29258034605E+02  0.00000000000E+00 0.  1.
</event>
<event>
 5    1  0.8962567E-005  0.9118800E+02  0.7818608E-02  0.1130116E+00
         25   -1    0    0    0    0  0.00000000000E+00  0.00000000000E+00  0.99999998245E-14  0.12500000000E+03  0.12500000000E+03 0.  0.
        -11    1    3    3    0    0  0.21535592603E+02  0.26304368159E+02 -0.91968069743E+01  0.35217648868E+02  0.51100000000E-03 0.  1.
         23    2    1    0    0    0 -0.16327912694E+02 -0.11792068988E+02 -0.26560545643E+02  0.91666590201E+02  0.85391144449E+02 0.  0.
         11    1    3    3    0    0 -0.37863505297E+02 -0.38096437147E+02 -0.17363738669E+02  0.56448941332E+02  0.51100000000E-03 0. -1.
         22    1    1    0    0    0  0.16327912694E+02  0.11792068988E+02  0.26560545643E+02  0.33333409799E+02  0.00000000000E+00 0. -1.
</event>
<event>
 5    1  0.8962567E-005  0.9118800E+02  0.7818608E-02  0.1130116E+00
         25   -1    0    0    0    0  0.00000000000E+00  0.00000000000E+00  0.99999998245E-14  0.12500000000E+03  0.12500000000E+03 0.  0.
        -11    1    3    3    0    0  0.10810933990E+02 -0.33778012329E+02  0.17290561649E+02  0.39456228064E+02  0.51100000000E-03 0.  1.
         23    2    1    0    0    0 -0.11293076985E+02 -0.58697702701E+01 -0.26326642449E+02  0.95758250848E+02  0.91184224031E+02 0.  0.
         11    1    3    3    0    0 -0.22104010975E+02  0.27908242059E+02 -0.43617204098E+02  0.56302022784E+02  0.51100000000E-03 0. -1.
         22    1    1    0    0    0  0.11293076985E+02  0.58697702701E+01  0.26326642449E+02  0.29241749152E+02  0.00000000000E+00 0. -1.
</event>
<event>
 5    1  0.8962567E-005  0.9118800E+02  0.7818608E-02  0.1130116E+00
         25   -1    0    0    0    0  0.00000000000E+00  0.00000000000E+00  0.99999998245E-14  0.12500000000E+03  0.12500000000E+03 0.  0.
        -11    1    3    3    0    0 -0.29972963663E+02  0.17906381854E+02  0.17091461507E+02  0.38873321424E+02  0.51100000000E-03 0.  1.
         23    2    1    0    0    0 -0.75457534482E+01 -0.23211012423E+02 -0.15638978136E+02  0.96012638445E+02  0.91532287261E+02 0.  0.
         11    1    3    3    0    0  0.22427210215E+02 -0.41117394276E+02 -0.32730439643E+02  0.57139317021E+02  0.51100000000E-03 0. -1.
         22    1    1    0    0    0  0.75457534482E+01  0.23211012423E+02  0.15638978136E+02  0.28987361555E+02  0.00000000000E+00 0. -1.
</event>
<event>
 5    1  0.8962567E-005  0.9118800E+02  0.7818608E-02  0.1130116E+00
         25   -1    0    0    0    0  0.00000000000E+00  0.00000000000E+00  0.99999998245E-14  0.12500000000E+03  0.12500000000E+03 0.  0.
        -11    1    3    3    0    0  0.22723598408E+02  0.48104165668E+02 -0.86591049610E+01  0.53901324457E+02  0.51100000000E-03 0.  1.
         23    2    1    0    0    0  0.28795161684E+01  0.22531527795E+02  0.18145031689E+02  0.95927615627E+02  0.91416103104E+02 0.  0.
         11    1    3    3    0    0 -0.19844082240E+02 -0.25572637872E+02  0.26804136650E+02  0.42026291170E+02  0.51100000000E-03 0. -1.
         22    1    1    0    0    0 -0.28795161684E+01 -0.22531527795E+02 -0.18145031689E+02  0.29072384373E+02  0.00000000000E+00 0.  1.
</event>
<event>
 5    1  0.8962567E-005  0.9118800E+02  0.7818608E-02  0.1130116E+00
         25   -1    0    0    0    0  0.00000000000E+00  0.00000000000E+00  0.99999998245E-14  0.12500000000E+03  0.12500000000E+03 0.  0.
        -11    1    3    3    0    0  0.13133010248E+02 -0.32233252768E+02  0.63848241255E+01  0.35386784561E+02  0.51100000000E-03 0. -1.
         23    2    1    0    0    0 -0.28645379790E+02  0.95151292931E-01 -0.15340388461E+02  0.92505471919E+02  0.86610438053E+02 0.  0.
         11    1    3    3    0    0 -0.41778390038E+02  0.32328404061E+02 -0.21725212587E+02  0.57118687358E+02  0.51100000000E-03 0.  1.
         22    1    1    0    0    0  0.28645379790E+02 -0.95151292931E-01  0.15340388461E+02  0.32494528081E+02  0.00000000000E+00 0.  1.
</event>
<event>
 5    1  0.8962567E-005  0.9118800E+02  0.7818608E-02  0.1130116E+00
         25   -1    0    0    0    0  0.00000000000E+00  0.00000000000E+00  0.99999998245E-14  0.12500000000E+03  0.12500000000E+03 0.  0.
        -11    1    3    3    0    0 -0.37111021188E+02 -0.56444706216E+00 -0.32869858901E+02  0.49577960008E+02  0.51100000000E-03 0.  1.
         23    2    1    0    0    0 -0.22682053580E+02  0.14179450622E+02  0.94274258697E+01  0.96637899706E+02  0.92382221918E+02 0.  0.
         11    1    3    3    0    0  0.14428967607E+02  0.14743897684E+02  0.42297284771E+02  0.47059939698E+02  0.51100000000E-03 0. -1.
         22    1    1    0    0    0  0.22682053580E+02 -0.14179450622E+02 -0.94274258697E+01  0.28362100294E+02  0.00000000000E+00 0. -1.
</event>
<event>
 5    1  0.8962567E-005  0.9118800E+02  0.7818608E-02  0.1130116E+00
         25   -1    0    0    0    0  0.00000000000E+00  0.00000000000E+00  0.99999998245E-14  0.12500000000E+03  0.12500000000E+03 0.  0.
        -11    1    3    3    0    0 -0.18390489837E+02  0.48750159911E+01  0.25758197548E+02  0.32022814344E+02  0.51100000000E-03 0. -1.
         23    2    1    0    0    0  0.21629465632E+02 -0.28694681177E+02  0.17930435548E+02  0.84841326836E+02  0.74735076831E+02 0.  0.
         11    1    3    3    0    0  0.40019955468E+02 -0.33569697168E+02 -0.78277619996E+01  0.52818512492E+02  0.51100000000E-03 0.  1.
         22    1    1    0    0    0 -0.21629465632E+02  0.28694681177E+02 -0.17930435548E+02  0.40158673164E+02  0.00000000000E+00 0.  1.
</event>
<event>
 5    1  0.8962567E-005  0.9118800E+02  0.7818608E-02  0.1130116E+00
         25   -1    0    0    0    0  0.00000000000E+00  0.00000000000E+00  0.99999998245E-14  0.12500000000E+03  0.12500000000E+03 0.  0.
        -11    1    3    3    0    0 -0.26017537580E+02 -0.26109946559E+02  0.11887885286E+02  0.38729360799E+02  0.51100000000E-03 0.  1.
         23    2    1    0    0    0  0.24126435496E+02  0.17624538024E+01  0.15593980210E+02  0.96218697876E+02  0.91813258678E+02 0.  0.
         11    1    3    3    0    0  0.50143973076E+02  0.27872400361E+02  0.37060949244E+01  0.57489337078E+02  0.51100000000E-03 0. -1.
         22    1    1    0    0    0 -0.24126435496E+02 -0.17624538024E+01 -0.15593980210E+02  0.28781302124E+02  0.00000000000E+00 0. -1.
</event>
<event>
 5    1  0.8962567E-005  0.9118800E+02  0.7818608E-02  0.1130116E+00
         25   -1    0    0    0    0  0.00000000000E+00  0.00000000000E+00  0.99999998245E-14  0.12500000000E+03  0.12500000000E+03 0.  0.
        -11    1    3    3    0    0  0.48805884803E+02 -0.62003470993E+01 -0.20512533641E+02  0.53303121223E+02  0.51100000000E-03 0.  1.
         23    2    1    0    0    0  0.24917601380E+02 -0.50796512489E+01  0.14517457741E+02  0.95717816089E+02  0.91128777135E+02 0.  0.
         11    1    3    3    0    0 -0.23888283423E+02  0.11206958503E+01  0.35029991381E+02  0.42414694865E+02  0.51100000000E-03 0. -1.
         22    1    1    0    0    0 -0.24917601380E+02  0.50796512489E+01 -0.14517457741E+02  0.29282183911E+02  0.00000000000E+00 0.  1.
</event>
<event>
 5    1  0.8962567E-005  0.9118800E+02  0.7818608E-02  0.1130116E+00
         25   -1    0    0    0    0  0.00000000000E+00  0.00000000000E+00  0.99999998245E-14  0.12500000000E+03  0.12500000000E+03 0.  0.
        -11    1    3    3    0    0 -0.29669776922E+02  0.91665924414E+00  0.15759714537E+02  0.33608102138E+02  0.51100000000E-03 0.  1.
         23    2    1    0    0    0  0.27188475428E+02 -0.98094558661E+01 -0.60974331407E+01  0.95459903328E+02  0.90774312622E+02 0.  0.
         11    1    3    3    0    0  0.56858252350E+02 -0.10726115110E+02 -0.21857147678E+02  0.61851801190E+02  0.51100000000E-03 0. -1.
         22    1    1    0    0    0 -0.27188475428E+02  0.98094558661E+01  0.60974331407E+01  0.29540096672E+02  0.00000000000E+00 0. -1.
</event>
<event>
 5    1  0.8962567E-005  0.9118800E+02  0.7818608E-02  0.1130116E+00
         25   -1    0    0    0    0  0.00000000000E+00  0.00000000000E+00  0.99999998245E-14  0.12500000000E+03  0.12500000000E+03 0.  0.
        -11    1    3    3    0    0 -0.32301235750E+02 -0.13873970220E+02  0.14454479656E+02  0.38010378360E+02  0.51100000000E-03 0. -1.
         23    2    1    0    0    0  0.17858415742E+02  0.15965567920E+02  0.15648915445E+02  0.96386874927E+02  0.92041940070E+02 0.  0.
         11    1    3    3    0    0  0.50159651493E+02  0.29839538141E+02  0.11944357884E+01  0.58376496567E+02  0.51100000000E-03 0.  1.
         22    1    1    0    0    0 -0.17858415742E+02 -0.15965567920E+02 -0.15648915445E+02  0.28613125073E+02  0.00000000000E+00 0.  1.
</event>
<event>
 5    1  0.8962567E-005  0.9118800E+02  0.7818608E-02  0.1130116E+00
         25   -1    0    0    0    0  0.00000000000E+00  0.00000000000E+00  0.99999998245E-14  0.12500000000E+03  0.12500000000E+03 0.  0.
        -11    1    3    3    0    0  0.54494426989E+00  0.21993938735E+02 -0.26160379606E+02  0.34181804615E+02  0.51100000000E-03 0. -1.
         23    2    1    0    0    0  0.14492344160E+02 -0.18715938676E+02  0.17559476408E+02  0.95527137711E+02  0.90866849993E+02 0.  0.
         11    1    3    3    0    0  0.13947399890E+02 -0.40709877411E+02  0.43719856014E+02  0.61345333096E+02  0.51100000000E-03 0.  1.
         22    1    1    0    0    0 -0.14492344160E+02  0.18715938676E+02 -0.17559476408E+02  0.29472862289E+02  0.00000000000E+00 0.  1.
</event>
<event>
 5    1  0.8962567E-005  0.9118800E+02  0.7818608E-02  0.1130116E+00
         25   -1    0    0    0    0  0.00000000000E+00  0.00000000000E+00  0.99999998245E-14  0.12500000000E+03  0.12500000000E+03 0.  0.
        -11    1    3    3    0    0  0.22846735141E+02 -0.22017952028E+02 -0.18456232553E+02  0.36706893609E+02  0.51100000000E-03 0. -1.
         23    2    1    0    0    0  0.42676120399E+01  0.29268431794E+02  0.28865496987E+01  0.95281558228E+02  0.90528390890E+02 0.  0.
         11    1    3    3    0    0 -0.18579123101E+02  0.51286383822E+02  0.21342782252E+02  0.58574664619E+02  0.51100000000E-03 0.  1.
         22    1    1    0    0    0 -0.42676120399E+01 -0.29268431794E+02 -0.28865496987E+01  0.29718441772E+02  0.00000000000E+00 0.  1.
</event>
<event>
 5    1  0.8962567E-005  0.9118800E+02  0.7818608E-02  0.1130116E+00
         25   -1    0    0    0    0  0.00000000000E+00  0.00000000000E+00  0.99999998245E-14  0.12500000000E+03  0.12500000000E+03 0.  0.
        -11    1    3    3    0    0  0.10392955733E+02  0.64995780586E+01 -0.47084755203E+02  0.48654210677E+02  0.51100000000E-03 0. -1.
         23    2    1    0    0    0  0.26849468168E+02 -0.11900405055E+02 -0.85599833430E+01  0.94409365875E+02  0.89315964243E+02 0.  0.
         11    1    3    3    0    0  0.16456512435E+02 -0.18399983113E+02  0.38524771860E+02  0.45755155198E+02  0.51100000000E-03 0.  1.
         22    1    1    0    0    0 -0.26849468168E+02  0.11900405055E+02  0.85599833430E+01  0.30590634125E+02  0.00000000000E+00 0. -1.
</event>
<event>
 5    1  0.8962567E-005  0.9118800E+02  0.7818608E-02  0.1130116E+00
         25   -1    0    0    0    0  0.00000000000E+00  0.00000000000E+00  0.99999998245E-14  0.12500000000E+03  0.12500000000E+03 0.  0.
        -11    1    3    3    0    0  0.34089915789E+02 -0.11059300713E+02 -0.28946700328E+02  0.46068882675E+02  0.51100000000E-03 0. -1.
         23    2    1    0    0    0  0.14386614112E+02 -0.16942758219E+02  0.17400032675E+02  0.96772480471E+02  0.92564140561E+02 0.  0.
         11    1    3    3    0    0 -0.19703301677E+02 -0.58834575060E+01  0.46346733003E+02  0.50703597797E+02  0.51100000000E-03 0.  1.
         22    1    1    0    0    0 -0.14386614112E+02  0.16942758219E+02 -0.17400032675E+02  0.28227519529E+02  0.00000000000E+00 0.  1.
</event>
<event>
 5    1  0.8962567E-005  0.9118800E+02  0.7818608E-02  0.1130116E+00
         25   -1    0    0    0    0  0.00000000000E+00  0.00000000000E+00  0.99999998245E-14  0.12500000000E+03  0.12500000000E+03 0.  0.
        -11    1    3    3    0    0  0.28002336283E+02  0.20225000629E+02  0.73364809881E+01  0.35312964210E+02  0.51100000000E-03 0.  1.
         23    2    1    0    0    0 -0.27134635820E+01 -0.29136239838E+02 -0.63877227491E+01  0.95048600059E+02  0.90206152865E+02 0.  0.
         11    1    3    3    0    0 -0.30715799865E+02 -0.49361240467E+02 -0.13724203737E+02  0.59735635849E+02  0.51100000000E-03 0. -1.
         22    1    1    0    0    0  0.27134635820E+01  0.29136239838E+02  0.63877227491E+01  0.29951399941E+02  0.00000000000E+00 0. -1.
</event>
<event>
 5    1  0.8962567E-005  0.9118800E+02  0.7818608E-02  0.1130116E+00
         25   -1    0    0    0    0  0.00000000000E+00  0.00000000000E+00  0.99999998245E-14  0.12500000000E+03  0.12500000000E+03 0.  0.
        -11    1    3    3    0    0  0.14327354332E+02  0.27057222951E+02 -0.26505973068E+02  0.40496086286E+02  0.51100000000E-03 0.  1.
         23    2    1    0    0    0 -0.20304742683E+02 -0.15373565502E+02 -0.82083008569E+01  0.98241724745E+02  0.94527409709E+02 0.  0.
         11    1    3    3    0    0 -0.34632097015E+02 -0.42430788453E+02  0.18297672211E+02  0.57745638459E+02  0.51100000000E-03 0. -1.
         22    1    1    0    0    0  0.20304742683E+02  0.15373565502E+02  0.82083008569E+01  0.26758275255E+02  0.00000000000E+00 0. -1.
</event>
<event>
 5    1  0.8962567E-005  0.9118800E+02  0.7818608E-02  0.1130116E+00
         25   -1    0    0    0    0  0.00000000000E+00  0.00000000000E+00  0.99999998245E-14  0.12500000000E+03  0.12500000000E+03 0.  0.
        -11    1    3    3    0    0 -0.12738081658E+02  0.56492646406E+02 -0.10451601343E+02  0.58846527452E+02  0.51100000000E-03 0. -1.
         23    2    1    0    0    0 -0.98886561827E+01  0.19693020926E+02 -0.18031498641E+02  0.96526581914E+02  0.92231477698E+02 0.  0.
         11    1    3    3    0    0  0.28494254749E+01 -0.36799625479E+02 -0.75798972974E+01  0.37680054462E+02  0.51100000000E-03 0.  1.
         22    1    1    0    0    0  0.98886561827E+01 -0.19693020926E+02  0.18031498641E+02  0.28473418086E+02  0.00000000000E+00 0. -1.
</event>
<event>
 5    1  0.8962567E-005  0.9118800E+02  0.7818608E-02  0.1130116E+00
         25   -1    0    0    0    0  0.00000000000E+00  0.00000000000E+00  0.99999998245E-14  0.12500000000E+03  0.12500000000E+03 0.  0.
        -11    1    3    3    0    0  0.11390264395E+02  0.40901270954E+02 -0.14624354450E+02  0.44905721595E+02  0.51100000000E-03 0.  1.
         23    2    1    0    0    0  0.12963045290E+02 -0.11565698001E+02 -0.20958997757E+02  0.97777114400E+02  0.93911014263E+02 0.  0.
         11    1    3    3    0    0  0.15727808944E+01 -0.52466968955E+02 -0.63346433065E+01  0.52871392805E+02  0.51100000000E-03 0. -1.
         22    1    1    0    0    0 -0.12963045290E+02  0.11565698001E+02  0.20958997757E+02  0.27222885600E+02  0.00000000000E+00 0.  1.
</event>
<event>
 5    1  0.8962567E-005  0.9118800E+02  0.7818608E-02  0.1130116E+00
         25   -1    0    0    0    0  0.00000000000E+00  0.00000000000E+00  0.99999998245E-14  0.12500000000E+03  0.12500000000E+03 0.  0.
        -11    1    3    3    0    0 -0.21465859486E+02  0.16180040763E+02 -0.24781170893E+02  0.36560679338E+02  0.51100000000E-03 0. -1.
         23    2    1    0    0    0  0.14132790498E+02 -0.25981358772E+02 -0.62408799643E+01  0.94772275084E+02  0.89822429109E+02 0.  0.
         11    1    3    3    0    0  0.35598649983E+02 -0.42161399535E+02  0.18540290928E+02  0.58211595746E+02  0.51100000000E-03 0.  1.
         22    1    1    0    0    0 -0.14132790498E+02  0.25981358772E+02  0.62408799643E+01  0.30227724916E+02  0.00000000000E+00 0.  1.
</event>
<event>
 5    1  0.8962567E-005  0.9118800E+02  0.7818608E-02  0.1130116E+00
         25   -1    0    0    0    0  0.00000000000E+00  0.00000000000E+00  0.99999998245E-14  0.12500000000E+03  0.12500000000E+03 0.  0.
        -11    1    3    3    0    0  0.23494729174E+02  0.40531331963E+02 -0.13004712028E+02  0.48620095689E+02  0.51100000000E-03 0.  1.
         23    2    1    0    0    0  0.24723378969E+02 -0.82644765371E+01 -0.82262358302E+01  0.97664711525E+02  0.93761281354E+02 0.  0.
         11    1    3    3    0    0  0.12286497954E+01 -0.48795808500E+02  0.47784761978E+01  0.49044615836E+02  0.51100000000E-03 0. -1.
         22    1    1    0    0    0 -0.24723378969E+02  0.82644765371E+01  0.82262358302E+01  0.27335288475E+02  0.00000000000E+00 0. -1.
</event>
<event>
 5    1  0.8962567E-005  0.9118800E+02  0.7818608E-02  0.1130116E+00
         25   -1    0    0    0    0  0.00000000000E+00  0.00000000000E+00  0.99999998245E-14  0.12500000000E+03  0.12500000000E+03 0.  0.
        -11    1    3    3    0    0 -0.56659249498E+02 -0.22632262927E+02  0.12912619690E+02  0.62363656295E+02  0.51100000000E-03 0.  1.
         23    2    1    0    0    0 -0.27778047142E+02 -0.11958968094E+02  0.92673359767E+01  0.93368997218E+02  0.87847875925E+02 0.  0.
         11    1    3    3    0    0  0.28881202357E+02  0.10673294833E+02 -0.36452837138E+01  0.31005340923E+02  0.51100000000E-03 0. -1.
         22    1    1    0    0    0  0.27778047142E+02  0.11958968094E+02 -0.92673359767E+01  0.31631002782E+02  0.00000000000E+00 0.  1.
</event>
<event>
 5    1  0.8962567E-005  0.9118800E+02  0.7818608E-02  0.1130116E+00
         25   -1    0    0    0    0  0.00000000000E+00  0.00000000000E+00  0.99999998245E-14  0.12500000000E+03  0.12500000000E+03 0.  0.
        -11    1    3    3    0    0 -0.98819082147E+01  0.38317561462E+02  0.12048467238E+02  0.41364878695E+02  0.51100000000E-03 0.  1.
         23    2    1    0    0    0 -0.96312607284E+01 -0.22453277646E+01 -0.26124837528E+02  0.97065973869E+02  0.92959633537E+02 0.  0.
         11    1    3    3    0    0  0.25064748630E+00 -0.40562889227E+02 -0.38173304766E+02  0.55701095175E+02  0.51100000000E-03 0. -1.
         22    1    1    0    0    0  0.96312607284E+01  0.22453277646E+01  0.26124837528E+02  0.27934026131E+02  0.00000000000E+00 0. -1.
</event>
<event>
 5    1  0.8962567E-005  0.9118800E+02  0.7818608E-02  0.1130116E+00
         25   -1    0    0    0    0  0.00000000000E+00  0.00000000000E+00  0.99999998245E-14  0.12500000000E+03  0.12500000000E+03 0.  0.
        -11    1    3    3    0    0  0.30559668482E+02 -0.34806201746E+01  0.17871961734E+02  0.35572673094E+02  0.51100000000E-03 0. -1.
         23    2    1    0    0    0 -0.12368885686E+02  0.78306482702E+01 -0.24187970929E+02  0.96726932902E+02  0.92502611993E+02 0.  0.
         11    1    3    3    0    0 -0.42928554168E+02  0.11311268445E+02 -0.42059932663E+02  0.61154259809E+02  0.51100000000E-03 0.  1.
         22    1    1    0    0    0  0.12368885686E+02 -0.78306482702E+01  0.24187970929E+02  0.28273067098E+02  0.00000000000E+00 0.  1.
</event>
<event>
 5    1  0.8962567E-005  0.9118800E+02  0.7818608E-02  0.1130116E+00
         25   -1    0    0    0    0  0.00000000000E+00  0.00000000000E+00  0.99999998245E-14  0.12500000000E+03  0.12500000000E+03 0.  0.
        -11    1    3    3    0    0  0.30500381066E+02 -0.38578947491E+02  0.24347297691E+02  0.54876218344E+02  0.51100000000E-03 0.  1.
         23    2    1    0    0    0 -0.72520755155E+00 -0.29446938799E+02 -0.54427324592E-01  0.95544082208E+02  0.90890156519E+02 0.  0.
         11    1    3    3    0    0 -0.31225588618E+02  0.91320086920E+01 -0.24401725015E+02  0.40667863864E+02  0.51100000000E-03 0. -1.
         22    1    1    0    0    0  0.72520755155E+00  0.29446938799E+02  0.54427324592E-01  0.29455917792E+02  0.00000000000E+00 0.  1.
</event>
<event>
 5    1  0.8962567E-005  0.9118800E+02  0.7818608E-02  0.1130116E+00
         25   -1    0    0    0    0  0.00000000000E+00  0.00000000000E+00  0.99999998245E-14  0.12500000000E+03  0.12500000000E+03 0.  0.
        -11    1    3    3    0    0 -0.16250846192E+02  0.27401329817E+02 -0.51095361664E+02  0.60213444193E+02  0.51100000000E-03 0.  1.
         23    2    1    0    0    0 -0.15575378163E+02  0.36817519690E+01 -0.22831591654E+02  0.97117581168E+02  0.93029002424E+02 0.  0.
         11    1    3    3    0    0  0.67546802855E+00 -0.23719577848E+02  0.28263770011E+02  0.36904136975E+02  0.51100000000E-03 0. -1.
         22    1    1    0    0    0  0.15575378163E+02 -0.36817519690E+01  0.22831591654E+02  0.27882418832E+02  0.00000000000E+00 0.  1.
</event>
<event>
 5    1  0.8962567E-005  0.9118800E+02  0.7818608E-02  0.1130116E+00
         25   -1    0    0    0    0  0.00000000000E+00  0.00000000000E+00  0.99999998245E-14  0.12500000000E+03  0.12500000000E+03 0.  0.
        -11    1    3    3    0    0  0.34414816618E+02 -0.28501699896E+02 -0.20224524218E+02  0.49048525767E+02  0.51100000000E-03 0.  1.
         23    2    1    0    0    0  0.50524996912E+01  0.61624534639E+01 -0.28659276976E+02  0.95253441500E+02  0.90489559480E+02 0.  0.
         11    1    3    3    0    0 -0.29362316927E+02  0.34664153360E+02 -0.84347527575E+01  0.46204915732E+02  0.51100000000E-03 0. -1.
         22    1    1    0    0    0 -0.50524996912E+01 -0.61624534639E+01  0.28659276976E+02  0.29746558500E+02  0.00000000000E+00 0.  1.
</event>
<event>
 5    1  0.8962567E-005  0.9118800E+02  0.7818608E-02  0.1130116E+00
         25   -1    0    0    0    0  0.00000000000E+00  0.00000000000E+00  0.99999998245E-14  0.12500000000E+03  0.12500000000E+03 0.  0.
        -11    1    3    3    0    0 -0.30318105476E+02 -0.24623101827E+02  0.46173297326E+01  0.39329434237E+02  0.51100000000E-03 0.  1.
         23    2    1    0    0    0  0.11297456820E+02 -0.39786207138E+00 -0.26176454670E+02  0.96486887158E+02  0.92177664266E+02 0.  0.
         11    1    3    3    0    0  0.41615562295E+02  0.24225239756E+02 -0.30793784403E+02  0.57157452922E+02  0.51100000000E-03 0. -1.
         22    1    1    0    0    0 -0.11297456820E+02  0.39786207138E+00  0.26176454670E+02  0.28513112842E+02  0.00000000000E+00 0. -1.
</event>
<event>
 5    1  0.8962567E-005  0.9118800E+02  0.7818608E-02  0.1130116E+00
         25   -1    0    0    0    0  0.00000000000E+00  0.00000000000E+00  0.99999998245E-14  0.12500000000E+03  0.12500000000E+03 0.  0.
        -11    1    3    3    0    0 -0.60660154799E+02  0.66980382195E+01 -0.31684052757E+01  0.61111021007E+02  0.51100000000E-03 0. -1.
         23    2    1    0    0    0 -0.28880641583E+02  0.51602763065E+00 -0.10427774488E+02  0.94290128240E+02  0.89148931906E+02 0.  0.
         11    1    3    3    0    0  0.31779513216E+02 -0.61820105888E+01 -0.72593692127E+01  0.33179107233E+02  0.51100000000E-03 0.  1.
         22    1    1    0    0    0  0.28880641583E+02 -0.51602763065E+00  0.10427774488E+02  0.30709871760E+02  0.00000000000E+00 0. -1.
</event>
<event>
 5    1  0.8962567E-005  0.9118800E+02  0.7818608E-02  0.1130116E+00
         25   -1    0    0    0    0  0.00000000000E+00  0.00000000000E+00  0.99999998245E-14  0.12500000000E+03  0.12500000000E+03 0.  0.
        -11    1    3    3    0    0 -0.24563333430E+01  0.38474383644E+02  0.58425683076E+00  0.38557141059E+02  0.51100000000E-03 0.  1.
         23    2    1    0    0    0 -0.25105843520E+02 -0.13612272879E+02  0.66473953539E+01  0.95677905655E+02  0.91074016128E+02 0.  0.
         11    1    3    3    0    0 -0.22649510177E+02 -0.52086656523E+02  0.60631385231E+01  0.57120764596E+02  0.51100000000E-03 0. -1.
         22    1    1    0    0    0  0.25105843520E+02  0.13612272879E+02 -0.66473953539E+01  0.29322094345E+02  0.00000000000E+00 0. -1.
</event>
<event>
 5    1  0.8962567E-005  0.9118800E+02  0.7818608E-02  0.1130116E+00
         25   -1    0    0    0    0  0.00000000000E+00  0.00000000000E+00  0.99999998245E-14  0.12500000000E+03  0.12500000000E+03 0.  0.
        -11    1    3    3    0    0 -0.31221825365E+02  0.37124758573E+02  0.62691987037E+01  0.48911685013E+02  0.51100000000E-03 0.  1.
         23    2    1    0    0    0 -0.18911617885E+02 -0.86029102159E+01  0.17789051934E+02  0.97648405459E+02  0.93739540028E+02 0.  0.
         11    1    3    3    0    0  0.12310207479E+02 -0.45727668789E+02  0.11519853231E+02  0.48736720445E+02  0.51100000000E-03 0. -1.
         22    1    1    0    0    0  0.18911617885E+02  0.86029102159E+01 -0.17789051934E+02  0.27351594541E+02  0.00000000000E+00 0. -1.
</event>
<event>
 5    1  0.8962567E-005  0.9118800E+02  0.7818608E-02  0.1130116E+00
         25   -1    0    0    0    0  0.00000000000E+00  0.00000000000E+00  0.99999998245E-14  0.12500000000E+03  0.12500000000E+03 0.  0.
        -11    1    3    3    0    0  0.67870969609E+01  0.17855423406E+02  0.41478518004E+02  0.45665613828E+02  0.51100000000E-03 0. -1.
         23    2    1    0    0    0 -0.24151147940E+02  0.19899226467E+02  0.53869524449E+01  0.93246631400E+02  0.87673586958E+02 0.  0.
         11    1    3    3    0    0 -0.30938244901E+02  0.20438030605E+01 -0.36091565559E+02  0.47581017573E+02  0.51100000000E-03 0.  1.
         22    1    1    0    0    0  0.24151147940E+02 -0.19899226467E+02 -0.53869524449E+01  0.31753368600E+02  0.00000000000E+00 0. -1.
</event>
<event>
 5    1  0.8962567E-005  0.9118800E+02  0.7818608E-02  0.1130116E+00
         25   -1    0    0    0    0  0.00000000000E+00  0.00000000000E+00  0.99999998245E-14  0.12500000000E+03  0.12500000000E+03 0.  0.
        -11    1    3    3    0    0 -0.49099280219E+01 -0.26058675924E+02  0.32874530452E+02  0.42236201732E+02  0.51100000000E-03 0.  1.
         23    2    1    0    0    0  0.11059845079E+02  0.22303041899E+02  0.13083707670E+02  0.96876535464E+02  0.92704551485E+02 0.  0.
         11    1    3    3    0    0  0.15969773101E+02  0.48361717823E+02 -0.19790822782E+02  0.54640333732E+02  0.51100000000E-03 0. -1.
         22    1    1    0    0    0 -0.11059845079E+02 -0.22303041899E+02 -0.13083707670E+02  0.28123464536E+02  0.00000000000E+00 0. -1.
</event>
<event>
 5    1  0.8962567E-005  0.9118800E+02  0.7818608E-02  0.1130116E+00
         25   -1    0    0    0    0  0.00000000000E+00  0.00000000000E+00  0.99999998245E-14  0.12500000000E+03  0.12500000000E+03 0.  0.
        -11    1    3    3    0    0 -0.14479744951E+02 -0.35779846862E+02 -0.10319232093E+02  0.39954311489E+02  0.51100000000E-03 0. -1.
         23    2    1    0    0    0 -0.10421089953E+02  0.71504552970E+01  0.25843030967E+02  0.96232129444E+02  0.91831543387E+02 0.  0.
         11    1    3    3    0    0  0.40586549979E+01  0.42930302159E+02  0.36162263060E+02  0.56277817955E+02  0.51100000000E-03 0.  1.
         22    1    1    0    0    0  0.10421089953E+02 -0.71504552970E+01 -0.25843030967E+02  0.28767870556E+02  0.00000000000E+00 0.  1.
</event>
<event>
 5    1  0.8962567E-005  0.9118800E+02  0.7818608E-02  0.1130116E+00
         25   -1    0    0    0    0  0.00000000000E+00  0.00000000000E+00  0.99999998245E-14  0.12500000000E+03  0.12500000000E+03 0.  0.
        -11    1    3    3    0    0  0.45810709344E+01  0.38083949436E+02  0.99227160946E+01  0.39621127073E+02  0.51100000000E-03 0. -1.
         23    2    1    0    0    0 -0.29977613300E+02 -0.41114460529E+01  0.37132817316E+01  0.94514761785E+02  0.89463346943E+02 0.  0.
         11    1    3    3    0    0 -0.34558684235E+02 -0.42195395489E+02 -0.62094343630E+01  0.54893634712E+02  0.51100000000E-03 0.  1.
         22    1    1    0    0    0  0.29977613300E+02  0.41114460529E+01 -0.37132817316E+01  0.30485238215E+02  0.00000000000E+00 0.  1.
</event>
<event>
 5    1  0.8962567E-005  0.9118800E+02  0.7818608E-02  0.1130116E+00
         25   -1    0    0    0    0  0.00000000000E+00  0.00000000000E+00  0.99999998245E-14  0.12500000000E+03  0.12500000000E+03 0.  0.
        -11    1    3    3    0    0  0.18126672367E+02 -0.30299718227E+02  0.63918452309E+01  0.35881817979E+02  0.51100000000E-03 0. -1.
         23    2    1    0    0    0  0.31084338524E+00  0.25928533557E+02  0.14292040623E+02  0.95391759573E+02  0.90680427288E+02 0.  0.
         11    1    3    3    0    0 -0.17815828981E+02  0.56228251784E+02  0.79001953921E+01  0.59509941594E+02  0.51100000000E-03 0.  1.
         22    1    1    0    0    0 -0.31084338524E+00 -0.25928533557E+02 -0.14292040623E+02  0.29608240427E+02  0.00000000000E+00 0.  1.
</event>
<event>
 5    1  0.8962567E-005  0.9118800E+02  0.7818608E-02  0.1130116E+00
         25   -1    0    0    0    0  0.00000000000E+00  0.00000000000E+00  0.99999998245E-14  0.12500000000E+03  0.12500000000E+03 0.  0.
        -11    1    3    3    0    0 -0.45641518564E+02  0.97109081120E+01  0.95161736617E+01  0.47623602495E+02  0.51100000000E-03 0.  1.
         23    2    1    0    0    0 -0.46257627716E+01  0.84168290553E+01 -0.23061237577E+02  0.10001877963E+03  0.96848825020E+02 0.  0.
         11    1    3    3    0    0  0.41015755792E+02 -0.12940790567E+01 -0.32577411239E+02  0.52395177136E+02  0.51100000000E-03 0. -1.
         22    1    1    0    0    0  0.46257627716E+01 -0.84168290553E+01  0.23061237577E+02  0.24981220369E+02  0.00000000000E+00 0.  1.
</event>
<event>
 5    1  0.8962567E-005  0.9118800E+02  0.7818608E-02  0.1130116E+00
         25   -1    0    0    0    0  0.00000000000E+00  0.00000000000E+00  0.99999998245E-14  0.12500000000E+03  0.12500000000E+03 0.  0.
        -11    1    3    3    0    0 -0.57227996297E+02 -0.68146700666E+01 -0.12416520606E+02  0.58954671337E+02  0.51100000000E-03 0.  1.
         23    2    1    0    0    0 -0.23569949657E+02 -0.17503528852E+02 -0.30938111337E+01  0.95479029209E+02  0.90800645936E+02 0.  0.
         11    1    3    3    0    0  0.33658046640E+02 -0.10688858786E+02  0.93227094727E+01  0.36524357872E+02  0.51100000000E-03 0. -1.
         22    1    1    0    0    0  0.23569949657E+02  0.17503528852E+02  0.30938111337E+01  0.29520970791E+02  0.00000000000E+00 0.  1.
</event>
<event>
 5    1  0.8962567E-005  0.9118800E+02  0.7818608E-02  0.1130116E+00
         25   -1    0    0    0    0  0.00000000000E+00  0.00000000000E+00  0.99999998245E-14  0.12500000000E+03  0.12500000000E+03 0.  0.
        -11    1    3    3    0    0 -0.57404452327E+01 -0.46263818744E+02 -0.22570745671E+02  0.51795098191E+02  0.51100000000E-03 0. -1.
         23    2    1    0    0    0  0.23088624603E+02 -0.18299375846E+02 -0.88329431474E+01  0.94243331990E+02  0.89083292472E+02 0.  0.
         11    1    3    3    0    0  0.28829069836E+02  0.27964442899E+02  0.13737802523E+02  0.42448233799E+02  0.51100000000E-03 0.  1.
         22    1    1    0    0    0 -0.23088624603E+02  0.18299375846E+02  0.88329431474E+01  0.30756668010E+02  0.00000000000E+00 0. -1.
</event>
<event>
 5    1  0.8962567E-005  0.9118800E+02  0.7818608E-02  0.1130116E+00
         25   -1    0    0    0    0  0.00000000000E+00  0.00000000000E+00  0.99999998245E-14  0.12500000000E+03  0.12500000000E+03 0.  0.
        -11    1    3    3    0    0  0.44853652510E+02  0.36613991540E+02 -0.18779291042E+02  0.60869502152E+02  0.51100000000E-03 0.  1.
         23    2    1    0    0    0  0.27627830834E+02  0.95412626879E+01 -0.92110790979E+01  0.94354009913E+02  0.89238458516E+02 0.  0.
         11    1    3    3    0    0 -0.17225821676E+02 -0.27072728852E+02  0.95682119442E+01  0.33484507761E+02  0.51100000000E-03 0. -1.
         22    1    1    0    0    0 -0.27627830834E+02 -0.95412626879E+01  0.92110790979E+01  0.30645990087E+02  0.00000000000E+00 0.  1.
</event>
<event>
 5    1  0.8962567E-005  0.9118800E+02  0.7818608E-02  0.1130116E+00
         25   -1    0    0    0    0  0.00000000000E+00  0.00000000000E+00  0.99999998245E-14  0.12500000000E+03  0.12500000000E+03 0.  0.
        -11    1    3    3    0    0 -0.27791222891E+02  0.26654932705E+02  0.39716140463E+02  0.55319158714E+02  0.51100000000E-03 0. -1.
         23    2    1    0    0    0 -0.18272347894E+02  0.23098202130E+02  0.80290208400E+00  0.95537306794E+02  0.90880837906E+02 0.  0.
         11    1    3    3    0    0  0.95188749968E+01 -0.35567305752E+01 -0.38913238379E+02  0.40218148080E+02  0.51100000000E-03 0.  1.
         22    1    1    0    0    0  0.18272347894E+02 -0.23098202130E+02 -0.80290208400E+00  0.29462693206E+02  0.00000000000E+00 0. -1.
</event>
<event>
 5    1  0.8962567E-005  0.9118800E+02  0.7818608E-02  0.1130116E+00
         25   -1    0    0    0    0  0.00000000000E+00  0.00000000000E+00  0.99999998245E-14  0.12500000000E+03  0.12500000000E+03 0.  0.
        -11    1    3    3    0    0 -0.43731009009E+02  0.30207904871E+02  0.93916343921E+01  0.53973340294E+02  0.51100000000E-03 0. -1.
         23    2    1    0    0    0 -0.76484074524E+01  0.12812888368E+02  0.24107728228E+02  0.96647737212E+02  0.92395531834E+02 0.  0.
         11    1    3    3    0    0  0.36082601557E+02 -0.17395016503E+02  0.14716093836E+02  0.42674396918E+02  0.51100000000E-03 0.  1.
         22    1    1    0    0    0  0.76484074524E+01 -0.12812888368E+02 -0.24107728228E+02  0.28352262788E+02  0.00000000000E+00 0. -1.
</event>
<event>
 5    1  0.8962567E-005  0.9118800E+02  0.7818608E-02  0.1130116E+00
         25   -1    0    0    0    0  0.00000000000E+00  0.00000000000E+00  0.99999998245E-14  0.12500000000E+03  0.12500000000E+03 0.  0.
        -11    1    3    3    0    0  0.19390583121E+01 -0.12655564130E+02 -0.22772421980E+02  0.26124824472E+02  0.51100000000E-03 0. -1.
         23    2    1    0    0    0  0.32043642350E+02  0.28934052651E+02 -0.12140491277E+01  0.81809163783E+02  0.69478708578E+02 0.  0.
         11    1    3    3    0    0  0.30104584038E+02  0.41589616781E+02  0.21558372853E+02  0.55684339310E+02  0.51100000000E-03 0.  1.
         22    1    1    0    0    0 -0.32043642350E+02 -0.28934052651E+02  0.12140491277E+01  0.43190836217E+02  0.00000000000E+00 0.  1.
</event>
<event>
 5    1  0.8962567E-005  0.9118800E+02  0.7818608E-02  0.1130116E+00
         25   -1    0    0    0    0  0.00000000000E+00  0.00000000000E+00  0.99999998245E-14  0.12500000000E+03  0.12500000000E+03 0.  0.
        -11    1    3    3    0    0  0.38987685285E+01 -0.69607116340E+01  0.34422070643E+02  0.35334556034E+02  0.51100000000E-03 0. -1.
         23    2    1    0    0    0  0.16515494084E+02  0.30063455004E+00 -0.24179380393E+02  0.95716995335E+02  0.91127651313E+02 0.  0.
         11    1    3    3    0    0  0.12616725556E+02  0.72613461841E+01 -0.58601451036E+02  0.60382439301E+02  0.51100000000E-03 0.  1.
         22    1    1    0    0    0 -0.16515494084E+02 -0.30063455004E+00  0.24179380393E+02  0.29283004665E+02  0.00000000000E+00 0.  1.
</event>
<event>
 5    1  0.8962567E-005  0.9118800E+02  0.7818608E-02  0.1130116E+00
         25   -1    0    0    0    0  0.00000000000E+00  0.00000000000E+00  0.99999998245E-14  0.12500000000E+03  0.12500000000E+03 0.  0.
        -11    1    3    3    0    0 -0.63767445880E+01 -0.51702182925E+02  0.15948251006E+02  0.54480503863E+02  0.51100000000E-03 0.  1.
         23    2    1    0    0    0 -0.18692010503E+01 -0.26576098307E+02 -0.14863093311E+02  0.94492714697E+02  0.89432537000E+02 0.  0.
         11    1    3    3    0    0  0.45075435378E+01  0.25126084618E+02 -0.30811344316E+02  0.40012210834E+02  0.51100000000E-03 0. -1.
         22    1    1    0    0    0  0.18692010503E+01  0.26576098307E+02  0.14863093311E+02  0.30507285303E+02  0.00000000000E+00 0.  1.
</event>
<event>
 5    1  0.8962567E-005  0.9118800E+02  0.7818608E-02  0.1130116E+00
         25   -1    0    0    0    0  0.00000000000E+00  0.00000000000E+00  0.99999998245E-14  0.12500000000E+03  0.12500000000E+03 0.  0.
        -11    1    3    3    0    0  0.27447466474E+02 -0.84227437971E+01 -0.34561983944E+02  0.44931467407E+02  0.51100000000E-03 0.  1.
         23    2    1    0    0    0  0.12528805557E+02  0.28747722125E+02 -0.92776888964E+01  0.92297125396E+02  0.86309219375E+02 0.  0.
         11    1    3    3    0    0 -0.14918660917E+02  0.37170465923E+02  0.25284295048E+02  0.47365657989E+02  0.51100000000E-03 0. -1.
         22    1    1    0    0    0 -0.12528805557E+02 -0.28747722125E+02  0.92776888964E+01  0.32702874604E+02  0.00000000000E+00 0. -1.
</event>
<event>
 5    1  0.8962567E-005  0.9118800E+02  0.7818608E-02  0.1130116E+00
         25   -1    0    0    0    0  0.00000000000E+00  0.00000000000E+00  0.99999998245E-14  0.12500000000E+03  0.12500000000E+03 0.  0.
        -11    1    3    3    0    0  0.44216131146E+02  0.25400392312E+02  0.15703051098E+02  0.53355711945E+02  0.51100000000E-03 0.  1.
         23    2    1    0    0    0  0.13916715032E+02 -0.37951413494E+00  0.26923184826E+02  0.94690317234E+02  0.89708301223E+02 0.  0.
         11    1    3    3    0    0 -0.30299416114E+02 -0.25779906446E+02  0.11220133727E+02  0.41334605289E+02  0.51100000000E-03 0. -1.
         22    1    1    0    0    0 -0.13916715032E+02  0.37951413494E+00 -0.26923184826E+02  0.30309682766E+02  0.00000000000E+00 0.  1.
</event>
<event>
 5    1  0.8962567E-005  0.9118800E+02  0.7818608E-02  0.1130116E+00
         25   -1    0    0    0    0  0.00000000000E+00  0.00000000000E+00  0.99999998245E-14  0.12500000000E+03  0.12500000000E+03 0.  0.
        -11    1    3    3    0    0  0.25535033884E+02  0.33377235911E+02  0.10770306411E+01  0.42038527897E+02  0.51100000000E-03 0.  1.
         23    2    1    0    0    0  0.18098375617E+02 -0.18484411202E+02 -0.12656156128E+02  0.96200643316E+02  0.91788674840E+02 0.  0.
         11    1    3    3    0    0 -0.74366582669E+01 -0.51861647113E+02 -0.13733186769E+02  0.54162115418E+02  0.51100000000E-03 0. -1.
         22    1    1    0    0    0 -0.18098375617E+02  0.18484411202E+02  0.12656156128E+02  0.28799356684E+02  0.00000000000E+00 0. -1.
</event>
<event>
 5    1  0.8962567E-005  0.9118800E+02  0.7818608E-02  0.1130116E+00
         25   -1    0    0    0    0  0.00000000000E+00  0.00000000000E+00  0.99999998245E-14  0.12500000000E+03  0.12500000000E+03 0.  0.
        -11    1    3    3    0    0 -0.15847267787E+02  0.57545017045E+02  0.22011433826E+01  0.59727798515E+02  0.51100000000E-03 0.  1.
         23    2    1    0    0    0  0.27113303590E+01  0.19781063730E+02 -0.87401056197E+01  0.10320478858E+03  0.10087713886E+03 0.  0.
         11    1    3    3    0    0  0.18558598146E+02 -0.37763953315E+02 -0.10941249002E+02  0.43476990065E+02  0.51100000000E-03 0. -1.
         22    1    1    0    0    0 -0.27113303590E+01 -0.19781063730E+02  0.87401056197E+01  0.21795211420E+02  0.00000000000E+00 0.  1.
</event>
<event>
 5    1  0.8962567E-005  0.9118800E+02  0.7818608E-02  0.1130116E+00
         25   -1    0    0    0    0  0.00000000000E+00  0.00000000000E+00  0.99999998245E-14  0.12500000000E+03  0.12500000000E+03 0.  0.
        -11    1    3    3    0    0 -0.18995435572E+02 -0.32436515067E+02 -0.47702404454E+02  0.60732803930E+02  0.51100000000E-03 0. -1.
         23    2    1    0    0    0  0.53905176757E-01 -0.20598526691E+02 -0.21451412007E+02  0.95260038926E+02  0.90498672540E+02 0.  0.
         11    1    3    3    0    0  0.19049340749E+02  0.11837988376E+02  0.26250992447E+02  0.34527234996E+02  0.51100000000E-03 0.  1.
         22    1    1    0    0    0 -0.53905176757E-01  0.20598526691E+02  0.21451412007E+02  0.29739961074E+02  0.00000000000E+00 0. -1.
</event>
<event>
 5    1  0.8962567E-005  0.9118800E+02  0.7818608E-02  0.1130116E+00
         25   -1    0    0    0    0  0.00000000000E+00  0.00000000000E+00  0.99999998245E-14  0.12500000000E+03  0.12500000000E+03 0.  0.
        -11    1    3    3    0    0 -0.19905854565E+02 -0.20097375378E+02 -0.47212176455E+02  0.55037597594E+02  0.51100000000E-03 0.  1.
         23    2    1    0    0    0  0.11709521037E+02 -0.15726353028E+02 -0.20184800130E+02  0.96860042311E+02  0.92682309950E+02 0.  0.
         11    1    3    3    0    0  0.31615375602E+02  0.43710223500E+01  0.27027376325E+02  0.41822444717E+02  0.51100000000E-03 0. -1.
         22    1    1    0    0    0 -0.11709521037E+02  0.15726353028E+02  0.20184800130E+02  0.28139957689E+02  0.00000000000E+00 0.  1.
</event>
<event>
 5    1  0.8962567E-005  0.9118800E+02  0.7818608E-02  0.1130116E+00
         25   -1    0    0    0    0  0.00000000000E+00  0.00000000000E+00  0.99999998245E-14  0.12500000000E+03  0.12500000000E+03 0.  0.
        -11    1    3    3    0    0  0.10597810385E+02 -0.52792886396E+02  0.17682073845E+02  0.56675022494E+02  0.51100000000E-03 0.  1.
         23    2    1    0    0    0 -0.13003817850E+02 -0.28783240202E+02  0.34476110858E+01  0.93227996327E+02  0.87647014106E+02 0.  0.
         11    1    3    3    0    0 -0.23601628235E+02  0.24009646194E+02 -0.14234462759E+02  0.36552973833E+02  0.51100000000E-03 0. -1.
         22    1    1    0    0    0  0.13003817850E+02  0.28783240202E+02 -0.34476110858E+01  0.31772003673E+02  0.00000000000E+00 0.  1.
</event>
<event>
 5    1  0.8962567E-005  0.9118800E+02  0.7818608E-02  0.1130116E+00
         25   -1    0    0    0    0  0.00000000000E+00  0.00000000000E+00  0.99999998245E-14  0.12500000000E+03  0.12500000000E+03 0.  0.
        -11    1    3    3    0    0  0.79860456616E+01  0.36528170164E+02  0.29218808916E+02  0.47453376440E+02  0.51100000000E-03 0.  1.
         23    2    1    0    0    0 -0.23067599411E+02  0.17887536722E+02 -0.26404526849E+01  0.95690443488E+02  0.91091222805E+02 0.  0.
         11    1    3    3    0    0 -0.31053645072E+02 -0.18640633442E+02 -0.31859261601E+02  0.48237067048E+02  0.51100000000E-03 0. -1.
         22    1    1    0    0    0  0.23067599411E+02 -0.17887536722E+02  0.26404526849E+01  0.29309556512E+02  0.00000000000E+00 0. -1.
</event>
<event>
 5    1  0.8962567E-005  0.9118800E+02  0.7818608E-02  0.1130116E+00
         25   -1    0    0    0    0  0.00000000000E+00  0.00000000000E+00  0.99999998245E-14  0.12500000000E+03  0.12500000000E+03 0.  0.
        -11    1    3    3    0    0 -0.63239359474E+01  0.28942207048E+02  0.21801816413E+02  0.36782641474E+02  0.51100000000E-03 0. -1.
         23    2    1    0    0    0  0.99750887876E+01 -0.26010471652E+02  0.10648403516E+02  0.95176594270E+02  0.90383342312E+02 0.  0.
         11    1    3    3    0    0  0.16299024735E+02 -0.54952678700E+02 -0.11153412897E+02  0.58393952796E+02  0.51100000000E-03 0.  1.
         22    1    1    0    0    0 -0.99750887876E+01  0.26010471652E+02 -0.10648403516E+02  0.29823405730E+02  0.00000000000E+00 0.  1.
</event>
<event>
 5    1  0.8962567E-005  0.9118800E+02  0.7818608E-02  0.1130116E+00
         25   -1    0    0    0    0  0.00000000000E+00  0.00000000000E+00  0.99999998245E-14  0.12500000000E+03  0.12500000000E+03 0.  0.
        -11    1    3    3    0    0 -0.72291038781E+00 -0.48234806260E+02  0.19096516433E+02  0.51882521860E+02  0.51100000000E-03 0.  1.
         23    2    1    0    0    0 -0.67966732974E+01 -0.59723321633E+01  0.28066398677E+02  0.95511252077E+02  0.90844994465E+02 0.  0.
         11    1    3    3    0    0 -0.60737629096E+01  0.42262474097E+02  0.89698822439E+01  0.43628730218E+02  0.51100000000E-03 0. -1.
         22    1    1    0    0    0  0.67966732974E+01  0.59723321633E+01 -0.28066398677E+02  0.29488747923E+02  0.00000000000E+00 0.  1.
</event>
<event>
 5    1  0.8962567E-005  0.9118800E+02  0.7818608E-02  0.1130116E+00
         25   -1    0    0    0    0  0.00000000000E+00  0.00000000000E+00  0.99999998245E-14  0.12500000000E+03  0.12500000000E+03 0.  0.
        -11    1    3    3    0    0 -0.41452231967E+01  0.22247106376E+02 -0.33086085634E+02  0.40084980732E+02  0.51100000000E-03 0.  1.
         23    2    1    0    0    0 -0.12908276028E+02  0.19775868715E+02  0.20065504164E+02  0.94010759435E+02  0.88756351090E+02 0.  0.
         11    1    3    3    0    0 -0.87630528318E+01 -0.24712376616E+01  0.53151589797E+02  0.53925778703E+02  0.51100000000E-03 0. -1.
         22    1    1    0    0    0  0.12908276028E+02 -0.19775868715E+02 -0.20065504164E+02  0.30989240565E+02  0.00000000000E+00 0. -1.
</event>
<event>
 5    1  0.8962567E-005  0.9118800E+02  0.7818608E-02  0.1130116E+00
         25   -1    0    0    0    0  0.00000000000E+00  0.00000000000E+00  0.99999998245E-14  0.12500000000E+03  0.12500000000E+03 0.  0.
        -11    1    3    3    0    0 -0.16465331567E+02  0.29126274847E+02 -0.73980220806E+01  0.34266277315E+02  0.51100000000E-03 0.  1.
         23    2    1    0    0    0  0.42439584954E+01 -0.28332737423E+02 -0.76632632616E+01  0.95343958501E+02  0.90614511118E+02 0.  0.
         11    1    3    3    0    0  0.20709290062E+02 -0.57459012270E+02 -0.26524118101E+00  0.61077681186E+02  0.51100000000E-03 0. -1.
         22    1    1    0    0    0 -0.42439584954E+01  0.28332737423E+02  0.76632632616E+01  0.29656041499E+02  0.00000000000E+00 0. -1.
</event>
<event>
 5    1  0.8962567E-005  0.9118800E+02  0.7818608E-02  0.1130116E+00
         25   -1    0    0    0    0  0.00000000000E+00  0.00000000000E+00  0.99999998245E-14  0.12500000000E+03  0.12500000000E+03 0.  0.
        -11    1    3    3    0    0  0.82122214338E+01  0.43135091777E+02 -0.36048018602E+02  0.56811410552E+02  0.51100000000E-03 0. -1.
         23    2    1    0    0    0 -0.13238063370E+02  0.26036671799E+02 -0.25584888669E+02  0.86170357606E+02  0.76925869521E+02 0.  0.
         11    1    3    3    0    0 -0.21450284804E+02 -0.17098419977E+02  0.10463129933E+02  0.29358947055E+02  0.51100000000E-03 0.  1.
         22    1    1    0    0    0  0.13238063370E+02 -0.26036671799E+02  0.25584888669E+02  0.38829642394E+02  0.00000000000E+00 0. -1.
</event>
<event>
 5    1  0.8962567E-005  0.9118800E+02  0.7818608E-02  0.1130116E+00
         25   -1    0    0    0    0  0.00000000000E+00  0.00000000000E+00  0.99999998245E-14  0.12500000000E+03  0.12500000000E+03 0.  0.
        -11    1    3    3    0    0  0.22791857630E+02 -0.87609980527E+01  0.35422250573E+02  0.43022781139E+02  0.51100000000E-03 0. -1.
         23    2    1    0    0    0 -0.21308924087E+02  0.12364645235E+02  0.15917074566E+02  0.95668993193E+02  0.91061782864E+02 0.  0.
         11    1    3    3    0    0 -0.44100781716E+02  0.21125643288E+02 -0.19505176006E+02  0.52646212054E+02  0.51100000000E-03 0.  1.
         22    1    1    0    0    0  0.21308924087E+02 -0.12364645235E+02 -0.15917074566E+02  0.29331006807E+02  0.00000000000E+00 0.  1.
</event>
<event>
 5    1  0.8962567E-005  0.9118800E+02  0.7818608E-02  0.1130116E+00
         25   -1    0    0    0    0  0.00000000000E+00  0.00000000000E+00  0.99999998245E-14  0.12500000000E+03  0.12500000000E+03 0.  0.
        -11    1    3    3    0    0 -0.44958525171E+02 -0.17049268544E+02  0.33531381252E+02  0.58619963087E+02  0.51100000000E-03 0.  1.
         23    2    1    0    0    0 -0.12592087778E+02 -0.20513383936E+02  0.19307412497E+02  0.94143302632E+02  0.88942822408E+02 0.  0.
         11    1    3    3    0    0  0.32366437393E+02 -0.34641153923E+01 -0.14223968755E+02  0.35523339544E+02  0.51100000000E-03 0. -1.
         22    1    1    0    0    0  0.12592087778E+02  0.20513383936E+02 -0.19307412497E+02  0.30856697368E+02  0.00000000000E+00 0.  1.
</event>
<event>
 5    1  0.8962567E-005  0.9118800E+02  0.7818608E-02  0.1130116E+00
         25   -1    0    0    0    0  0.00000000000E+00  0.00000000000E+00  0.99999998245E-14  0.12500000000E+03  0.12500000000E+03 0.  0.
        -11    1    3    3    0    0 -0.67036404886E+00  0.53873579185E+02  0.27501861562E+02  0.60491026705E+02  0.51100000000E-03 0. -1.
         23    2    1    0    0    0 -0.10243160819E+02  0.27212446066E+02  0.81322527524E+01  0.94807731134E+02  0.89871757429E+02 0.  0.
         11    1    3    3    0    0 -0.95727967700E+01 -0.26661133119E+02 -0.19369608809E+02  0.34316704429E+02  0.51100000000E-03 0.  1.
         22    1    1    0    0    0  0.10243160819E+02 -0.27212446066E+02 -0.81322527524E+01  0.30192268866E+02  0.00000000000E+00 0. -1.
</event>
<event>
 5    1  0.8962567E-005  0.9118800E+02  0.7818608E-02  0.1130116E+00
         25   -1    0    0    0    0  0.00000000000E+00  0.00000000000E+00  0.99999998245E-14  0.12500000000E+03  0.12500000000E+03 0.  0.
        -11    1    3    3    0    0 -0.55733746243E+01 -0.32201855647E+02  0.47560088211E+02  0.57706013575E+02  0.51100000000E-03 0. -1.
         23    2    1    0    0    0  0.10991463293E+02 -0.39727143498E+01  0.24835932401E+02  0.97551534417E+02  0.93610275100E+02 0.  0.
         11    1    3    3    0    0  0.16564837917E+02  0.28229141298E+02 -0.22724155810E+02  0.39845520842E+02  0.51100000000E-03 0.  1.
         22    1    1    0    0    0 -0.10991463293E+02  0.39727143498E+01 -0.24835932401E+02  0.27448465583E+02  0.00000000000E+00 0. -1.
</event>
<event>
 5    1  0.8962567E-005  0.9118800E+02  0.7818608E-02  0.1130116E+00
         25   -1    0    0    0    0  0.00000000000E+00  0.00000000000E+00  0.99999998245E-14  0.12500000000E+03  0.12500000000E+03 0.  0.
        -11    1    3    3    0    0 -0.20124011680E+02  0.16454793880E+02  0.30238623060E+02  0.39876188541E+02  0.51100000000E-03 0. -1.
         23    2    1    0    0    0 -0.13645040415E+02  0.97001027541E+01 -0.24454198307E+02  0.95364093801E+02  0.90642282906E+02 0.  0.
         11    1    3    3    0    0  0.64789712646E+01 -0.67546911254E+01 -0.54692821367E+02  0.55487905261E+02  0.51100000000E-03 0.  1.
         22    1    1    0    0    0  0.13645040415E+02 -0.97001027541E+01  0.24454198307E+02  0.29635906199E+02  0.00000000000E+00 0.  1.
</event>
<event>
 5    1  0.8962567E-005  0.9118800E+02  0.7818608E-02  0.1130116E+00
         25   -1    0    0    0    0  0.00000000000E+00  0.00000000000E+00  0.99999998245E-14  0.12500000000E+03  0.12500000000E+03 0.  0.
        -11    1    3    3    0    0  0.47798499249E+02  0.27443451530E+02 -0.94482835674E+01  0.55920565313E+02  0.51100000000E-03 0. -1.
         23    2    1    0    0    0  0.25107532435E+02  0.27681069336E+02  0.10550589080E+02  0.86167736166E+02  0.76921609717E+02 0.  0.
         11    1    3    3    0    0 -0.22690966813E+02  0.23761780525E+00  0.19998872647E+02  0.30247170852E+02  0.51100000000E-03 0.  1.
         22    1    1    0    0    0 -0.25107532435E+02 -0.27681069336E+02 -0.10550589080E+02  0.38832263834E+02  0.00000000000E+00 0. -1.
</event>
<event>
 5    1  0.8962567E-005  0.9118800E+02  0.7818608E-02  0.1130116E+00
         25   -1    0    0    0    0  0.00000000000E+00  0.00000000000E+00  0.99999998245E-14  0.12500000000E+03  0.12500000000E+03 0.  0.
        -11    1    3    3    0    0  0.28514460281E+02  0.37636882276E+02 -0.15251086547E+02  0.49620610574E+02  0.51100000000E-03 0. -1.
         23    2    1    0    0    0  0.26681499621E+02 -0.10687741626E+00  0.11526861827E+02  0.95934859567E+02  0.91426007743E+02 0.  0.
         11    1    3    3    0    0 -0.18329606606E+01 -0.37743759692E+02  0.26777948374E+02  0.46314248994E+02  0.51100000000E-03 0.  1.
         22    1    1    0    0    0 -0.26681499621E+02  0.10687741626E+00 -0.11526861827E+02  0.29065140433E+02  0.00000000000E+00 0. -1.
</event>
<event>
 5    1  0.8962567E-005  0.9118800E+02  0.7818608E-02  0.1130116E+00
         25   -1    0    0    0    0  0.00000000000E+00  0.00000000000E+00  0.99999998245E-14  0.12500000000E+03  0.12500000000E+03 0.  0.
        -11    1    3    3    0    0 -0.23949422062E+02 -0.20294469690E+02  0.31551974237E+02  0.44508059895E+02  0.51100000000E-03 0.  1.
         23    2    1    0    0    0 -0.20744154586E+02  0.15580689000E+02 -0.78528345459E+01  0.97893823036E+02  0.94066230704E+02 0.  0.
         11    1    3    3    0    0  0.32052674761E+01  0.35875158690E+02 -0.39404808783E+02  0.53385763141E+02  0.51100000000E-03 0. -1.
         22    1    1    0    0    0  0.20744154586E+02 -0.15580689000E+02  0.78528345459E+01  0.27106176964E+02  0.00000000000E+00 0. -1.
</event>
<event>
 5    1  0.8962567E-005  0.9118800E+02  0.7818608E-02  0.1130116E+00
         25   -1    0    0    0    0  0.00000000000E+00  0.00000000000E+00  0.99999998245E-14  0.12500000000E+03  0.12500000000E+03 0.  0.
        -11    1    3    3    0    0 -0.29049988727E+02 -0.18416102263E+02  0.10186121471E+02  0.35872158263E+02  0.51100000000E-03 0.  1.
         23    2    1    0    0    0  0.17640304836E+02  0.19368412488E+02  0.12484136712E+02  0.95979844479E+02  0.91487491603E+02 0.  0.
         11    1    3    3    0    0  0.46690293562E+02  0.37784514751E+02  0.22980152408E+01  0.60107686216E+02  0.51100000000E-03 0. -1.
         22    1    1    0    0    0 -0.17640304836E+02 -0.19368412488E+02 -0.12484136712E+02  0.29020155521E+02  0.00000000000E+00 0. -1.
</event>
<event>
 5    1  0.8962567E-005  0.9118800E+02  0.7818608E-02  0.1130116E+00
         25   -1    0    0    0    0  0.00000000000E+00  0.00000000000E+00  0.99999998245E-14  0.12500000000E+03  0.12500000000E+03 0.  0.
        -11    1    3    3    0    0 -0.12407418714E+02 -0.99787299963E+01  0.30943378300E+02  0.34799594140E+02  0.51100000000E-03 0. -1.
         23    2    1    0    0    0 -0.69504934681E+01  0.11335752735E+02 -0.25973318081E+02  0.95820865303E+02  0.91270018768E+02 0.  0.
         11    1    3    3    0    0  0.54569252461E+01  0.21314482731E+02 -0.56916696380E+02  0.61021271163E+02  0.51100000000E-03 0.  1.
         22    1    1    0    0    0  0.69504934681E+01 -0.11335752735E+02  0.25973318081E+02  0.29179134697E+02  0.00000000000E+00 0.  1.
</event>
<event>
 5    1  0.8962567E-005  0.9118800E+02  0.7818608E-02  0.1130116E+00
         25   -1    0    0    0    0  0.00000000000E+00  0.00000000000E+00  0.99999998245E-14  0.12500000000E+03  0.12500000000E+03 0.  0.
        -11    1    3    3    0    0  0.10999517435E+02 -0.37321233296E+02  0.25203243345E+02  0.46358033973E+02  0.51100000000E-03 0.  1.
         23    2    1    0    0    0 -0.23592133734E+02 -0.75859029878E+01  0.21618095110E+02  0.92114186426E+02  0.86043864432E+02 0.  0.
         11    1    3    3    0    0 -0.34591651169E+02  0.29735330308E+02 -0.35851482343E+01  0.45756152452E+02  0.51100000000E-03 0. -1.
         22    1    1    0    0    0  0.23592133734E+02  0.75859029878E+01 -0.21618095110E+02  0.32885813574E+02  0.00000000000E+00 0.  1.
</event>
<event>
 5    1  0.8962567E-005  0.9118800E+02  0.7818608E-02  0.1130116E+00
         25   -1    0    0    0    0  0.00000000000E+00  0.00000000000E+00  0.99999998245E-14  0.12500000000E+03  0.12500000000E+03 0.  0.
        -11    1    3    3    0    0 -0.22877853123E+02  0.47679488486E+00  0.30086902655E+01  0.23079768505E+02  0.51100000000E-03 0.  1.
         23    2    1    0    0    0  0.23844521978E+02 -0.23390893610E+02  0.28205482625E+02  0.81282218923E+02  0.68524117876E+02 0.  0.
         11    1    3    3    0    0  0.46722375101E+02 -0.23867688495E+02  0.25196792359E+02  0.58202450418E+02  0.51100000000E-03 0. -1.
         22    1    1    0    0    0 -0.23844521978E+02  0.23390893610E+02 -0.28205482625E+02  0.43717781077E+02  0.00000000000E+00 0. -1.
</event>
<event>
 5    1  0.8962567E-005  0.9118800E+02  0.7818608E-02  0.1130116E+00
         25   -1    0    0    0    0  0.00000000000E+00  0.00000000000E+00  0.99999998245E-14  0.12500000000E+03  0.12500000000E+03 0.  0.
        -11    1    3    3    0    0  0.35308654861E+02  0.66577255057E+01  0.45843004119E+02  0.58246093808E+02  0.51100000000E-03 0.  1.
         23    2    1    0    0    0  0.27920063839E+02  0.31630165002E+01  0.97425142895E+01  0.95260275340E+02  0.90498999083E+02 0.  0.
         11    1    3    3    0    0 -0.73885910215E+01 -0.34947090054E+01 -0.36100489829E+02  0.37014181532E+02  0.51100000000E-03 0. -1.
         22    1    1    0    0    0 -0.27920063839E+02 -0.31630165002E+01 -0.97425142895E+01  0.29739724660E+02  0.00000000000E+00 0.  1.
</event>
<event>
 5    1  0.8962567E-005  0.9118800E+02  0.7818608E-02  0.1130116E+00
         25   -1    0    0    0    0  0.00000000000E+00  0.00000000000E+00  0.99999998245E-14  0.12500000000E+03  0.12500000000E+03 0.  0.
        -11    1    3    3    0    0 -0.58081130405E+01 -0.61664881694E+02 -0.74468183113E+01  0.62383867423E+02  0.51100000000E-03 0.  1.
         23    2    1    0    0    0 -0.47553550932E+01 -0.28806203103E+02 -0.52764029641E+01  0.95330972926E+02  0.90596596137E+02 0.  0.
         11    1    3    3    0    0  0.10527579473E+01  0.32858678591E+02  0.21704153473E+01  0.32947105504E+02  0.51100000000E-03 0. -1.
         22    1    1    0    0    0  0.47553550932E+01  0.28806203103E+02  0.52764029641E+01  0.29669027074E+02  0.00000000000E+00 0.  1.
</event>
<event>
 5    1  0.8962567E-005  0.9118800E+02  0.7818608E-02  0.1130116E+00
         25   -1    0    0    0    0  0.00000000000E+00  0.00000000000E+00  0.99999998245E-14  0.12500000000E+03  0.12500000000E+03 0.  0.
        -11    1    3    3    0    0 -0.79698706733E+01  0.32825523288E+02  0.47277739171E+02  0.58105235900E+02  0.51100000000E-03 0.  1.
         23    2    1    0    0    0 -0.69451939693E+00  0.12663360301E+00  0.28467725095E+02  0.96523522595E+02  0.92227331355E+02 0.  0.
         11    1    3    3    0    0  0.72753512764E+01 -0.32698889685E+02 -0.18810014075E+02  0.38418286695E+02  0.51100000000E-03 0. -1.
         22    1    1    0    0    0  0.69451939693E+00 -0.12663360301E+00 -0.28467725095E+02  0.28476477405E+02  0.00000000000E+00 0.  1.
</event>
<event>
 5    1  0.8962567E-005  0.9118800E+02  0.7818608E-02  0.1130116E+00
         25   -1    0    0    0    0  0.00000000000E+00  0.00000000000E+00  0.99999998245E-14  0.12500000000E+03  0.12500000000E+03 0.  0.
        -11    1    3    3    0    0  0.28688026287E+02 -0.73419283697E+01 -0.14956236976E+02  0.33175228548E+02  0.51100000000E-03 0. -1.
         23    2    1    0    0    0 -0.29744301793E+02  0.48541704354E+01  0.58414301355E+00  0.94856548260E+02  0.89939630114E+02 0.  0.
         11    1    3    3    0    0 -0.58432328080E+02  0.12196098805E+02  0.15540379990E+02  0.61681319712E+02  0.51100000000E-03 0.  1.
         22    1    1    0    0    0  0.29744301793E+02 -0.48541704354E+01 -0.58414301355E+00  0.30143451740E+02  0.00000000000E+00 0.  1.
</event>
<event>
 5    1  0.8962567E-005  0.9118800E+02  0.7818608E-02  0.1130116E+00
         25   -1    0    0    0    0  0.00000000000E+00  0.00000000000E+00  0.99999998245E-14  0.12500000000E+03  0.12500000000E+03 0.  0.
        -11    1    3    3    0    0  0.18742546339E+02  0.11703074076E+02 -0.26861003799E+02  0.34781582934E+02  0.51100000000E-03 0.  1.
         23    2    1    0    0    0 -0.16789189870E+02 -0.21489577890E+02  0.10163867028E+02  0.95897026830E+02  0.91374267206E+02 0.  0.
         11    1    3    3    0    0 -0.35531736209E+02 -0.33192651966E+02  0.37024870827E+02  0.61115443895E+02  0.51100000000E-03 0. -1.
         22    1    1    0    0    0  0.16789189870E+02  0.21489577890E+02 -0.10163867028E+02  0.29102973170E+02  0.00000000000E+00 0. -1.
</event>
<event>
 5    1  0.8962567E-005  0.9118800E+02  0.7818608E-02  0.1130116E+00
         25   -1    0    0    0    0  0.00000000000E+00  0.00000000000E+00  0.99999998245E-14  0.12500000000E+03  0.12500000000E+03 0.  0.
        -11    1    3    3    0    0  0.14392064061E+02 -0.49843881479E+02  0.19053009154E+02  0.55268084705E+02  0.51100000000E-03 0.  1.
         23    2    1    0    0    0  0.24335388951E+02 -0.12221308525E+02  0.13594697715E+02  0.94563388109E+02  0.89531262848E+02 0.  0.
         11    1    3    3    0    0  0.99433248904E+01  0.37622572955E+02 -0.54583114382E+01  0.39295303404E+02  0.51100000000E-03 0. -1.
         22    1    1    0    0    0 -0.24335388951E+02  0.12221308525E+02 -0.13594697715E+02  0.30436611891E+02  0.00000000000E+00 0.  1.
</event>
<event>
 5    1  0.8962567E-005  0.9118800E+02  0.7818608E-02  0.1130116E+00
         25   -1    0    0    0    0  0.00000000000E+00  0.00000000000E+00  0.99999998245E-14  0.12500000000E+03  0.12500000000E+03 0.  0.
        -11    1    3    3    0    0 -0.14230977397E+02  0.22543909464E+02  0.20433191190E+02  0.33589639386E+02  0.51100000000E-03 0.  1.
         23    2    1    0    0    0  0.11059879999E+02 -0.21352165884E+02 -0.16110845944E+02  0.96055306349E+02  0.91590537651E+02 0.  0.
         11    1    3    3    0    0  0.25290857396E+02 -0.43896075348E+02 -0.36544037134E+02  0.62465666963E+02  0.51100000000E-03 0. -1.
         22    1    1    0    0    0 -0.11059879999E+02  0.21352165884E+02  0.16110845944E+02  0.28944693651E+02  0.00000000000E+00 0. -1.
</event>
<event>
 5    1  0.8962567E-005  0.9118800E+02  0.7818608E-02  0.1130116E+00
         25   -1    0    0    0    0  0.00000000000E+00  0.00000000000E+00  0.99999998245E-14  0.12500000000E+03  0.12500000000E+03 0.  0.
        -11    1    3    3    0    0  0.66703948153E+01  0.41253006358E+02  0.12398399187E+02  0.43589276241E+02  0.51100000000E-03 0. -1.
         23    2    1    0    0    0  0.85828820512E+01 -0.13860979964E+02  0.19933185744E+02  0.99248795683E+02  0.95849876999E+02 0.  0.
         11    1    3    3    0    0  0.19124872359E+01 -0.55113986322E+02  0.75347865570E+01  0.55659519442E+02  0.51100000000E-03 0.  1.
         22    1    1    0    0    0 -0.85828820512E+01  0.13860979964E+02 -0.19933185744E+02  0.25751204317E+02  0.00000000000E+00 0.  1.
</event>
<event>
 5    1  0.8962567E-005  0.9118800E+02  0.7818608E-02  0.1130116E+00
         25   -1    0    0    0    0  0.00000000000E+00  0.00000000000E+00  0.99999998245E-14  0.12500000000E+03  0.12500000000E+03 0.  0.
        -11    1    3    3    0    0 -0.22018106345E+01  0.41478232724E+01 -0.38733218985E+02  0.39016850990E+02  0.51100000000E-03 0. -1.
         23    2    1    0    0    0  0.78592047807E+00 -0.13054649229E+02  0.20452118112E+02  0.10072386619E+03  0.97754624175E+02 0.  0.
         11    1    3    3    0    0  0.29877311126E+01 -0.17202472502E+02  0.59185337097E+02  0.61707015200E+02  0.51100000000E-03 0.  1.
         22    1    1    0    0    0 -0.78592047807E+00  0.13054649229E+02 -0.20452118112E+02  0.24276133810E+02  0.00000000000E+00 0.  1.
</event>
<event>
 5    1  0.8962567E-005  0.9118800E+02  0.7818608E-02  0.1130116E+00
         25   -1    0    0    0    0  0.00000000000E+00  0.00000000000E+00  0.99999998245E-14  0.12500000000E+03  0.12500000000E+03 0.  0.
        -11    1    3    3    0    0  0.43545903276E+01  0.41169578693E+02  0.74549018070E+01  0.42065095126E+02  0.51100000000E-03 0.  1.
         23    2    1    0    0    0  0.51435012954E+01 -0.67110127813E+01 -0.24130702633E+02  0.99430797672E+02  0.96086936770E+02 0.  0.
         11    1    3    3    0    0  0.78891096776E+00 -0.47880591475E+02 -0.31585604440E+02  0.57365702546E+02  0.51100000000E-03 0. -1.
         22    1    1    0    0    0 -0.51435012954E+01  0.67110127813E+01  0.24130702633E+02  0.25569202328E+02  0.00000000000E+00 0. -1.
</event>
<event>
 5    1  0.8962567E-005  0.9118800E+02  0.7818608E-02  0.1130116E+00
         25   -1    0    0    0    0  0.00000000000E+00  0.00000000000E+00  0.99999998245E-14  0.12500000000E+03  0.12500000000E+03 0.  0.
        -11    1    3    3    0    0 -0.29152896620E+02 -0.30423454062E+02  0.14211764496E+02  0.44468552807E+02  0.51100000000E-03 0.  1.
         23    2    1    0    0    0  0.11024902316E+02 -0.23874321961E+02 -0.15141091316E+02  0.94655571081E+02  0.89659872687E+02 0.  0.
         11    1    3    3    0    0  0.40177798937E+02  0.65491321007E+01 -0.29352855812E+02  0.50187018274E+02  0.51100000000E-03 0. -1.
         22    1    1    0    0    0 -0.11024902316E+02  0.23874321961E+02  0.15141091316E+02  0.30344428919E+02  0.00000000000E+00 0.  1.
</event>
<event>
 5    1  0.8962567E-005  0.9118800E+02  0.7818608E-02  0.1130116E+00
         25   -1    0    0    0    0  0.00000000000E+00  0.00000000000E+00  0.99999998245E-14  0.12500000000E+03  0.12500000000E+03 0.  0.
        -11    1    3    3    0    0 -0.39065400344E+02 -0.39112736043E+02 -0.10773122299E+01  0.55290796944E+02  0.51100000000E-03 0.  1.
         23    2    1    0    0    0 -0.26133165476E+02 -0.39158284159E+01  0.13258669244E+02  0.95435352867E+02  0.90740499320E+02 0.  0.
         11    1    3    3    0    0  0.12932234868E+02  0.35196907627E+02  0.14335981474E+02  0.40144555923E+02  0.51100000000E-03 0. -1.
         22    1    1    0    0    0  0.26133165476E+02  0.39158284159E+01 -0.13258669244E+02  0.29564647133E+02  0.00000000000E+00 0.  1.
</event>
<event>
 5    1  0.8962567E-005  0.9118800E+02  0.7818608E-02  0.1130116E+00
         25   -1    0    0    0    0  0.00000000000E+00  0.00000000000E+00  0.99999998245E-14  0.12500000000E+03  0.12500000000E+03 0.  0.
        -11    1    3    3    0    0 -0.17395274721E+02  0.24370353859E+02 -0.47599650768E+02  0.56233766398E+02  0.51100000000E-03 0.  1.
         23    2    1    0    0    0  0.80425101586E+01  0.15092445945E+01 -0.28377110203E+02  0.95466626126E+02  0.90783569722E+02 0.  0.
         11    1    3    3    0    0  0.25437784880E+02 -0.22861109265E+02  0.19222540564E+02  0.39232859728E+02  0.51100000000E-03 0. -1.
         22    1    1    0    0    0 -0.80425101586E+01 -0.15092445945E+01  0.28377110203E+02  0.29533373874E+02  0.00000000000E+00 0.  1.
</event>
<event>
 5    1  0.8962567E-005  0.9118800E+02  0.7818608E-02  0.1130116E+00
         25   -1    0    0    0    0  0.00000000000E+00  0.00000000000E+00  0.99999998245E-14  0.12500000000E+03  0.12500000000E+03 0.  0.
        -11    1    3    3    0    0  0.53702099227E+02  0.12085198186E+02 -0.25440758006E+02  0.60639917916E+02  0.51100000000E-03 0.  1.
         23    2    1    0    0    0  0.25207758223E+02  0.57853440632E+01 -0.23774398064E+02  0.89869909139E+02  0.82719267918E+02 0.  0.
         11    1    3    3    0    0 -0.28494341004E+02 -0.62998541226E+01  0.16663599422E+01  0.29229991224E+02  0.51100000000E-03 0. -1.
         22    1    1    0    0    0 -0.25207758223E+02 -0.57853440632E+01  0.23774398064E+02  0.35130090861E+02  0.00000000000E+00 0.  1.
</event>
<event>
 5    1  0.8962567E-005  0.9118800E+02  0.7818608E-02  0.1130116E+00
         25   -1    0    0    0    0  0.00000000000E+00  0.00000000000E+00  0.99999998245E-14  0.12500000000E+03  0.12500000000E+03 0.  0.
        -11    1    3    3    0    0  0.19875778309E+02 -0.13967341484E+02 -0.33352729793E+02  0.41261819839E+02  0.51100000000E-03 0.  1.
         23    2    1    0    0    0 -0.86652239762E+01 -0.27129834134E+02  0.10005562636E+02  0.94813491584E+02  0.89879769114E+02 0.  0.
         11    1    3    3    0    0 -0.28541002285E+02 -0.13162492650E+02  0.43358292428E+02  0.53551671746E+02  0.51100000000E-03 0. -1.
         22    1    1    0    0    0  0.86652239762E+01  0.27129834134E+02 -0.10005562636E+02  0.30186508416E+02  0.00000000000E+00 0.  1.
</event>
<event>
 5    1  0.8962567E-005  0.9118800E+02  0.7818608E-02  0.1130116E+00
         25   -1    0    0    0    0  0.00000000000E+00  0.00000000000E+00  0.99999998245E-14  0.12500000000E+03  0.12500000000E+03 0.  0.
        -11    1    3    3    0    0  0.18981705993E+02 -0.24832254486E+02  0.24123342351E+02  0.39482675589E+02  0.51100000000E-03 0.  1.
         23    2    1    0    0    0 -0.20674456891E+02  0.13130541238E+02  0.17756848946E+02  0.94748554325E+02  0.89789412412E+02 0.  0.
         11    1    3    3    0    0 -0.39656162884E+02  0.37962795725E+02 -0.63664934049E+01  0.55265878736E+02  0.51100000000E-03 0. -1.
         22    1    1    0    0    0  0.20674456891E+02 -0.13130541238E+02 -0.17756848946E+02  0.30251445675E+02  0.00000000000E+00 0.  1.
</event>
<event>
 5    1  0.8962567E-005  0.9118800E+02  0.7818608E-02  0.1130116E+00
         25   -1    0    0    0    0  0.00000000000E+00  0.00000000000E+00  0.99999998245E-14  0.12500000000E+03  0.12500000000E+03 0.  0.
        -11    1    3    3    0    0 -0.12504860194E+02 -0.28875359326E+02  0.35849371933E+02  0.47700475605E+02  0.51100000000E-03 0. -1.
         23    2    1    0    0    0 -0.11427803627E+02 -0.33498691863E+02 -0.53772918349E+01  0.89199548610E+02  0.81699982574E+02 0.  0.
         11    1    3    3    0    0  0.10770565671E+01 -0.46233325364E+01 -0.41226663768E+02  0.41499073005E+02  0.51100000000E-03 0.  1.
         22    1    1    0    0    0  0.11427803627E+02  0.33498691863E+02  0.53772918349E+01  0.35800451390E+02  0.00000000000E+00 0. -1.
</event>
<event>
 5    1  0.8962567E-005  0.9118800E+02  0.7818608E-02  0.1130116E+00
         25   -1    0    0    0    0  0.00000000000E+00  0.00000000000E+00  0.99999998245E-14  0.12500000000E+03  0.12500000000E+03 0.  0.
        -11    1    3    3    0    0  0.43459511864E+02 -0.12429047970E+02  0.53085459465E+01  0.45512537451E+02  0.51100000000E-03 0. -1.
         23    2    1    0    0    0 -0.36339219282E+01 -0.28951954360E+02  0.48371583555E+01  0.95422658152E+02  0.90723009969E+02 0.  0.
         11    1    3    3    0    0 -0.47093433792E+02 -0.16522906390E+02 -0.47138759101E+00  0.49910120701E+02  0.51100000000E-03 0.  1.
         22    1    1    0    0    0  0.36339219282E+01  0.28951954360E+02 -0.48371583555E+01  0.29577341848E+02  0.00000000000E+00 0.  1.
</event>
<event>
 5    1  0.8962567E-005  0.9118800E+02  0.7818608E-02  0.1130116E+00
         25   -1    0    0    0    0  0.00000000000E+00  0.00000000000E+00  0.99999998245E-14  0.12500000000E+03  0.12500000000E+03 0.  0.
        -11    1    3    3    0    0  0.13713789135E+02  0.81312436366E+01 -0.32290595183E+02  0.36012048998E+02  0.51100000000E-03 0.  1.
         23    2    1    0    0    0  0.13106446127E+02  0.13060448545E+02  0.25211056344E+02  0.93727782166E+02  0.88356921299E+02 0.  0.
         11    1    3    3    0    0 -0.60734300799E+00  0.49292049080E+01  0.57501651527E+02  0.57715733168E+02  0.51100000000E-03 0. -1.
         22    1    1    0    0    0 -0.13106446127E+02 -0.13060448545E+02 -0.25211056344E+02  0.31272217834E+02  0.00000000000E+00 0. -1.
</event>
<event>
 5    1  0.8962567E-005  0.9118800E+02  0.7818608E-02  0.1130116E+00
         25   -1    0    0    0    0  0.00000000000E+00  0.00000000000E+00  0.99999998245E-14  0.12500000000E+03  0.12500000000E+03 0.  0.
        -11    1    3    3    0    0 -0.13171687218E+02  0.27464517049E+02  0.25996284802E+02  0.40044973026E+02  0.51100000000E-03 0. -1.
         23    2    1    0    0    0  0.70910768837E+01  0.13719459450E+02 -0.24428023234E+02  0.96099563012E+02  0.91650917907E+02 0.  0.
         11    1    3    3    0    0  0.20262764102E+02 -0.13745057599E+02 -0.50424308035E+02  0.56054589987E+02  0.51100000000E-03 0.  1.
         22    1    1    0    0    0 -0.70910768837E+01 -0.13719459450E+02  0.24428023234E+02  0.28900436988E+02  0.00000000000E+00 0.  1.
</event>
<event>
 5    1  0.8962567E-005  0.9118800E+02  0.7818608E-02  0.1130116E+00
         25   -1    0    0    0    0  0.00000000000E+00  0.00000000000E+00  0.99999998245E-14  0.12500000000E+03  0.12500000000E+03 0.  0.
        -11    1    3    3    0    0  0.36043343302E+02  0.11191682312E+02 -0.14627976132E+02  0.40476586261E+02  0.51100000000E-03 0.  1.
         23    2    1    0    0    0 -0.15648835170E+02  0.21889000623E+02  0.64724122612E+01  0.97324983994E+02  0.93307266590E+02 0.  0.
         11    1    3    3    0    0 -0.51692178472E+02  0.10697318311E+02  0.21100388393E+02  0.56848397733E+02  0.51100000000E-03 0. -1.
         22    1    1    0    0    0  0.15648835170E+02 -0.21889000623E+02 -0.64724122612E+01  0.27675016006E+02  0.00000000000E+00 0. -1.
</event>
<event>
 5    1  0.8962567E-005  0.9118800E+02  0.7818608E-02  0.1130116E+00
         25   -1    0    0    0    0  0.00000000000E+00  0.00000000000E+00  0.99999998245E-14  0.12500000000E+03  0.12500000000E+03 0.  0.
        -11    1    3    3    0    0  0.56333175607E+01  0.49758168881E+02 -0.29371711601E+02  0.58054345916E+02  0.51100000000E-03 0.  1.
         23    2    1    0    0    0 -0.82560045853E+01  0.15900466898E+02 -0.24012061530E+02  0.95040601504E+02  0.90195068469E+02 0.  0.
         11    1    3    3    0    0 -0.13889322146E+02 -0.33857701984E+02  0.53596500704E+01  0.36986255588E+02  0.51100000000E-03 0. -1.
         22    1    1    0    0    0  0.82560045853E+01 -0.15900466898E+02  0.24012061530E+02  0.29959398496E+02  0.00000000000E+00 0.  1.
</event>
<event>
 5    1  0.8962567E-005  0.9118800E+02  0.7818608E-02  0.1130116E+00
         25   -1    0    0    0    0  0.00000000000E+00  0.00000000000E+00  0.99999998245E-14  0.12500000000E+03  0.12500000000E+03 0.  0.
        -11    1    3    3    0    0 -0.15574253454E+02 -0.37928525162E+02  0.13315876428E+02  0.43109661991E+02  0.51100000000E-03 0.  1.
         23    2    1    0    0    0  0.25935073884E+02 -0.13609559007E+02 -0.62614742588E+01  0.95049136680E+02  0.90206896466E+02 0.  0.
         11    1    3    3    0    0  0.41509327337E+02  0.24318966155E+02 -0.19577350687E+02  0.51939474690E+02  0.51100000000E-03 0. -1.
         22    1    1    0    0    0 -0.25935073884E+02  0.13609559007E+02  0.62614742588E+01  0.29950863320E+02  0.00000000000E+00 0.  1.
</event>
<event>
 5    1  0.8962567E-005  0.9118800E+02  0.7818608E-02  0.1130116E+00
         25   -1    0    0    0    0  0.00000000000E+00  0.00000000000E+00  0.99999998245E-14  0.12500000000E+03  0.12500000000E+03 0.  0.
        -11    1    3    3    0    0  0.36617892969E+02  0.27040102591E+02 -0.83891521391E+01  0.46286230215E+02  0.51100000000E-03 0. -1.
         23    2    1    0    0    0  0.21149138747E+02 -0.16958730071E+02  0.95530662134E+01  0.96257250141E+02  0.91865731017E+02 0.  0.
         11    1    3    3    0    0 -0.15468754223E+02 -0.43998832662E+02  0.17942218353E+02  0.49971019926E+02  0.51100000000E-03 0.  1.
         22    1    1    0    0    0 -0.21149138747E+02  0.16958730071E+02 -0.95530662134E+01  0.28742749859E+02  0.00000000000E+00 0.  1.
</event>
<event>
 5    1  0.8962567E-005  0.9118800E+02  0.7818608E-02  0.1130116E+00
         25   -1    0    0    0    0  0.00000000000E+00  0.00000000000E+00  0.99999998245E-14  0.12500000000E+03  0.12500000000E+03 0.  0.
        -11    1    3    3    0    0 -0.30843231933E+02 -0.11039859531E+02  0.37279102155E+02  0.49627763523E+02  0.51100000000E-03 0. -1.
         23    2    1    0    0    0  0.80855544180E+01 -0.22848488858E+02  0.18888865378E+02  0.94271855431E+02  0.89123307040E+02 0.  0.
         11    1    3    3    0    0  0.38928786351E+02 -0.11808629327E+02 -0.18390236776E+02  0.44644091908E+02  0.51100000000E-03 0.  1.
         22    1    1    0    0    0 -0.80855544180E+01  0.22848488858E+02 -0.18888865378E+02  0.30728144569E+02  0.00000000000E+00 0. -1.
</event>
<event>
 5    1  0.8962567E-005  0.9118800E+02  0.7818608E-02  0.1130116E+00
         25   -1    0    0    0    0  0.00000000000E+00  0.00000000000E+00  0.99999998245E-14  0.12500000000E+03  0.12500000000E+03 0.  0.
        -11    1    3    3    0    0  0.20419745065E+02  0.18707148306E+02 -0.36039843688E+02  0.45451003505E+02  0.51100000000E-03 0. -1.
         23    2    1    0    0    0 -0.20843868657E+02 -0.68926472891E+01 -0.15223402878E+02  0.98284322161E+02  0.94583722385E+02 0.  0.
         11    1    3    3    0    0 -0.41263613722E+02 -0.25599795596E+02  0.20816440811E+02  0.52833318656E+02  0.51100000000E-03 0.  1.
         22    1    1    0    0    0  0.20843868657E+02  0.68926472891E+01  0.15223402878E+02  0.26715677839E+02  0.00000000000E+00 0. -1.
</event>
<event>
 5    1  0.8962567E-005  0.9118800E+02  0.7818608E-02  0.1130116E+00
         25   -1    0    0    0    0  0.00000000000E+00  0.00000000000E+00  0.99999998245E-14  0.12500000000E+03  0.12500000000E+03 0.  0.
        -11    1    3    3    0    0 -0.16613106267E+02 -0.10718698405E+02  0.56551295688E+02  0.59907719366E+02  0.51100000000E-03 0.  1.
         23    2    1    0    0    0  0.34045400398E+01 -0.11485395962E+02  0.24945061399E+02  0.97327607594E+02  0.93310781255E+02 0.  0.
         11    1    3    3    0    0  0.20017646306E+02 -0.76669755687E+00 -0.31606234289E+02  0.37419888228E+02  0.51100000000E-03 0. -1.
         22    1    1    0    0    0 -0.34045400398E+01  0.11485395962E+02 -0.24945061399E+02  0.27672392406E+02  0.00000000000E+00 0.  1.
</event>
<event>
 5    1  0.8962567E-005  0.9118800E+02  0.7818608E-02  0.1130116E+00
         25   -1    0    0    0    0  0.00000000000E+00  0.00000000000E+00  0.99999998245E-14  0.12500000000E+03  0.12500000000E+03 0.  0.
        -11    1    3    3    0    0  0.50528617001E+02 -0.23112243593E+02 -0.26238245399E+02  0.61447233150E+02  0.51100000000E-03 0. -1.
         23    2    1    0    0    0  0.29259328331E+02 -0.10355103462E+02 -0.61611762600E+01  0.93356729705E+02  0.87830418570E+02 0.  0.
         11    1    3    3    0    0 -0.21269288671E+02  0.12757140131E+02  0.20077069139E+02  0.31909496554E+02  0.51100000000E-03 0.  1.
         22    1    1    0    0    0 -0.29259328331E+02  0.10355103462E+02  0.61611762600E+01  0.31643270295E+02  0.00000000000E+00 0. -1.
</event>
<event>
 5    1  0.8962567E-005  0.9118800E+02  0.7818608E-02  0.1130116E+00
         25   -1    0    0    0    0  0.00000000000E+00  0.00000000000E+00  0.99999998245E-14  0.12500000000E+03  0.12500000000E+03 0.  0.
        -11    1    3    3    0    0 -0.32367504244E+01  0.27363015478E+02 -0.45144686235E+02  0.52889071318E+02  0.51100000000E-03 0.  1.
         23    2    1    0    0    0  0.17000937256E+02  0.78949769196E+00 -0.31943558083E+02  0.88805441332E+02  0.81094761440E+02 0.  0.
         11    1    3    3    0    0  0.20237687681E+02 -0.26573517786E+02  0.13201128152E+02  0.35916370014E+02  0.51100000000E-03 0. -1.
         22    1    1    0    0    0 -0.17000937256E+02 -0.78949769196E+00  0.31943558083E+02  0.36194558668E+02  0.00000000000E+00 0.  1.
</event>
<event>
 5    1  0.8962567E-005  0.9118800E+02  0.7818608E-02  0.1130116E+00
         25   -1    0    0    0    0  0.00000000000E+00  0.00000000000E+00  0.99999998245E-14  0.12500000000E+03  0.12500000000E+03 0.  0.
        -11    1    3    3    0    0 -0.30200781003E+02  0.63782793220E+01 -0.38986359784E+02  0.49726309633E+02  0.51100000000E-03 0.  1.
         23    2    1    0    0    0 -0.28283219126E+02 -0.15882006362E+01  0.64927421269E+01  0.95937677903E+02  0.91429860963E+02 0.  0.
         11    1    3    3    0    0  0.19175618775E+01 -0.79664799582E+01  0.45479101910E+02  0.46211368269E+02  0.51100000000E-03 0. -1.
         22    1    1    0    0    0  0.28283219126E+02  0.15882006362E+01 -0.64927421269E+01  0.29062322097E+02  0.00000000000E+00 0.  1.
</event>
<event>
 5    1  0.8962567E-005  0.9118800E+02  0.7818608E-02  0.1130116E+00
         25   -1    0    0    0    0  0.00000000000E+00  0.00000000000E+00  0.99999998245E-14  0.12500000000E+03  0.12500000000E+03 0.  0.
        -11    1    3    3    0    0  0.55075975389E+02  0.18328728144E+02 -0.15194340163E+01  0.58065601008E+02  0.51100000000E-03 0. -1.
         23    2    1    0    0    0  0.29044753772E+02 -0.72293772743E+01  0.34002558609E+01  0.94876531452E+02  0.89967398890E+02 0.  0.
         11    1    3    3    0    0 -0.26031221617E+02 -0.25558105418E+02  0.49196898772E+01  0.36810930444E+02  0.51100000000E-03 0.  1.
         22    1    1    0    0    0 -0.29044753772E+02  0.72293772743E+01 -0.34002558609E+01  0.30123468548E+02  0.00000000000E+00 0. -1.
</event>
<event>
 5    1  0.8962567E-005  0.9118800E+02  0.7818608E-02  0.1130116E+00
         25   -1    0    0    0    0  0.00000000000E+00  0.00000000000E+00  0.99999998245E-14  0.12500000000E+03  0.12500000000E+03 0.  0.
        -11    1    3    3    0    0 -0.34211136740E+02 -0.78535622129E+01 -0.50320414122E+02  0.61353275334E+02  0.51100000000E-03 0. -1.
         23    2    1    0    0    0 -0.14521287684E+02  0.45348243791E+01 -0.24978551574E+02  0.95753453761E+02  0.91177647701E+02 0.  0.
         11    1    3    3    0    0  0.19689849055E+02  0.12388386592E+02  0.25341862548E+02  0.34400178428E+02  0.51100000000E-03 0.  1.
         22    1    1    0    0    0  0.14521287684E+02 -0.45348243791E+01  0.24978551574E+02  0.29246546239E+02  0.00000000000E+00 0. -1.
</event>
<event>
 5    1  0.8962567E-005  0.9118800E+02  0.7818608E-02  0.1130116E+00
         25   -1    0    0    0    0  0.00000000000E+00  0.00000000000E+00  0.99999998245E-14  0.12500000000E+03  0.12500000000E+03 0.  0.
        -11    1    3    3    0    0 -0.14184219654E+02  0.39917577299E+02 -0.78085139533E+01  0.43076419942E+02  0.51100000000E-03 0. -1.
         23    2    1    0    0    0  0.10368572177E+02 -0.59070211884E+01 -0.24558345817E+02  0.97695924525E+02  0.93802884451E+02 0.  0.
         11    1    3    3    0    0  0.24552791830E+02 -0.45824598487E+02 -0.16749831863E+02  0.54619504583E+02  0.51100000000E-03 0.  1.
         22    1    1    0    0    0 -0.10368572177E+02  0.59070211884E+01  0.24558345817E+02  0.27304075475E+02  0.00000000000E+00 0.  1.
</event>
<event>
 5    1  0.8962567E-005  0.9118800E+02  0.7818608E-02  0.1130116E+00
         25   -1    0    0    0    0  0.00000000000E+00  0.00000000000E+00  0.99999998245E-14  0.12500000000E+03  0.12500000000E+03 0.  0.
        -11    1    3    3    0    0  0.22564874064E+02 -0.18940572012E+02 -0.31347444497E+02  0.43018380797E+02  0.51100000000E-03 0.  1.
         23    2    1    0    0    0  0.23798882691E+02 -0.14925615728E+01  0.17837469670E+02  0.95220982528E+02  0.90444710359E+02 0.  0.
         11    1    3    3    0    0  0.12340086271E+01  0.17448010439E+02  0.49184914166E+02  0.52202601730E+02  0.51100000000E-03 0. -1.
         22    1    1    0    0    0 -0.23798882691E+02  0.14925615728E+01 -0.17837469670E+02  0.29779017472E+02  0.00000000000E+00 0. -1.
</event>
<event>
 5    1  0.8962567E-005  0.9118800E+02  0.7818608E-02  0.1130116E+00
         25   -1    0    0    0    0  0.00000000000E+00  0.00000000000E+00  0.99999998245E-14  0.12500000000E+03  0.12500000000E+03 0.  0.
        -11    1    3    3    0    0  0.12998409340E+02 -0.37406345676E+02 -0.41042235134E+02  0.57032082263E+02  0.51100000000E-03 0.  1.
         23    2    1    0    0    0 -0.45794099106E+01 -0.61156863214E+01 -0.29187404059E+02  0.94829200044E+02  0.89901612950E+02 0.  0.
         11    1    3    3    0    0 -0.17577819251E+02  0.31290659354E+02  0.11854831075E+02  0.37797117781E+02  0.51100000000E-03 0. -1.
         22    1    1    0    0    0  0.45794099106E+01  0.61156863214E+01  0.29187404059E+02  0.30170799956E+02  0.00000000000E+00 0.  1.
</event>
<event>
 5    1  0.8962567E-005  0.9118800E+02  0.7818608E-02  0.1130116E+00
         25   -1    0    0    0    0  0.00000000000E+00  0.00000000000E+00  0.99999998245E-14  0.12500000000E+03  0.12500000000E+03 0.  0.
        -11    1    3    3    0    0 -0.16190383177E+02  0.11860992741E+02  0.28575291330E+02  0.34919320312E+02  0.51100000000E-03 0.  1.
         23    2    1    0    0    0  0.18479123209E+02 -0.19037511951E+02 -0.11331368540E+02  0.96150307300E+02  0.91720100442E+02 0.  0.
         11    1    3    3    0    0  0.34669506386E+02 -0.30898504693E+02 -0.39906659870E+02  0.61230986988E+02  0.51100000000E-03 0. -1.
         22    1    1    0    0    0 -0.18479123209E+02  0.19037511951E+02  0.11331368540E+02  0.28849692700E+02  0.00000000000E+00 0. -1.
</event>
<event>
 5    1  0.8962567E-005  0.9118800E+02  0.7818608E-02  0.1130116E+00
         25   -1    0    0    0    0  0.00000000000E+00  0.00000000000E+00  0.99999998245E-14  0.12500000000E+03  0.12500000000E+03 0.  0.
        -11    1    3    3    0    0  0.21046848664E+02 -0.34654722788E+02  0.25814085020E+02  0.48065441181E+02  0.51100000000E-03 0. -1.
         23    2    1    0    0    0  0.13128454493E+02  0.13571456059E+02  0.20345665067E+02  0.97242355577E+02  0.93196506877E+02 0.  0.
         11    1    3    3    0    0 -0.79183941714E+01  0.48226178847E+02 -0.54684199536E+01  0.49176914396E+02  0.51100000000E-03 0.  1.
         22    1    1    0    0    0 -0.13128454493E+02 -0.13571456059E+02 -0.20345665067E+02  0.27757644423E+02  0.00000000000E+00 0.  1.
</event>
<event>
 5    1  0.8962567E-005  0.9118800E+02  0.7818608E-02  0.1130116E+00
         25   -1    0    0    0    0  0.00000000000E+00  0.00000000000E+00  0.99999998245E-14  0.12500000000E+03  0.12500000000E+03 0.  0.
        -11    1    3    3    0    0  0.58826504884E+02 -0.15238250918E+02 -0.49561707791E+01  0.60969874503E+02  0.51100000000E-03 0.  1.
         23    2    1    0    0    0  0.28116336929E+02 -0.27807393019E+01  0.64520490344E+01  0.96019146836E+02  0.91541174938E+02 0.  0.
         11    1    3    3    0    0 -0.30710167955E+02  0.12457511617E+02  0.11408219814E+02  0.35049272333E+02  0.51100000000E-03 0. -1.
         22    1    1    0    0    0 -0.28116336929E+02  0.27807393019E+01 -0.64520490344E+01  0.28980853164E+02  0.00000000000E+00 0.  1.
</event>
<event>
 5    1  0.8962567E-005  0.9118800E+02  0.7818608E-02  0.1130116E+00
         25   -1    0    0    0    0  0.00000000000E+00  0.00000000000E+00  0.99999998245E-14  0.12500000000E+03  0.12500000000E+03 0.  0.
        -11    1    3    3    0    0 -0.74007664249E+00  0.26694140787E+02  0.33340038866E+02  0.42716309035E+02  0.51100000000E-03 0.  1.
         23    2    1    0    0    0 -0.10901330219E+02 -0.22252954861E+02  0.15379959891E+02  0.95835361019E+02  0.91289869399E+02 0.  0.
         11    1    3    3    0    0 -0.10161253576E+02 -0.48947095648E+02 -0.17960078974E+02  0.53119051984E+02  0.51100000000E-03 0. -1.
         22    1    1    0    0    0  0.10901330219E+02  0.22252954861E+02 -0.15379959891E+02  0.29164638981E+02  0.00000000000E+00 0. -1.
</event>
<event>
 5    1  0.8962567E-005  0.9118800E+02  0.7818608E-02  0.1130116E+00
         25   -1    0    0    0    0  0.00000000000E+00  0.00000000000E+00  0.99999998245E-14  0.12500000000E+03  0.12500000000E+03 0.  0.
        -11    1    3    3    0    0  0.42047945651E+02  0.17150170325E+02 -0.18564567581E+02  0.49059160667E+02  0.51100000000E-03 0.  1.
         23    2    1    0    0    0  0.88524822649E+01 -0.18124636286E+02 -0.18695490151E+02  0.97497450396E+02  0.93538027555E+02 0.  0.
         11    1    3    3    0    0 -0.33195463386E+02 -0.35274806611E+02 -0.13092257000E+00  0.48438289728E+02  0.51100000000E-03 0. -1.
         22    1    1    0    0    0 -0.88524822649E+01  0.18124636286E+02  0.18695490151E+02  0.27502549604E+02  0.00000000000E+00 0. -1.
</event>
<event>
 5    1  0.8962567E-005  0.9118800E+02  0.7818608E-02  0.1130116E+00
         25   -1    0    0    0    0  0.00000000000E+00  0.00000000000E+00  0.99999998245E-14  0.12500000000E+03  0.12500000000E+03 0.  0.
        -11    1    3    3    0    0  0.32699210725E+02  0.14579619031E+02 -0.14330347920E+02  0.38563746510E+02  0.51100000000E-03 0. -1.
         23    2    1    0    0    0 -0.10314557548E+02  0.12952626986E+02  0.23758713794E+02  0.96040767890E+02  0.91570693852E+02 0.  0.
         11    1    3    3    0    0 -0.43013768273E+02 -0.16269920447E+01  0.38089061715E+02  0.57477021380E+02  0.51100000000E-03 0.  1.
         22    1    1    0    0    0  0.10314557548E+02 -0.12952626986E+02 -0.23758713794E+02  0.28959232110E+02  0.00000000000E+00 0.  1.
</event>
<event>
 5    1  0.8962567E-005  0.9118800E+02  0.7818608E-02  0.1130116E+00
         25   -1    0    0    0    0  0.00000000000E+00  0.00000000000E+00  0.99999998245E-14  0.12500000000E+03  0.12500000000E+03 0.  0.
        -11    1    3    3    0    0 -0.38260847070E+02 -0.57457408825E+01 -0.46695038339E+02  0.60641013865E+02  0.51100000000E-03 0.  1.
         23    2    1    0    0    0 -0.23625117675E+02 -0.74300643440E+01 -0.13883890175E+02  0.96607845314E+02  0.92341547142E+02 0.  0.
         11    1    3    3    0    0  0.14635729395E+02 -0.16843234615E+01  0.32811148164E+02  0.35966831450E+02  0.51100000000E-03 0. -1.
         22    1    1    0    0    0  0.23625117675E+02  0.74300643440E+01  0.13883890175E+02  0.28392154686E+02  0.00000000000E+00 0.  1.
</event>
<event>
 5    1  0.8962567E-005  0.9118800E+02  0.7818608E-02  0.1130116E+00
         25   -1    0    0    0    0  0.00000000000E+00  0.00000000000E+00  0.99999998245E-14  0.12500000000E+03  0.12500000000E+03 0.  0.
        -11    1    3    3    0    0  0.46474698876E+02  0.23596431174E+02 -0.24887224439E+02  0.57758662903E+02  0.51100000000E-03 0.  1.
         23    2    1    0    0    0  0.26845673431E+02  0.91619210826E+01  0.48706733246E+01  0.96218852724E+02  0.91813469496E+02 0.  0.
         11    1    3    3    0    0 -0.19629025445E+02 -0.14434510091E+02  0.29757897764E+02  0.38460189821E+02  0.51100000000E-03 0. -1.
         22    1    1    0    0    0 -0.26845673431E+02 -0.91619210826E+01 -0.48706733246E+01  0.28781147276E+02  0.00000000000E+00 0.  1.
</event>
<event>
 5    1  0.8962567E-005  0.9118800E+02  0.7818608E-02  0.1130116E+00
         25   -1    0    0    0    0  0.00000000000E+00  0.00000000000E+00  0.99999998245E-14  0.12500000000E+03  0.12500000000E+03 0.  0.
        -11    1    3    3    0    0 -0.35693807750E+02  0.57425205597E+01  0.45285543264E+02  0.57946569209E+02  0.51100000000E-03 0. -1.
         23    2    1    0    0    0 -0.13891584963E+01  0.23205296231E+01  0.28645259223E+02  0.96227348140E+02  0.91825034904E+02 0.  0.
         11    1    3    3    0    0  0.34304649254E+02 -0.34219909366E+01 -0.16640284040E+02  0.38280778932E+02  0.51100000000E-03 0.  1.
         22    1    1    0    0    0  0.13891584963E+01 -0.23205296231E+01 -0.28645259223E+02  0.28772651860E+02  0.00000000000E+00 0. -1.
</event>
<event>
 5    1  0.8962567E-005  0.9118800E+02  0.7818608E-02  0.1130116E+00
         25   -1    0    0    0    0  0.00000000000E+00  0.00000000000E+00  0.99999998245E-14  0.12500000000E+03  0.12500000000E+03 0.  0.
        -11    1    3    3    0    0 -0.33609100376E+02 -0.33384551176E+01  0.44580584157E+01  0.34067450679E+02  0.51100000000E-03 0. -1.
         23    2    1    0    0    0  0.22087992449E+02 -0.20724498471E+02 -0.78758918364E+01  0.93704410542E+02  0.88323850888E+02 0.  0.
         11    1    3    3    0    0  0.55697092825E+02 -0.17386043353E+02 -0.12333950252E+02  0.59636959863E+02  0.51100000000E-03 0.  1.
         22    1    1    0    0    0 -0.22087992449E+02  0.20724498471E+02  0.78758918364E+01  0.31295589458E+02  0.00000000000E+00 0.  1.
</event>
<event>
 5    1  0.8962567E-005  0.9118800E+02  0.7818608E-02  0.1130116E+00
         25   -1    0    0    0    0  0.00000000000E+00  0.00000000000E+00  0.99999998245E-14  0.12500000000E+03  0.12500000000E+03 0.  0.
        -11    1    3    3    0    0  0.38827531177E+02 -0.29434504105E+01  0.40627983731E+02  0.56274986806E+02  0.51100000000E-03 0. -1.
         23    2    1    0    0    0  0.17734958655E+02  0.18090309837E+02  0.15080845076E+02  0.95517463530E+02  0.90853540836E+02 0.  0.
         11    1    3    3    0    0 -0.21092572522E+02  0.21033760247E+02 -0.25547138655E+02  0.39242476725E+02  0.51100000000E-03 0.  1.
         22    1    1    0    0    0 -0.17734958655E+02 -0.18090309837E+02 -0.15080845076E+02  0.29482536470E+02  0.00000000000E+00 0. -1.
</event>
<event>
 5    1  0.8962567E-005  0.9118800E+02  0.7818608E-02  0.1130116E+00
         25   -1    0    0    0    0  0.00000000000E+00  0.00000000000E+00  0.99999998245E-14  0.12500000000E+03  0.12500000000E+03 0.  0.
        -11    1    3    3    0    0 -0.55239803762E+02 -0.11979800756E+02  0.26502316621E+01  0.56585998921E+02  0.51100000000E-03 0. -1.
         23    2    1    0    0    0 -0.19457981062E+02 -0.20470034665E+02 -0.93185429325E+01  0.95259949755E+02  0.90498549374E+02 0.  0.
         11    1    3    3    0    0  0.35781822700E+02 -0.84902339092E+01 -0.11968774595E+02  0.38673950834E+02  0.51100000000E-03 0.  1.
         22    1    1    0    0    0  0.19457981062E+02  0.20470034665E+02  0.93185429325E+01  0.29740050245E+02  0.00000000000E+00 0. -1.
</event>
<event>
 5    1  0.8962567E-005  0.9118800E+02  0.7818608E-02  0.1130116E+00
         25   -1    0    0    0    0  0.00000000000E+00  0.00000000000E+00  0.99999998245E-14  0.12500000000E+03  0.12500000000E+03 0.  0.
        -11    1    3    3    0    0 -0.44979269449E+02 -0.30391370337E+02 -0.16892823941E+02  0.56851891543E+02  0.51100000000E-03 0. -1.
         23    2    1    0    0    0 -0.78431576994E+01 -0.20627676154E+02 -0.19788086676E+02  0.95359073556E+02  0.90635359485E+02 0.  0.
         11    1    3    3    0    0  0.37136111749E+02  0.97636941834E+01 -0.28952627344E+01  0.38507182012E+02  0.51100000000E-03 0.  1.
         22    1    1    0    0    0  0.78431576994E+01  0.20627676154E+02  0.19788086676E+02  0.29640926444E+02  0.00000000000E+00 0. -1.
</event>
<event>
 5    1  0.8962567E-005  0.9118800E+02  0.7818608E-02  0.1130116E+00
         25   -1    0    0    0    0  0.00000000000E+00  0.00000000000E+00  0.99999998245E-14  0.12500000000E+03  0.12500000000E+03 0.  0.
        -11    1    3    3    0    0 -0.11446880607E+02 -0.39799089046E+02  0.35570773025E+02  0.54591926677E+02  0.51100000000E-03 0.  1.
         23    2    1    0    0    0  0.10212143212E+02 -0.26134090345E+02  0.19246417863E+01  0.96875583684E+02  0.92703268124E+02 0.  0.
         11    1    3    3    0    0  0.21659023818E+02  0.13664998701E+02 -0.33646131238E+02  0.42283657006E+02  0.51100000000E-03 0. -1.
         22    1    1    0    0    0 -0.10212143212E+02  0.26134090345E+02 -0.19246417863E+01  0.28124416316E+02  0.00000000000E+00 0.  1.
</event>
<event>
 5    1  0.8962567E-005  0.9118800E+02  0.7818608E-02  0.1130116E+00
         25   -1    0    0    0    0  0.00000000000E+00  0.00000000000E+00  0.99999998245E-14  0.12500000000E+03  0.12500000000E+03 0.  0.
        -11    1    3    3    0    0 -0.46027920464E+02 -0.40204576745E+02 -0.81856137530E+01  0.61660211857E+02  0.51100000000E-03 0. -1.
         23    2    1    0    0    0 -0.25373994610E+02 -0.12865507789E+02 -0.54531801599E+01  0.96032810509E+02  0.91559830861E+02 0.  0.
         11    1    3    3    0    0  0.20653925854E+02  0.27339068956E+02  0.27324335931E+01  0.34372598652E+02  0.51100000000E-03 0.  1.
         22    1    1    0    0    0  0.25373994610E+02  0.12865507789E+02  0.54531801599E+01  0.28967189491E+02  0.00000000000E+00 0. -1.
</event>
<event>
 5    1  0.8962567E-005  0.9118800E+02  0.7818608E-02  0.1130116E+00
         25   -1    0    0    0    0  0.00000000000E+00  0.00000000000E+00  0.99999998245E-14  0.12500000000E+03  0.12500000000E+03 0.  0.
        -11    1    3    3    0    0 -0.22988245184E+02  0.35499445241E+02 -0.17363432704E+02  0.45718254828E+02  0.51100000000E-03 0.  1.
         23    2    1    0    0    0  0.44778538264E+01 -0.55981205368E+01 -0.27844123374E+02  0.96247863820E+02  0.91852958336E+02 0.  0.
         11    1    3    3    0    0  0.27466099010E+02 -0.41097565778E+02 -0.10480690670E+02  0.50529608992E+02  0.51100000000E-03 0. -1.
         22    1    1    0    0    0 -0.44778538264E+01  0.55981205368E+01  0.27844123374E+02  0.28752136180E+02  0.00000000000E+00 0.  1.
</event>
<event>
 5    1  0.8962567E-005  0.9118800E+02  0.7818608E-02  0.1130116E+00
         25   -1    0    0    0    0  0.00000000000E+00  0.00000000000E+00  0.99999998245E-14  0.12500000000E+03  0.12500000000E+03 0.  0.
        -11    1    3    3    0    0  0.14026302032E+02  0.34823285274E+02  0.10020372269E+02  0.38856224812E+02  0.51100000000E-03 0.  1.
         23    2    1    0    0    0 -0.27260354041E+02 -0.90981717435E+00 -0.83642806933E+01  0.96470789334E+02  0.92155831793E+02 0.  0.
         11    1    3    3    0    0 -0.41286656073E+02 -0.35733102448E+02 -0.18384652962E+02  0.57614564522E+02  0.51100000000E-03 0. -1.
         22    1    1    0    0    0  0.27260354041E+02  0.90981717435E+00  0.83642806933E+01  0.28529210666E+02  0.00000000000E+00 0. -1.
</event>
<event>
 5    1  0.8962567E-005  0.9118800E+02  0.7818608E-02  0.1130116E+00
         25   -1    0    0    0    0  0.00000000000E+00  0.00000000000E+00  0.99999998245E-14  0.12500000000E+03  0.12500000000E+03 0.  0.
        -11    1    3    3    0    0 -0.63587201552E+01 -0.13741722980E+02  0.23051826034E+02  0.27579973826E+02  0.51100000000E-03 0.  1.
         23    2    1    0    0    0  0.17005848907E+02  0.86188186815E+01 -0.29848228129E+02  0.89582495077E+02  0.82283800163E+02 0.  0.
         11    1    3    3    0    0  0.23364569063E+02  0.22360541661E+02 -0.52900054163E+02  0.62002521252E+02  0.51100000000E-03 0. -1.
         22    1    1    0    0    0 -0.17005848907E+02 -0.86188186815E+01  0.29848228129E+02  0.35417504923E+02  0.00000000000E+00 0. -1.
</event>
<event>
 5    1  0.8962567E-005  0.9118800E+02  0.7818608E-02  0.1130116E+00
         25   -1    0    0    0    0  0.00000000000E+00  0.00000000000E+00  0.99999998245E-14  0.12500000000E+03  0.12500000000E+03 0.  0.
        -11    1    3    3    0    0  0.19536494096E+01 -0.24943463353E+02  0.22822427867E+02  0.33865267223E+02  0.51100000000E-03 0.  1.
         23    2    1    0    0    0  0.12338621215E+02  0.21002086802E+02 -0.16793118004E+02  0.95413887788E+02  0.90710925180E+02 0.  0.
         11    1    3    3    0    0  0.10384971806E+02  0.45945550156E+02 -0.39615545871E+02  0.61548620565E+02  0.51100000000E-03 0. -1.
         22    1    1    0    0    0 -0.12338621215E+02 -0.21002086802E+02  0.16793118004E+02  0.29586112212E+02  0.00000000000E+00 0. -1.
</event>
<event>
 5    1  0.8962567E-005  0.9118800E+02  0.7818608E-02  0.1130116E+00
         25   -1    0    0    0    0  0.00000000000E+00  0.00000000000E+00  0.99999998245E-14  0.12500000000E+03  0.12500000000E+03 0.  0.
        -11    1    3    3    0    0 -0.26452669129E+02  0.21996630657E+02 -0.43613142244E+02  0.55549092171E+02  0.51100000000E-03 0.  1.
         23    2    1    0    0    0  0.83042385044E+01  0.16232087995E+02 -0.10187433242E+02  0.10411400340E+03  0.10199755316E+03 0.  0.
         11    1    3    3    0    0  0.34756907634E+02 -0.57645426623E+01  0.33425709002E+02  0.48564911231E+02  0.51100000000E-03 0. -1.
         22    1    1    0    0    0 -0.83042385044E+01 -0.16232087995E+02  0.10187433242E+02  0.20885996598E+02  0.00000000000E+00 0.  1.
</event>
<event>
 5    1  0.8962567E-005  0.9118800E+02  0.7818608E-02  0.1130116E+00
         25   -1    0    0    0    0  0.00000000000E+00  0.00000000000E+00  0.99999998245E-14  0.12500000000E+03  0.12500000000E+03 0.  0.
        -11    1    3    3    0    0  0.85771560006E+01 -0.54285857351E+02 -0.22951466392E+02  0.59559144749E+02  0.51100000000E-03 0. -1.
         23    2    1    0    0    0 -0.96711118005E+01 -0.24655160879E+02 -0.10090470957E+02  0.96658776216E+02  0.92410465068E+02 0.  0.
         11    1    3    3    0    0 -0.18248267801E+02  0.29630696472E+02  0.12860995435E+02  0.37099631467E+02  0.51100000000E-03 0.  1.
         22    1    1    0    0    0  0.96711118005E+01  0.24655160879E+02  0.10090470957E+02  0.28341223784E+02  0.00000000000E+00 0. -1.
</event>
<event>
 5    1  0.8962567E-005  0.9118800E+02  0.7818608E-02  0.1130116E+00
         25   -1    0    0    0    0  0.00000000000E+00  0.00000000000E+00  0.99999998245E-14  0.12500000000E+03  0.12500000000E+03 0.  0.
        -11    1    3    3    0    0 -0.38752319936E+02 -0.35744124326E+02  0.16332646422E+02  0.55191847801E+02  0.51100000000E-03 0. -1.
         23    2    1    0    0    0 -0.25145466178E+02  0.19535313770E+01  0.15731923846E+02  0.95274519650E+02  0.90518671624E+02 0.  0.
         11    1    3    3    0    0  0.13606853758E+02  0.37697655703E+02 -0.60072257628E+00  0.40082671849E+02  0.51100000000E-03 0.  1.
         22    1    1    0    0    0  0.25145466178E+02 -0.19535313770E+01 -0.15731923846E+02  0.29725480350E+02  0.00000000000E+00 0. -1.
</event>
<event>
 5    1  0.8962567E-005  0.9118800E+02  0.7818608E-02  0.1130116E+00
         25   -1    0    0    0    0  0.00000000000E+00  0.00000000000E+00  0.99999998245E-14  0.12500000000E+03  0.12500000000E+03 0.  0.
        -11    1    3    3    0    0  0.70256699225E+01 -0.37672485133E+02 -0.22725887565E+02  0.44553811731E+02  0.51100000000E-03 0.  1.
         23    2    1    0    0    0  0.20435560793E+02  0.52213122464E+01  0.11437989516E+02  0.10100621225E+03  0.98114999170E+02 0.  0.
         11    1    3    3    0    0  0.13409890870E+02  0.42893797379E+02  0.34163877080E+02  0.56452400517E+02  0.51100000000E-03 0. -1.
         22    1    1    0    0    0 -0.20435560793E+02 -0.52213122464E+01 -0.11437989516E+02  0.23993787751E+02  0.00000000000E+00 0. -1.
</event>
<event>
 5    1  0.8962567E-005  0.9118800E+02  0.7818608E-02  0.1130116E+00
         25   -1    0    0    0    0  0.00000000000E+00  0.00000000000E+00  0.99999998245E-14  0.12500000000E+03  0.12500000000E+03 0.  0.
        -11    1    3    3    0    0  0.21909916570E+02  0.77145411976E+00 -0.32687668266E+02  0.39358902964E+02  0.51100000000E-03 0. -1.
         23    2    1    0    0    0 -0.75187049848E+01 -0.32237019153E+02 -0.50299593343E+01  0.91517813401E+02  0.85173078789E+02 0.  0.
         11    1    3    3    0    0 -0.29428621555E+02 -0.33008473273E+02  0.27657708932E+02  0.52158910438E+02  0.51100000000E-03 0.  1.
         22    1    1    0    0    0  0.75187049848E+01  0.32237019153E+02  0.50299593343E+01  0.33482186599E+02  0.00000000000E+00 0. -1.
</event>
<event>
 5    1  0.8962567E-005  0.9118800E+02  0.7818608E-02  0.1130116E+00
         25   -1    0    0    0    0  0.00000000000E+00  0.00000000000E+00  0.99999998245E-14  0.12500000000E+03  0.12500000000E+03 0.  0.
        -11    1    3    3    0    0  0.26538956099E+02 -0.21061939165E+01 -0.26778263771E+02  0.37760133136E+02  0.51100000000E-03 0. -1.
         23    2    1    0    0    0 -0.13175031955E+01 -0.30241926241E+02  0.11296734290E+02  0.92690154395E+02  0.86876571057E+02 0.  0.
         11    1    3    3    0    0 -0.27856459294E+02 -0.28135732324E+02  0.38074998061E+02  0.54930021258E+02  0.51100000000E-03 0.  1.
         22    1    1    0    0    0  0.13175031955E+01  0.30241926241E+02 -0.11296734290E+02  0.32309845605E+02  0.00000000000E+00 0.  1.
</event>
<event>
 5    1  0.8962567E-005  0.9118800E+02  0.7818608E-02  0.1130116E+00
         25   -1    0    0    0    0  0.00000000000E+00  0.00000000000E+00  0.99999998245E-14  0.12500000000E+03  0.12500000000E+03 0.  0.
        -11    1    3    3    0    0 -0.88368051483E+01 -0.28698486521E+02  0.14671984939E+02  0.33420942479E+02  0.51100000000E-03 0. -1.
         23    2    1    0    0    0  0.20828685224E+02  0.99225554096E+01 -0.21011803272E+02  0.93794437824E+02  0.88451169896E+02 0.  0.
         11    1    3    3    0    0  0.29665490372E+02  0.38621041931E+02 -0.35683788211E+02  0.60373495345E+02  0.51100000000E-03 0.  1.
         22    1    1    0    0    0 -0.20828685224E+02 -0.99225554096E+01  0.21011803272E+02  0.31205562176E+02  0.00000000000E+00 0.  1.
</event>
<event>
 5    1  0.8962567E-005  0.9118800E+02  0.7818608E-02  0.1130116E+00
         25   -1    0    0    0    0  0.00000000000E+00  0.00000000000E+00  0.99999998245E-14  0.12500000000E+03  0.12500000000E+03 0.  0.
        -11    1    3    3    0    0  0.34911320979E+02  0.29274314312E+02  0.35041880699E+02  0.57477988954E+02  0.51100000000E-03 0.  1.
         23    2    1    0    0    0  0.16697867242E+02 -0.29365310508E+01  0.23070199927E+02  0.96370013802E+02  0.92019038521E+02 0.  0.
         11    1    3    3    0    0 -0.18213453738E+02 -0.32210845362E+02 -0.11971680772E+02  0.38892024848E+02  0.51100000000E-03 0. -1.
         22    1    1    0    0    0 -0.16697867242E+02  0.29365310508E+01 -0.23070199927E+02  0.28629986198E+02  0.00000000000E+00 0.  1.
</event>
<event>
 5    1  0.8962567E-005  0.9118800E+02  0.7818608E-02  0.1130116E+00
         25   -1    0    0    0    0  0.00000000000E+00  0.00000000000E+00  0.99999998245E-14  0.12500000000E+03  0.12500000000E+03 0.  0.
        -11    1    3    3    0    0  0.58309476209E+01  0.10438227801E+01  0.27520375429E+02  0.28150676371E+02  0.51100000000E-03 0. -1.
         23    2    1    0    0    0  0.21970552694E+02 -0.39688566997E+02  0.48591993479E+00  0.79633452257E+02  0.65447406857E+02 0.  0.
         11    1    3    3    0    0  0.16139605073E+02 -0.40732389777E+02 -0.27034455494E+02  0.51482775886E+02  0.51100000000E-03 0.  1.
         22    1    1    0    0    0 -0.21970552694E+02  0.39688566997E+02 -0.48591993479E+00  0.45366547743E+02  0.00000000000E+00 0.  1.
</event>
<event>
 5    1  0.8962567E-005  0.9118800E+02  0.7818608E-02  0.1130116E+00
         25   -1    0    0    0    0  0.00000000000E+00  0.00000000000E+00  0.99999998245E-14  0.12500000000E+03  0.12500000000E+03 0.  0.
        -11    1    3    3    0    0  0.38215822526E+02 -0.19119826349E+01  0.29641283502E+02  0.48401554281E+02  0.51100000000E-03 0. -1.
         23    2    1    0    0    0  0.73641029993E+01 -0.27821615373E+02  0.45538946894E+01  0.95862219511E+02  0.91326638380E+02 0.  0.
         11    1    3    3    0    0 -0.30851719527E+02 -0.25909632738E+02 -0.25087388812E+02  0.47460665230E+02  0.51100000000E-03 0.  1.
         22    1    1    0    0    0 -0.73641029993E+01  0.27821615373E+02 -0.45538946894E+01  0.29137780489E+02  0.00000000000E+00 0.  1.
</event>
<event>
 5    1  0.8962567E-005  0.9118800E+02  0.7818608E-02  0.1130116E+00
         25   -1    0    0    0    0  0.00000000000E+00  0.00000000000E+00  0.99999998245E-14  0.12500000000E+03  0.12500000000E+03 0.  0.
        -11    1    3    3    0    0  0.59361909151E+00  0.29620789705E+02  0.52762186560E+02  0.60511089043E+02  0.51100000000E-03 0.  1.
         23    2    1    0    0    0 -0.10778920340E+02  0.12322512891E+02  0.22670422934E+02  0.97036138971E+02  0.92919506794E+02 0.  0.
         11    1    3    3    0    0 -0.11372539431E+02 -0.17298276813E+02 -0.30091763626E+02  0.36525049928E+02  0.51100000000E-03 0. -1.
         22    1    1    0    0    0  0.10778920340E+02 -0.12322512891E+02 -0.22670422934E+02  0.27963861029E+02  0.00000000000E+00 0.  1.
</event>
<event>
 5    1  0.8962567E-005  0.9118800E+02  0.7818608E-02  0.1130116E+00
         25   -1    0    0    0    0  0.00000000000E+00  0.00000000000E+00  0.99999998245E-14  0.12500000000E+03  0.12500000000E+03 0.  0.
        -11    1    3    3    0    0  0.35239451195E+02  0.96258133432E+01 -0.19346106636E+02  0.41336993665E+02  0.51100000000E-03 0. -1.
         23    2    1    0    0    0 -0.18266680621E+02 -0.10963908586E+02 -0.15222257890E+02  0.98816110915E+02  0.95283932164E+02 0.  0.
         11    1    3    3    0    0 -0.53506131816E+02 -0.20589721929E+02  0.41238487462E+01  0.57479117249E+02  0.51100000000E-03 0.  1.
         22    1    1    0    0    0  0.18266680621E+02  0.10963908586E+02  0.15222257890E+02  0.26183889085E+02  0.00000000000E+00 0.  1.
</event>
<event>
 5    1  0.8962567E-005  0.9118800E+02  0.7818608E-02  0.1130116E+00
         25   -1    0    0    0    0  0.00000000000E+00  0.00000000000E+00  0.99999998245E-14  0.12500000000E+03  0.12500000000E+03 0.  0.
        -11    1    3    3    0    0 -0.29851665450E+02 -0.47426910709E+01 -0.36705277398E+02  0.47548842656E+02  0.51100000000E-03 0. -1.
         23    2    1    0    0    0  0.16270230225E+02  0.94336701389E+01 -0.16928976702E+02  0.99695755770E+02  0.96431006126E+02 0.  0.
         11    1    3    3    0    0  0.46121895676E+02  0.14176361210E+02  0.19776300696E+02  0.52146913114E+02  0.51100000000E-03 0.  1.
         22    1    1    0    0    0 -0.16270230225E+02 -0.94336701389E+01  0.16928976702E+02  0.25304244230E+02  0.00000000000E+00 0. -1.
</event>
<event>
 5    1  0.8962567E-005  0.9118800E+02  0.7818608E-02  0.1130116E+00
         25   -1    0    0    0    0  0.00000000000E+00  0.00000000000E+00  0.99999998245E-14  0.12500000000E+03  0.12500000000E+03 0.  0.
        -11    1    3    3    0    0 -0.25216230390E+02 -0.37191481588E+02 -0.42071330913E+02  0.61555352836E+02  0.51100000000E-03 0.  1.
         23    2    1    0    0    0 -0.93190784826E+01 -0.24431092673E+02 -0.17250340410E+02  0.93674327505E+02  0.88281265716E+02 0.  0.
         11    1    3    3    0    0  0.15897151908E+02  0.12760388915E+02  0.24820990502E+02  0.32118974669E+02  0.51100000000E-03 0. -1.
         22    1    1    0    0    0  0.93190784826E+01  0.24431092673E+02  0.17250340410E+02  0.31325672495E+02  0.00000000000E+00 0.  1.
</event>
<event>
 5    1  0.8962567E-005  0.9118800E+02  0.7818608E-02  0.1130116E+00
         25   -1    0    0    0    0  0.00000000000E+00  0.00000000000E+00  0.99999998245E-14  0.12500000000E+03  0.12500000000E+03 0.  0.
        -11    1    3    3    0    0 -0.38753578570E+02  0.46163962262E+01  0.97077505558E+01  0.40216804787E+02  0.51100000000E-03 0.  1.
         23    2    1    0    0    0  0.22565488290E+01  0.13230421337E+02 -0.26304048567E+02  0.95469692985E+02  0.90787792386E+02 0.  0.
         11    1    3    3    0    0  0.41010127399E+02  0.86140251110E+01 -0.36011799123E+02  0.55252888198E+02  0.51100000000E-03 0. -1.
         22    1    1    0    0    0 -0.22565488290E+01 -0.13230421337E+02  0.26304048567E+02  0.29530307015E+02  0.00000000000E+00 0. -1.
</event>
<event>
 5    1  0.8962567E-005  0.9118800E+02  0.7818608E-02  0.1130116E+00
         25   -1    0    0    0    0  0.00000000000E+00  0.00000000000E+00  0.99999998245E-14  0.12500000000E+03  0.12500000000E+03 0.  0.
        -11    1    3    3    0    0  0.32393887274E+02 -0.13714754019E+02 -0.10919114324E+02  0.36833211486E+02  0.51100000000E-03 0. -1.
         23    2    1    0    0    0  0.12761896596E+02  0.13137815162E+02  0.30174027266E+02  0.89702123103E+02  0.82465330751E+02 0.  0.
         11    1    3    3    0    0 -0.19631990678E+02  0.26852569181E+02  0.41093141590E+02  0.52868911617E+02  0.51100000000E-03 0.  1.
         22    1    1    0    0    0 -0.12761896596E+02 -0.13137815162E+02 -0.30174027266E+02  0.35297876897E+02  0.00000000000E+00 0.  1.
</event>
<event>
 5    1  0.8962567E-005  0.9118800E+02  0.7818608E-02  0.1130116E+00
         25   -1    0    0    0    0  0.00000000000E+00  0.00000000000E+00  0.99999998245E-14  0.12500000000E+03  0.12500000000E+03 0.  0.
        -11    1    3    3    0    0  0.25677441631E+02 -0.16157380217E+02 -0.81760486700E+01  0.31420371040E+02  0.51100000000E-03 0.  1.
         23    2    1    0    0    0 -0.16591615063E+02  0.26413768349E+02  0.64012412177E+01  0.93157501073E+02  0.87546417792E+02 0.  0.
         11    1    3    3    0    0 -0.42269056694E+02  0.42571148566E+02  0.14577289888E+02  0.61737130033E+02  0.51100000000E-03 0. -1.
         22    1    1    0    0    0  0.16591615063E+02 -0.26413768349E+02 -0.64012412177E+01  0.31842498927E+02  0.00000000000E+00 0. -1.
</event>
<event>
 5    1  0.8962567E-005  0.9118800E+02  0.7818608E-02  0.1130116E+00
         25   -1    0    0    0    0  0.00000000000E+00  0.00000000000E+00  0.99999998245E-14  0.12500000000E+03  0.12500000000E+03 0.  0.
        -11    1    3    3    0    0 -0.76820973903E+01  0.35985922945E+02  0.17512525232E+02  0.40751562066E+02  0.51100000000E-03 0.  1.
         23    2    1    0    0    0 -0.15690218162E+02 -0.19094240576E+02  0.14172211867E+02  0.96510974773E+02  0.92210323139E+02 0.  0.
         11    1    3    3    0    0 -0.80081207718E+01 -0.55080163522E+02 -0.33403133650E+01  0.55759412708E+02  0.51100000000E-03 0. -1.
         22    1    1    0    0    0  0.15690218162E+02  0.19094240576E+02 -0.14172211867E+02  0.28489025227E+02  0.00000000000E+00 0. -1.
</event>
<event>
 5    1  0.8962567E-005  0.9118800E+02  0.7818608E-02  0.1130116E+00
         25   -1    0    0    0    0  0.00000000000E+00  0.00000000000E+00  0.99999998245E-14  0.12500000000E+03  0.12500000000E+03 0.  0.
        -11    1    3    3    0    0  0.37346214539E+02 -0.93430087186E+01  0.35906613661E+02  0.52643294513E+02  0.51100000000E-03 0.  1.
         23    2    1    0    0    0 -0.48008863660E+01  0.44690868908E+01  0.26128316765E+02  0.98060991397E+02  0.94288110859E+02 0.  0.
         11    1    3    3    0    0 -0.42147100905E+02  0.13812095609E+02 -0.97782968965E+01  0.45417696884E+02  0.51100000000E-03 0. -1.
         22    1    1    0    0    0  0.48008863660E+01 -0.44690868908E+01 -0.26128316765E+02  0.26939008603E+02  0.00000000000E+00 0.  1.
</event>
<event>
 5    1  0.8962567E-005  0.9118800E+02  0.7818608E-02  0.1130116E+00
         25   -1    0    0    0    0  0.00000000000E+00  0.00000000000E+00  0.99999998245E-14  0.12500000000E+03  0.12500000000E+03 0.  0.
        -11    1    3    3    0    0  0.18616131009E+02  0.11407605657E+02  0.57351119810E+02  0.61366478995E+02  0.51100000000E-03 0. -1.
         23    2    1    0    0    0  0.14863707058E+02  0.28167254971E+00  0.23537089212E+02  0.97161111813E+02  0.93087474739E+02 0.  0.
         11    1    3    3    0    0 -0.37524239512E+01 -0.11125933107E+02 -0.33814030598E+02  0.35794632818E+02  0.51100000000E-03 0.  1.
         22    1    1    0    0    0 -0.14863707058E+02 -0.28167254971E+00 -0.23537089212E+02  0.27838888187E+02  0.00000000000E+00 0. -1.
</event>
<event>
 5    1  0.8962567E-005  0.9118800E+02  0.7818608E-02  0.1130116E+00
         25   -1    0    0    0    0  0.00000000000E+00  0.00000000000E+00  0.99999998245E-14  0.12500000000E+03  0.12500000000E+03 0.  0.
        -11    1    3    3    0    0  0.91717295065E+01  0.36295807283E+02 -0.25500774124E+02  0.45296751866E+02  0.51100000000E-03 0. -1.
         23    2    1    0    0    0  0.24287674297E+02  0.61478648495E+01  0.13242030045E+02  0.96662062096E+02  0.92414909641E+02 0.  0.
         11    1    3    3    0    0  0.15115944791E+02 -0.30147942433E+02  0.38742804168E+02  0.51365310229E+02  0.51100000000E-03 0.  1.
         22    1    1    0    0    0 -0.24287674297E+02 -0.61478648495E+01 -0.13242030045E+02  0.28337937904E+02  0.00000000000E+00 0.  1.
</event>
<event>
 5    1  0.8962567E-005  0.9118800E+02  0.7818608E-02  0.1130116E+00
         25   -1    0    0    0    0  0.00000000000E+00  0.00000000000E+00  0.99999998245E-14  0.12500000000E+03  0.12500000000E+03 0.  0.
        -11    1    3    3    0    0 -0.18291922768E+02 -0.13401173412E+02 -0.20328003054E+02  0.30453466072E+02  0.51100000000E-03 0. -1.
         23    2    1    0    0    0  0.20919353514E+02  0.22793445379E+02  0.10799508961E+02  0.92231266465E+02  0.86213784376E+02 0.  0.
         11    1    3    3    0    0  0.39211276281E+02  0.36194618791E+02  0.31127512015E+02  0.61777800394E+02  0.51100000000E-03 0.  1.
         22    1    1    0    0    0 -0.20919353514E+02 -0.22793445379E+02 -0.10799508961E+02  0.32768733535E+02  0.00000000000E+00 0.  1.
</event>
<event>
 5    1  0.8962567E-005  0.9118800E+02  0.7818608E-02  0.1130116E+00
         25   -1    0    0    0    0  0.00000000000E+00  0.00000000000E+00  0.99999998245E-14  0.12500000000E+03  0.12500000000E+03 0.  0.
        -11    1    3    3    0    0  0.44956386277E+02  0.17088733706E+02  0.13785608310E+02  0.50031434953E+02  0.51100000000E-03 0. -1.
         23    2    1    0    0    0  0.22309391632E+02 -0.76954863880E+01 -0.17262995366E+02  0.95760634843E+02  0.91187492075E+02 0.  0.
         11    1    3    3    0    0 -0.22646994645E+02 -0.24784220094E+02 -0.31048603676E+02  0.45729199890E+02  0.51100000000E-03 0.  1.
         22    1    1    0    0    0 -0.22309391632E+02  0.76954863880E+01  0.17262995366E+02  0.29239365157E+02  0.00000000000E+00 0.  1.
</event>
<event>
 5    1  0.8962567E-005  0.9118800E+02  0.7818608E-02  0.1130116E+00
         25   -1    0    0    0    0  0.00000000000E+00  0.00000000000E+00  0.99999998245E-14  0.12500000000E+03  0.12500000000E+03 0.  0.
        -11    1    3    3    0    0 -0.28126809499E+02  0.45643589149E+02 -0.48979945217E+01  0.53837208264E+02  0.51100000000E-03 0. -1.
         23    2    1    0    0    0  0.73562649594E+01  0.27211126095E+02  0.77342839271E+01  0.95770234942E+02  0.91200650960E+02 0.  0.
         11    1    3    3    0    0  0.35483074459E+02 -0.18432463055E+02  0.12632278449E+02  0.41933026678E+02  0.51100000000E-03 0.  1.
         22    1    1    0    0    0 -0.73562649594E+01 -0.27211126095E+02 -0.77342839271E+01  0.29229765058E+02  0.00000000000E+00 0.  1.
</event>
<event>
 5    1  0.8962567E-005  0.9118800E+02  0.7818608E-02  0.1130116E+00
         25   -1    0    0    0    0  0.00000000000E+00  0.00000000000E+00  0.99999998245E-14  0.12500000000E+03  0.12500000000E+03 0.  0.
        -11    1    3    3    0    0  0.17111046573E+02 -0.18168179678E+02 -0.22869114454E+02  0.33850658248E+02  0.51100000000E-03 0. -1.
         23    2    1    0    0    0 -0.75224439689E+00  0.14143422550E+02  0.26175164964E+02  0.95238589852E+02  0.90469041462E+02 0.  0.
         11    1    3    3    0    0 -0.17863290970E+02  0.32311602228E+02  0.49044279418E+02  0.61387931605E+02  0.51100000000E-03 0.  1.
         22    1    1    0    0    0  0.75224439689E+00 -0.14143422550E+02 -0.26175164964E+02  0.29761410148E+02  0.00000000000E+00 0.  1.
</event>
<event>
 5    1  0.8962567E-005  0.9118800E+02  0.7818608E-02  0.1130116E+00
         25   -1    0    0    0    0  0.00000000000E+00  0.00000000000E+00  0.99999998245E-14  0.12500000000E+03  0.12500000000E+03 0.  0.
        -11    1    3    3    0    0 -0.42416898296E+02 -0.29750364371E+02  0.29626746728E+02  0.59682673894E+02  0.51100000000E-03 0.  1.
         23    2    1    0    0    0 -0.83046121611E+01 -0.21267520701E+02  0.14519934559E+02  0.97942606935E+02  0.94131034912E+02 0.  0.
         11    1    3    3    0    0  0.34112286135E+02  0.84828436700E+01 -0.15106812170E+02  0.38259933040E+02  0.51100000000E-03 0. -1.
         22    1    1    0    0    0  0.83046121611E+01  0.21267520701E+02 -0.14519934559E+02  0.27057393065E+02  0.00000000000E+00 0.  1.
</event>
<event>
 5    1  0.8962567E-005  0.9118800E+02  0.7818608E-02  0.1130116E+00
         25   -1    0    0    0    0  0.00000000000E+00  0.00000000000E+00  0.99999998245E-14  0.12500000000E+03  0.12500000000E+03 0.  0.
        -11    1    3    3    0    0  0.60681868758E+02 -0.10245830837E+02  0.79491414612E+01  0.62052035387E+02  0.51100000000E-03 0. -1.
         23    2    1    0    0    0  0.29186458388E+02 -0.52253530445E+01 -0.14884599176E+01  0.95312137487E+02  0.90570604346E+02 0.  0.
         11    1    3    3    0    0 -0.31495410370E+02  0.50204777924E+01 -0.94376013788E+01  0.33260102099E+02  0.51100000000E-03 0.  1.
         22    1    1    0    0    0 -0.29186458388E+02  0.52253530445E+01  0.14884599176E+01  0.29687862513E+02  0.00000000000E+00 0. -1.
</event>
<event>
 5    1  0.8962567E-005  0.9118800E+02  0.7818608E-02  0.1130116E+00
         25   -1    0    0    0    0  0.00000000000E+00  0.00000000000E+00  0.99999998245E-14  0.12500000000E+03  0.12500000000E+03 0.  0.
        -11    1    3    3    0    0 -0.65370311551E+01 -0.43060018488E+02  0.39345008472E+02  0.58693506118E+02  0.51100000000E-03 0.  1.
         23    2    1    0    0    0 -0.89997355316E+01 -0.10870227661E+02  0.29257738444E+02  0.92516583494E+02  0.86626473284E+02 0.  0.
         11    1    3    3    0    0 -0.24627043765E+01  0.32189790827E+02 -0.10087270028E+02  0.33823077377E+02  0.51100000000E-03 0. -1.
         22    1    1    0    0    0  0.89997355316E+01  0.10870227661E+02 -0.29257738444E+02  0.32483416506E+02  0.00000000000E+00 0.  1.
</event>
<event>
 5    1  0.8962567E-005  0.9118800E+02  0.7818608E-02  0.1130116E+00
         25   -1    0    0    0    0  0.00000000000E+00  0.00000000000E+00  0.99999998245E-14  0.12500000000E+03  0.12500000000E+03 0.  0.
        -11    1    3    3    0    0  0.11978982738E+02  0.95198882821E+01  0.58664405220E+02  0.60627029784E+02  0.51100000000E-03 0.  1.
         23    2    1    0    0    0 -0.38249472229E+00 -0.53287409836E+01  0.24943992707E+02  0.99490304689E+02  0.96164318603E+02 0.  0.
         11    1    3    3    0    0 -0.12361477460E+02 -0.14848629266E+02 -0.33720412513E+02  0.38863274905E+02  0.51100000000E-03 0. -1.
         22    1    1    0    0    0  0.38249472229E+00  0.53287409836E+01 -0.24943992707E+02  0.25509695311E+02  0.00000000000E+00 0.  1.
</event>
<event>
 5    1  0.8962567E-005  0.9118800E+02  0.7818608E-02  0.1130116E+00
         25   -1    0    0    0    0  0.00000000000E+00  0.00000000000E+00  0.99999998245E-14  0.12500000000E+03  0.12500000000E+03 0.  0.
        -11    1    3    3    0    0  0.29463424664E+02 -0.97398563016E+00 -0.30939673612E+02  0.42735295066E+02  0.51100000000E-03 0. -1.
         23    2    1    0    0    0 -0.19366925343E+02  0.15238012814E+02 -0.12291269875E+02  0.97461841984E+02  0.93490429970E+02 0.  0.
         11    1    3    3    0    0 -0.48830350007E+02  0.16211998444E+02  0.18648403737E+02  0.54726546918E+02  0.51100000000E-03 0.  1.
         22    1    1    0    0    0  0.19366925343E+02 -0.15238012814E+02  0.12291269875E+02  0.27538158016E+02  0.00000000000E+00 0. -1.
</event>
<event>
 5    1  0.8962567E-005  0.9118800E+02  0.7818608E-02  0.1130116E+00
         25   -1    0    0    0    0  0.00000000000E+00  0.00000000000E+00  0.99999998245E-14  0.12500000000E+03  0.12500000000E+03 0.  0.
        -11    1    3    3    0    0 -0.56768142315E+02  0.96500474751E+01 -0.20293848235E+02  0.61053957076E+02  0.51100000000E-03 0.  1.
         23    2    1    0    0    0 -0.23525424208E+02  0.13575359068E+02 -0.95159807967E+01  0.96219974835E+02  0.91814997189E+02 0.  0.
         11    1    3    3    0    0  0.33242718107E+02  0.39253115927E+01  0.10777867439E+02  0.35166017759E+02  0.51100000000E-03 0. -1.
         22    1    1    0    0    0  0.23525424208E+02 -0.13575359068E+02  0.95159807967E+01  0.28780025165E+02  0.00000000000E+00 0.  1.
</event>
<event>
 5    1  0.8962567E-005  0.9118800E+02  0.7818608E-02  0.1130116E+00
         25   -1    0    0    0    0  0.00000000000E+00  0.00000000000E+00  0.99999998245E-14  0.12500000000E+03  0.12500000000E+03 0.  0.
        -11    1    3    3    0    0  0.33796135040E+02  0.11153383786E+02  0.14627366070E+02  0.38477740993E+02  0.51100000000E-03 0. -1.
         23    2    1    0    0    0 -0.21784956208E+02  0.65145580524E+01  0.20272381485E+02  0.94537018618E+02  0.89494439238E+02 0.  0.
         11    1    3    3    0    0 -0.55581091248E+02 -0.46388257335E+01  0.56450154148E+01  0.56059277625E+02  0.51100000000E-03 0.  1.
         22    1    1    0    0    0  0.21784956208E+02 -0.65145580524E+01 -0.20272381485E+02  0.30462981382E+02  0.00000000000E+00 0.  1.
</event>
<event>
 5    1  0.8962567E-005  0.9118800E+02  0.7818608E-02  0.1130116E+00
         25   -1    0    0    0    0  0.00000000000E+00  0.00000000000E+00  0.99999998245E-14  0.12500000000E+03  0.12500000000E+03 0.  0.
        -11    1    3    3    0    0 -0.89419807312E+01  0.37852703076E+02  0.89371230569E+01  0.39908123463E+02  0.51100000000E-03 0.  1.
         23    2    1    0    0    0  0.13495971207E+02  0.23544245122E+02 -0.28374024029E+02  0.85737321070E+02  0.76218962650E+02 0.  0.
         11    1    3    3    0    0  0.22437951938E+02 -0.14308457954E+02 -0.37311147086E+02  0.45829197607E+02  0.51100000000E-03 0. -1.
         22    1    1    0    0    0 -0.13495971207E+02 -0.23544245122E+02  0.28374024029E+02  0.39262678930E+02  0.00000000000E+00 0.  1.
</event>
<event>
 5    1  0.8962567E-005  0.9118800E+02  0.7818608E-02  0.1130116E+00
         25   -1    0    0    0    0  0.00000000000E+00  0.00000000000E+00  0.99999998245E-14  0.12500000000E+03  0.12500000000E+03 0.  0.
        -11    1    3    3    0    0 -0.42122133451E+02 -0.26614680343E+02 -0.21248064471E+02  0.54167292532E+02  0.51100000000E-03 0. -1.
         23    2    1    0    0    0 -0.22598059266E+02 -0.11221885425E+02  0.13101390607E+02  0.96570272057E+02  0.92290671329E+02 0.  0.
         11    1    3    3    0    0  0.19524074186E+02  0.15392794919E+02  0.34349455077E+02  0.42402979525E+02  0.51100000000E-03 0.  1.
         22    1    1    0    0    0  0.22598059266E+02  0.11221885425E+02 -0.13101390607E+02  0.28429727943E+02  0.00000000000E+00 0.  1.
</event>
<event>
 5    1  0.8962567E-005  0.9118800E+02  0.7818608E-02  0.1130116E+00
         25   -1    0    0    0    0  0.00000000000E+00  0.00000000000E+00  0.99999998245E-14  0.12500000000E+03  0.12500000000E+03 0.  0.
        -11    1    3    3    0    0  0.53794529833E+02  0.23363768568E+02  0.11896312182E+02  0.59843457165E+02  0.51100000000E-03 0. -1.
         23    2    1    0    0    0  0.28462173923E+02  0.42257505684E+01 -0.49785283657E+01  0.95798320990E+02  0.91239137696E+02 0.  0.
         11    1    3    3    0    0 -0.25332355910E+02 -0.19138017999E+02 -0.16874840548E+02  0.35954863825E+02  0.51100000000E-03 0.  1.
         22    1    1    0    0    0 -0.28462173923E+02 -0.42257505684E+01  0.49785283657E+01  0.29201679010E+02  0.00000000000E+00 0. -1.
</event>
<event>
 5    1  0.8962567E-005  0.9118800E+02  0.7818608E-02  0.1130116E+00
         25   -1    0    0    0    0  0.00000000000E+00  0.00000000000E+00  0.99999998245E-14  0.12500000000E+03  0.12500000000E+03 0.  0.
        -11    1    3    3    0    0 -0.27270293944E+02  0.12766100957E+02 -0.18663624331E+02  0.35425600050E+02  0.51100000000E-03 0.  1.
         23    2    1    0    0    0  0.23777562006E+02  0.28806781602E+01  0.14408768665E+02  0.97048553239E+02  0.92936205591E+02 0.  0.
         11    1    3    3    0    0  0.51047855950E+02 -0.98854227965E+01  0.33072392997E+02  0.61622953189E+02  0.51100000000E-03 0. -1.
         22    1    1    0    0    0 -0.23777562006E+02 -0.28806781602E+01 -0.14408768665E+02  0.27951446761E+02  0.00000000000E+00 0. -1.
</event>
<event>
 5    1  0.8962567E-005  0.9118800E+02  0.7818608E-02  0.1130116E+00
         25   -1    0    0    0    0  0.00000000000E+00  0.00000000000E+00  0.99999998245E-14  0.12500000000E+03  0.12500000000E+03 0.  0.
        -11    1    3    3    0    0 -0.41875396230E+01  0.48614320427E+01 -0.38842875733E+02  0.39369252026E+02  0.51100000000E-03 0.  1.
         23    2    1    0    0    0 -0.95634902502E+01  0.88608552835E+01  0.21377138272E+02  0.99960887739E+02  0.96774076771E+02 0.  0.
         11    1    3    3    0    0 -0.53759506272E+01  0.39994232408E+01  0.60220014005E+02  0.60591635713E+02  0.51100000000E-03 0. -1.
         22    1    1    0    0    0  0.95634902502E+01 -0.88608552835E+01 -0.21377138272E+02  0.25039112261E+02  0.00000000000E+00 0. -1.
</event>
<event>
 5    1  0.8962567E-005  0.9118800E+02  0.7818608E-02  0.1130116E+00
         25   -1    0    0    0    0  0.00000000000E+00  0.00000000000E+00  0.99999998245E-14  0.12500000000E+03  0.12500000000E+03 0.  0.
        -11    1    3    3    0    0  0.35716711104E+02  0.44252717750E+01  0.10551862186E+02  0.37504776739E+02  0.51100000000E-03 0.  1.
         23    2    1    0    0    0 -0.12693097899E+02 -0.16189503992E+02 -0.18259773911E+02  0.97493016940E+02  0.93532102697E+02 0.  0.
         11    1    3    3    0    0 -0.48409809003E+02 -0.20614775767E+02 -0.28811636096E+02  0.59988240201E+02  0.51100000000E-03 0. -1.
         22    1    1    0    0    0  0.12693097899E+02  0.16189503992E+02  0.18259773911E+02  0.27506983060E+02  0.00000000000E+00 0. -1.
</event>
<event>
 5    1  0.8962567E-005  0.9118800E+02  0.7818608E-02  0.1130116E+00
         25   -1    0    0    0    0  0.00000000000E+00  0.00000000000E+00  0.99999998245E-14  0.12500000000E+03  0.12500000000E+03 0.  0.
        -11    1    3    3    0    0 -0.44176841069E+01  0.41908302749E+01  0.34871194921E+02  0.35398859116E+02  0.51100000000E-03 0.  1.
         23    2    1    0    0    0 -0.17708651193E+02  0.71259099793E+01 -0.23149911650E+02  0.94995111573E+02  0.90132002603E+02 0.  0.
         11    1    3    3    0    0 -0.13290967086E+02  0.29350797044E+01 -0.58021106571E+02  0.59596252457E+02  0.51100000000E-03 0. -1.
         22    1    1    0    0    0  0.17708651193E+02 -0.71259099793E+01  0.23149911650E+02  0.30004888427E+02  0.00000000000E+00 0. -1.
</event>
<event>
 5    1  0.8962567E-005  0.9118800E+02  0.7818608E-02  0.1130116E+00
         25   -1    0    0    0    0  0.00000000000E+00  0.00000000000E+00  0.99999998245E-14  0.12500000000E+03  0.12500000000E+03 0.  0.
        -11    1    3    3    0    0 -0.13457701832E+02  0.23919019972E+02 -0.54377710664E+02  0.60911121090E+02  0.51100000000E-03 0.  1.
         23    2    1    0    0    0 -0.29723819598E+01  0.21647445361E+01 -0.28334615720E+02  0.96427782350E+02  0.92097478726E+02 0.  0.
         11    1    3    3    0    0  0.10485319872E+02 -0.21754275436E+02  0.26043094944E+02  0.35516661261E+02  0.51100000000E-03 0. -1.
         22    1    1    0    0    0  0.29723819598E+01 -0.21647445361E+01  0.28334615720E+02  0.28572217650E+02  0.00000000000E+00 0.  1.
</event>
<event>
 5    1  0.8962567E-005  0.9118800E+02  0.7818608E-02  0.1130116E+00
         25   -1    0    0    0    0  0.00000000000E+00  0.00000000000E+00  0.99999998245E-14  0.12500000000E+03  0.12500000000E+03 0.  0.
        -11    1    3    3    0    0  0.25314160332E+01  0.17162432604E+02 -0.55669650714E+02  0.58310094931E+02  0.51100000000E-03 0.  1.
         23    2    1    0    0    0 -0.13084083924E+02  0.14625831912E+02 -0.21948905984E+02  0.95557468092E+02  0.90908564080E+02 0.  0.
         11    1    3    3    0    0 -0.15615499957E+02 -0.25366006915E+01  0.33720744730E+02  0.37247373161E+02  0.51100000000E-03 0. -1.
         22    1    1    0    0    0  0.13084083924E+02 -0.14625831912E+02  0.21948905984E+02  0.29442531908E+02  0.00000000000E+00 0.  1.
</event>
<event>
 5    1  0.8962567E-005  0.9118800E+02  0.7818608E-02  0.1130116E+00
         25   -1    0    0    0    0  0.00000000000E+00  0.00000000000E+00  0.99999998245E-14  0.12500000000E+03  0.12500000000E+03 0.  0.
        -11    1    3    3    0    0 -0.17201580994E+01 -0.30136227945E+02 -0.20973267335E+02  0.36756348045E+02  0.51100000000E-03 0.  1.
         23    2    1    0    0    0  0.25562337219E+02  0.17380619130E+02 -0.68759448622E+01  0.93333019987E+02  0.87796668482E+02 0.  0.
         11    1    3    3    0    0  0.27282495318E+02  0.47516847075E+02  0.14097322473E+02  0.56576671941E+02  0.51100000000E-03 0. -1.
         22    1    1    0    0    0 -0.25562337219E+02 -0.17380619130E+02  0.68759448622E+01  0.31666980013E+02  0.00000000000E+00 0. -1.
</event>
<event>
 5    1  0.8962567E-005  0.9118800E+02  0.7818608E-02  0.1130116E+00
         25   -1    0    0    0    0  0.00000000000E+00  0.00000000000E+00  0.99999998245E-14  0.12500000000E+03  0.12500000000E+03 0.  0.
        -11    1    3    3    0    0  0.11737266526E+02  0.34982775413E+02  0.30408374595E+02  0.47814508748E+02  0.51100000000E-03 0.  1.
         23    2    1    0    0    0 -0.61612918200E+01  0.25935858451E+02 -0.12783768338E+02  0.95435578758E+02  0.90740810496E+02 0.  0.
         11    1    3    3    0    0 -0.17898558346E+02 -0.90469169619E+01 -0.43192142933E+02  0.47621070009E+02  0.51100000000E-03 0. -1.
         22    1    1    0    0    0  0.61612918200E+01 -0.25935858451E+02  0.12783768338E+02  0.29564421242E+02  0.00000000000E+00 0. -1.
</event>
<event>
 5    1  0.8962567E-005  0.9118800E+02  0.7818608E-02  0.1130116E+00
         25   -1    0    0    0    0  0.00000000000E+00  0.00000000000E+00  0.99999998245E-14  0.12500000000E+03  0.12500000000E+03 0.  0.
        -11    1    3    3    0    0 -0.52287682389E+02  0.22061690183E+02  0.19895077633E+02  0.60137625640E+02  0.51100000000E-03 0.  1.
         23    2    1    0    0    0 -0.19942150976E+02  0.71469215975E+01  0.20158724423E+02  0.95757188161E+02  0.91182767233E+02 0.  0.
         11    1    3    3    0    0  0.32345531412E+02 -0.14914768586E+02  0.26364679045E+00  0.35619562521E+02  0.51100000000E-03 0. -1.
         22    1    1    0    0    0  0.19942150976E+02 -0.71469215975E+01 -0.20158724423E+02  0.29242811839E+02  0.00000000000E+00 0.  1.
</event>
<event>
 5    1  0.8962567E-005  0.9118800E+02  0.7818608E-02  0.1130116E+00
         25   -1    0    0    0    0  0.00000000000E+00  0.00000000000E+00  0.99999998245E-14  0.12500000000E+03  0.12500000000E+03 0.  0.
        -11    1    3    3    0    0  0.46980468133E+02  0.18599150206E+02  0.31127949287E+02  0.59346794366E+02  0.51100000000E-03 0. -1.
         23    2    1    0    0    0  0.32129356765E+02  0.24156959246E+02  0.14648280140E+02  0.82216517706E+02  0.70207759020E+02 0.  0.
         11    1    3    3    0    0 -0.14851111368E+02  0.55578090400E+01 -0.16479669147E+02  0.22869723340E+02  0.51100000000E-03 0.  1.
         22    1    1    0    0    0 -0.32129356765E+02 -0.24156959246E+02 -0.14648280140E+02  0.42783482294E+02  0.00000000000E+00 0. -1.
</event>
<event>
 5    1  0.8962567E-005  0.9118800E+02  0.7818608E-02  0.1130116E+00
         25   -1    0    0    0    0  0.00000000000E+00  0.00000000000E+00  0.99999998245E-14  0.12500000000E+03  0.12500000000E+03 0.  0.
        -11    1    3    3    0    0  0.42016342873E+02  0.73766037668E+01  0.21033958784E+01  0.42710790511E+02  0.51100000000E-03 0. -1.
         23    2    1    0    0    0 -0.86851765916E+01  0.26576138472E+02  0.25195517459E+01  0.96927387554E+02  0.92773093559E+02 0.  0.
         11    1    3    3    0    0 -0.50701519465E+02  0.19199534706E+02  0.41615586751E+00  0.54216597043E+02  0.51100000000E-03 0.  1.
         22    1    1    0    0    0  0.86851765916E+01 -0.26576138472E+02 -0.25195517459E+01  0.28072612446E+02  0.00000000000E+00 0.  1.
</event>
<event>
 5    1  0.8962567E-005  0.9118800E+02  0.7818608E-02  0.1130116E+00
         25   -1    0    0    0    0  0.00000000000E+00  0.00000000000E+00  0.99999998245E-14  0.12500000000E+03  0.12500000000E+03 0.  0.
        -11    1    3    3    0    0 -0.31666020117E+02 -0.42251270235E+02 -0.15048822438E+02  0.54903312501E+02  0.51100000000E-03 0.  1.
         23    2    1    0    0    0 -0.27549670123E+02 -0.20902764097E+01 -0.21396075271E+01  0.97288423002E+02  0.93258274435E+02 0.  0.
         11    1    3    3    0    0  0.41163499941E+01  0.40160993826E+02  0.12909214911E+02  0.42385110501E+02  0.51100000000E-03 0. -1.
         22    1    1    0    0    0  0.27549670123E+02  0.20902764097E+01  0.21396075271E+01  0.27711576998E+02  0.00000000000E+00 0.  1.
</event>
<event>
 5    1  0.8962567E-005  0.9118800E+02  0.7818608E-02  0.1130116E+00
         25   -1    0    0    0    0  0.00000000000E+00  0.00000000000E+00  0.99999998245E-14  0.12500000000E+03  0.12500000000E+03 0.  0.
        -11    1    3    3    0    0  0.20219284343E+02 -0.43443421108E+02 -0.30300977370E+02  0.56694792765E+02  0.51100000000E-03 0.  1.
         23    2    1    0    0    0 -0.75960580035E+01 -0.17845990498E+02 -0.22503355574E+02  0.95291743806E+02  0.90542453862E+02 0.  0.
         11    1    3    3    0    0 -0.27815342346E+02  0.25597430610E+02  0.77976217961E+01  0.38596951040E+02  0.51100000000E-03 0. -1.
         22    1    1    0    0    0  0.75960580035E+01  0.17845990498E+02  0.22503355574E+02  0.29708256194E+02  0.00000000000E+00 0.  1.
</event>
<event>
 5    1  0.8962567E-005  0.9118800E+02  0.7818608E-02  0.1130116E+00
         25   -1    0    0    0    0  0.00000000000E+00  0.00000000000E+00  0.99999998245E-14  0.12500000000E+03  0.12500000000E+03 0.  0.
        -11    1    3    3    0    0  0.19176995626E+02 -0.13319975038E+01  0.51838095051E+02  0.55287606906E+02  0.51100000000E-03 0. -1.
         23    2    1    0    0    0  0.12010192361E+01 -0.20377391311E+02  0.22000711878E+02  0.94988138229E+02  0.90122331068E+02 0.  0.
         11    1    3    3    0    0 -0.17975976390E+02 -0.19045393807E+02 -0.29837383173E+02  0.39700531323E+02  0.51100000000E-03 0.  1.
         22    1    1    0    0    0 -0.12010192361E+01  0.20377391311E+02 -0.22000711878E+02  0.30011861771E+02  0.00000000000E+00 0. -1.
</event>
<event>
 5    1  0.8962567E-005  0.9118800E+02  0.7818608E-02  0.1130116E+00
         25   -1    0    0    0    0  0.00000000000E+00  0.00000000000E+00  0.99999998245E-14  0.12500000000E+03  0.12500000000E+03 0.  0.
        -11    1    3    3    0    0  0.51052327255E+01  0.36435026137E+02 -0.11252419686E+02  0.38473256684E+02  0.51100000000E-03 0. -1.
         23    2    1    0    0    0  0.24980298205E+02 -0.15659390056E+02  0.75096812101E+00  0.95507700184E+02  0.90840107034E+02 0.  0.
         11    1    3    3    0    0  0.19875065479E+02 -0.52094416193E+02  0.12003387807E+02  0.57034443500E+02  0.51100000000E-03 0.  1.
         22    1    1    0    0    0 -0.24980298205E+02  0.15659390056E+02 -0.75096812101E+00  0.29492299816E+02  0.00000000000E+00 0.  1.
</event>
<event>
 5    1  0.8962567E-005  0.9118800E+02  0.7818608E-02  0.1130116E+00
         25   -1    0    0    0    0  0.00000000000E+00  0.00000000000E+00  0.99999998245E-14  0.12500000000E+03  0.12500000000E+03 0.  0.
        -11    1    3    3    0    0 -0.93400979443E+01  0.21939299333E+00 -0.37204890770E+02  0.38359998180E+02  0.51100000000E-03 0. -1.
         23    2    1    0    0    0  0.18239780908E+02  0.20944305826E+02  0.88024569951E+01  0.95865196015E+02  0.91330712270E+02 0.  0.
         11    1    3    3    0    0  0.27579878852E+02  0.20724912832E+02  0.46007347765E+02  0.57505197835E+02  0.51100000000E-03 0.  1.
         22    1    1    0    0    0 -0.18239780908E+02 -0.20944305826E+02 -0.88024569951E+01  0.29134803985E+02  0.00000000000E+00 0.  1.
</event>
<event>
 5    1  0.8962567E-005  0.9118800E+02  0.7818608E-02  0.1130116E+00
         25   -1    0    0    0    0  0.00000000000E+00  0.00000000000E+00  0.99999998245E-14  0.12500000000E+03  0.12500000000E+03 0.  0.
        -11    1    3    3    0    0  0.25861514846E+02  0.40165533276E+02  0.22083561975E+02  0.52628620762E+02  0.51100000000E-03 0.  1.
         23    2    1    0    0    0 -0.10048222603E+02  0.15695954562E+02  0.22110442264E+02  0.96082852420E+02  0.91628123985E+02 0.  0.
         11    1    3    3    0    0 -0.35909737450E+02 -0.24469578715E+02  0.26880288641E-01  0.43454231658E+02  0.51100000000E-03 0. -1.
         22    1    1    0    0    0  0.10048222603E+02 -0.15695954562E+02 -0.22110442264E+02  0.28917147580E+02  0.00000000000E+00 0.  1.
</event>
<event>
 5    1  0.8962567E-005  0.9118800E+02  0.7818608E-02  0.1130116E+00
         25   -1    0    0    0    0  0.00000000000E+00  0.00000000000E+00  0.99999998245E-14  0.12500000000E+03  0.12500000000E+03 0.  0.
        -11    1    3    3    0    0 -0.10298136162E+02  0.39374252301E+02  0.36986885600E+02  0.54994663917E+02  0.51100000000E-03 0.  1.
         23    2    1    0    0    0 -0.13889927983E+02  0.24959860063E+02 -0.16490578663E+01  0.96388042612E+02  0.92043525862E+02 0.  0.
         11    1    3    3    0    0 -0.35917918208E+01 -0.14414392238E+02 -0.38635943466E+02  0.41393378696E+02  0.51100000000E-03 0. -1.
         22    1    1    0    0    0  0.13889927983E+02 -0.24959860063E+02  0.16490578663E+01  0.28611957388E+02  0.00000000000E+00 0.  1.
</event>
<event>
 5    1  0.8962567E-005  0.9118800E+02  0.7818608E-02  0.1130116E+00
         25   -1    0    0    0    0  0.00000000000E+00  0.00000000000E+00  0.99999998245E-14  0.12500000000E+03  0.12500000000E+03 0.  0.
        -11    1    3    3    0    0  0.94106958577E+01  0.49112046511E+02  0.77747830178E+01  0.50606339131E+02  0.51100000000E-03 0.  1.
         23    2    1    0    0    0 -0.38925521863E+01  0.14133747633E+02 -0.22092123445E+02  0.98486292168E+02  0.94850266430E+02 0.  0.
         11    1    3    3    0    0 -0.13303248044E+02 -0.34978298877E+02 -0.29866906463E+02  0.47879953037E+02  0.51100000000E-03 0. -1.
         22    1    1    0    0    0  0.38925521863E+01 -0.14133747633E+02  0.22092123445E+02  0.26513707832E+02  0.00000000000E+00 0. -1.
</event>
<event>
 5    1  0.8962567E-005  0.9118800E+02  0.7818608E-02  0.1130116E+00
         25   -1    0    0    0    0  0.00000000000E+00  0.00000000000E+00  0.99999998245E-14  0.12500000000E+03  0.12500000000E+03 0.  0.
        -11    1    3    3    0    0 -0.35720475781E+02 -0.37899228783E+02  0.63786904246E+01  0.52468958673E+02  0.51100000000E-03 0.  1.
         23    2    1    0    0    0  0.11707180332E+02 -0.16107005481E+02  0.38087445509E+01  0.10472685935E+03  0.10274587503E+03 0.  0.
         11    1    3    3    0    0  0.47427656113E+02  0.21792223302E+02 -0.25699458737E+01  0.52257900674E+02  0.51100000000E-03 0. -1.
         22    1    1    0    0    0 -0.11707180332E+02  0.16107005481E+02 -0.38087445509E+01  0.20273140653E+02  0.00000000000E+00 0. -1.
</event>
<event>
 5    1  0.8962567E-005  0.9118800E+02  0.7818608E-02  0.1130116E+00
         25   -1    0    0    0    0  0.00000000000E+00  0.00000000000E+00  0.99999998245E-14  0.12500000000E+03  0.12500000000E+03 0.  0.
        -11    1    3    3    0    0  0.56127076130E+02 -0.28591209935E+00 -0.24697937420E+02  0.61321436168E+02  0.51100000000E-03 0.  1.
         23    2    1    0    0    0  0.25377692809E+02  0.81829261466E+01 -0.13402681906E+02  0.95156751938E+02  0.90355896236E+02 0.  0.
         11    1    3    3    0    0 -0.30749383321E+02  0.84688382460E+01  0.11295255515E+02  0.33835315770E+02  0.51100000000E-03 0. -1.
         22    1    1    0    0    0 -0.25377692809E+02 -0.81829261466E+01  0.13402681906E+02  0.29843248062E+02  0.00000000000E+00 0.  1.
</event>
<event>
 5    1  0.8962567E-005  0.9118800E+02  0.7818608E-02  0.1130116E+00
         25   -1    0    0    0    0  0.00000000000E+00  0.00000000000E+00  0.99999998245E-14  0.12500000000E+03  0.12500000000E+03 0.  0.
        -11    1    3    3    0    0 -0.45745211997E+02  0.21588922051E+02 -0.32960037024E+02  0.60374415251E+02  0.51100000000E-03 0.  1.
         23    2    1    0    0    0 -0.21675510703E+02  0.83720162002E+01 -0.28555457060E+02  0.88185158598E+02  0.80132949837E+02 0.  0.
         11    1    3    3    0    0  0.24069701294E+02 -0.13216905851E+02  0.44045799635E+01  0.27810743348E+02  0.51100000000E-03 0. -1.
         22    1    1    0    0    0  0.21675510703E+02 -0.83720162002E+01  0.28555457060E+02  0.36814841402E+02  0.00000000000E+00 0.  1.
</event>
<event>
 5    1  0.8962567E-005  0.9118800E+02  0.7818608E-02  0.1130116E+00
         25   -1    0    0    0    0  0.00000000000E+00  0.00000000000E+00  0.99999998245E-14  0.12500000000E+03  0.12500000000E+03 0.  0.
        -11    1    3    3    0    0 -0.26654115288E+02 -0.15759876016E+02 -0.15033018562E+02  0.34421028473E+02  0.51100000000E-03 0.  1.
         23    2    1    0    0    0  0.25881567804E+02  0.13197364179E+02 -0.15422416588E+01  0.95906968487E+02  0.91387866382E+02 0.  0.
         11    1    3    3    0    0  0.52535683092E+02  0.28957240195E+02  0.13490776903E+02  0.61485940014E+02  0.51100000000E-03 0. -1.
         22    1    1    0    0    0 -0.25881567804E+02 -0.13197364179E+02  0.15422416588E+01  0.29093031513E+02  0.00000000000E+00 0. -1.
</event>
<event>
 5    1  0.8962567E-005  0.9118800E+02  0.7818608E-02  0.1130116E+00
         25   -1    0    0    0    0  0.00000000000E+00  0.00000000000E+00  0.99999998245E-14  0.12500000000E+03  0.12500000000E+03 0.  0.
        -11    1    3    3    0    0 -0.26873826075E+02  0.67209130111E+01 -0.54093594283E+02  0.60774091045E+02  0.51100000000E-03 0.  1.
         23    2    1    0    0    0 -0.72697299624E+01 -0.53312376651E+01 -0.28093222011E+02  0.95495759767E+02  0.90823675006E+02 0.  0.
         11    1    3    3    0    0  0.19604096113E+02 -0.12052150676E+02  0.26000372272E+02  0.34721668722E+02  0.51100000000E-03 0. -1.
         22    1    1    0    0    0  0.72697299624E+01  0.53312376651E+01  0.28093222011E+02  0.29504240233E+02  0.00000000000E+00 0.  1.
</event>
<event>
 5    1  0.8962567E-005  0.9118800E+02  0.7818608E-02  0.1130116E+00
         25   -1    0    0    0    0  0.00000000000E+00  0.00000000000E+00  0.99999998245E-14  0.12500000000E+03  0.12500000000E+03 0.  0.
        -11    1    3    3    0    0  0.20262236148E+02  0.75669821426E+01 -0.25584535481E+02  0.33502028125E+02  0.51100000000E-03 0. -1.
         23    2    1    0    0    0 -0.18379135656E+02 -0.46600099844E+01  0.21966553143E+02  0.95982112801E+02  0.91490590774E+02 0.  0.
         11    1    3    3    0    0 -0.38641371804E+02 -0.12226992127E+02  0.47551088624E+02  0.62480084675E+02  0.51100000000E-03 0.  1.
         22    1    1    0    0    0  0.18379135656E+02  0.46600099844E+01 -0.21966553143E+02  0.29017887199E+02  0.00000000000E+00 0.  1.
</event>
<event>
 5    1  0.8962567E-005  0.9118800E+02  0.7818608E-02  0.1130116E+00
         25   -1    0    0    0    0  0.00000000000E+00  0.00000000000E+00  0.99999998245E-14  0.12500000000E+03  0.12500000000E+03 0.  0.
        -11    1    3    3    0    0  0.48390680557E+02 -0.19182921842E+02  0.24028498342E+02  0.57332461904E+02  0.51100000000E-03 0.  1.
         23    2    1    0    0    0  0.13252115481E+02 -0.24329802815E+02  0.93490402316E+01  0.95760259525E+02  0.91186977587E+02 0.  0.
         11    1    3    3    0    0 -0.35138565076E+02 -0.51468809734E+01 -0.14679458111E+02  0.38427797621E+02  0.51100000000E-03 0. -1.
         22    1    1    0    0    0 -0.13252115481E+02  0.24329802815E+02 -0.93490402316E+01  0.29239740475E+02  0.00000000000E+00 0.  1.
</event>
<event>
 5    1  0.8962567E-005  0.9118800E+02  0.7818608E-02  0.1130116E+00
         25   -1    0    0    0    0  0.00000000000E+00  0.00000000000E+00  0.99999998245E-14  0.12500000000E+03  0.12500000000E+03 0.  0.
        -11    1    3    3    0    0  0.46241342439E+02 -0.34602213659E+02  0.22741855525E+02  0.62070660812E+02  0.51100000000E-03 0. -1.
         23    2    1    0    0    0  0.27803676561E+02 -0.15081831082E+02  0.97445774230E+01  0.91902222910E+02  0.85735382005E+02 0.  0.
         11    1    3    3    0    0 -0.18437665877E+02  0.19520382576E+02 -0.12997278102E+02  0.29831562099E+02  0.51100000000E-03 0.  1.
         22    1    1    0    0    0 -0.27803676561E+02  0.15081831082E+02 -0.97445774230E+01  0.33097777090E+02  0.00000000000E+00 0. -1.
</event>
<event>
 5    1  0.8962567E-005  0.9118800E+02  0.7818608E-02  0.1130116E+00
         25   -1    0    0    0    0  0.00000000000E+00  0.00000000000E+00  0.99999998245E-14  0.12500000000E+03  0.12500000000E+03 0.  0.
        -11    1    3    3    0    0  0.92792845704E+01  0.47551174436E+02  0.31418328982E+02  0.57743663797E+02  0.51100000000E-03 0. -1.
         23    2    1    0    0    0 -0.10749263247E+02  0.27678182496E+02  0.84401868416E+01  0.94131485288E+02  0.88926212794E+02 0.  0.
         11    1    3    3    0    0 -0.20028547817E+02 -0.19872991940E+02 -0.22978142141E+02  0.36387821490E+02  0.51100000000E-03 0.  1.
         22    1    1    0    0    0  0.10749263247E+02 -0.27678182496E+02 -0.84401868416E+01  0.30868514712E+02  0.00000000000E+00 0. -1.
</event>
<event>
 5    1  0.8962567E-005  0.9118800E+02  0.7818608E-02  0.1130116E+00
         25   -1    0    0    0    0  0.00000000000E+00  0.00000000000E+00  0.99999998245E-14  0.12500000000E+03  0.12500000000E+03 0.  0.
        -11    1    3    3    0    0  0.12089391925E+02  0.48862949227E+02  0.19511417103E+02  0.53985522151E+02  0.51100000000E-03 0.  1.
         23    2    1    0    0    0 -0.12549418067E+02  0.15663059681E+02  0.21768865125E+02  0.95390832143E+02  0.90679148847E+02 0.  0.
         11    1    3    3    0    0 -0.24638809992E+02 -0.33199889546E+02  0.22574480217E+01  0.41405309992E+02  0.51100000000E-03 0. -1.
         22    1    1    0    0    0  0.12549418067E+02 -0.15663059681E+02 -0.21768865125E+02  0.29609167857E+02  0.00000000000E+00 0.  1.
</event>
<event>
 5    1  0.8962567E-005  0.9118800E+02  0.7818608E-02  0.1130116E+00
         25   -1    0    0    0    0  0.00000000000E+00  0.00000000000E+00  0.99999998245E-14  0.12500000000E+03  0.12500000000E+03 0.  0.
        -11    1    3    3    0    0 -0.21618507721E+01 -0.30152891175E+02 -0.27856219905E+02  0.41107656618E+02  0.51100000000E-03 0.  1.
         23    2    1    0    0    0 -0.26211862732E+02  0.13061801156E+02 -0.63719112685E+01  0.95028786302E+02  0.90178692469E+02 0.  0.
         11    1    3    3    0    0 -0.24050011960E+02  0.43214692331E+02  0.21484308636E+02  0.53921129684E+02  0.51100000000E-03 0. -1.
         22    1    1    0    0    0  0.26211862732E+02 -0.13061801156E+02  0.63719112685E+01  0.29971213698E+02  0.00000000000E+00 0. -1.
</event>
<event>
 5    1  0.8962567E-005  0.9118800E+02  0.7818608E-02  0.1130116E+00
         25   -1    0    0    0    0  0.00000000000E+00  0.00000000000E+00  0.99999998245E-14  0.12500000000E+03  0.12500000000E+03 0.  0.
        -11    1    3    3    0    0  0.91213656923E+01 -0.25248383928E+02  0.30053872235E+02  0.40297834180E+02  0.51100000000E-03 0. -1.
         23    2    1    0    0    0 -0.21288968171E+02  0.16868504990E+02  0.12146456974E+02  0.95245957528E+02  0.90479220719E+02 0.  0.
         11    1    3    3    0    0 -0.30410333864E+02  0.42116888918E+02 -0.17907415261E+02  0.54948123348E+02  0.51100000000E-03 0.  1.
         22    1    1    0    0    0  0.21288968171E+02 -0.16868504990E+02 -0.12146456974E+02  0.29754042472E+02  0.00000000000E+00 0.  1.
</event>
<event>
 5    1  0.8962567E-005  0.9118800E+02  0.7818608E-02  0.1130116E+00
         25   -1    0    0    0    0  0.00000000000E+00  0.00000000000E+00  0.99999998245E-14  0.12500000000E+03  0.12500000000E+03 0.  0.
        -11    1    3    3    0    0  0.49285333934E+02 -0.11064867130E+02 -0.24059902415E+02  0.55949569525E+02  0.51100000000E-03 0. -1.
         23    2    1    0    0    0  0.11192279746E+02 -0.19457970557E+02 -0.19580812095E+02  0.95212621022E+02  0.90433153519E+02 0.  0.
         11    1    3    3    0    0 -0.38093054187E+02 -0.83931034271E+01  0.44790903207E+01  0.39263051496E+02  0.51100000000E-03 0.  1.
         22    1    1    0    0    0 -0.11192279746E+02  0.19457970557E+02  0.19580812095E+02  0.29787378978E+02  0.00000000000E+00 0. -1.
</event>
<event>
 5    1  0.8962567E-005  0.9118800E+02  0.7818608E-02  0.1130116E+00
         25   -1    0    0    0    0  0.00000000000E+00  0.00000000000E+00  0.99999998245E-14  0.12500000000E+03  0.12500000000E+03 0.  0.
        -11    1    3    3    0    0 -0.67620001466E+01 -0.29710862310E+02  0.26704001954E+02  0.40516215344E+02  0.51100000000E-03 0. -1.
         23    2    1    0    0    0  0.13754208584E+01 -0.14791289201E+02 -0.25539569273E+02  0.95454380741E+02  0.90766707471E+02 0.  0.
         11    1    3    3    0    0  0.81374210050E+01  0.14919573109E+02 -0.52243571227E+02  0.54938165397E+02  0.51100000000E-03 0.  1.
         22    1    1    0    0    0 -0.13754208584E+01  0.14791289201E+02  0.25539569273E+02  0.29545619259E+02  0.00000000000E+00 0.  1.
</event>
<event>
 5    1  0.8962567E-005  0.9118800E+02  0.7818608E-02  0.1130116E+00
         25   -1    0    0    0    0  0.00000000000E+00  0.00000000000E+00  0.99999998245E-14  0.12500000000E+03  0.12500000000E+03 0.  0.
        -11    1    3    3    0    0 -0.17336749997E+01 -0.55565434365E+02 -0.16989051320E+02  0.58130465250E+02  0.51100000000E-03 0. -1.
         23    2    1    0    0    0 -0.90238664543E+00 -0.28878801475E+02  0.83342824152E+01  0.94929088147E+02  0.90040391141E+02 0.  0.
         11    1    3    3    0    0  0.83128835424E+00  0.26686632891E+02  0.25323333735E+02  0.36798622897E+02  0.51100000000E-03 0.  1.
         22    1    1    0    0    0  0.90238664543E+00  0.28878801475E+02 -0.83342824152E+01  0.30070911853E+02  0.00000000000E+00 0. -1.
</event>
<event>
 5    1  0.8962567E-005  0.9118800E+02  0.7818608E-02  0.1130116E+00
         25   -1    0    0    0    0  0.00000000000E+00  0.00000000000E+00  0.99999998245E-14  0.12500000000E+03  0.12500000000E+03 0.  0.
        -11    1    3    3    0    0 -0.26023444480E+02  0.33523251002E+02 -0.17134127792E+02  0.45766869631E+02  0.51100000000E-03 0.  1.
         23    2    1    0    0    0 -0.14475526105E+02  0.83687831544E+01  0.24244184947E+02  0.95549059587E+02  0.90897001582E+02 0.  0.
         11    1    3    3    0    0  0.11547918375E+02 -0.25154467847E+02  0.41378312738E+02  0.49782189956E+02  0.51100000000E-03 0. -1.
         22    1    1    0    0    0  0.14475526105E+02 -0.83687831544E+01 -0.24244184947E+02  0.29450940413E+02  0.00000000000E+00 0. -1.
</event>
<event>
 5    1  0.8962567E-005  0.9118800E+02  0.7818608E-02  0.1130116E+00
         25   -1    0    0    0    0  0.00000000000E+00  0.00000000000E+00  0.99999998245E-14  0.12500000000E+03  0.12500000000E+03 0.  0.
        -11    1    3    3    0    0 -0.31966290529E+02 -0.27996452281E-01  0.20292204857E+02  0.37863149528E+02  0.51100000000E-03 0.  1.
         23    2    1    0    0    0  0.22843576002E+02 -0.15669403423E+02  0.79246780767E+01  0.96187508077E+02  0.91770785216E+02 0.  0.
         11    1    3    3    0    0  0.54809866531E+02 -0.15641406971E+02 -0.12367526780E+02  0.58324358549E+02  0.51100000000E-03 0. -1.
         22    1    1    0    0    0 -0.22843576002E+02  0.15669403423E+02 -0.79246780767E+01  0.28812491923E+02  0.00000000000E+00 0. -1.
</event>
<event>
 5    1  0.8962567E-005  0.9118800E+02  0.7818608E-02  0.1130116E+00
         25   -1    0    0    0    0  0.00000000000E+00  0.00000000000E+00  0.99999998245E-14  0.12500000000E+03  0.12500000000E+03 0.  0.
        -11    1    3    3    0    0  0.22870056254E+02 -0.23128096099E+02  0.36734961808E+02  0.49065320966E+02  0.51100000000E-03 0.  1.
         23    2    1    0    0    0  0.45299159285E+01 -0.28870141203E+02 -0.53135939917E+01  0.95297483734E+02  0.90550377876E+02 0.  0.
         11    1    3    3    0    0 -0.18340140326E+02 -0.57420451041E+01 -0.42048555799E+02  0.46232162768E+02  0.51100000000E-03 0. -1.
         22    1    1    0    0    0 -0.45299159285E+01  0.28870141203E+02  0.53135939917E+01  0.29702516266E+02  0.00000000000E+00 0. -1.
</event>
<event>
 5    1  0.8962567E-005  0.9118800E+02  0.7818608E-02  0.1130116E+00
         25   -1    0    0    0    0  0.00000000000E+00  0.00000000000E+00  0.99999998245E-14  0.12500000000E+03  0.12500000000E+03 0.  0.
        -11    1    3    3    0    0  0.29532814972E+02 -0.33710685948E+02 -0.21206753602E+02  0.49581487531E+02  0.51100000000E-03 0. -1.
         23    2    1    0    0    0 -0.12984159597E+02 -0.25868259670E+02 -0.11243748519E+02  0.93948798098E+02  0.88669044906E+02 0.  0.
         11    1    3    3    0    0 -0.42516974569E+02  0.78424262775E+01  0.99630050831E+01  0.44367310567E+02  0.51100000000E-03 0.  1.
         22    1    1    0    0    0  0.12984159597E+02  0.25868259670E+02  0.11243748519E+02  0.31051201902E+02  0.00000000000E+00 0. -1.
</event>
<event>
 5    1  0.8962567E-005  0.9118800E+02  0.7818608E-02  0.1130116E+00
         25   -1    0    0    0    0  0.00000000000E+00  0.00000000000E+00  0.99999998245E-14  0.12500000000E+03  0.12500000000E+03 0.  0.
        -11    1    3    3    0    0 -0.13059683030E+02  0.32796400980E+02 -0.61976881019E+01  0.35840906464E+02  0.51100000000E-03 0.  1.
         23    2    1    0    0    0  0.11172007786E+02 -0.22647843279E+02 -0.12763590888E+02  0.96704279201E+02  0.92471994681E+02 0.  0.
         11    1    3    3    0    0  0.24231690816E+02 -0.55444244259E+02 -0.65659027859E+01  0.60863372737E+02  0.51100000000E-03 0. -1.
         22    1    1    0    0    0 -0.11172007786E+02  0.22647843279E+02  0.12763590888E+02  0.28295720799E+02  0.00000000000E+00 0. -1.
</event>
<event>
 5    1  0.8962567E-005  0.9118800E+02  0.7818608E-02  0.1130116E+00
         25   -1    0    0    0    0  0.00000000000E+00  0.00000000000E+00  0.99999998245E-14  0.12500000000E+03  0.12500000000E+03 0.  0.
        -11    1    3    3    0    0 -0.58095030599E+01 -0.59101148076E+02 -0.16107273612E+02  0.61531620271E+02  0.51100000000E-03 0.  1.
         23    2    1    0    0    0 -0.10332852898E+02 -0.26707410103E+02 -0.87438091927E+01  0.95058259860E+02  0.90219537601E+02 0.  0.
         11    1    3    3    0    0 -0.45233498386E+01  0.32393737973E+02  0.73634644190E+01  0.33526639589E+02  0.51100000000E-03 0. -1.
         22    1    1    0    0    0  0.10332852898E+02  0.26707410103E+02  0.87438091927E+01  0.29941740140E+02  0.00000000000E+00 0.  1.
</event>
<event>
 5    1  0.8962567E-005  0.9118800E+02  0.7818608E-02  0.1130116E+00
         25   -1    0    0    0    0  0.00000000000E+00  0.00000000000E+00  0.99999998245E-14  0.12500000000E+03  0.12500000000E+03 0.  0.
        -11    1    3    3    0    0  0.54107471943E+02 -0.40497253553E+01 -0.17110455744E+02  0.56892763086E+02  0.51100000000E-03 0.  1.
         23    2    1    0    0    0  0.22354069938E+02  0.16638343526E+02 -0.95870140755E+01  0.95530528390E+02  0.90871514225E+02 0.  0.
         11    1    3    3    0    0 -0.31753402005E+02  0.20688068881E+02  0.75234416686E+01  0.38637765304E+02  0.51100000000E-03 0. -1.
         22    1    1    0    0    0 -0.22354069938E+02 -0.16638343526E+02  0.95870140755E+01  0.29469471610E+02  0.00000000000E+00 0.  1.
</event>
<event>
 5    1  0.8962567E-005  0.9118800E+02  0.7818608E-02  0.1130116E+00
         25   -1    0    0    0    0  0.00000000000E+00  0.00000000000E+00  0.99999998245E-14  0.12500000000E+03  0.12500000000E+03 0.  0.
        -11    1    3    3    0    0  0.22655256792E+02  0.13375270857E+02  0.37055916712E+02  0.45445566279E+02  0.51100000000E-03 0.  1.
         23    2    1    0    0    0 -0.19184302951E+02  0.19208109133E+02  0.80683440688E+01  0.96678857505E+02  0.92437624246E+02 0.  0.
         11    1    3    3    0    0 -0.41839559743E+02  0.58328382758E+01 -0.28987572643E+02  0.51233291226E+02  0.51100000000E-03 0. -1.
         22    1    1    0    0    0  0.19184302951E+02 -0.19208109133E+02 -0.80683440688E+01  0.28321142495E+02  0.00000000000E+00 0. -1.
</event>
<event>
 5    1  0.8962567E-005  0.9118800E+02  0.7818608E-02  0.1130116E+00
         25   -1    0    0    0    0  0.00000000000E+00  0.00000000000E+00  0.99999998245E-14  0.12500000000E+03  0.12500000000E+03 0.  0.
        -11    1    3    3    0    0  0.20062644250E+02  0.18106309478E+02  0.38448472467E+02  0.46996097418E+02  0.51100000000E-03 0.  1.
         23    2    1    0    0    0 -0.10092409485E+02 -0.16462432827E+02  0.21997278141E+02  0.95729730623E+02  0.91145118661E+02 0.  0.
         11    1    3    3    0    0 -0.30155053736E+02 -0.34568742305E+02 -0.16451194326E+02  0.48733633205E+02  0.51100000000E-03 0. -1.
         22    1    1    0    0    0  0.10092409485E+02  0.16462432827E+02 -0.21997278141E+02  0.29270269377E+02  0.00000000000E+00 0. -1.
</event>
<event>
 5    1  0.8962567E-005  0.9118800E+02  0.7818608E-02  0.1130116E+00
         25   -1    0    0    0    0  0.00000000000E+00  0.00000000000E+00  0.99999998245E-14  0.12500000000E+03  0.12500000000E+03 0.  0.
        -11    1    3    3    0    0 -0.17592858187E+02 -0.22323281931E+02 -0.51226516114E+02  0.58583218832E+02  0.51100000000E-03 0. -1.
         23    2    1    0    0    0 -0.16995002493E+02  0.25672960206E+01 -0.24036369552E+02  0.95450580719E+02  0.90761474094E+02 0.  0.
         11    1    3    3    0    0  0.59785569342E+00  0.24890577951E+02  0.27190146561E+02  0.36867361886E+02  0.51100000000E-03 0.  1.
         22    1    1    0    0    0  0.16995002493E+02 -0.25672960206E+01  0.24036369552E+02  0.29549419281E+02  0.00000000000E+00 0. -1.
</event>
<event>
 5    1  0.8962567E-005  0.9118800E+02  0.7818608E-02  0.1130116E+00
         25   -1    0    0    0    0  0.00000000000E+00  0.00000000000E+00  0.99999998245E-14  0.12500000000E+03  0.12500000000E+03 0.  0.
        -11    1    3    3    0    0 -0.22357403478E+02 -0.51677647617E+02  0.18775413153E+02  0.59354434483E+02  0.51100000000E-03 0.  1.
         23    2    1    0    0    0 -0.14735350816E+02 -0.15357594479E+02  0.19004806854E+02  0.96466353976E+02  0.92149815486E+02 0.  0.
         11    1    3    3    0    0  0.76220526622E+01  0.36320053138E+02  0.22939370048E+00  0.37111919493E+02  0.51100000000E-03 0. -1.
         22    1    1    0    0    0  0.14735350816E+02  0.15357594479E+02 -0.19004806854E+02  0.28533646024E+02  0.00000000000E+00 0.  1.
</event>
<event>
 5    1  0.8962567E-005  0.9118800E+02  0.7818608E-02  0.1130116E+00
         25   -1    0    0    0    0  0.00000000000E+00  0.00000000000E+00  0.99999998245E-14  0.12500000000E+03  0.12500000000E+03 0.  0.
        -11    1    3    3    0    0 -0.11359762118E+02 -0.53198512087E+02 -0.29433564940E+02  0.61850308237E+02  0.51100000000E-03 0.  1.
         23    2    1    0    0    0 -0.90114894472E+01 -0.22026361668E+02 -0.18094940965E+02  0.95103604918E+02  0.90282341736E+02 0.  0.
         11    1    3    3    0    0  0.23482726710E+01  0.31172150419E+02  0.11338623975E+02  0.33253296681E+02  0.51100000000E-03 0. -1.
         22    1    1    0    0    0  0.90114894472E+01  0.22026361668E+02  0.18094940965E+02  0.29896395082E+02  0.00000000000E+00 0.  1.
</event>
<event>
 5    1  0.8962567E-005  0.9118800E+02  0.7818608E-02  0.1130116E+00
         25   -1    0    0    0    0  0.00000000000E+00  0.00000000000E+00  0.99999998245E-14  0.12500000000E+03  0.12500000000E+03 0.  0.
        -11    1    3    3    0    0 -0.21707919579E+02 -0.41236130464E+02  0.80079036704E+01  0.47284022138E+02  0.51100000000E-03 0.  1.
         23    2    1    0    0    0 -0.28103963656E+02  0.64183498799E+01  0.68014872107E+01  0.95380948418E+02  0.90665523240E+02 0.  0.
         11    1    3    3    0    0 -0.63960440769E+01  0.47654480344E+02 -0.12064164597E+01  0.48096926280E+02  0.51100000000E-03 0. -1.
         22    1    1    0    0    0  0.28103963656E+02 -0.64183498799E+01 -0.68014872107E+01  0.29619051582E+02  0.00000000000E+00 0. -1.
</event>
<event>
 5    1  0.8962567E-005  0.9118800E+02  0.7818608E-02  0.1130116E+00
         25   -1    0    0    0    0  0.00000000000E+00  0.00000000000E+00  0.99999998245E-14  0.12500000000E+03  0.12500000000E+03 0.  0.
        -11    1    3    3    0    0 -0.38580927793E+02  0.10785186576E+01  0.47850350951E+02  0.61476070777E+02  0.51100000000E-03 0.  1.
         23    2    1    0    0    0 -0.20762870298E+02 -0.69530172654E+01  0.21222863933E+02  0.94506538641E+02  0.89451856662E+02 0.  0.
         11    1    3    3    0    0  0.17818057494E+02 -0.80315359230E+01 -0.26627487018E+02  0.33030467864E+02  0.51100000000E-03 0. -1.
         22    1    1    0    0    0  0.20762870298E+02  0.69530172654E+01 -0.21222863933E+02  0.30493461359E+02  0.00000000000E+00 0.  1.
</event>
<event>
 5    1  0.8962567E-005  0.9118800E+02  0.7818608E-02  0.1130116E+00
         25   -1    0    0    0    0  0.00000000000E+00  0.00000000000E+00  0.99999998245E-14  0.12500000000E+03  0.12500000000E+03 0.  0.
        -11    1    3    3    0    0  0.85185713799E+00  0.19023746906E+01 -0.40225017153E+02  0.40278985777E+02  0.51100000000E-03 0. -1.
         23    2    1    0    0    0  0.18600411322E+02 -0.18169858610E+02  0.99492721468E+01  0.97159255048E+02  0.93084981399E+02 0.  0.
         11    1    3    3    0    0  0.17748554184E+02 -0.20072233301E+02  0.50174289300E+02  0.56880269270E+02  0.51100000000E-03 0.  1.
         22    1    1    0    0    0 -0.18600411322E+02  0.18169858610E+02 -0.99492721468E+01  0.27840744952E+02  0.00000000000E+00 0.  1.
</event>
<event>
 5    1  0.8962567E-005  0.9118800E+02  0.7818608E-02  0.1130116E+00
         25   -1    0    0    0    0  0.00000000000E+00  0.00000000000E+00  0.99999998245E-14  0.12500000000E+03  0.12500000000E+03 0.  0.
        -11    1    3    3    0    0 -0.30631577291E+02  0.24711606045E+02 -0.39609133543E+00  0.39358784144E+02  0.51100000000E-03 0.  1.
         23    2    1    0    0    0  0.12056407956E+02 -0.31079693164E+01 -0.25844155958E+02  0.96313124198E+02  0.91941726379E+02 0.  0.
         11    1    3    3    0    0  0.42687985248E+02 -0.27819575361E+02 -0.25448064623E+02  0.56954340055E+02  0.51100000000E-03 0. -1.
         22    1    1    0    0    0 -0.12056407956E+02  0.31079693164E+01  0.25844155958E+02  0.28686875802E+02  0.00000000000E+00 0. -1.
</event>
<event>
 5    1  0.8962567E-005  0.9118800E+02  0.7818608E-02  0.1130116E+00
         25   -1    0    0    0    0  0.00000000000E+00  0.00000000000E+00  0.99999998245E-14  0.12500000000E+03  0.12500000000E+03 0.  0.
        -11    1    3    3    0    0 -0.26034065261E+02  0.15517512207E+02  0.26878737265E+02  0.40509656335E+02  0.51100000000E-03 0.  1.
         23    2    1    0    0    0  0.80062524901E+01  0.23301950890E+02 -0.15858537875E+02  0.95698562872E+02  0.91102363954E+02 0.  0.
         11    1    3    3    0    0  0.34040317751E+02  0.77844386830E+01 -0.42737275140E+02  0.55188906538E+02  0.51100000000E-03 0. -1.
         22    1    1    0    0    0 -0.80062524901E+01 -0.23301950890E+02  0.15858537875E+02  0.29301437128E+02  0.00000000000E+00 0. -1.
</event>
<event>
 5    1  0.8962567E-005  0.9118800E+02  0.7818608E-02  0.1130116E+00
         25   -1    0    0    0    0  0.00000000000E+00  0.00000000000E+00  0.99999998245E-14  0.12500000000E+03  0.12500000000E+03 0.  0.
        -11    1    3    3    0    0 -0.14089659277E+02 -0.55907066086E+02  0.14689975431E+02  0.59497175692E+02  0.51100000000E-03 0.  1.
         23    2    1    0    0    0 -0.50131227444E+01 -0.17347769205E+02  0.18320218802E+02  0.99276335545E+02  0.95885785632E+02 0.  0.
         11    1    3    3    0    0  0.90765365326E+01  0.38559296881E+02  0.36302433708E+01  0.39779159853E+02  0.51100000000E-03 0. -1.
         22    1    1    0    0    0  0.50131227444E+01  0.17347769205E+02 -0.18320218802E+02  0.25723664455E+02  0.00000000000E+00 0.  1.
</event>
<event>
 5    1  0.8962567E-005  0.9118800E+02  0.7818608E-02  0.1130116E+00
         25   -1    0    0    0    0  0.00000000000E+00  0.00000000000E+00  0.99999998245E-14  0.12500000000E+03  0.12500000000E+03 0.  0.
        -11    1    3    3    0    0  0.99414138665E+01  0.27753687450E+02  0.10824008065E+02  0.31404745303E+02  0.51100000000E-03 0.  1.
         23    2    1    0    0    0 -0.22264497046E+02 -0.23199177344E+02  0.85626049259E+01  0.91724966397E+02  0.85476555846E+02 0.  0.
         11    1    3    3    0    0 -0.32205910913E+02 -0.50952864794E+02 -0.22614031386E+01  0.60320221094E+02  0.51100000000E-03 0. -1.
         22    1    1    0    0    0  0.22264497046E+02  0.23199177344E+02 -0.85626049259E+01  0.33275033603E+02  0.00000000000E+00 0. -1.
</event>
<event>
 5    1  0.8962567E-005  0.9118800E+02  0.7818608E-02  0.1130116E+00
         25   -1    0    0    0    0  0.00000000000E+00  0.00000000000E+00  0.99999998245E-14  0.12500000000E+03  0.12500000000E+03 0.  0.
        -11    1    3    3    0    0  0.35355537207E+01  0.20983884291E+02  0.36302725186E+02  0.42079821723E+02  0.51100000000E-03 0.  1.
         23    2    1    0    0    0 -0.26379483199E+02  0.54230760360E+01 -0.72018768087E+01  0.97122519534E+02  0.93035637707E+02 0.  0.
         11    1    3    3    0    0 -0.29915036920E+02 -0.15560808255E+02 -0.43504601994E+02  0.55042697812E+02  0.51100000000E-03 0. -1.
         22    1    1    0    0    0  0.26379483199E+02 -0.54230760360E+01  0.72018768087E+01  0.27877480466E+02  0.00000000000E+00 0.  1.
</event>
<event>
 5    1  0.8962567E-005  0.9118800E+02  0.7818608E-02  0.1130116E+00
         25   -1    0    0    0    0  0.00000000000E+00  0.00000000000E+00  0.99999998245E-14  0.12500000000E+03  0.12500000000E+03 0.  0.
        -11    1    3    3    0    0  0.25890767946E+02  0.44125469155E+01 -0.48167451366E+01  0.26702124805E+02  0.51100000000E-03 0. -1.
         23    2    1    0    0    0 -0.35741945728E+02  0.70524077275E+01 -0.13599230061E+00  0.88568672367E+02  0.80728979257E+02 0.  0.
         11    1    3    3    0    0 -0.61632713674E+02  0.26398608120E+01  0.46807528360E+01  0.61866547563E+02  0.51100000000E-03 0.  1.
         22    1    1    0    0    0  0.35741945728E+02 -0.70524077275E+01  0.13599230061E+00  0.36431327633E+02  0.00000000000E+00 0.  1.
</event>
<event>
 5    1  0.8962567E-005  0.9118800E+02  0.7818608E-02  0.1130116E+00
         25   -1    0    0    0    0  0.00000000000E+00  0.00000000000E+00  0.99999998245E-14  0.12500000000E+03  0.12500000000E+03 0.  0.
        -11    1    3    3    0    0 -0.27570732043E+02 -0.14007843547E+02 -0.23202145312E+01  0.31012067683E+02  0.51100000000E-03 0. -1.
         23    2    1    0    0    0  0.24110361128E+02  0.20525398003E+02  0.16284911178E+01  0.93294267707E+02  0.87741477801E+02 0.  0.
         11    1    3    3    0    0  0.51681093171E+02  0.34533241549E+02  0.39487056490E+01  0.62282200024E+02  0.51100000000E-03 0.  1.
         22    1    1    0    0    0 -0.24110361128E+02 -0.20525398003E+02 -0.16284911178E+01  0.31705732293E+02  0.00000000000E+00 0.  1.
</event>
<event>
 5    1  0.8962567E-005  0.9118800E+02  0.7818608E-02  0.1130116E+00
         25   -1    0    0    0    0  0.00000000000E+00  0.00000000000E+00  0.99999998245E-14  0.12500000000E+03  0.12500000000E+03 0.  0.
        -11    1    3    3    0    0 -0.32045758515E+02  0.11737508534E+02  0.34090151714E+02  0.48237311177E+02  0.51100000000E-03 0.  1.
         23    2    1    0    0    0  0.15345410777E+01 -0.18625679923E+02  0.23932588911E+02  0.94634895342E+02  0.89631042811E+02 0.  0.
         11    1    3    3    0    0  0.33580299593E+02 -0.30363188457E+02 -0.10157562803E+02  0.46397584165E+02  0.51100000000E-03 0. -1.
         22    1    1    0    0    0 -0.15345410777E+01  0.18625679923E+02 -0.23932588911E+02  0.30365104658E+02  0.00000000000E+00 0.  1.
</event>
<event>
 5    1  0.8962567E-005  0.9118800E+02  0.7818608E-02  0.1130116E+00
         25   -1    0    0    0    0  0.00000000000E+00  0.00000000000E+00  0.99999998245E-14  0.12500000000E+03  0.12500000000E+03 0.  0.
        -11    1    3    3    0    0 -0.10073446789E+02  0.34287805700E+02 -0.37730000593E+01  0.35935546185E+02  0.51100000000E-03 0.  1.
         23    2    1    0    0    0 -0.19660065450E+02 -0.17550743780E+02  0.18119133077E+02  0.93017977484E+02  0.87346976886E+02 0.  0.
         11    1    3    3    0    0 -0.95866186605E+01 -0.51838549480E+02  0.21892133137E+02  0.57082431299E+02  0.51100000000E-03 0. -1.
         22    1    1    0    0    0  0.19660065450E+02  0.17550743780E+02 -0.18119133077E+02  0.31982022516E+02  0.00000000000E+00 0. -1.
</event>
<event>
 5    1  0.8962567E-005  0.9118800E+02  0.7818608E-02  0.1130116E+00
         25   -1    0    0    0    0  0.00000000000E+00  0.00000000000E+00  0.99999998245E-14  0.12500000000E+03  0.12500000000E+03 0.  0.
        -11    1    3    3    0    0  0.47156600333E+02 -0.26565821051E+02 -0.29779125226E+02  0.61776080344E+02  0.51100000000E-03 0.  1.
         23    2    1    0    0    0  0.19801675542E+02 -0.99568628319E+01 -0.19750143185E+02  0.95313073120E+02  0.90571895641E+02 0.  0.
         11    1    3    3    0    0 -0.27354924791E+02  0.16608958219E+02  0.10028982040E+02  0.33536992777E+02  0.51100000000E-03 0. -1.
         22    1    1    0    0    0 -0.19801675542E+02  0.99568628319E+01  0.19750143185E+02  0.29686926880E+02  0.00000000000E+00 0.  1.
</event>
<event>
 5    1  0.8962567E-005  0.9118800E+02  0.7818608E-02  0.1130116E+00
         25   -1    0    0    0    0  0.00000000000E+00  0.00000000000E+00  0.99999998245E-14  0.12500000000E+03  0.12500000000E+03 0.  0.
        -11    1    3    3    0    0  0.12445038620E+02  0.29555510068E+01  0.31565066791E+02  0.34058298692E+02  0.51100000000E-03 0.  1.
         23    2    1    0    0    0 -0.20645133222E+02 -0.49239139716E+01 -0.20003386772E+02  0.95834919220E+02  0.91289264457E+02 0.  0.
         11    1    3    3    0    0 -0.33090171841E+02 -0.78794649784E+01 -0.51568453563E+02  0.61776620529E+02  0.51100000000E-03 0. -1.
         22    1    1    0    0    0  0.20645133222E+02  0.49239139716E+01  0.20003386772E+02  0.29165080780E+02  0.00000000000E+00 0. -1.
</event>
<event>
 5    1  0.8962567E-005  0.9118800E+02  0.7818608E-02  0.1130116E+00
         25   -1    0    0    0    0  0.00000000000E+00  0.00000000000E+00  0.99999998245E-14  0.12500000000E+03  0.12500000000E+03 0.  0.
        -11    1    3    3    0    0  0.30278155341E+01 -0.34013474648E+02  0.77285611162E+01  0.35011637804E+02  0.51100000000E-03 0. -1.
         23    2    1    0    0    0 -0.19620858025E+01  0.26731980749E+02  0.10947537724E+02  0.96046638232E+02  0.91578706903E+02 0.  0.
         11    1    3    3    0    0 -0.49899013366E+01  0.60745455396E+02  0.32189766077E+01  0.61035000428E+02  0.51100000000E-03 0.  1.
         22    1    1    0    0    0  0.19620858025E+01 -0.26731980749E+02 -0.10947537724E+02  0.28953361768E+02  0.00000000000E+00 0.  1.
</event>
<event>
 5    1  0.8962567E-005  0.9118800E+02  0.7818608E-02  0.1130116E+00
         25   -1    0    0    0    0  0.00000000000E+00  0.00000000000E+00  0.99999998245E-14  0.12500000000E+03  0.12500000000E+03 0.  0.
        -11    1    3    3    0    0  0.25185124685E+02  0.31731805673E+02 -0.73122631308E+01  0.41166335628E+02  0.51100000000E-03 0.  1.
         23    2    1    0    0    0  0.81510695894E+01 -0.21491326318E+02 -0.14967981014E+02  0.97570864068E+02  0.93636082879E+02 0.  0.
         11    1    3    3    0    0 -0.17034055096E+02 -0.53223131991E+02 -0.76557178830E+01  0.56404528440E+02  0.51100000000E-03 0. -1.
         22    1    1    0    0    0 -0.81510695894E+01  0.21491326318E+02  0.14967981014E+02  0.27429135932E+02  0.00000000000E+00 0. -1.
</event>
<event>
 5    1  0.8962567E-005  0.9118800E+02  0.7818608E-02  0.1130116E+00
         25   -1    0    0    0    0  0.00000000000E+00  0.00000000000E+00  0.99999998245E-14  0.12500000000E+03  0.12500000000E+03 0.  0.
        -11    1    3    3    0    0  0.99872883776E+01 -0.29482183049E+02 -0.18534815388E+02  0.36228226954E+02  0.51100000000E-03 0. -1.
         23    2    1    0    0    0 -0.13564204728E+01  0.28041606622E+02 -0.80931446278E+01  0.95782358609E+02  0.91217266196E+02 0.  0.
         11    1    3    3    0    0 -0.11343708850E+02  0.57523789672E+02  0.10441670761E+02  0.59554131655E+02  0.51100000000E-03 0.  1.
         22    1    1    0    0    0  0.13564204728E+01 -0.28041606622E+02  0.80931446278E+01  0.29217641391E+02  0.00000000000E+00 0.  1.
</event>
<event>
 5    1  0.8962567E-005  0.9118800E+02  0.7818608E-02  0.1130116E+00
         25   -1    0    0    0    0  0.00000000000E+00  0.00000000000E+00  0.99999998245E-14  0.12500000000E+03  0.12500000000E+03 0.  0.
        -11    1    3    3    0    0  0.10879765823E+02  0.26953716819E+02  0.24535731723E+02  0.38037800754E+02  0.51100000000E-03 0.  1.
         23    2    1    0    0    0 -0.29067371279E+02  0.46599626909E+01 -0.83754627049E+01  0.94393208256E+02  0.89293348374E+02 0.  0.
         11    1    3    3    0    0 -0.39947137102E+02 -0.22293754128E+02 -0.32911194428E+02  0.56355407502E+02  0.51100000000E-03 0. -1.
         22    1    1    0    0    0  0.29067371279E+02 -0.46599626909E+01  0.83754627049E+01  0.30606791744E+02  0.00000000000E+00 0. -1.
</event>
<event>
 5    1  0.8962567E-005  0.9118800E+02  0.7818608E-02  0.1130116E+00
         25   -1    0    0    0    0  0.00000000000E+00  0.00000000000E+00  0.99999998245E-14  0.12500000000E+03  0.12500000000E+03 0.  0.
        -11    1    3    3    0    0 -0.44693566455E+02 -0.15222954105E+02  0.21645963346E+02  0.51940359486E+02  0.51100000000E-03 0.  1.
         23    2    1    0    0    0 -0.13858269582E+02  0.12600921874E+02  0.25173279894E+02  0.93622796675E+02  0.88208271544E+02 0.  0.
         11    1    3    3    0    0  0.30835296872E+02  0.27823875979E+02  0.35273165479E+01  0.41682437189E+02  0.51100000000E-03 0. -1.
         22    1    1    0    0    0  0.13858269582E+02 -0.12600921874E+02 -0.25173279894E+02  0.31377203325E+02  0.00000000000E+00 0.  1.
</event>
<event>
 5    1  0.8962567E-005  0.9118800E+02  0.7818608E-02  0.1130116E+00
         25   -1    0    0    0    0  0.00000000000E+00  0.00000000000E+00  0.99999998245E-14  0.12500000000E+03  0.12500000000E+03 0.  0.
        -11    1    3    3    0    0 -0.40881949954E+02 -0.14325895368E+02  0.16964871899E+02  0.46522811490E+02  0.51100000000E-03 0. -1.
         23    2    1    0    0    0  0.78811979977E+01 -0.21014933883E+02  0.18719661711E+02  0.95773873630E+02  0.91205638025E+02 0.  0.
         11    1    3    3    0    0  0.48763147951E+02 -0.66890385152E+01  0.17547898121E+01  0.49251062140E+02  0.51100000000E-03 0.  1.
         22    1    1    0    0    0 -0.78811979977E+01  0.21014933883E+02 -0.18719661711E+02  0.29226126370E+02  0.00000000000E+00 0. -1.
</event>
<event>
 5    1  0.8962567E-005  0.9118800E+02  0.7818608E-02  0.1130116E+00
         25   -1    0    0    0    0  0.00000000000E+00  0.00000000000E+00  0.99999998245E-14  0.12500000000E+03  0.12500000000E+03 0.  0.
        -11    1    3    3    0    0 -0.55826623554E+01 -0.10244383920E+02 -0.43740157104E+02  0.45269359004E+02  0.51100000000E-03 0.  1.
         23    2    1    0    0    0 -0.27286861565E+02  0.10919274464E+02 -0.38693007725E+01  0.95355863019E+02  0.90630931556E+02 0.  0.
         11    1    3    3    0    0 -0.21704199210E+02  0.21163658384E+02  0.39870856332E+02  0.50086504015E+02  0.51100000000E-03 0. -1.
         22    1    1    0    0    0  0.27286861565E+02 -0.10919274464E+02  0.38693007725E+01  0.29644136981E+02  0.00000000000E+00 0. -1.
</event>
<event>
 5    1  0.8962567E-005  0.9118800E+02  0.7818608E-02  0.1130116E+00
         25   -1    0    0    0    0  0.00000000000E+00  0.00000000000E+00  0.99999998245E-14  0.12500000000E+03  0.12500000000E+03 0.  0.
        -11    1    3    3    0    0  0.19880356147E+02 -0.20301367793E+02 -0.19081467777E+02  0.34226838995E+02  0.51100000000E-03 0.  1.
         23    2    1    0    0    0 -0.21943837039E+01  0.30295584481E+02  0.45704169625E+01  0.94283124018E+02  0.89139110409E+02 0.  0.
         11    1    3    3    0    0 -0.22074739851E+02  0.50596952273E+02  0.23651884739E+02  0.60056285024E+02  0.51100000000E-03 0. -1.
         22    1    1    0    0    0  0.21943837039E+01 -0.30295584481E+02 -0.45704169625E+01  0.30716875982E+02  0.00000000000E+00 0. -1.
</event>
<event>
 5    1  0.8962567E-005  0.9118800E+02  0.7818608E-02  0.1130116E+00
         25   -1    0    0    0    0  0.00000000000E+00  0.00000000000E+00  0.99999998245E-14  0.12500000000E+03  0.12500000000E+03 0.  0.
        -11    1    3    3    0    0  0.12308623811E+02 -0.79709670993E+01  0.55447594634E+02  0.57353938728E+02  0.51100000000E-03 0. -1.
         23    2    1    0    0    0  0.23846251182E+02 -0.90745142444E+01  0.28163751718E+02  0.86997534093E+02  0.78258440587E+02 0.  0.
         11    1    3    3    0    0  0.11537627371E+02 -0.11035471451E+01 -0.27283842916E+02  0.29643595365E+02  0.51100000000E-03 0.  1.
         22    1    1    0    0    0 -0.23846251182E+02  0.90745142444E+01 -0.28163751718E+02  0.38002465907E+02  0.00000000000E+00 0. -1.
</event>
<event>
 5    1  0.8962567E-005  0.9118800E+02  0.7818608E-02  0.1130116E+00
         25   -1    0    0    0    0  0.00000000000E+00  0.00000000000E+00  0.99999998245E-14  0.12500000000E+03  0.12500000000E+03 0.  0.
        -11    1    3    3    0    0  0.22563663174E+02  0.32978732250E+02 -0.11884607788E+02  0.41688842382E+02  0.51100000000E-03 0.  1.
         23    2    1    0    0    0  0.10448141646E+00 -0.10985628728E+02 -0.29038378883E+02  0.93952900247E+02  0.88674827666E+02 0.  0.
         11    1    3    3    0    0 -0.22459181758E+02 -0.43964360978E+02 -0.17153771096E+02  0.52264057865E+02  0.51100000000E-03 0. -1.
         22    1    1    0    0    0 -0.10448141646E+00  0.10985628728E+02  0.29038378883E+02  0.31047099753E+02  0.00000000000E+00 0. -1.
</event>
<event>
 5    1  0.8962567E-005  0.9118800E+02  0.7818608E-02  0.1130116E+00
         25   -1    0    0    0    0  0.00000000000E+00  0.00000000000E+00  0.99999998245E-14  0.12500000000E+03  0.12500000000E+03 0.  0.
        -11    1    3    3    0    0 -0.45621932542E+01  0.30270889594E+02  0.93212940333E+01  0.32000420104E+02  0.51100000000E-03 0.  1.
         23    2    1    0    0    0  0.70106914390E+01 -0.28346829971E+02  0.15274429662E+02  0.92045474281E+02  0.85943985073E+02 0.  0.
         11    1    3    3    0    0  0.11572884693E+02 -0.58617719565E+02  0.59531356285E+01  0.60045054178E+02  0.51100000000E-03 0. -1.
         22    1    1    0    0    0 -0.70106914390E+01  0.28346829971E+02 -0.15274429662E+02  0.32954525719E+02  0.00000000000E+00 0. -1.
</event>
<event>
 5    1  0.8962567E-005  0.9118800E+02  0.7818608E-02  0.1130116E+00
         25   -1    0    0    0    0  0.00000000000E+00  0.00000000000E+00  0.99999998245E-14  0.12500000000E+03  0.12500000000E+03 0.  0.
        -11    1    3    3    0    0 -0.36661925113E+02  0.44880488839E+02  0.14851631491E+01  0.57970343636E+02  0.51100000000E-03 0.  1.
         23    2    1    0    0    0 -0.36515854565E+01  0.30527623589E+02  0.36936195392E+01  0.94033684371E+02  0.88788631552E+02 0.  0.
         11    1    3    3    0    0  0.33010339656E+02 -0.14352865250E+02  0.22084563901E+01  0.36063340735E+02  0.51100000000E-03 0. -1.
         22    1    1    0    0    0  0.36515854565E+01 -0.30527623589E+02 -0.36936195392E+01  0.30966315629E+02  0.00000000000E+00 0.  1.
</event>
<event>
 5    1  0.8962567E-005  0.9118800E+02  0.7818608E-02  0.1130116E+00
         25   -1    0    0    0    0  0.00000000000E+00  0.00000000000E+00  0.99999998245E-14  0.12500000000E+03  0.12500000000E+03 0.  0.
        -11    1    3    3    0    0  0.17650497005E+02 -0.31374146163E+02 -0.50612079753E+02  0.62108451190E+02  0.51100000000E-03 0.  1.
         23    2    1    0    0    0  0.10852289403E+02 -0.17470234789E+02 -0.20519273101E+02  0.95947945727E+02  0.91443897729E+02 0.  0.
         11    1    3    3    0    0 -0.67982076018E+01  0.13903911374E+02  0.30092806652E+02  0.33839494538E+02  0.51100000000E-03 0. -1.
         22    1    1    0    0    0 -0.10852289403E+02  0.17470234789E+02  0.20519273101E+02  0.29052054273E+02  0.00000000000E+00 0.  1.
</event>
<event>
 5    1  0.8962567E-005  0.9118800E+02  0.7818608E-02  0.1130116E+00
         25   -1    0    0    0    0  0.00000000000E+00  0.00000000000E+00  0.99999998245E-14  0.12500000000E+03  0.12500000000E+03 0.  0.
        -11    1    3    3    0    0 -0.11638458053E+02 -0.37791096821E+02  0.26150137709E+02  0.47407282217E+02  0.51100000000E-03 0.  1.
         23    2    1    0    0    0 -0.91391141174E+01 -0.36673240939E+02 -0.11761294913E+02  0.85417452509E+02  0.75692556618E+02 0.  0.
         11    1    3    3    0    0  0.24993439357E+01  0.11178558815E+01 -0.37911432622E+02  0.38010170292E+02  0.51100000000E-03 0. -1.
         22    1    1    0    0    0  0.91391141174E+01  0.36673240939E+02  0.11761294913E+02  0.39582547491E+02  0.00000000000E+00 0. -1.
</event>
<event>
 5    1  0.8962567E-005  0.9118800E+02  0.7818608E-02  0.1130116E+00
         25   -1    0    0    0    0  0.00000000000E+00  0.00000000000E+00  0.99999998245E-14  0.12500000000E+03  0.12500000000E+03 0.  0.
        -11    1    3    3    0    0 -0.44684833272E+02 -0.20756761435E+02  0.30031157931E+02  0.57701368413E+02  0.51100000000E-03 0.  1.
         23    2    1    0    0    0 -0.24636456835E+02  0.62064549289E+01  0.63370359393E+01  0.98815403141E+02  0.95283003654E+02 0.  0.
         11    1    3    3    0    0  0.20048376437E+02  0.26963216364E+02 -0.23694121992E+02  0.41114034728E+02  0.51100000000E-03 0. -1.
         22    1    1    0    0    0  0.24636456835E+02 -0.62064549289E+01 -0.63370359393E+01  0.26184596859E+02  0.00000000000E+00 0.  1.
</event>
<event>
 5    1  0.8962567E-005  0.9118800E+02  0.7818608E-02  0.1130116E+00
         25   -1    0    0    0    0  0.00000000000E+00  0.00000000000E+00  0.99999998245E-14  0.12500000000E+03  0.12500000000E+03 0.  0.
        -11    1    3    3    0    0  0.95428151449E+01  0.29119575675E+02 -0.35896729198E+02  0.47197353483E+02  0.51100000000E-03 0. -1.
         23    2    1    0    0    0 -0.25768622676E+02  0.12496493931E+02 -0.77055409075E+01  0.95342629317E+02  0.90612677530E+02 0.  0.
         11    1    3    3    0    0 -0.35311437821E+02 -0.16623081744E+02  0.28191188291E+02  0.48145275834E+02  0.51100000000E-03 0.  1.
         22    1    1    0    0    0  0.25768622676E+02 -0.12496493931E+02  0.77055409075E+01  0.29657370683E+02  0.00000000000E+00 0.  1.
</event>
<event>
 5    1  0.8962567E-005  0.9118800E+02  0.7818608E-02  0.1130116E+00
         25   -1    0    0    0    0  0.00000000000E+00  0.00000000000E+00  0.99999998245E-14  0.12500000000E+03  0.12500000000E+03 0.  0.
        -11    1    3    3    0    0  0.16709356233E+02  0.34367399501E+02  0.44730026925E+02  0.58831080588E+02  0.51100000000E-03 0.  1.
         23    2    1    0    0    0  0.20335406565E+02  0.14544306358E+02  0.11998870233E+02  0.97268456688E+02  0.93231508472E+02 0.  0.
         11    1    3    3    0    0  0.36260503319E+01 -0.19823093143E+02 -0.32731156692E+02  0.38437376100E+02  0.51100000000E-03 0. -1.
         22    1    1    0    0    0 -0.20335406565E+02 -0.14544306358E+02 -0.11998870233E+02  0.27731543312E+02  0.00000000000E+00 0.  1.
</event>
<event>
 5    1  0.8962567E-005  0.9118800E+02  0.7818608E-02  0.1130116E+00
         25   -1    0    0    0    0  0.00000000000E+00  0.00000000000E+00  0.99999998245E-14  0.12500000000E+03  0.12500000000E+03 0.  0.
        -11    1    3    3    0    0  0.55804661892E+02 -0.22335764415E+01 -0.10967793134E+02  0.56916092971E+02  0.51100000000E-03 0. -1.
         23    2    1    0    0    0  0.31214997951E+02 -0.13684319133E+02  0.79697140968E+01  0.89997813926E+02  0.82912324063E+02 0.  0.
         11    1    3    3    0    0 -0.24589663941E+02 -0.11450742691E+02  0.18937507231E+02  0.33081720955E+02  0.51100000000E-03 0.  1.
         22    1    1    0    0    0 -0.31214997951E+02  0.13684319133E+02 -0.79697140968E+01  0.35002186074E+02  0.00000000000E+00 0. -1.
</event>
<event>
 5    1  0.8962567E-005  0.9118800E+02  0.7818608E-02  0.1130116E+00
         25   -1    0    0    0    0  0.00000000000E+00  0.00000000000E+00  0.99999998245E-14  0.12500000000E+03  0.12500000000E+03 0.  0.
        -11    1    3    3    0    0 -0.31646330749E+02  0.53820641760E+02 -0.47192516592E+00  0.62436963755E+02  0.51100000000E-03 0. -1.
         23    2    1    0    0    0 -0.10390816951E+02  0.14299179870E+02  0.38666873719E+00  0.10731992267E+03  0.10585358126E+03 0.  0.
         11    1    3    3    0    0  0.21255513798E+02 -0.39521461891E+02  0.85859390310E+00  0.44882958910E+02  0.51100000000E-03 0.  1.
         22    1    1    0    0    0  0.10390816951E+02 -0.14299179870E+02 -0.38666873719E+00  0.17680077335E+02  0.00000000000E+00 0. -1.
</event>
<event>
 5    1  0.8962567E-005  0.9118800E+02  0.7818608E-02  0.1130116E+00
         25   -1    0    0    0    0  0.00000000000E+00  0.00000000000E+00  0.99999998245E-14  0.12500000000E+03  0.12500000000E+03 0.  0.
        -11    1    3    3    0    0 -0.12267007515E+02 -0.19418623384E+02  0.24829629275E+02  0.33824146666E+02  0.51100000000E-03 0. -1.
         23    2    1    0    0    0  0.22343955101E+02 -0.64001839821E+01 -0.21661732237E+02  0.93228230643E+02  0.87647348281E+02 0.  0.
         11    1    3    3    0    0  0.34610962616E+02  0.13018439402E+02 -0.46491361512E+02  0.59404083977E+02  0.51100000000E-03 0.  1.
         22    1    1    0    0    0 -0.22343955101E+02  0.64001839821E+01  0.21661732237E+02  0.31771769357E+02  0.00000000000E+00 0.  1.
</event>
<event>
 5    1  0.8962567E-005  0.9118800E+02  0.7818608E-02  0.1130116E+00
         25   -1    0    0    0    0  0.00000000000E+00  0.00000000000E+00  0.99999998245E-14  0.12500000000E+03  0.12500000000E+03 0.  0.
        -11    1    3    3    0    0  0.28363699850E+02  0.36068798860E+02 -0.33349921689E+02  0.56724553743E+02  0.51100000000E-03 0.  1.
         23    2    1    0    0    0  0.72788695981E+00  0.28787181965E+02 -0.75407267243E+01  0.95232665144E+02  0.90460854992E+02 0.  0.
         11    1    3    3    0    0 -0.27635812890E+02 -0.72816168949E+01  0.25809194965E+02  0.38508111401E+02  0.51100000000E-03 0. -1.
         22    1    1    0    0    0 -0.72788695981E+00 -0.28787181965E+02  0.75407267243E+01  0.29767334856E+02  0.00000000000E+00 0.  1.
</event>
<event>
 5    1  0.8962567E-005  0.9118800E+02  0.7818608E-02  0.1130116E+00
         25   -1    0    0    0    0  0.00000000000E+00  0.00000000000E+00  0.99999998245E-14  0.12500000000E+03  0.12500000000E+03 0.  0.
        -11    1    3    3    0    0  0.15714724927E+00  0.35942195254E+02 -0.47687161257E+02  0.59715420487E+02  0.51100000000E-03 0.  1.
         23    2    1    0    0    0  0.13058356899E+02  0.15368273003E+02 -0.19112734237E+02  0.97215092046E+02  0.93159932437E+02 0.  0.
         11    1    3    3    0    0  0.12901209649E+02 -0.20573922251E+02  0.28574427021E+02  0.37499671559E+02  0.51100000000E-03 0. -1.
         22    1    1    0    0    0 -0.13058356899E+02 -0.15368273003E+02  0.19112734237E+02  0.27784907954E+02  0.00000000000E+00 0.  1.
</event>
<event>
 5    1  0.8962567E-005  0.9118800E+02  0.7818608E-02  0.1130116E+00
         25   -1    0    0    0    0  0.00000000000E+00  0.00000000000E+00  0.99999998245E-14  0.12500000000E+03  0.12500000000E+03 0.  0.
        -11    1    3    3    0    0 -0.12987953729E+02  0.41491024556E+02 -0.13306785573E+02  0.45467159613E+02  0.51100000000E-03 0.  1.
         23    2    1    0    0    0  0.16327744985E+02  0.16516473148E+02  0.18414465548E+02  0.95360808328E+02  0.90637751969E+02 0.  0.
         11    1    3    3    0    0  0.29315698714E+02 -0.24974551408E+02  0.31721251121E+02  0.49893648715E+02  0.51100000000E-03 0. -1.
         22    1    1    0    0    0 -0.16327744985E+02 -0.16516473148E+02 -0.18414465548E+02  0.29639191672E+02  0.00000000000E+00 0.  1.
</event>
<event>
 5    1  0.8962567E-005  0.9118800E+02  0.7818608E-02  0.1130116E+00
         25   -1    0    0    0    0  0.00000000000E+00  0.00000000000E+00  0.99999998245E-14  0.12500000000E+03  0.12500000000E+03 0.  0.
        -11    1    3    3    0    0 -0.57100110598E+01  0.18541879599E+02 -0.35073256922E+02  0.40081652620E+02  0.51100000000E-03 0.  1.
         23    2    1    0    0    0 -0.18879602530E+02 -0.21581520240E+02  0.19735863826E+01  0.96258106347E+02  0.91866896033E+02 0.  0.
         11    1    3    3    0    0 -0.13169591470E+02 -0.40123399839E+02  0.37046843305E+02  0.56176453726E+02  0.51100000000E-03 0. -1.
         22    1    1    0    0    0  0.18879602530E+02  0.21581520240E+02 -0.19735863826E+01  0.28741893653E+02  0.00000000000E+00 0. -1.
</event>
<event>
 5    1  0.8962567E-005  0.9118800E+02  0.7818608E-02  0.1130116E+00
         25   -1    0    0    0    0  0.00000000000E+00  0.00000000000E+00  0.99999998245E-14  0.12500000000E+03  0.12500000000E+03 0.  0.
        -11    1    3    3    0    0 -0.28653042704E+02 -0.34362878465E+01  0.25894350568E+02  0.38772700731E+02  0.51100000000E-03 0. -1.
         23    2    1    0    0    0 -0.13170744439E+02  0.52499477136E+01 -0.26965607685E+02  0.94534044281E+02  0.89490284781E+02 0.  0.
         11    1    3    3    0    0  0.15482298265E+02  0.86862355600E+01 -0.52859958253E+02  0.55761343550E+02  0.51100000000E-03 0.  1.
         22    1    1    0    0    0  0.13170744439E+02 -0.52499477136E+01  0.26965607685E+02  0.30465955719E+02  0.00000000000E+00 0.  1.
</event>
<event>
 5    1  0.8962567E-005  0.9118800E+02  0.7818608E-02  0.1130116E+00
         25   -1    0    0    0    0  0.00000000000E+00  0.00000000000E+00  0.99999998245E-14  0.12500000000E+03  0.12500000000E+03 0.  0.
        -11    1    3    3    0    0  0.34173933721E+02 -0.25790685002E+01 -0.27665203751E+02  0.44043987548E+02  0.51100000000E-03 0.  1.
         23    2    1    0    0    0  0.13872691582E+02 -0.95561124633E+01  0.21497236679E+02  0.97688792741E+02  0.93793380285E+02 0.  0.
         11    1    3    3    0    0 -0.20301242139E+02 -0.69770439631E+01  0.49162440430E+02  0.53644805193E+02  0.51100000000E-03 0. -1.
         22    1    1    0    0    0 -0.13872691582E+02  0.95561124633E+01 -0.21497236679E+02  0.27311207259E+02  0.00000000000E+00 0. -1.
</event>
<event>
 5    1  0.8962567E-005  0.9118800E+02  0.7818608E-02  0.1130116E+00
         25   -1    0    0    0    0  0.00000000000E+00  0.00000000000E+00  0.99999998245E-14  0.12500000000E+03  0.12500000000E+03 0.  0.
        -11    1    3    3    0    0  0.12781292413E+02 -0.25809220608E+02  0.22883116482E+02  0.36784702314E+02  0.51100000000E-03 0.  1.
         23    2    1    0    0    0 -0.23525949626E+02  0.16630470475E+02  0.31565482153E+01  0.96017131773E+02  0.91538423316E+02 0.  0.
         11    1    3    3    0    0 -0.36307242039E+02  0.42439691083E+02 -0.19726568267E+02  0.59232429459E+02  0.51100000000E-03 0. -1.
         22    1    1    0    0    0  0.23525949626E+02 -0.16630470475E+02 -0.31565482153E+01  0.28982868227E+02  0.00000000000E+00 0. -1.
</event>
<event>
 5    1  0.8962567E-005  0.9118800E+02  0.7818608E-02  0.1130116E+00
         25   -1    0    0    0    0  0.00000000000E+00  0.00000000000E+00  0.99999998245E-14  0.12500000000E+03  0.12500000000E+03 0.  0.
        -11    1    3    3    0    0 -0.15046030012E+02  0.27239254459E+02  0.22320553144E+02  0.38295784304E+02  0.51100000000E-03 0. -1.
         23    2    1    0    0    0  0.25827556132E+02  0.60167263710E+01 -0.12157927310E+02  0.95826744294E+02  0.91278070059E+02 0.  0.
         11    1    3    3    0    0  0.40873586144E+02 -0.21222528088E+02 -0.34478480454E+02  0.57530959990E+02  0.51100000000E-03 0.  1.
         22    1    1    0    0    0 -0.25827556132E+02 -0.60167263710E+01  0.12157927310E+02  0.29173255706E+02  0.00000000000E+00 0.  1.
</event>
<event>
 5    1  0.8962567E-005  0.9118800E+02  0.7818608E-02  0.1130116E+00
         25   -1    0    0    0    0  0.00000000000E+00  0.00000000000E+00  0.99999998245E-14  0.12500000000E+03  0.12500000000E+03 0.  0.
        -11    1    3    3    0    0  0.21812253728E+02  0.38876595206E+02 -0.27686342487E+02  0.52475686066E+02  0.51100000000E-03 0. -1.
         23    2    1    0    0    0  0.33291967667E+02  0.10629373306E+02 -0.69001182402E+01  0.89377671051E+02  0.81972054768E+02 0.  0.
         11    1    3    3    0    0  0.11479713938E+02 -0.28247221900E+02  0.20786224247E+02  0.36901984986E+02  0.51100000000E-03 0.  1.
         22    1    1    0    0    0 -0.33291967667E+02 -0.10629373306E+02  0.69001182402E+01  0.35622328949E+02  0.00000000000E+00 0. -1.
</event>
<event>
 5    1  0.8962567E-005  0.9118800E+02  0.7818608E-02  0.1130116E+00
         25   -1    0    0    0    0  0.00000000000E+00  0.00000000000E+00  0.99999998245E-14  0.12500000000E+03  0.12500000000E+03 0.  0.
        -11    1    3    3    0    0  0.94777572759E+01 -0.35809183055E+02  0.44505446954E+01  0.37308615927E+02  0.51100000000E-03 0.  1.
         23    2    1    0    0    0 -0.28059495378E+02  0.71770166636E+01  0.92935962224E+01  0.94582640157E+02  0.89558137761E+02 0.  0.
         11    1    3    3    0    0 -0.37537252654E+02  0.42986199719E+02  0.48430515270E+01  0.57274024230E+02  0.51100000000E-03 0. -1.
         22    1    1    0    0    0  0.28059495378E+02 -0.71770166636E+01 -0.92935962224E+01  0.30417359843E+02  0.00000000000E+00 0. -1.
</event>
<event>
 5    1  0.8962567E-005  0.9118800E+02  0.7818608E-02  0.1130116E+00
         25   -1    0    0    0    0  0.00000000000E+00  0.00000000000E+00  0.99999998245E-14  0.12500000000E+03  0.12500000000E+03 0.  0.
        -11    1    3    3    0    0 -0.29597211358E+02 -0.18877193729E+02  0.11216736834E+02  0.36853202693E+02  0.51100000000E-03 0. -1.
         23    2    1    0    0    0  0.82312146231E+00  0.22684301542E+02 -0.17966135416E+02  0.96051129777E+02  0.91584837415E+02 0.  0.
         11    1    3    3    0    0  0.30420332820E+02  0.41561495271E+02 -0.29182872250E+02  0.59197927084E+02  0.51100000000E-03 0.  1.
         22    1    1    0    0    0 -0.82312146231E+00 -0.22684301542E+02  0.17966135416E+02  0.28948870223E+02  0.00000000000E+00 0.  1.
</event>
<event>
 5    1  0.8962567E-005  0.9118800E+02  0.7818608E-02  0.1130116E+00
         25   -1    0    0    0    0  0.00000000000E+00  0.00000000000E+00  0.99999998245E-14  0.12500000000E+03  0.12500000000E+03 0.  0.
        -11    1    3    3    0    0  0.34424118033E+02  0.12159090849E+02  0.27746527077E+02  0.45855568449E+02  0.51100000000E-03 0. -1.
         23    2    1    0    0    0 -0.11499544648E+02  0.15597658899E+02  0.26813100224E+02  0.91917242650E+02  0.85757277607E+02 0.  0.
         11    1    3    3    0    0 -0.45923662681E+02  0.34385680502E+01 -0.93342685302E+00  0.46061674202E+02  0.51100000000E-03 0.  1.
         22    1    1    0    0    0  0.11499544648E+02 -0.15597658899E+02 -0.26813100224E+02  0.33082757350E+02  0.00000000000E+00 0. -1.
</event>
<event>
 5    1  0.8962567E-005  0.9118800E+02  0.7818608E-02  0.1130116E+00
         25   -1    0    0    0    0  0.00000000000E+00  0.00000000000E+00  0.99999998245E-14  0.12500000000E+03  0.12500000000E+03 0.  0.
        -11    1    3    3    0    0  0.44656666805E+01 -0.33705407272E+02 -0.49721894614E+02  0.60235068378E+02  0.51100000000E-03 0.  1.
         23    2    1    0    0    0  0.77747563491E+01 -0.22295326945E+02 -0.14774578409E+02  0.97146515352E+02  0.93067872211E+02 0.  0.
         11    1    3    3    0    0  0.33090896686E+01  0.11410080327E+02  0.34947316205E+02  0.36911446974E+02  0.51100000000E-03 0. -1.
         22    1    1    0    0    0 -0.77747563491E+01  0.22295326945E+02  0.14774578409E+02  0.27853484648E+02  0.00000000000E+00 0.  1.
</event>
<event>
 5    1  0.8962567E-005  0.9118800E+02  0.7818608E-02  0.1130116E+00
         25   -1    0    0    0    0  0.00000000000E+00  0.00000000000E+00  0.99999998245E-14  0.12500000000E+03  0.12500000000E+03 0.  0.
        -11    1    3    3    0    0  0.15193698056E+02  0.30409103147E+02  0.13639190107E+02  0.36627715215E+02  0.51100000000E-03 0. -1.
         23    2    1    0    0    0 -0.18255238880E+02 -0.19827222065E+02  0.47915934864E+01  0.97626073546E+02  0.93709756091E+02 0.  0.
         11    1    3    3    0    0 -0.33448936936E+02 -0.50236325211E+02 -0.88475966206E+01  0.60998358331E+02  0.51100000000E-03 0.  1.
         22    1    1    0    0    0  0.18255238880E+02  0.19827222065E+02 -0.47915934864E+01  0.27373926454E+02  0.00000000000E+00 0.  1.
</event>
<event>
 5    1  0.8962567E-005  0.9118800E+02  0.7818608E-02  0.1130116E+00
         25   -1    0    0    0    0  0.00000000000E+00  0.00000000000E+00  0.99999998245E-14  0.12500000000E+03  0.12500000000E+03 0.  0.
        -11    1    3    3    0    0 -0.39996350469E+02 -0.17087583913E+02 -0.68329412187E+01  0.44027067365E+02  0.51100000000E-03 0. -1.
         23    2    1    0    0    0 -0.29808139163E+01 -0.10621765374E+02  0.27776427453E+02  0.95112927990E+02  0.90295249031E+02 0.  0.
         11    1    3    3    0    0  0.37015536552E+02  0.64658185395E+01  0.34609368672E+02  0.51085860625E+02  0.51100000000E-03 0.  1.
         22    1    1    0    0    0  0.29808139163E+01  0.10621765374E+02 -0.27776427453E+02  0.29887072010E+02  0.00000000000E+00 0.  1.
</event>
<event>
 5    1  0.8962567E-005  0.9118800E+02  0.7818608E-02  0.1130116E+00
         25   -1    0    0    0    0  0.00000000000E+00  0.00000000000E+00  0.99999998245E-14  0.12500000000E+03  0.12500000000E+03 0.  0.
        -11    1    3    3    0    0 -0.81044724801E+01  0.21272046083E+02 -0.37641062037E+02  0.43988998286E+02  0.51100000000E-03 0.  1.
         23    2    1    0    0    0  0.23514668109E+02  0.16103723484E+02  0.36660964758E+01  0.96264833571E+02  0.91876049071E+02 0.  0.
         11    1    3    3    0    0  0.31619140589E+02 -0.51683225991E+01  0.41307158513E+02  0.52275835285E+02  0.51100000000E-03 0. -1.
         22    1    1    0    0    0 -0.23514668109E+02 -0.16103723484E+02 -0.36660964758E+01  0.28735166429E+02  0.00000000000E+00 0. -1.
</event>
<event>
 5    1  0.8962567E-005  0.9118800E+02  0.7818608E-02  0.1130116E+00
         25   -1    0    0    0    0  0.00000000000E+00  0.00000000000E+00  0.99999998245E-14  0.12500000000E+03  0.12500000000E+03 0.  0.
        -11    1    3    3    0    0 -0.34502991493E+02 -0.19636254597E+02  0.27538420189E+02  0.48315665196E+02  0.51100000000E-03 0. -1.
         23    2    1    0    0    0  0.52723621288E+01 -0.29965208165E+02  0.13119271485E+02  0.91866530711E+02  0.85683327887E+02 0.  0.
         11    1    3    3    0    0  0.39775353621E+02 -0.10328953568E+02 -0.14419148704E+02  0.43550865515E+02  0.51100000000E-03 0.  1.
         22    1    1    0    0    0 -0.52723621288E+01  0.29965208165E+02 -0.13119271485E+02  0.33133469289E+02  0.00000000000E+00 0.  1.
</event>
<event>
 5    1  0.8962567E-005  0.9118800E+02  0.7818608E-02  0.1130116E+00
         25   -1    0    0    0    0  0.00000000000E+00  0.00000000000E+00  0.99999998245E-14  0.12500000000E+03  0.12500000000E+03 0.  0.
        -11    1    3    3    0    0 -0.30465849571E+02 -0.12050752319E+02  0.35927049004E+02  0.48622437947E+02  0.51100000000E-03 0. -1.
         23    2    1    0    0    0 -0.17467029909E+02  0.21678161470E+02  0.39537763956E+01  0.96881106595E+02  0.92710714853E+02 0.  0.
         11    1    3    3    0    0  0.12998819662E+02  0.33728913789E+02 -0.31973272609E+02  0.48258668647E+02  0.51100000000E-03 0.  1.
         22    1    1    0    0    0  0.17467029909E+02 -0.21678161470E+02 -0.39537763956E+01  0.28118893405E+02  0.00000000000E+00 0.  1.
</event>
<event>
 5    1  0.8962567E-005  0.9118800E+02  0.7818608E-02  0.1130116E+00
         25   -1    0    0    0    0  0.00000000000E+00  0.00000000000E+00  0.99999998245E-14  0.12500000000E+03  0.12500000000E+03 0.  0.
        -11    1    3    3    0    0  0.18170481157E+02 -0.60615571567E+01 -0.19459386989E+02  0.27305248633E+02  0.51100000000E-03 0. -1.
         23    2    1    0    0    0 -0.25330708088E+01  0.40781515514E+02  0.45858204346E+01  0.83883358547E+02  0.73115249003E+02 0.  0.
         11    1    3    3    0    0 -0.20703551966E+02  0.46843072670E+02  0.24045207424E+02  0.56578109914E+02  0.51100000000E-03 0.  1.
         22    1    1    0    0    0  0.25330708088E+01 -0.40781515514E+02 -0.45858204346E+01  0.41116641453E+02  0.00000000000E+00 0.  1.
</event>
<event>
 5    1  0.8962567E-005  0.9118800E+02  0.7818608E-02  0.1130116E+00
         25   -1    0    0    0    0  0.00000000000E+00  0.00000000000E+00  0.99999998245E-14  0.12500000000E+03  0.12500000000E+03 0.  0.
        -11    1    3    3    0    0  0.13939645625E+01 -0.18381554550E+02 -0.35532032024E+02  0.40029364034E+02  0.51100000000E-03 0. -1.
         23    2    1    0    0    0  0.16827443852E+02 -0.15581751922E+02  0.18021535234E+02  0.95832730815E+02  0.91286267881E+02 0.  0.
         11    1    3    3    0    0  0.15433479290E+02  0.27998026286E+01  0.53553567258E+02  0.55803366781E+02  0.51100000000E-03 0.  1.
         22    1    1    0    0    0 -0.16827443852E+02  0.15581751922E+02 -0.18021535234E+02  0.29167269185E+02  0.00000000000E+00 0.  1.
</event>
<event>
 5    1  0.8962567E-005  0.9118800E+02  0.7818608E-02  0.1130116E+00
         25   -1    0    0    0    0  0.00000000000E+00  0.00000000000E+00  0.99999998245E-14  0.12500000000E+03  0.12500000000E+03 0.  0.
        -11    1    3    3    0    0  0.26055388752E+02 -0.23793442445E+02  0.23443451833E+02  0.42362797600E+02  0.51100000000E-03 0.  1.
         23    2    1    0    0    0 -0.14697837073E+02  0.13937349786E+02  0.17526211566E+02  0.98214850653E+02  0.94491865593E+02 0.  0.
         11    1    3    3    0    0 -0.40753225826E+02  0.37730792231E+02 -0.59172402667E+01  0.55852053053E+02  0.51100000000E-03 0. -1.
         22    1    1    0    0    0  0.14697837073E+02 -0.13937349786E+02 -0.17526211566E+02  0.26785149347E+02  0.00000000000E+00 0. -1.
</event>
<event>
 5    1  0.8962567E-005  0.9118800E+02  0.7818608E-02  0.1130116E+00
         25   -1    0    0    0    0  0.00000000000E+00  0.00000000000E+00  0.99999998245E-14  0.12500000000E+03  0.12500000000E+03 0.  0.
        -11    1    3    3    0    0 -0.51313817540E+02  0.22800050941E+02 -0.25951574508E+02  0.61858179840E+02  0.51100000000E-03 0.  1.
         23    2    1    0    0    0 -0.26927391103E+02  0.13115349981E+02 -0.20629048116E+02  0.88631683804E+02  0.80826486692E+02 0.  0.
         11    1    3    3    0    0  0.24386426437E+02 -0.96847009607E+01  0.53225263917E+01  0.26773503964E+02  0.51100000000E-03 0. -1.
         22    1    1    0    0    0  0.26927391103E+02 -0.13115349981E+02  0.20629048116E+02  0.36368316196E+02  0.00000000000E+00 0.  1.
</event>
<event>
 5    1  0.8962567E-005  0.9118800E+02  0.7818608E-02  0.1130116E+00
         25   -1    0    0    0    0  0.00000000000E+00  0.00000000000E+00  0.99999998245E-14  0.12500000000E+03  0.12500000000E+03 0.  0.
        -11    1    3    3    0    0 -0.48791257827E+02 -0.15457038241E+01 -0.12442350911E+02  0.50376464119E+02  0.51100000000E-03 0. -1.
         23    2    1    0    0    0 -0.17228785653E+02  0.25989633159E+02 -0.96695935596E+01  0.92353512801E+02  0.86390845582E+02 0.  0.
         11    1    3    3    0    0  0.31562472174E+02  0.27535336983E+02  0.27727573511E+01  0.41977048682E+02  0.51100000000E-03 0.  1.
         22    1    1    0    0    0  0.17228785653E+02 -0.25989633159E+02  0.96695935596E+01  0.32646487199E+02  0.00000000000E+00 0. -1.
</event>
<event>
 5    1  0.8962567E-005  0.9118800E+02  0.7818608E-02  0.1130116E+00
         25   -1    0    0    0    0  0.00000000000E+00  0.00000000000E+00  0.99999998245E-14  0.12500000000E+03  0.12500000000E+03 0.  0.
        -11    1    3    3    0    0  0.33394501789E+02  0.15938912038E+02 -0.98828010860E+01  0.38300279689E+02  0.51100000000E-03 0. -1.
         23    2    1    0    0    0 -0.24042246104E+02  0.84310675956E+01 -0.13171605288E+02  0.96318931603E+02  0.91949621537E+02 0.  0.
         11    1    3    3    0    0 -0.57436747892E+02 -0.75078444428E+01 -0.32888042018E+01  0.58018651914E+02  0.51100000000E-03 0.  1.
         22    1    1    0    0    0  0.24042246104E+02 -0.84310675956E+01  0.13171605288E+02  0.28681068397E+02  0.00000000000E+00 0.  1.
</event>
<event>
 5    1  0.8962567E-005  0.9118800E+02  0.7818608E-02  0.1130116E+00
         25   -1    0    0    0    0  0.00000000000E+00  0.00000000000E+00  0.99999998245E-14  0.12500000000E+03  0.12500000000E+03 0.  0.
        -11    1    3    3    0    0 -0.10872736884E+02  0.36337580130E+02 -0.84134690346E+01  0.38851288247E+02  0.51100000000E-03 0. -1.
         23    2    1    0    0    0  0.28863609600E+02 -0.60726542137E+00  0.70737181451E+01  0.95276032923E+02  0.90520761324E+02 0.  0.
         11    1    3    3    0    0  0.39736346484E+02 -0.36944845551E+02  0.15487187180E+02  0.56424744675E+02  0.51100000000E-03 0.  1.
         22    1    1    0    0    0 -0.28863609600E+02  0.60726542137E+00 -0.70737181451E+01  0.29723967077E+02  0.00000000000E+00 0.  1.
</event>
<event>
 5    1  0.8962567E-005  0.9118800E+02  0.7818608E-02  0.1130116E+00
         25   -1    0    0    0    0  0.00000000000E+00  0.00000000000E+00  0.99999998245E-14  0.12500000000E+03  0.12500000000E+03 0.  0.
        -11    1    3    3    0    0 -0.52619579008E+02 -0.16853106453E+02 -0.21926671352E+02  0.59444311830E+02  0.51100000000E-03 0.  1.
         23    2    1    0    0    0 -0.23700557603E+02  0.33755285470E+01 -0.18190602722E+02  0.94933263379E+02  0.90046187286E+02 0.  0.
         11    1    3    3    0    0  0.28919021405E+02  0.20228635000E+02  0.37360686302E+01  0.35488951549E+02  0.51100000000E-03 0. -1.
         22    1    1    0    0    0  0.23700557603E+02 -0.33755285470E+01  0.18190602722E+02  0.30066736621E+02  0.00000000000E+00 0.  1.
</event>
<event>
 5    1  0.8962567E-005  0.9118800E+02  0.7818608E-02  0.1130116E+00
         25   -1    0    0    0    0  0.00000000000E+00  0.00000000000E+00  0.99999998245E-14  0.12500000000E+03  0.12500000000E+03 0.  0.
        -11    1    3    3    0    0 -0.24069104040E+01 -0.11536704073E+02  0.35250511553E+02  0.37168364553E+02  0.51100000000E-03 0. -1.
         23    2    1    0    0    0 -0.21404183319E+02  0.10769715750E+02 -0.15989531368E+02  0.96193907688E+02  0.91779501644E+02 0.  0.
         11    1    3    3    0    0 -0.18997272915E+02  0.22306419824E+02 -0.51240042921E+02  0.59025543135E+02  0.51100000000E-03 0.  1.
         22    1    1    0    0    0  0.21404183319E+02 -0.10769715750E+02  0.15989531368E+02  0.28806092312E+02  0.00000000000E+00 0. -1.
</event>
<event>
 5    1  0.8962567E-005  0.9118800E+02  0.7818608E-02  0.1130116E+00
         25   -1    0    0    0    0  0.00000000000E+00  0.00000000000E+00  0.99999998245E-14  0.12500000000E+03  0.12500000000E+03 0.  0.
        -11    1    3    3    0    0  0.22690802442E+02 -0.97344205283E+01 -0.50119954726E+02  0.55871650418E+02  0.51100000000E-03 0.  1.
         23    2    1    0    0    0  0.76302496983E+01  0.13686785155E+02 -0.32759442371E+02  0.88685679645E+02  0.80909949396E+02 0.  0.
         11    1    3    3    0    0 -0.15060552744E+02  0.23421205684E+02  0.17360512355E+02  0.32814029227E+02  0.51100000000E-03 0. -1.
         22    1    1    0    0    0 -0.76302496983E+01 -0.13686785155E+02  0.32759442371E+02  0.36314320355E+02  0.00000000000E+00 0.  1.
</event>
<event>
 5    1  0.8962567E-005  0.9118800E+02  0.7818608E-02  0.1130116E+00
         25   -1    0    0    0    0  0.00000000000E+00  0.00000000000E+00  0.99999998245E-14  0.12500000000E+03  0.12500000000E+03 0.  0.
        -11    1    3    3    0    0  0.47829396437E+02  0.21543712187E+02 -0.17023034977E+02  0.55150398171E+02  0.51100000000E-03 0. -1.
         23    2    1    0    0    0  0.16157746186E+02  0.10014912513E+02  0.14338501230E+02  0.10118899725E+03  0.98347594340E+02 0.  0.
         11    1    3    3    0    0 -0.31671650251E+02 -0.11528799675E+02  0.31361536208E+02  0.46038599079E+02  0.51100000000E-03 0.  1.
         22    1    1    0    0    0 -0.16157746186E+02 -0.10014912513E+02 -0.14338501230E+02  0.23811002750E+02  0.00000000000E+00 0.  1.
</event>
<event>
 5    1  0.8962567E-005  0.9118800E+02  0.7818608E-02  0.1130116E+00
         25   -1    0    0    0    0  0.00000000000E+00  0.00000000000E+00  0.99999998245E-14  0.12500000000E+03  0.12500000000E+03 0.  0.
        -11    1    3    3    0    0  0.45176966190E+02  0.20202252926E+02  0.35064057957E+02  0.60651277464E+02  0.51100000000E-03 0. -1.
         23    2    1    0    0    0  0.19175301295E+02  0.27866466877E+00  0.21728641840E+02  0.96018907716E+02  0.91540848418E+02 0.  0.
         11    1    3    3    0    0 -0.26001664895E+02 -0.19923588257E+02 -0.13335416116E+02  0.35367630252E+02  0.51100000000E-03 0.  1.
         22    1    1    0    0    0 -0.19175301295E+02 -0.27866466877E+00 -0.21728641840E+02  0.28981092284E+02  0.00000000000E+00 0. -1.
</event>
<event>
 5    1  0.8962567E-005  0.9118800E+02  0.7818608E-02  0.1130116E+00
         25   -1    0    0    0    0  0.00000000000E+00  0.00000000000E+00  0.99999998245E-14  0.12500000000E+03  0.12500000000E+03 0.  0.
        -11    1    3    3    0    0  0.23413826200E+02 -0.38036008416E+01 -0.26426800869E+02  0.35511272029E+02  0.51100000000E-03 0.  1.
         23    2    1    0    0    0 -0.92442241074E+01 -0.10510781626E+02  0.24735981401E+02  0.96578160060E+02  0.92301354350E+02 0.  0.
         11    1    3    3    0    0 -0.32658050307E+02 -0.67071807841E+01  0.51162782270E+02  0.61066888031E+02  0.51100000000E-03 0. -1.
         22    1    1    0    0    0  0.92442241074E+01  0.10510781626E+02 -0.24735981401E+02  0.28421839940E+02  0.00000000000E+00 0. -1.
</event>
<event>
 5    1  0.8962567E-005  0.9118800E+02  0.7818608E-02  0.1130116E+00
         25   -1    0    0    0    0  0.00000000000E+00  0.00000000000E+00  0.99999998245E-14  0.12500000000E+03  0.12500000000E+03 0.  0.
        -11    1    3    3    0    0  0.22266480823E+01 -0.61015702716E+02  0.73336720592E+00  0.61060721969E+02  0.51100000000E-03 0. -1.
         23    2    1    0    0    0  0.98482980398E+01 -0.30398433087E+02  0.40682791886E+01  0.92788129455E+02  0.87017425633E+02 0.  0.
         11    1    3    3    0    0  0.76216499575E+01  0.30617269629E+02  0.33349119827E+01  0.31727407487E+02  0.51100000000E-03 0.  1.
         22    1    1    0    0    0 -0.98482980398E+01  0.30398433087E+02 -0.40682791886E+01  0.32211870545E+02  0.00000000000E+00 0. -1.
</event>
<event>
 5    1  0.8962567E-005  0.9118800E+02  0.7818608E-02  0.1130116E+00
         25   -1    0    0    0    0  0.00000000000E+00  0.00000000000E+00  0.99999998245E-14  0.12500000000E+03  0.12500000000E+03 0.  0.
        -11    1    3    3    0    0  0.30692831746E+02  0.77255653819E+01  0.26695169194E+02  0.41404907193E+02  0.51100000000E-03 0.  1.
         23    2    1    0    0    0 -0.20759845543E+02 -0.72785564715E+01  0.19726945138E+02  0.95451718565E+02  0.90763041164E+02 0.  0.
         11    1    3    3    0    0 -0.51452677289E+02 -0.15004121853E+02 -0.69682240568E+01  0.54046811373E+02  0.51100000000E-03 0. -1.
         22    1    1    0    0    0  0.20759845543E+02  0.72785564715E+01 -0.19726945138E+02  0.29548281435E+02  0.00000000000E+00 0. -1.
</event>
<event>
 5    1  0.8962567E-005  0.9118800E+02  0.7818608E-02  0.1130116E+00
         25   -1    0    0    0    0  0.00000000000E+00  0.00000000000E+00  0.99999998245E-14  0.12500000000E+03  0.12500000000E+03 0.  0.
        -11    1    3    3    0    0  0.47405059431E+02 -0.40345142823E+02  0.16323024999E+01  0.62270656177E+02  0.51100000000E-03 0. -1.
         23    2    1    0    0    0  0.18785234466E+02 -0.20413931051E+02  0.23924893383E+01  0.97155115009E+02  0.93079421745E+02 0.  0.
         11    1    3    3    0    0 -0.28619824965E+02  0.19931211772E+02  0.76018683837E+00  0.34884458832E+02  0.51100000000E-03 0.  1.
         22    1    1    0    0    0 -0.18785234466E+02  0.20413931051E+02 -0.23924893383E+01  0.27844884991E+02  0.00000000000E+00 0. -1.
</event>
<event>
 5    1  0.8962567E-005  0.9118800E+02  0.7818608E-02  0.1130116E+00
         25   -1    0    0    0    0  0.00000000000E+00  0.00000000000E+00  0.99999998245E-14  0.12500000000E+03  0.12500000000E+03 0.  0.
        -11    1    3    3    0    0  0.35338949019E+02 -0.81885517274E+01  0.28799690136E+02  0.46317554440E+02  0.51100000000E-03 0.  1.
         23    2    1    0    0    0  0.91947953010E+01 -0.34624581402E+02  0.11106122013E+02  0.87493309343E+02  0.79046361938E+02 0.  0.
         11    1    3    3    0    0 -0.26144153718E+02 -0.26436029675E+02 -0.17693568123E+02  0.41175754902E+02  0.51100000000E-03 0. -1.
         22    1    1    0    0    0 -0.91947953010E+01  0.34624581402E+02 -0.11106122013E+02  0.37506690657E+02  0.00000000000E+00 0.  1.
</event>
<event>
 5    1  0.8962567E-005  0.9118800E+02  0.7818608E-02  0.1130116E+00
         25   -1    0    0    0    0  0.00000000000E+00  0.00000000000E+00  0.99999998245E-14  0.12500000000E+03  0.12500000000E+03 0.  0.
        -11    1    3    3    0    0  0.12396235816E+02 -0.22723965370E+02 -0.35260980919E+02  0.43742222625E+02  0.51100000000E-03 0. -1.
         23    2    1    0    0    0 -0.26445118326E+02  0.27265272574E+01 -0.10072925756E+02  0.96570401561E+02  0.92290846730E+02 0.  0.
         11    1    3    3    0    0 -0.38841354142E+02  0.25450492627E+02  0.25188055163E+02  0.52828178936E+02  0.51100000000E-03 0.  1.
         22    1    1    0    0    0  0.26445118326E+02 -0.27265272574E+01  0.10072925756E+02  0.28429598439E+02  0.00000000000E+00 0.  1.
</event>
<event>
 5    1  0.8962567E-005  0.9118800E+02  0.7818608E-02  0.1130116E+00
         25   -1    0    0    0    0  0.00000000000E+00  0.00000000000E+00  0.99999998245E-14  0.12500000000E+03  0.12500000000E+03 0.  0.
        -11    1    3    3    0    0  0.11443918294E+02 -0.87600514311E+01 -0.55246670722E+02  0.57095502389E+02  0.51100000000E-03 0. -1.
         23    2    1    0    0    0  0.13950283862E+02  0.11961358154E+02 -0.22208709584E+02  0.96174468086E+02  0.91753021866E+02 0.  0.
         11    1    3    3    0    0  0.25063655676E+01  0.20721409585E+02  0.33037961137E+02  0.39078965697E+02  0.51100000000E-03 0.  1.
         22    1    1    0    0    0 -0.13950283862E+02 -0.11961358154E+02  0.22208709584E+02  0.28825531914E+02  0.00000000000E+00 0. -1.
</event>
<event>
 5    1  0.8962567E-005  0.9118800E+02  0.7818608E-02  0.1130116E+00
         25   -1    0    0    0    0  0.00000000000E+00  0.00000000000E+00  0.99999998245E-14  0.12500000000E+03  0.12500000000E+03 0.  0.
        -11    1    3    3    0    0 -0.45534254267E+02 -0.23678163916E+02  0.33132576566E+02  0.61088389963E+02  0.51100000000E-03 0. -1.
         23    2    1    0    0    0 -0.26591774529E+02 -0.10588420314E+02  0.77737989819E+01  0.95340784434E+02  0.90610132483E+02 0.  0.
         11    1    3    3    0    0  0.18942479738E+02  0.13089743602E+02 -0.25358777584E+02  0.34252394471E+02  0.51100000000E-03 0.  1.
         22    1    1    0    0    0  0.26591774529E+02  0.10588420314E+02 -0.77737989819E+01  0.29659215566E+02  0.00000000000E+00 0. -1.
</event>
<event>
 5    1  0.8962567E-005  0.9118800E+02  0.7818608E-02  0.1130116E+00
         25   -1    0    0    0    0  0.00000000000E+00  0.00000000000E+00  0.99999998245E-14  0.12500000000E+03  0.12500000000E+03 0.  0.
        -11    1    3    3    0    0  0.49608401480E+01  0.48317637796E+02  0.12888822073E+02  0.50252619751E+02  0.51100000000E-03 0.  1.
         23    2    1    0    0    0  0.10858585944E+02  0.57582981821E+01  0.26883262752E+02  0.95440285812E+02  0.90747294467E+02 0.  0.
         11    1    3    3    0    0  0.58977457963E+01 -0.42559339614E+02  0.13994440679E+02  0.45187666061E+02  0.51100000000E-03 0. -1.
         22    1    1    0    0    0 -0.10858585944E+02 -0.57582981821E+01 -0.26883262752E+02  0.29559714188E+02  0.00000000000E+00 0.  1.
</event>
<event>
 5    1  0.8962567E-005  0.9118800E+02  0.7818608E-02  0.1130116E+00
         25   -1    0    0    0    0  0.00000000000E+00  0.00000000000E+00  0.99999998245E-14  0.12500000000E+03  0.12500000000E+03 0.  0.
        -11    1    3    3    0    0 -0.35598842480E+02 -0.21461747855E+02 -0.14155859981E+02  0.43912100599E+02  0.51100000000E-03 0. -1.
         23    2    1    0    0    0  0.11912137291E+02 -0.18453921019E+02  0.13742468013E+02  0.99090510563E+02  0.95643231024E+02 0.  0.
         11    1    3    3    0    0  0.47510979771E+02  0.30078268365E+01  0.27898327994E+02  0.55178409964E+02  0.51100000000E-03 0.  1.
         22    1    1    0    0    0 -0.11912137291E+02  0.18453921019E+02 -0.13742468013E+02  0.25909489437E+02  0.00000000000E+00 0. -1.
</event>
<event>
 5    1  0.8962567E-005  0.9118800E+02  0.7818608E-02  0.1130116E+00
         25   -1    0    0    0    0  0.00000000000E+00  0.00000000000E+00  0.99999998245E-14  0.12500000000E+03  0.12500000000E+03 0.  0.
        -11    1    3    3    0    0  0.39372693587E+02 -0.14394442706E+02  0.43660781610E+02  0.60528281259E+02  0.51100000000E-03 0.  1.
         23    2    1    0    0    0  0.89760669681E+01 -0.12410235533E+02  0.23115999259E+02  0.97270356188E+02  0.93234055189E+02 0.  0.
         11    1    3    3    0    0 -0.30396626619E+02  0.19842071732E+01 -0.20544782350E+02  0.36742074928E+02  0.51100000000E-03 0. -1.
         22    1    1    0    0    0 -0.89760669681E+01  0.12410235533E+02 -0.23115999259E+02  0.27729643812E+02  0.00000000000E+00 0.  1.
</event>
<event>
 5    1  0.8962567E-005  0.9118800E+02  0.7818608E-02  0.1130116E+00
         25   -1    0    0    0    0  0.00000000000E+00  0.00000000000E+00  0.99999998245E-14  0.12500000000E+03  0.12500000000E+03 0.  0.
        -11    1    3    3    0    0  0.24203378767E+02  0.37884941500E+02 -0.21281441865E+02  0.49739040042E+02  0.51100000000E-03 0. -1.
         23    2    1    0    0    0  0.25821685831E+02  0.52583975080E+01  0.11707107817E+02  0.96164837838E+02  0.91739901131E+02 0.  0.
         11    1    3    3    0    0  0.16183070639E+01 -0.32626543992E+02  0.32988549682E+02  0.46425797796E+02  0.51100000000E-03 0.  1.
         22    1    1    0    0    0 -0.25821685831E+02 -0.52583975080E+01 -0.11707107817E+02  0.28835162162E+02  0.00000000000E+00 0. -1.
</event>
<event>
 5    1  0.8962567E-005  0.9118800E+02  0.7818608E-02  0.1130116E+00
         25   -1    0    0    0    0  0.00000000000E+00  0.00000000000E+00  0.99999998245E-14  0.12500000000E+03  0.12500000000E+03 0.  0.
        -11    1    3    3    0    0 -0.36715915754E+02 -0.40859255542E+02  0.21286506209E+02  0.58912244737E+02  0.51100000000E-03 0. -1.
         23    2    1    0    0    0 -0.58036094902E+01 -0.24178199534E+02  0.18224703215E+02  0.94171327906E+02  0.88982200335E+02 0.  0.
         11    1    3    3    0    0  0.30912306263E+02  0.16681056008E+02 -0.30618029940E+01  0.35259083169E+02  0.51100000000E-03 0.  1.
         22    1    1    0    0    0  0.58036094902E+01  0.24178199534E+02 -0.18224703215E+02  0.30828672094E+02  0.00000000000E+00 0. -1.
</event>
<event>
 5    1  0.8962567E-005  0.9118800E+02  0.7818608E-02  0.1130116E+00
         25   -1    0    0    0    0  0.00000000000E+00  0.00000000000E+00  0.99999998245E-14  0.12500000000E+03  0.12500000000E+03 0.  0.
        -11    1    3    3    0    0 -0.20031287859E+02 -0.52465423806E+01  0.56885123954E+02  0.60536732879E+02  0.51100000000E-03 0.  1.
         23    2    1    0    0    0 -0.68278834663E+01  0.44225016249E+01  0.40486563233E+02  0.83704233684E+02  0.72808367794E+02 0.  0.
         11    1    3    3    0    0  0.13203404392E+02  0.96690440055E+01 -0.16398560721E+02  0.23167500804E+02  0.51100000000E-03 0. -1.
         22    1    1    0    0    0  0.68278834663E+01 -0.44225016249E+01 -0.40486563233E+02  0.41295766316E+02  0.00000000000E+00 0.  1.
</event>
<event>
 5    1  0.8962567E-005  0.9118800E+02  0.7818608E-02  0.1130116E+00
         25   -1    0    0    0    0  0.00000000000E+00  0.00000000000E+00  0.99999998245E-14  0.12500000000E+03  0.12500000000E+03 0.  0.
        -11    1    3    3    0    0  0.43475194255E+02 -0.44659865184E+01  0.39330322192E+02  0.58795508290E+02  0.51100000000E-03 0.  1.
         23    2    1    0    0    0  0.29065676438E+02  0.39407904006E+01  0.75124406783E+01  0.94721622554E+02  0.89751911615E+02 0.  0.
         11    1    3    3    0    0 -0.14409517817E+02  0.84067769190E+01 -0.31817881514E+02  0.35926114265E+02  0.51100000000E-03 0. -1.
         22    1    1    0    0    0 -0.29065676438E+02 -0.39407904006E+01 -0.75124406783E+01  0.30278377446E+02  0.00000000000E+00 0.  1.
</event>
<event>
 5    1  0.8962567E-005  0.9118800E+02  0.7818608E-02  0.1130116E+00
         25   -1    0    0    0    0  0.00000000000E+00  0.00000000000E+00  0.99999998245E-14  0.12500000000E+03  0.12500000000E+03 0.  0.
        -11    1    3    3    0    0 -0.22476890898E+02  0.19306907962E+02  0.36859639790E+02  0.47292709430E+02  0.51100000000E-03 0.  1.
         23    2    1    0    0    0 -0.22858702025E+02  0.12183484582E+02 -0.11845245505E+02  0.96517243884E+02  0.92218821133E+02 0.  0.
         11    1    3    3    0    0 -0.38181112765E+00 -0.71234233798E+01 -0.48704885295E+02  0.49224534455E+02  0.51100000000E-03 0. -1.
         22    1    1    0    0    0  0.22858702025E+02 -0.12183484582E+02  0.11845245505E+02  0.28482756116E+02  0.00000000000E+00 0. -1.
</event>
<event>
 5    1  0.8962567E-005  0.9118800E+02  0.7818608E-02  0.1130116E+00
         25   -1    0    0    0    0  0.00000000000E+00  0.00000000000E+00  0.99999998245E-14  0.12500000000E+03  0.12500000000E+03 0.  0.
        -11    1    3    3    0    0  0.19779036064E+02 -0.41818194576E+02  0.37404839941E+02  0.59490282538E+02  0.51100000000E-03 0. -1.
         23    2    1    0    0    0  0.30285429688E+01 -0.28471765475E+02  0.91580197742E+01  0.94938682199E+02  0.90053709250E+02 0.  0.
         11    1    3    3    0    0 -0.16750493095E+02  0.13346429101E+02 -0.28246820167E+02  0.35448399660E+02  0.51100000000E-03 0.  1.
         22    1    1    0    0    0 -0.30285429688E+01  0.28471765475E+02 -0.91580197742E+01  0.30061317801E+02  0.00000000000E+00 0. -1.
</event>
<event>
 5    1  0.8962567E-005  0.9118800E+02  0.7818608E-02  0.1130116E+00
         25   -1    0    0    0    0  0.00000000000E+00  0.00000000000E+00  0.99999998245E-14  0.12500000000E+03  0.12500000000E+03 0.  0.
        -11    1    3    3    0    0 -0.21978706360E+02 -0.43310584280E+02 -0.34880649282E+02  0.59795735120E+02  0.51100000000E-03 0. -1.
         23    2    1    0    0    0 -0.22501132388E+02 -0.16527932121E+02 -0.13956838772E+02  0.93786752052E+02  0.88440307626E+02 0.  0.
         11    1    3    3    0    0 -0.52242602822E+00  0.26782652159E+02  0.20923810509E+02  0.33991016932E+02  0.51100000000E-03 0.  1.
         22    1    1    0    0    0  0.22501132388E+02  0.16527932121E+02  0.13956838772E+02  0.31213247948E+02  0.00000000000E+00 0. -1.
</event>
<event>
 5    1  0.8962567E-005  0.9118800E+02  0.7818608E-02  0.1130116E+00
         25   -1    0    0    0    0  0.00000000000E+00  0.00000000000E+00  0.99999998245E-14  0.12500000000E+03  0.12500000000E+03 0.  0.
        -11    1    3    3    0    0  0.17426644682E+02  0.11311634893E+02 -0.43807774235E+02  0.48484658528E+02  0.51100000000E-03 0. -1.
         23    2    1    0    0    0 -0.23338731268E-01 -0.23645933727E+02 -0.15667760083E+02  0.96634361764E+02  0.92377434695E+02 0.  0.
         11    1    3    3    0    0 -0.17449983414E+02 -0.34957568621E+02  0.28140014152E+02  0.48149703236E+02  0.51100000000E-03 0.  1.
         22    1    1    0    0    0  0.23338731268E-01  0.23645933727E+02  0.15667760083E+02  0.28365638236E+02  0.00000000000E+00 0. -1.
</event>
<event>
 5    1  0.8962567E-005  0.9118800E+02  0.7818608E-02  0.1130116E+00
         25   -1    0    0    0    0  0.00000000000E+00  0.00000000000E+00  0.99999998245E-14  0.12500000000E+03  0.12500000000E+03 0.  0.
        -11    1    3    3    0    0 -0.11898372626E+02  0.50475906119E+02 -0.17288493956E+02  0.54665166177E+02  0.51100000000E-03 0.  1.
         23    2    1    0    0    0  0.12210129605E+02  0.24185187324E+02  0.59810934495E+01  0.97255017936E+02  0.93213488745E+02 0.  0.
         11    1    3    3    0    0  0.24108502231E+02 -0.26290718795E+02  0.23269587405E+02  0.42589851759E+02  0.51100000000E-03 0. -1.
         22    1    1    0    0    0 -0.12210129605E+02 -0.24185187324E+02 -0.59810934495E+01  0.27744982064E+02  0.00000000000E+00 0.  1.
</event>
<event>
 5    1  0.8962567E-005  0.9118800E+02  0.7818608E-02  0.1130116E+00
         25   -1    0    0    0    0  0.00000000000E+00  0.00000000000E+00  0.99999998245E-14  0.12500000000E+03  0.12500000000E+03 0.  0.
        -11    1    3    3    0    0  0.86136565679E+01  0.55301568655E+02 -0.74086993640E-01  0.55968420242E+02  0.51100000000E-03 0. -1.
         23    2    1    0    0    0 -0.26223321217E+01  0.21683778797E+02  0.18849418487E+02  0.96149290027E+02  0.91718714049E+02 0.  0.
         11    1    3    3    0    0 -0.11235988690E+02 -0.33617789858E+02  0.18923505480E+02  0.40180869785E+02  0.51100000000E-03 0.  1.
         22    1    1    0    0    0  0.26223321217E+01 -0.21683778797E+02 -0.18849418487E+02  0.28850709973E+02  0.00000000000E+00 0. -1.
</event>
<event>
 5    1  0.8962567E-005  0.9118800E+02  0.7818608E-02  0.1130116E+00
         25   -1    0    0    0    0  0.00000000000E+00  0.00000000000E+00  0.99999998245E-14  0.12500000000E+03  0.12500000000E+03 0.  0.
        -11    1    3    3    0    0  0.25166976364E+02  0.39086361212E+02  0.84650001682E+01  0.47252265133E+02  0.51100000000E-03 0.  1.
         23    2    1    0    0    0  0.28111343613E+02  0.38561731799E+00 -0.15528694193E+02  0.92882455204E+02  0.87152818663E+02 0.  0.
         11    1    3    3    0    0  0.29443672486E+01 -0.38700743894E+02 -0.23993694361E+02  0.45630190070E+02  0.51100000000E-03 0. -1.
         22    1    1    0    0    0 -0.28111343613E+02 -0.38561731799E+00  0.15528694193E+02  0.32117544796E+02  0.00000000000E+00 0.  1.
</event>
<event>
 5    1  0.8962567E-005  0.9118800E+02  0.7818608E-02  0.1130116E+00
         25   -1    0    0    0    0  0.00000000000E+00  0.00000000000E+00  0.99999998245E-14  0.12500000000E+03  0.12500000000E+03 0.  0.
        -11    1    3    3    0    0 -0.39224131839E+02  0.19464222411E+02  0.44367727579E+02  0.62336856861E+02  0.51100000000E-03 0. -1.
         23    2    1    0    0    0 -0.15281727722E+02  0.83839114413E+01  0.22050959384E+02  0.96891887595E+02  0.92725249521E+02 0.  0.
         11    1    3    3    0    0  0.23942404117E+02 -0.11080310970E+02 -0.22316768195E+02  0.34555030734E+02  0.51100000000E-03 0.  1.
         22    1    1    0    0    0  0.15281727722E+02 -0.83839114413E+01 -0.22050959384E+02  0.28108112405E+02  0.00000000000E+00 0. -1.
</event>
<event>
 5    1  0.8962567E-005  0.9118800E+02  0.7818608E-02  0.1130116E+00
         25   -1    0    0    0    0  0.00000000000E+00  0.00000000000E+00  0.99999998245E-14  0.12500000000E+03  0.12500000000E+03 0.  0.
        -11    1    3    3    0    0  0.41372354582E+02  0.36677215514E+02 -0.64010502997E+01  0.55658452249E+02  0.51100000000E-03 0. -1.
         23    2    1    0    0    0  0.28528294604E+01  0.29677844129E+02 -0.44270086522E+01  0.94858475923E+02  0.89942309181E+02 0.  0.
         11    1    3    3    0    0 -0.38519525122E+02 -0.69993713853E+01  0.19740416475E+01  0.39200023675E+02  0.51100000000E-03 0.  1.
         22    1    1    0    0    0 -0.28528294604E+01 -0.29677844129E+02  0.44270086522E+01  0.30141524077E+02  0.00000000000E+00 0. -1.
</event>
<event>
 5    1  0.8962567E-005  0.9118800E+02  0.7818608E-02  0.1130116E+00
         25   -1    0    0    0    0  0.00000000000E+00  0.00000000000E+00  0.99999998245E-14  0.12500000000E+03  0.12500000000E+03 0.  0.
        -11    1    3    3    0    0 -0.16497815744E+02  0.12958204789E+02 -0.27960547950E+02  0.34955475074E+02  0.51100000000E-03 0.  1.
         23    2    1    0    0    0  0.20761392898E+02 -0.13355940021E+01  0.19168911576E+02  0.96711019506E+02  0.92481105510E+02 0.  0.
         11    1    3    3    0    0  0.37259208642E+02 -0.14293798791E+02  0.47129459527E+02  0.61755544432E+02  0.51100000000E-03 0. -1.
         22    1    1    0    0    0 -0.20761392898E+02  0.13355940021E+01 -0.19168911576E+02  0.28288980494E+02  0.00000000000E+00 0. -1.
</event>
<event>
 5    1  0.8962567E-005  0.9118800E+02  0.7818608E-02  0.1130116E+00
         25   -1    0    0    0    0  0.00000000000E+00  0.00000000000E+00  0.99999998245E-14  0.12500000000E+03  0.12500000000E+03 0.  0.
        -11    1    3    3    0    0 -0.39725541650E+02 -0.20492672378E+01 -0.12998719852E+02  0.41848355687E+02  0.51100000000E-03 0. -1.
         23    2    1    0    0    0  0.64070154434E+01  0.26777212586E+02 -0.71046788275E+01  0.96565066872E+02  0.92283621071E+02 0.  0.
         11    1    3    3    0    0  0.46132557094E+02  0.28826479824E+02  0.58940410241E+01  0.54716711185E+02  0.51100000000E-03 0.  1.
         22    1    1    0    0    0 -0.64070154434E+01 -0.26777212586E+02  0.71046788275E+01  0.28434933128E+02  0.00000000000E+00 0.  1.
</event>
<event>
 5    1  0.8962567E-005  0.9118800E+02  0.7818608E-02  0.1130116E+00
         25   -1    0    0    0    0  0.00000000000E+00  0.00000000000E+00  0.99999998245E-14  0.12500000000E+03  0.12500000000E+03 0.  0.
        -11    1    3    3    0    0  0.15126025311E+02  0.66816233125E+01 -0.27189354755E+02  0.31822975098E+02  0.51100000000E-03 0.  1.
         23    2    1    0    0    0  0.44061998514E+01 -0.75008255361E+01  0.31070348971E+02  0.92734793259E+02  0.86940774754E+02 0.  0.
         11    1    3    3    0    0 -0.10719825460E+02 -0.14182448849E+02  0.58259703726E+02  0.60911818162E+02  0.51100000000E-03 0. -1.
         22    1    1    0    0    0 -0.44061998514E+01  0.75008255361E+01 -0.31070348971E+02  0.32265206741E+02  0.00000000000E+00 0. -1.
</event>
<event>
 5    1  0.8962567E-005  0.9118800E+02  0.7818608E-02  0.1130116E+00
         25   -1    0    0    0    0  0.00000000000E+00  0.00000000000E+00  0.99999998245E-14  0.12500000000E+03  0.12500000000E+03 0.  0.
        -11    1    3    3    0    0 -0.14304287063E+02  0.74316409736E+01 -0.30255151577E+02  0.34281425191E+02  0.51100000000E-03 0.  1.
         23    2    1    0    0    0  0.26155500572E+02 -0.10541911306E+02  0.10937133746E+02  0.94753297722E+02  0.89796015671E+02 0.  0.
         11    1    3    3    0    0  0.40459787635E+02 -0.17973552280E+02  0.41192285322E+02  0.60471872531E+02  0.51100000000E-03 0. -1.
         22    1    1    0    0    0 -0.26155500572E+02  0.10541911306E+02 -0.10937133746E+02  0.30246702278E+02  0.00000000000E+00 0. -1.
</event>
<event>
 5    1  0.8962567E-005  0.9118800E+02  0.7818608E-02  0.1130116E+00
         25   -1    0    0    0    0  0.00000000000E+00  0.00000000000E+00  0.99999998245E-14  0.12500000000E+03  0.12500000000E+03 0.  0.
        -11    1    3    3    0    0  0.63833393015E+01 -0.33528125937E+02  0.13751382520E+02  0.36796504874E+02  0.51100000000E-03 0.  1.
         23    2    1    0    0    0  0.81122361383E+01  0.13081076710E+02 -0.23786829000E+02  0.96667400809E+02  0.92422130479E+02 0.  0.
         11    1    3    3    0    0  0.17288968368E+01  0.46609202647E+02 -0.37538211520E+02  0.59870895935E+02  0.51100000000E-03 0. -1.
         22    1    1    0    0    0 -0.81122361383E+01 -0.13081076710E+02  0.23786829000E+02  0.28332599191E+02  0.00000000000E+00 0. -1.
</event>
<event>
 5    1  0.8962567E-005  0.9118800E+02  0.7818608E-02  0.1130116E+00
         25   -1    0    0    0    0  0.00000000000E+00  0.00000000000E+00  0.99999998245E-14  0.12500000000E+03  0.12500000000E+03 0.  0.
        -11    1    3    3    0    0  0.13370151118E+02  0.29055004142E+02 -0.25612239009E+02  0.40974882476E+02  0.51100000000E-03 0.  1.
         23    2    1    0    0    0  0.22735992895E+00  0.14772083806E+02  0.25433870258E+02  0.95586603243E+02  0.90948616321E+02 0.  0.
         11    1    3    3    0    0 -0.13142791189E+02 -0.14282920337E+02  0.51046109267E+02  0.54611720767E+02  0.51100000000E-03 0. -1.
         22    1    1    0    0    0 -0.22735992895E+00 -0.14772083806E+02 -0.25433870258E+02  0.29413396757E+02  0.00000000000E+00 0.  1.
</event>
<event>
 5    1  0.8962567E-005  0.9118800E+02  0.7818608E-02  0.1130116E+00
         25   -1    0    0    0    0  0.00000000000E+00  0.00000000000E+00  0.99999998245E-14  0.12500000000E+03  0.12500000000E+03 0.  0.
        -11    1    3    3    0    0  0.13842304952E+02  0.14308464987E+02 -0.46898607897E+02  0.50949200187E+02  0.51100000000E-03 0.  1.
         23    2    1    0    0    0  0.23922162156E+02 -0.11872737867E+02 -0.12012540469E+02  0.95716337743E+02  0.91126749288E+02 0.  0.
         11    1    3    3    0    0  0.10079857203E+02 -0.26181202854E+02  0.34886067428E+02  0.44767137556E+02  0.51100000000E-03 0. -1.
         22    1    1    0    0    0 -0.23922162156E+02  0.11872737867E+02  0.12012540469E+02  0.29283662257E+02  0.00000000000E+00 0. -1.
</event>
<event>
 5    1  0.8962567E-005  0.9118800E+02  0.7818608E-02  0.1130116E+00
         25   -1    0    0    0    0  0.00000000000E+00  0.00000000000E+00  0.99999998245E-14  0.12500000000E+03  0.12500000000E+03 0.  0.
        -11    1    3    3    0    0  0.36542710859E+01 -0.60310940841E+02  0.16032599426E+00  0.60421759218E+02  0.51100000000E-03 0.  1.
         23    2    1    0    0    0  0.10181136802E+02 -0.47176696442E+02 -0.60704068433E+01  0.76356952470E+02  0.58857778734E+02 0.  0.
         11    1    3    3    0    0  0.65268657165E+01  0.13134244399E+02 -0.62307328376E+01  0.15935193252E+02  0.51100000000E-03 0. -1.
         22    1    1    0    0    0 -0.10181136802E+02  0.47176696442E+02  0.60704068433E+01  0.48643047530E+02  0.00000000000E+00 0.  1.
</event>
<event>
 5    1  0.8962567E-005  0.9118800E+02  0.7818608E-02  0.1130116E+00
         25   -1    0    0    0    0  0.00000000000E+00  0.00000000000E+00  0.99999998245E-14  0.12500000000E+03  0.12500000000E+03 0.  0.
        -11    1    3    3    0    0 -0.55103678392E+02  0.18293964756E+02  0.19290440541E+02  0.61181742500E+02  0.51100000000E-03 0.  1.
         23    2    1    0    0    0 -0.21598534059E+02  0.15619713745E+02  0.12868799678E+02  0.95401382868E+02  0.90693691716E+02 0.  0.
         11    1    3    3    0    0  0.33505144334E+02 -0.26742510106E+01 -0.64216408632E+01  0.34219640368E+02  0.51100000000E-03 0. -1.
         22    1    1    0    0    0  0.21598534059E+02 -0.15619713745E+02 -0.12868799678E+02  0.29598617132E+02  0.00000000000E+00 0.  1.
</event>
<event>
 5    1  0.8962567E-005  0.9118800E+02  0.7818608E-02  0.1130116E+00
         25   -1    0    0    0    0  0.00000000000E+00  0.00000000000E+00  0.99999998245E-14  0.12500000000E+03  0.12500000000E+03 0.  0.
        -11    1    3    3    0    0  0.44642712615E+02 -0.19458423183E+02 -0.12928088302E+02  0.50385885819E+02  0.51100000000E-03 0. -1.
         23    2    1    0    0    0  0.75570568771E+01 -0.25918577206E+02  0.11916266485E+02  0.95489338198E+02  0.90814836616E+02 0.  0.
         11    1    3    3    0    0 -0.37085655738E+02 -0.64601540225E+01  0.24844354787E+02  0.45103452379E+02  0.51100000000E-03 0.  1.
         22    1    1    0    0    0 -0.75570568771E+01  0.25918577206E+02 -0.11916266485E+02  0.29510661802E+02  0.00000000000E+00 0. -1.
</event>
<event>
 5    1  0.8962567E-005  0.9118800E+02  0.7818608E-02  0.1130116E+00
         25   -1    0    0    0    0  0.00000000000E+00  0.00000000000E+00  0.99999998245E-14  0.12500000000E+03  0.12500000000E+03 0.  0.
        -11    1    3    3    0    0 -0.38176008122E+02  0.20731849511E+02 -0.11283811976E+02  0.44883645053E+02  0.51100000000E-03 0.  1.
         23    2    1    0    0    0  0.86367750304E+01  0.26030266300E+02  0.89418813748E+01  0.96153407670E+02  0.91724325658E+02 0.  0.
         11    1    3    3    0    0  0.46812783153E+02  0.52984167886E+01  0.20225693351E+02  0.51269762616E+02  0.51100000000E-03 0. -1.
         22    1    1    0    0    0 -0.86367750304E+01 -0.26030266300E+02 -0.89418813748E+01  0.28846592330E+02  0.00000000000E+00 0.  1.
</event>
<event>
 5    1  0.8962567E-005  0.9118800E+02  0.7818608E-02  0.1130116E+00
         25   -1    0    0    0    0  0.00000000000E+00  0.00000000000E+00  0.99999998245E-14  0.12500000000E+03  0.12500000000E+03 0.  0.
        -11    1    3    3    0    0  0.14087465043E+02 -0.21137564903E+02  0.32244529169E+02  0.41048300610E+02  0.51100000000E-03 0.  1.
         23    2    1    0    0    0  0.17411065255E+02  0.11938831205E+02 -0.15204401155E+02  0.98983568686E+02  0.95503362095E+02 0.  0.
         11    1    3    3    0    0  0.33236002123E+01  0.33076396108E+02 -0.47448930324E+02  0.57935268076E+02  0.51100000000E-03 0. -1.
         22    1    1    0    0    0 -0.17411065255E+02 -0.11938831205E+02  0.15204401155E+02  0.26016431314E+02  0.00000000000E+00 0. -1.
</event>
<event>
 5    1  0.8962567E-005  0.9118800E+02  0.7818608E-02  0.1130116E+00
         25   -1    0    0    0    0  0.00000000000E+00  0.00000000000E+00  0.99999998245E-14  0.12500000000E+03  0.12500000000E+03 0.  0.
        -11    1    3    3    0    0  0.36061857645E+02 -0.62654310091E+01  0.39129787580E+00  0.36604184417E+02  0.51100000000E-03 0.  1.
         23    2    1    0    0    0 -0.21705572826E+02 -0.13534899303E+01  0.17537145403E+02  0.97062296165E+02  0.92954688108E+02 0.  0.
         11    1    3    3    0    0 -0.57767430471E+02  0.49119410789E+01  0.17145847527E+02  0.60458111748E+02  0.51100000000E-03 0. -1.
         22    1    1    0    0    0  0.21705572826E+02  0.13534899303E+01 -0.17537145403E+02  0.27937703835E+02  0.00000000000E+00 0. -1.
</event>
<event>
 5    1  0.8962567E-005  0.9118800E+02  0.7818608E-02  0.1130116E+00
         25   -1    0    0    0    0  0.00000000000E+00  0.00000000000E+00  0.99999998245E-14  0.12500000000E+03  0.12500000000E+03 0.  0.
        -11    1    3    3    0    0  0.73793493450E+01 -0.26930334389E+02 -0.11588789382E+02  0.30232395648E+02  0.51100000000E-03 0. -1.
         23    2    1    0    0    0  0.21788065704E+02  0.20351211277E+02  0.20187859344E+02  0.88993871737E+02  0.81384691032E+02 0.  0.
         11    1    3    3    0    0  0.14408716359E+02  0.47281545666E+02  0.31776648726E+02  0.58761476089E+02  0.51100000000E-03 0.  1.
         22    1    1    0    0    0 -0.21788065704E+02 -0.20351211277E+02 -0.20187859344E+02  0.36006128263E+02  0.00000000000E+00 0.  1.
</event>
<event>
 5    1  0.8962567E-005  0.9118800E+02  0.7818608E-02  0.1130116E+00
         25   -1    0    0    0    0  0.00000000000E+00  0.00000000000E+00  0.99999998245E-14  0.12500000000E+03  0.12500000000E+03 0.  0.
        -11    1    3    3    0    0  0.21216180120E+01 -0.85144392416E+01 -0.38104340971E+02  0.39101633466E+02  0.51100000000E-03 0.  1.
         23    2    1    0    0    0  0.87870067080E+01  0.30866949561E+02 -0.21621615459E+01  0.92833946394E+02  0.87083216514E+02 0.  0.
         11    1    3    3    0    0  0.66653886959E+01  0.39381388802E+02  0.35942179425E+02  0.53732312928E+02  0.51100000000E-03 0. -1.
         22    1    1    0    0    0 -0.87870067080E+01 -0.30866949561E+02  0.21621615459E+01  0.32166053606E+02  0.00000000000E+00 0.  1.
</event>
<event>
 5    1  0.8962567E-005  0.9118800E+02  0.7818608E-02  0.1130116E+00
         25   -1    0    0    0    0  0.00000000000E+00  0.00000000000E+00  0.99999998245E-14  0.12500000000E+03  0.12500000000E+03 0.  0.
        -11    1    3    3    0    0  0.13483854593E+02  0.39303726802E+01 -0.44828199300E+02  0.46976905143E+02  0.51100000000E-03 0. -1.
         23    2    1    0    0    0  0.14348818532E+02 -0.26421975596E+02 -0.97053446439E+01  0.93405647620E+02  0.87900010836E+02 0.  0.
         11    1    3    3    0    0  0.86496393957E+00 -0.30352348276E+02  0.35122854656E+02  0.46428742477E+02  0.51100000000E-03 0.  1.
         22    1    1    0    0    0 -0.14348818532E+02  0.26421975596E+02  0.97053446439E+01  0.31594352380E+02  0.00000000000E+00 0.  1.
</event>
<event>
 5    1  0.8962567E-005  0.9118800E+02  0.7818608E-02  0.1130116E+00
         25   -1    0    0    0    0  0.00000000000E+00  0.00000000000E+00  0.99999998245E-14  0.12500000000E+03  0.12500000000E+03 0.  0.
        -11    1    3    3    0    0 -0.88614451819E+01  0.36023854496E+01 -0.55323875628E+02  0.56144755823E+02  0.51100000000E-03 0.  1.
         23    2    1    0    0    0 -0.24235306597E+01  0.20595006716E+02 -0.18491053525E+02  0.97216068260E+02  0.93161242289E+02 0.  0.
         11    1    3    3    0    0  0.64379145222E+01  0.16992621267E+02  0.36832822103E+02  0.41071312437E+02  0.51100000000E-03 0. -1.
         22    1    1    0    0    0  0.24235306597E+01 -0.20595006716E+02  0.18491053525E+02  0.27783931740E+02  0.00000000000E+00 0.  1.
</event>
<event>
 5    1  0.8962567E-005  0.9118800E+02  0.7818608E-02  0.1130116E+00
         25   -1    0    0    0    0  0.00000000000E+00  0.00000000000E+00  0.99999998245E-14  0.12500000000E+03  0.12500000000E+03 0.  0.
        -11    1    3    3    0    0 -0.36249176864E+02  0.35450687661E+02  0.28287484609E+02  0.58059761149E+02  0.51100000000E-03 0.  1.
         23    2    1    0    0    0 -0.56638667402E+01 -0.15259720022E+01  0.16521640976E+02  0.10746795512E+03  0.10602824520E+03 0.  0.
         11    1    3    3    0    0  0.30585310124E+02 -0.36976659663E+02 -0.11765843633E+02  0.49408193975E+02  0.51100000000E-03 0. -1.
         22    1    1    0    0    0  0.56638667402E+01  0.15259720022E+01 -0.16521640976E+02  0.17532044876E+02  0.00000000000E+00 0. -1.
</event>
<event>
 5    1  0.8962567E-005  0.9118800E+02  0.7818608E-02  0.1130116E+00
         25   -1    0    0    0    0  0.00000000000E+00  0.00000000000E+00  0.99999998245E-14  0.12500000000E+03  0.12500000000E+03 0.  0.
        -11    1    3    3    0    0 -0.77980529086E+01 -0.15836208953E+02 -0.34377257495E+02  0.38644417143E+02  0.51100000000E-03 0.  1.
         23    2    1    0    0    0  0.22982104911E+02  0.16243051087E+02  0.29613574277E+01  0.96701881820E+02  0.92468753938E+02 0.  0.
         11    1    3    3    0    0  0.30780157819E+02  0.32079260040E+02  0.37338614923E+02  0.58057464677E+02  0.51100000000E-03 0. -1.
         22    1    1    0    0    0 -0.22982104911E+02 -0.16243051087E+02 -0.29613574277E+01  0.28298118180E+02  0.00000000000E+00 0. -1.
</event>
<event>
 5    1  0.8962567E-005  0.9118800E+02  0.7818608E-02  0.1130116E+00
         25   -1    0    0    0    0  0.00000000000E+00  0.00000000000E+00  0.99999998245E-14  0.12500000000E+03  0.12500000000E+03 0.  0.
        -11    1    3    3    0    0  0.38801698990E+02 -0.78834671748E-01 -0.41341633179E+02  0.56698401155E+02  0.51100000000E-03 0.  1.
         23    2    1    0    0    0  0.48826866710E+01 -0.11023258227E+02 -0.27572955727E+02  0.94906466831E+02  0.90008981261E+02 0.  0.
         11    1    3    3    0    0 -0.33919012319E+02 -0.10944423555E+02  0.13768677451E+02  0.38208065676E+02  0.51100000000E-03 0. -1.
         22    1    1    0    0    0 -0.48826866710E+01  0.11023258227E+02  0.27572955727E+02  0.30093533169E+02  0.00000000000E+00 0.  1.
</event>
<event>
 5    1  0.8962567E-005  0.9118800E+02  0.7818608E-02  0.1130116E+00
         25   -1    0    0    0    0  0.00000000000E+00  0.00000000000E+00  0.99999998245E-14  0.12500000000E+03  0.12500000000E+03 0.  0.
        -11    1    3    3    0    0 -0.23213919390E+02 -0.12699030280E+02 -0.23156204733E+02  0.35161928863E+02  0.51100000000E-03 0. -1.
         23    2    1    0    0    0 -0.69929158961E+01  0.11516487225E+02  0.27936911451E+02  0.93983853042E+02  0.88718449380E+02 0.  0.
         11    1    3    3    0    0  0.16221003494E+02  0.24215517505E+02  0.51093116184E+02  0.58821924178E+02  0.51100000000E-03 0.  1.
         22    1    1    0    0    0  0.69929158961E+01 -0.11516487225E+02 -0.27936911451E+02  0.31016146958E+02  0.00000000000E+00 0.  1.
</event>
<event>
 5    1  0.8962567E-005  0.9118800E+02  0.7818608E-02  0.1130116E+00
         25   -1    0    0    0    0  0.00000000000E+00  0.00000000000E+00  0.99999998245E-14  0.12500000000E+03  0.12500000000E+03 0.  0.
        -11    1    3    3    0    0 -0.17418680859E+01  0.23919438042E+02 -0.49730036443E+02  0.55210960375E+02  0.51100000000E-03 0.  1.
         23    2    1    0    0    0  0.20068765880E+02  0.69317806288E+01 -0.19567480107E+02  0.96126288351E+02  0.91687360567E+02 0.  0.
         11    1    3    3    0    0  0.21810633966E+02 -0.16987657413E+02  0.30162556336E+02  0.40915327976E+02  0.51100000000E-03 0. -1.
         22    1    1    0    0    0 -0.20068765880E+02 -0.69317806288E+01  0.19567480107E+02  0.28873711649E+02  0.00000000000E+00 0.  1.
</event>
<event>
 5    1  0.8962567E-005  0.9118800E+02  0.7818608E-02  0.1130116E+00
         25   -1    0    0    0    0  0.00000000000E+00  0.00000000000E+00  0.99999998245E-14  0.12500000000E+03  0.12500000000E+03 0.  0.
        -11    1    3    3    0    0 -0.34592697107E+02 -0.19242665707E+02  0.19209919703E+02  0.43999498769E+02  0.51100000000E-03 0. -1.
         23    2    1    0    0    0  0.67014909417E+01 -0.25618761998E+02 -0.11776235787E+02  0.96018787526E+02  0.91540684297E+02 0.  0.
         11    1    3    3    0    0  0.41294188049E+02 -0.63760962906E+01 -0.30986155491E+02  0.52019288758E+02  0.51100000000E-03 0.  1.
         22    1    1    0    0    0 -0.67014909417E+01  0.25618761998E+02  0.11776235787E+02  0.28981212474E+02  0.00000000000E+00 0.  1.
</event>
<event>
 5    1  0.8962567E-005  0.9118800E+02  0.7818608E-02  0.1130116E+00
         25   -1    0    0    0    0  0.00000000000E+00  0.00000000000E+00  0.99999998245E-14  0.12500000000E+03  0.12500000000E+03 0.  0.
        -11    1    3    3    0    0 -0.19599519055E+02  0.31858475177E+02 -0.46953129122E+02  0.60030824768E+02  0.51100000000E-03 0.  1.
         23    2    1    0    0    0 -0.66744605221E+01  0.45422730618E+01 -0.28362053512E+02  0.95511243715E+02  0.90844982958E+02 0.  0.
         11    1    3    3    0    0  0.12925058532E+02 -0.27316202115E+02  0.18591075610E+02  0.35480418947E+02  0.51100000000E-03 0. -1.
         22    1    1    0    0    0  0.66744605221E+01 -0.45422730618E+01  0.28362053512E+02  0.29488756285E+02  0.00000000000E+00 0.  1.
</event>
<event>
 5    1  0.8962567E-005  0.9118800E+02  0.7818608E-02  0.1130116E+00
         25   -1    0    0    0    0  0.00000000000E+00  0.00000000000E+00  0.99999998245E-14  0.12500000000E+03  0.12500000000E+03 0.  0.
        -11    1    3    3    0    0  0.22715888728E+02  0.52373369116E+02  0.15094071588E+02  0.59049237003E+02  0.51100000000E-03 0.  1.
         23    2    1    0    0    0  0.16268723882E+02  0.18198777552E+02  0.19029492815E+02  0.94048611050E+02  0.88809643409E+02 0.  0.
         11    1    3    3    0    0 -0.64471648454E+01 -0.34174591565E+02  0.39354212273E+01  0.34999374047E+02  0.51100000000E-03 0. -1.
         22    1    1    0    0    0 -0.16268723882E+02 -0.18198777552E+02 -0.19029492815E+02  0.30951388950E+02  0.00000000000E+00 0.  1.
</event>
<event>
 5    1  0.8962567E-005  0.9118800E+02  0.7818608E-02  0.1130116E+00
         25   -1    0    0    0    0  0.00000000000E+00  0.00000000000E+00  0.99999998245E-14  0.12500000000E+03  0.12500000000E+03 0.  0.
        -11    1    3    3    0    0  0.30456734751E+02 -0.50158151111E+02  0.17659510959E+01  0.58707507169E+02  0.51100000000E-03 0.  1.
         23    2    1    0    0    0  0.24334679294E+02 -0.14839492719E+02 -0.70866802135E+01  0.95629807680E+02  0.91007977232E+02 0.  0.
         11    1    3    3    0    0 -0.61220554570E+01  0.35318658391E+02 -0.88526313094E+01  0.36922300510E+02  0.51100000000E-03 0. -1.
         22    1    1    0    0    0 -0.24334679294E+02  0.14839492719E+02  0.70866802135E+01  0.29370192320E+02  0.00000000000E+00 0.  1.
</event>
<event>
 5    1  0.8962567E-005  0.9118800E+02  0.7818608E-02  0.1130116E+00
         25   -1    0    0    0    0  0.00000000000E+00  0.00000000000E+00  0.99999998245E-14  0.12500000000E+03  0.12500000000E+03 0.  0.
        -11    1    3    3    0    0 -0.14515885459E+02 -0.47311320516E+02  0.37049096701E+02  0.61819960742E+02  0.51100000000E-03 0.  1.
         23    2    1    0    0    0 -0.29128497935E+01 -0.25540277362E+02  0.13327126910E+02  0.96044814397E+02  0.91576217433E+02 0.  0.
         11    1    3    3    0    0  0.11603035665E+02  0.21771043154E+02 -0.23721969791E+02  0.34224853655E+02  0.51100000000E-03 0. -1.
         22    1    1    0    0    0  0.29128497935E+01  0.25540277362E+02 -0.13327126910E+02  0.28955185603E+02  0.00000000000E+00 0.  1.
</event>
<event>
 5    1  0.8962567E-005  0.9118800E+02  0.7818608E-02  0.1130116E+00
         25   -1    0    0    0    0  0.00000000000E+00  0.00000000000E+00  0.99999998245E-14  0.12500000000E+03  0.12500000000E+03 0.  0.
        -11    1    3    3    0    0  0.77635442429E+01 -0.44383152398E+02 -0.41528913009E+01  0.45248020315E+02  0.51100000000E-03 0. -1.
         23    2    1    0    0    0  0.24054380636E+02  0.33275762759E+01 -0.14503727089E+02  0.96714949335E+02  0.92486417022E+02 0.  0.
         11    1    3    3    0    0  0.16290836393E+02  0.47710728674E+02 -0.10350835788E+02  0.51466929020E+02  0.51100000000E-03 0.  1.
         22    1    1    0    0    0 -0.24054380636E+02 -0.33275762759E+01  0.14503727089E+02  0.28285050665E+02  0.00000000000E+00 0.  1.
</event>
<event>
 5    1  0.8962567E-005  0.9118800E+02  0.7818608E-02  0.1130116E+00
         25   -1    0    0    0    0  0.00000000000E+00  0.00000000000E+00  0.99999998245E-14  0.12500000000E+03  0.12500000000E+03 0.  0.
        -11    1    3    3    0    0  0.34124451516E+02  0.44224391117E+02 -0.35042139687E+01  0.55969227945E+02  0.51100000000E-03 0.  1.
         23    2    1    0    0    0  0.27719917265E+02  0.40783841860E+01  0.15665511754E+01  0.96937906113E+02  0.92787264903E+02 0.  0.
         11    1    3    3    0    0 -0.64045342514E+01 -0.40146006930E+02  0.50707651441E+01  0.40968678168E+02  0.51100000000E-03 0. -1.
         22    1    1    0    0    0 -0.27719917265E+02 -0.40783841860E+01 -0.15665511754E+01  0.28062093887E+02  0.00000000000E+00 0.  1.
</event>
<event>
 5    1  0.8962567E-005  0.9118800E+02  0.7818608E-02  0.1130116E+00
         25   -1    0    0    0    0  0.00000000000E+00  0.00000000000E+00  0.99999998245E-14  0.12500000000E+03  0.12500000000E+03 0.  0.
        -11    1    3    3    0    0 -0.15508267873E+02  0.38132121294E+02  0.19814029061E+02  0.45685454958E+02  0.51100000000E-03 0. -1.
         23    2    1    0    0    0 -0.38724589061E+00 -0.88735807560E+01  0.27899302480E+02  0.95720972119E+02  0.91133106112E+02 0.  0.
         11    1    3    3    0    0  0.15121021982E+02 -0.47005702050E+02  0.80852734192E+01  0.50035517161E+02  0.51100000000E-03 0.  1.
         22    1    1    0    0    0  0.38724589061E+00  0.88735807560E+01 -0.27899302480E+02  0.29279027881E+02  0.00000000000E+00 0.  1.
</event>
<event>
 5    1  0.8962567E-005  0.9118800E+02  0.7818608E-02  0.1130116E+00
         25   -1    0    0    0    0  0.00000000000E+00  0.00000000000E+00  0.99999998245E-14  0.12500000000E+03  0.12500000000E+03 0.  0.
        -11    1    3    3    0    0 -0.20048088996E+01  0.61109682518E+01 -0.25741733565E+02  0.26532999056E+02  0.51100000000E-03 0.  1.
         23    2    1    0    0    0 -0.21977276004E+01 -0.30349685663E+02  0.22609288385E+02  0.87090722142E+02  0.78407145947E+02 0.  0.
         11    1    3    3    0    0 -0.19291870082E+00 -0.36460653915E+02  0.48351021950E+02  0.60557723086E+02  0.51100000000E-03 0. -1.
         22    1    1    0    0    0  0.21977276004E+01  0.30349685663E+02 -0.22609288385E+02  0.37909277858E+02  0.00000000000E+00 0. -1.
</event>
<event>
 5    1  0.8962567E-005  0.9118800E+02  0.7818608E-02  0.1130116E+00
         25   -1    0    0    0    0  0.00000000000E+00  0.00000000000E+00  0.99999998245E-14  0.12500000000E+03  0.12500000000E+03 0.  0.
        -11    1    3    3    0    0 -0.11530606871E+02 -0.10738856616E+02 -0.27267619608E+02  0.31492872457E+02  0.51100000000E-03 0.  1.
         23    2    1    0    0    0  0.27294812996E+02  0.14104460167E+02  0.11971449041E+02  0.92026401391E+02  0.85916240303E+02 0.  0.
         11    1    3    3    0    0  0.38825419867E+02  0.24843316783E+02  0.39239068648E+02  0.60533528935E+02  0.51100000000E-03 0. -1.
         22    1    1    0    0    0 -0.27294812996E+02 -0.14104460167E+02 -0.11971449041E+02  0.32973598609E+02  0.00000000000E+00 0. -1.
</event>
<event>
 5    1  0.8962567E-005  0.9118800E+02  0.7818608E-02  0.1130116E+00
         25   -1    0    0    0    0  0.00000000000E+00  0.00000000000E+00  0.99999998245E-14  0.12500000000E+03  0.12500000000E+03 0.  0.
        -11    1    3    3    0    0 -0.21099935086E+02 -0.20783303854E+02 -0.29289246233E+02  0.41653486347E+02  0.51100000000E-03 0. -1.
         23    2    1    0    0    0  0.25865442048E+02  0.70580719482E+00 -0.14317684498E+02  0.95427794375E+02  0.90730086486E+02 0.  0.
         11    1    3    3    0    0  0.46965377133E+02  0.21489111049E+02  0.14971561734E+02  0.53774308029E+02  0.51100000000E-03 0.  1.
         22    1    1    0    0    0 -0.25865442048E+02 -0.70580719482E+00  0.14317684498E+02  0.29572205625E+02  0.00000000000E+00 0.  1.
</event>
<event>
 5    1  0.8962567E-005  0.9118800E+02  0.7818608E-02  0.1130116E+00
         25   -1    0    0    0    0  0.00000000000E+00  0.00000000000E+00  0.99999998245E-14  0.12500000000E+03  0.12500000000E+03 0.  0.
        -11    1    3    3    0    0 -0.52663586353E+02  0.27153957025E+02 -0.27262477759E+01  0.59314611495E+02  0.51100000000E-03 0.  1.
         23    2    1    0    0    0 -0.28335150739E+02  0.43669991050E+00 -0.72977627529E+01  0.95736903523E+02  0.91154955328E+02 0.  0.
         11    1    3    3    0    0  0.24328435614E+02 -0.26717257114E+02 -0.45715149770E+01  0.36422292028E+02  0.51100000000E-03 0. -1.
         22    1    1    0    0    0  0.28335150739E+02 -0.43669991050E+00  0.72977627529E+01  0.29263096477E+02  0.00000000000E+00 0.  1.
</event>
<event>
 5    1  0.8962567E-005  0.9118800E+02  0.7818608E-02  0.1130116E+00
         25   -1    0    0    0    0  0.00000000000E+00  0.00000000000E+00  0.99999998245E-14  0.12500000000E+03  0.12500000000E+03 0.  0.
        -11    1    3    3    0    0 -0.29375686393E+02  0.73855782390E+01 -0.53190877866E+02  0.61210678851E+02  0.51100000000E-03 0. -1.
         23    2    1    0    0    0 -0.86515565342E+01  0.81994017860E+01 -0.31955037122E+02  0.90894223106E+02  0.84252927406E+02 0.  0.
         11    1    3    3    0    0  0.20724129859E+02  0.81382354701E+00  0.21235840744E+02  0.29683544255E+02  0.51100000000E-03 0.  1.
         22    1    1    0    0    0  0.86515565342E+01 -0.81994017860E+01  0.31955037122E+02  0.34105776894E+02  0.00000000000E+00 0. -1.
</event>
<event>
 5    1  0.8962567E-005  0.9118800E+02  0.7818608E-02  0.1130116E+00
         25   -1    0    0    0    0  0.00000000000E+00  0.00000000000E+00  0.99999998245E-14  0.12500000000E+03  0.12500000000E+03 0.  0.
        -11    1    3    3    0    0  0.25330460352E+01  0.35076759316E+02 -0.32614098458E+02  0.47963264951E+02  0.51100000000E-03 0.  1.
         23    2    1    0    0    0 -0.24401181956E+02  0.16573207480E+02  0.18351075907E+01  0.95445702396E+02  0.90754755241E+02 0.  0.
         11    1    3    3    0    0 -0.26934227991E+02 -0.18503551836E+02  0.34449206048E+02  0.47482437444E+02  0.51100000000E-03 0. -1.
         22    1    1    0    0    0  0.24401181956E+02 -0.16573207480E+02 -0.18351075907E+01  0.29554297604E+02  0.00000000000E+00 0. -1.
</event>
<event>
 5    1  0.8962567E-005  0.9118800E+02  0.7818608E-02  0.1130116E+00
         25   -1    0    0    0    0  0.00000000000E+00  0.00000000000E+00  0.99999998245E-14  0.12500000000E+03  0.12500000000E+03 0.  0.
        -11    1    3    3    0    0  0.54482225571E+01  0.21671439455E+02  0.50156827138E+02  0.54909395606E+02  0.51100000000E-03 0.  1.
         23    2    1    0    0    0  0.20405172461E+02  0.73117901088E+01  0.43002931386E+02  0.76843116322E+02  0.59881375073E+02 0.  0.
         11    1    3    3    0    0  0.14956949903E+02 -0.14359649346E+02 -0.71538957517E+01  0.21933720716E+02  0.51100000000E-03 0. -1.
         22    1    1    0    0    0 -0.20405172461E+02 -0.73117901088E+01 -0.43002931386E+02  0.48156883678E+02  0.00000000000E+00 0.  1.
</event>
<event>
 5    1  0.8962567E-005  0.9118800E+02  0.7818608E-02  0.1130116E+00
         25   -1    0    0    0    0  0.00000000000E+00  0.00000000000E+00  0.99999998245E-14  0.12500000000E+03  0.12500000000E+03 0.  0.
        -11    1    3    3    0    0  0.54059495138E+02 -0.18484033546E+02 -0.22925156626E+02  0.61560143903E+02  0.51100000000E-03 0.  1.
         23    2    1    0    0    0  0.26061652930E+02 -0.16732116602E+01 -0.13772728303E+02  0.95475477386E+02  0.90795756214E+02 0.  0.
         11    1    3    3    0    0 -0.27997842209E+02  0.16810821885E+02  0.91524283232E+01  0.33915333483E+02  0.51100000000E-03 0. -1.
         22    1    1    0    0    0 -0.26061652930E+02  0.16732116602E+01  0.13772728303E+02  0.29524522614E+02  0.00000000000E+00 0.  1.
</event>
<event>
 5    1  0.8962567E-005  0.9118800E+02  0.7818608E-02  0.1130116E+00
         25   -1    0    0    0    0  0.00000000000E+00  0.00000000000E+00  0.99999998245E-14  0.12500000000E+03  0.12500000000E+03 0.  0.
        -11    1    3    3    0    0  0.12912355945E+02 -0.23974432912E+02 -0.43093735312E+02  0.50976194374E+02  0.51100000000E-03 0.  1.
         23    2    1    0    0    0 -0.16386651558E+02 -0.25740221124E+02 -0.25777406947E+02  0.85055588104E+02  0.75092589688E+02 0.  0.
         11    1    3    3    0    0 -0.29299007504E+02 -0.17657882121E+01  0.17316328365E+02  0.34079393730E+02  0.51100000000E-03 0. -1.
         22    1    1    0    0    0  0.16386651558E+02  0.25740221124E+02  0.25777406947E+02  0.39944411896E+02  0.00000000000E+00 0.  1.
</event>
<event>
 5    1  0.8962567E-005  0.9118800E+02  0.7818608E-02  0.1130116E+00
         25   -1    0    0    0    0  0.00000000000E+00  0.00000000000E+00  0.99999998245E-14  0.12500000000E+03  0.12500000000E+03 0.  0.
        -11    1    3    3    0    0  0.32343288958E+02  0.45239575536E+02 -0.32317941115E+01  0.55705942490E+02  0.51100000000E-03 0.  1.
         23    2    1    0    0    0  0.31878570514E+02  0.92725869149E+01 -0.28523540195E+01  0.91677934494E+02  0.85407749201E+02 0.  0.
         11    1    3    3    0    0 -0.46471844451E+00 -0.35966988621E+02  0.37944009202E+00  0.35971992004E+02  0.51100000000E-03 0. -1.
         22    1    1    0    0    0 -0.31878570514E+02 -0.92725869149E+01  0.28523540195E+01  0.33322065506E+02  0.00000000000E+00 0.  1.
</event>
<event>
 5    1  0.8962567E-005  0.9118800E+02  0.7818608E-02  0.1130116E+00
         25   -1    0    0    0    0  0.00000000000E+00  0.00000000000E+00  0.99999998245E-14  0.12500000000E+03  0.12500000000E+03 0.  0.
        -11    1    3    3    0    0 -0.28663516609E+02  0.83388872214E+01 -0.33053692041E+02  0.44538531434E+02  0.51100000000E-03 0. -1.
         23    2    1    0    0    0 -0.22989555599E+02 -0.17198932284E+02  0.97287732842E+01  0.94685449567E+02  0.89701518336E+02 0.  0.
         11    1    3    3    0    0  0.56739610097E+01 -0.25537819505E+02  0.42782465326E+02  0.50146918133E+02  0.51100000000E-03 0.  1.
         22    1    1    0    0    0  0.22989555599E+02  0.17198932284E+02 -0.97287732842E+01  0.30314550433E+02  0.00000000000E+00 0. -1.
</event>
<event>
 5    1  0.8962567E-005  0.9118800E+02  0.7818608E-02  0.1130116E+00
         25   -1    0    0    0    0  0.00000000000E+00  0.00000000000E+00  0.99999998245E-14  0.12500000000E+03  0.12500000000E+03 0.  0.
        -11    1    3    3    0    0  0.86957512534E+01  0.60059865219E+01  0.49171553610E+02  0.50294429598E+02  0.51100000000E-03 0.  1.
         23    2    1    0    0    0 -0.33652274441E+01 -0.23614505866E+02  0.16623239069E+02  0.95925927011E+02  0.91413794105E+02 0.  0.
         11    1    3    3    0    0 -0.12060978698E+02 -0.29620492388E+02 -0.32548314540E+02  0.45631497413E+02  0.51100000000E-03 0. -1.
         22    1    1    0    0    0  0.33652274441E+01  0.23614505866E+02 -0.16623239069E+02  0.29074072989E+02  0.00000000000E+00 0.  1.
</event>
<event>
 5    1  0.8962567E-005  0.9118800E+02  0.7818608E-02  0.1130116E+00
         25   -1    0    0    0    0  0.00000000000E+00  0.00000000000E+00  0.99999998245E-14  0.12500000000E+03  0.12500000000E+03 0.  0.
        -11    1    3    3    0    0 -0.22025108314E+02  0.36216751858E+02 -0.17283333497E+02  0.45776327161E+02  0.51100000000E-03 0. -1.
         23    2    1    0    0    0 -0.10820255161E+02  0.10474883793E+02  0.24574846603E+02  0.96177713523E+02  0.91757443189E+02 0.  0.
         11    1    3    3    0    0  0.11204853152E+02 -0.25741868065E+02  0.41858180100E+02  0.50401386361E+02  0.51100000000E-03 0.  1.
         22    1    1    0    0    0  0.10820255161E+02 -0.10474883793E+02 -0.24574846603E+02  0.28822286477E+02  0.00000000000E+00 0.  1.
</event>
<event>
 5    1  0.8962567E-005  0.9118800E+02  0.7818608E-02  0.1130116E+00
         25   -1    0    0    0    0  0.00000000000E+00  0.00000000000E+00  0.99999998245E-14  0.12500000000E+03  0.12500000000E+03 0.  0.
        -11    1    3    3    0    0  0.43178926295E+02 -0.28739144913E+02 -0.26148860718E+02  0.58087184847E+02  0.51100000000E-03 0. -1.
         23    2    1    0    0    0  0.25357422418E+02 -0.16679441319E+02  0.32010858550E+01  0.94480341007E+02  0.89415240602E+02 0.  0.
         11    1    3    3    0    0 -0.17821503877E+02  0.12059703594E+02  0.29349946573E+02  0.36393156161E+02  0.51100000000E-03 0.  1.
         22    1    1    0    0    0 -0.25357422418E+02  0.16679441319E+02 -0.32010858550E+01  0.30519658993E+02  0.00000000000E+00 0. -1.
</event>
<event>
 5    1  0.8962567E-005  0.9118800E+02  0.7818608E-02  0.1130116E+00
         25   -1    0    0    0    0  0.00000000000E+00  0.00000000000E+00  0.99999998245E-14  0.12500000000E+03  0.12500000000E+03 0.  0.
        -11    1    3    3    0    0 -0.49899851633E+02  0.19600869665E+01  0.47045574456E+01  0.50159445720E+02  0.51100000000E-03 0.  1.
         23    2    1    0    0    0 -0.12346640459E+02  0.21491443309E+02 -0.14108210798E+02  0.96480475494E+02  0.92168969147E+02 0.  0.
         11    1    3    3    0    0  0.37553211174E+02  0.19531356342E+02 -0.18812768243E+02  0.46321029774E+02  0.51100000000E-03 0. -1.
         22    1    1    0    0    0  0.12346640459E+02 -0.21491443309E+02  0.14108210798E+02  0.28519524506E+02  0.00000000000E+00 0.  1.
</event>
<event>
 5    1  0.8962567E-005  0.9118800E+02  0.7818608E-02  0.1130116E+00
         25   -1    0    0    0    0  0.00000000000E+00  0.00000000000E+00  0.99999998245E-14  0.12500000000E+03  0.12500000000E+03 0.  0.
        -11    1    3    3    0    0  0.32059395310E+02  0.18844051764E+02 -0.19000580875E+02  0.41760330319E+02  0.51100000000E-03 0.  1.
         23    2    1    0    0    0 -0.17781183901E+01  0.27066550125E+02  0.17903080509E+02  0.92499536428E+02  0.86601871267E+02 0.  0.
         11    1    3    3    0    0 -0.33837513700E+02  0.82224983615E+01  0.36903661384E+02  0.50739206108E+02  0.51100000000E-03 0. -1.
         22    1    1    0    0    0  0.17781183901E+01 -0.27066550125E+02 -0.17903080509E+02  0.32500463572E+02  0.00000000000E+00 0. -1.
</event>
<event>
 5    1  0.8962567E-005  0.9118800E+02  0.7818608E-02  0.1130116E+00
         25   -1    0    0    0    0  0.00000000000E+00  0.00000000000E+00  0.99999998245E-14  0.12500000000E+03  0.12500000000E+03 0.  0.
        -11    1    3    3    0    0 -0.32305662235E+02 -0.75946003563E+01  0.19674938126E+02  0.38580266427E+02  0.51100000000E-03 0.  1.
         23    2    1    0    0    0  0.13988729966E+02  0.23926981681E+02  0.24518983418E+01  0.97175607394E+02  0.93106937703E+02 0.  0.
         11    1    3    3    0    0  0.46294392201E+02  0.31521582037E+02 -0.17223039784E+02  0.58595340967E+02  0.51100000000E-03 0. -1.
         22    1    1    0    0    0 -0.13988729966E+02 -0.23926981681E+02 -0.24518983418E+01  0.27824392606E+02  0.00000000000E+00 0. -1.
</event>
<event>
 5    1  0.8962567E-005  0.9118800E+02  0.7818608E-02  0.1130116E+00
         25   -1    0    0    0    0  0.00000000000E+00  0.00000000000E+00  0.99999998245E-14  0.12500000000E+03  0.12500000000E+03 0.  0.
        -11    1    3    3    0    0 -0.47814905036E+02  0.35912283441E+02  0.81101369172E+01  0.60346761029E+02  0.51100000000E-03 0. -1.
         23    2    1    0    0    0 -0.26967990206E+02  0.12008570242E+02 -0.56894718278E+01  0.94935929340E+02  0.90049888034E+02 0.  0.
         11    1    3    3    0    0  0.20846914831E+02 -0.23903713199E+02 -0.13799608745E+02  0.34589168311E+02  0.51100000000E-03 0.  1.
         22    1    1    0    0    0  0.26967990206E+02 -0.12008570242E+02  0.56894718278E+01  0.30064070660E+02  0.00000000000E+00 0. -1.
</event>
<event>
 5    1  0.8962567E-005  0.9118800E+02  0.7818608E-02  0.1130116E+00
         25   -1    0    0    0    0  0.00000000000E+00  0.00000000000E+00  0.99999998245E-14  0.12500000000E+03  0.12500000000E+03 0.  0.
        -11    1    3    3    0    0  0.30323882864E+01  0.26784682672E+02  0.27207899258E+02  0.38299926721E+02  0.51100000000E-03 0.  1.
         23    2    1    0    0    0  0.14906470669E+02  0.62694166247E+01 -0.24764823578E+02  0.95422898393E+02  0.90723340978E+02 0.  0.
         11    1    3    3    0    0  0.11874082383E+02 -0.20515266047E+02 -0.51972722836E+02  0.57122971672E+02  0.51100000000E-03 0. -1.
         22    1    1    0    0    0 -0.14906470669E+02 -0.62694166247E+01  0.24764823578E+02  0.29577101607E+02  0.00000000000E+00 0. -1.
</event>
<event>
 5    1  0.8962567E-005  0.9118800E+02  0.7818608E-02  0.1130116E+00
         25   -1    0    0    0    0  0.00000000000E+00  0.00000000000E+00  0.99999998245E-14  0.12500000000E+03  0.12500000000E+03 0.  0.
        -11    1    3    3    0    0  0.38310681419E+01  0.40614053629E+02 -0.24765848103E+02  0.47723428920E+02  0.51100000000E-03 0. -1.
         23    2    1    0    0    0  0.29511026254E+02  0.65238027497E+01 -0.68591866874E+01  0.94007918513E+02  0.88752349988E+02 0.  0.
         11    1    3    3    0    0  0.25679958112E+02 -0.34090250880E+02  0.17906661416E+02  0.46284489594E+02  0.51100000000E-03 0.  1.
         22    1    1    0    0    0 -0.29511026254E+02 -0.65238027497E+01  0.68591866874E+01  0.30992081487E+02  0.00000000000E+00 0. -1.
</event>
<event>
 5    1  0.8962567E-005  0.9118800E+02  0.7818608E-02  0.1130116E+00
         25   -1    0    0    0    0  0.00000000000E+00  0.00000000000E+00  0.99999998245E-14  0.12500000000E+03  0.12500000000E+03 0.  0.
        -11    1    3    3    0    0  0.39923507234E+02 -0.40113210463E+01 -0.24626402298E+02  0.47079048597E+02  0.51100000000E-03 0. -1.
         23    2    1    0    0    0  0.12857168405E+02  0.27631868379E+02 -0.20279037786E+01  0.94455944552E+02  0.89381128533E+02 0.  0.
         11    1    3    3    0    0 -0.27066338830E+02  0.31643189425E+02  0.22598498520E+02  0.47376895954E+02  0.51100000000E-03 0.  1.
         22    1    1    0    0    0 -0.12857168405E+02 -0.27631868379E+02  0.20279037786E+01  0.30544055448E+02  0.00000000000E+00 0. -1.
</event>
<event>
 5    1  0.8962567E-005  0.9118800E+02  0.7818608E-02  0.1130116E+00
         25   -1    0    0    0    0  0.00000000000E+00  0.00000000000E+00  0.99999998245E-14  0.12500000000E+03  0.12500000000E+03 0.  0.
        -11    1    3    3    0    0 -0.44439476635E+02 -0.29246922032E+02  0.10269441420E+02  0.54182201499E+02  0.51100000000E-03 0. -1.
         23    2    1    0    0    0 -0.15569455477E+02 -0.18875199037E+02 -0.16983032253E+02  0.95215700998E+02  0.90437410674E+02 0.  0.
         11    1    3    3    0    0  0.28870021158E+02  0.10371722994E+02 -0.27252473673E+02  0.41033499499E+02  0.51100000000E-03 0.  1.
         22    1    1    0    0    0  0.15569455477E+02  0.18875199037E+02  0.16983032253E+02  0.29784299002E+02  0.00000000000E+00 0. -1.
</event>
<event>
 5    1  0.8962567E-005  0.9118800E+02  0.7818608E-02  0.1130116E+00
         25   -1    0    0    0    0  0.00000000000E+00  0.00000000000E+00  0.99999998245E-14  0.12500000000E+03  0.12500000000E+03 0.  0.
        -11    1    3    3    0    0 -0.18748196022E+02 -0.46884866029E+02  0.18878691614E+02  0.53908167414E+02  0.51100000000E-03 0. -1.
         23    2    1    0    0    0 -0.27209618800E+02 -0.78379045096E+01  0.10949907098E+02  0.94640544013E+02  0.89638920137E+02 0.  0.
         11    1    3    3    0    0 -0.84614227784E+01  0.39046961519E+02 -0.79287845158E+01  0.40732376600E+02  0.51100000000E-03 0.  1.
         22    1    1    0    0    0  0.27209618800E+02  0.78379045096E+01 -0.10949907098E+02  0.30359455987E+02  0.00000000000E+00 0. -1.
</event>
<event>
 5    1  0.8962567E-005  0.9118800E+02  0.7818608E-02  0.1130116E+00
         25   -1    0    0    0    0  0.00000000000E+00  0.00000000000E+00  0.99999998245E-14  0.12500000000E+03  0.12500000000E+03 0.  0.
        -11    1    3    3    0    0  0.50782613257E+01 -0.35155408328E+02 -0.29748573379E+02  0.46332160441E+02  0.51100000000E-03 0. -1.
         23    2    1    0    0    0 -0.27018118069E+02 -0.28728726550E+01 -0.13430317292E+02  0.94691494200E+02  0.89709941199E+02 0.  0.
         11    1    3    3    0    0 -0.32096379394E+02  0.32282535673E+02  0.16318256087E+02  0.48359333759E+02  0.51100000000E-03 0.  1.
         22    1    1    0    0    0  0.27018118069E+02  0.28728726550E+01  0.13430317292E+02  0.30308505800E+02  0.00000000000E+00 0. -1.
</event>
<event>
 5    1  0.8962567E-005  0.9118800E+02  0.7818608E-02  0.1130116E+00
         25   -1    0    0    0    0  0.00000000000E+00  0.00000000000E+00  0.99999998245E-14  0.12500000000E+03  0.12500000000E+03 0.  0.
        -11    1    3    3    0    0  0.25988997481E+02 -0.33129939132E+02  0.30830072140E+02  0.52187299273E+02  0.51100000000E-03 0.  1.
         23    2    1    0    0    0  0.23727467908E+02 -0.36832573058E+01 -0.68199744603E+01  0.10003860642E+03  0.96874411510E+02 0.  0.
         11    1    3    3    0    0 -0.22615295727E+01  0.29446681826E+02 -0.37650046601E+02  0.47851307149E+02  0.51100000000E-03 0. -1.
         22    1    1    0    0    0 -0.23727467908E+02  0.36832573058E+01  0.68199744603E+01  0.24961393578E+02  0.00000000000E+00 0.  1.
</event>
<event>
 5    1  0.8962567E-005  0.9118800E+02  0.7818608E-02  0.1130116E+00
         25   -1    0    0    0    0  0.00000000000E+00  0.00000000000E+00  0.99999998245E-14  0.12500000000E+03  0.12500000000E+03 0.  0.
        -11    1    3    3    0    0  0.29923844772E+02 -0.99079718274E+01 -0.32008749041E+02  0.44923984764E+02  0.51100000000E-03 0.  1.
         23    2    1    0    0    0  0.22235159702E+02  0.19534625230E+02  0.71841696424E+01  0.94543207600E+02  0.89503083187E+02 0.  0.
         11    1    3    3    0    0 -0.76886850701E+01  0.29442597058E+02  0.39192918683E+02  0.49619222835E+02  0.51100000000E-03 0. -1.
         22    1    1    0    0    0 -0.22235159702E+02 -0.19534625230E+02 -0.71841696424E+01  0.30456792400E+02  0.00000000000E+00 0. -1.
</event>
<event>
 5    1  0.8962567E-005  0.9118800E+02  0.7818608E-02  0.1130116E+00
         25   -1    0    0    0    0  0.00000000000E+00  0.00000000000E+00  0.99999998245E-14  0.12500000000E+03  0.12500000000E+03 0.  0.
        -11    1    3    3    0    0 -0.33487532374E+02  0.72032691439E+01 -0.27174996319E+02  0.43723933218E+02  0.51100000000E-03 0. -1.
         23    2    1    0    0    0 -0.19511181533E+02  0.62442921347E+01  0.22049151021E+02  0.94902783355E+02  0.90003865687E+02 0.  0.
         11    1    3    3    0    0  0.13976350842E+02 -0.95897700921E+00  0.49224147339E+02  0.51178850136E+02  0.51100000000E-03 0.  1.
         22    1    1    0    0    0  0.19511181533E+02 -0.62442921347E+01 -0.22049151021E+02  0.30097216645E+02  0.00000000000E+00 0.  1.
</event>
<event>
 5    1  0.8962567E-005  0.9118800E+02  0.7818608E-02  0.1130116E+00
         25   -1    0    0    0    0  0.00000000000E+00  0.00000000000E+00  0.99999998245E-14  0.12500000000E+03  0.12500000000E+03 0.  0.
        -11    1    3    3    0    0 -0.14043698540E+01  0.52787715911E+02 -0.24855287622E+02  0.58363520531E+02  0.51100000000E-03 0.  1.
         23    2    1    0    0    0  0.14730569628E+02  0.20438387909E+02 -0.14337409918E+02  0.96012438788E+02  0.91532014601E+02 0.  0.
         11    1    3    3    0    0  0.16134939482E+02 -0.32349328002E+02  0.10517877704E+02  0.37648918256E+02  0.51100000000E-03 0. -1.
         22    1    1    0    0    0 -0.14730569628E+02 -0.20438387909E+02  0.14337409918E+02  0.28987561212E+02  0.00000000000E+00 0.  1.
</event>
<event>
 5    1  0.8962567E-005  0.9118800E+02  0.7818608E-02  0.1130116E+00
         25   -1    0    0    0    0  0.00000000000E+00  0.00000000000E+00  0.99999998245E-14  0.12500000000E+03  0.12500000000E+03 0.  0.
        -11    1    3    3    0    0  0.29862847259E+02  0.18959483218E+02  0.35375106826E+02  0.50026491317E+02  0.51100000000E-03 0. -1.
         23    2    1    0    0    0  0.79048125996E+01  0.29156657135E+02 -0.21835731267E+01  0.94711970861E+02  0.89738468425E+02 0.  0.
         11    1    3    3    0    0 -0.21958034660E+02  0.10197173917E+02 -0.37558679952E+02  0.44685479544E+02  0.51100000000E-03 0.  1.
         22    1    1    0    0    0 -0.79048125996E+01 -0.29156657135E+02  0.21835731267E+01  0.30288029139E+02  0.00000000000E+00 0. -1.
</event>
<event>
 5    1  0.8962567E-005  0.9118800E+02  0.7818608E-02  0.1130116E+00
         25   -1    0    0    0    0  0.00000000000E+00  0.00000000000E+00  0.99999998245E-14  0.12500000000E+03  0.12500000000E+03 0.  0.
        -11    1    3    3    0    0 -0.77409632201E+00  0.18002977122E+02 -0.39328001111E+02  0.43259658829E+02  0.51100000000E-03 0. -1.
         23    2    1    0    0    0 -0.70958454909E+01 -0.25771294963E+02 -0.93878649088E+01  0.96669050936E+02  0.92424362233E+02 0.  0.
         11    1    3    3    0    0 -0.63217491689E+01 -0.43774272085E+02  0.29940136202E+02  0.53409392107E+02  0.51100000000E-03 0.  1.
         22    1    1    0    0    0  0.70958454909E+01  0.25771294963E+02  0.93878649088E+01  0.28330949064E+02  0.00000000000E+00 0. -1.
</event>
<event>
 5    1  0.8962567E-005  0.9118800E+02  0.7818608E-02  0.1130116E+00
         25   -1    0    0    0    0  0.00000000000E+00  0.00000000000E+00  0.99999998245E-14  0.12500000000E+03  0.12500000000E+03 0.  0.
        -11    1    3    3    0    0  0.11660851734E+02  0.34165139145E+02  0.27872106000E+02  0.45607965194E+02  0.51100000000E-03 0.  1.
         23    2    1    0    0    0 -0.83375313909E+01  0.21319375930E+02 -0.17067438035E+02  0.96446057000E+02  0.92122278793E+02 0.  0.
         11    1    3    3    0    0 -0.19998383125E+02 -0.12845763215E+02 -0.44939544035E+02  0.50838091806E+02  0.51100000000E-03 0. -1.
         22    1    1    0    0    0  0.83375313909E+01 -0.21319375930E+02  0.17067438035E+02  0.28553943000E+02  0.00000000000E+00 0. -1.
</event>
<event>
 5    1  0.8962567E-005  0.9118800E+02  0.7818608E-02  0.1130116E+00
         25   -1    0    0    0    0  0.00000000000E+00  0.00000000000E+00  0.99999998245E-14  0.12500000000E+03  0.12500000000E+03 0.  0.
        -11    1    3    3    0    0  0.19635948334E+02 -0.27981679395E+02 -0.23863978253E+02  0.41689738630E+02  0.51100000000E-03 0.  1.
         23    2    1    0    0    0  0.12814493105E+01  0.24311166892E+02 -0.86987264730E+01  0.99147673408E+02  0.95717910299E+02 0.  0.
         11    1    3    3    0    0 -0.18354499024E+02  0.52292846286E+02  0.15165251780E+02  0.57457934778E+02  0.51100000000E-03 0. -1.
         22    1    1    0    0    0 -0.12814493105E+01 -0.24311166892E+02  0.86987264730E+01  0.25852326592E+02  0.00000000000E+00 0. -1.
</event>
<event>
 5    1  0.8962567E-005  0.9118800E+02  0.7818608E-02  0.1130116E+00
         25   -1    0    0    0    0  0.00000000000E+00  0.00000000000E+00  0.99999998245E-14  0.12500000000E+03  0.12500000000E+03 0.  0.
        -11    1    3    3    0    0  0.25452978133E+02 -0.50380585013E+01  0.26544261105E+02  0.37119185432E+02  0.51100000000E-03 0.  1.
         23    2    1    0    0    0 -0.28408921697E+02  0.33500810550E+01  0.39685786447E+01  0.96120258112E+02  0.91679139001E+02 0.  0.
         11    1    3    3    0    0 -0.53861899830E+02  0.83881395563E+01 -0.22575682460E+02  0.59001072679E+02  0.51100000000E-03 0. -1.
         22    1    1    0    0    0  0.28408921697E+02 -0.33500810550E+01 -0.39685786447E+01  0.28879741888E+02  0.00000000000E+00 0. -1.
</event>
<event>
 5    1  0.8962567E-005  0.9118800E+02  0.7818608E-02  0.1130116E+00
         25   -1    0    0    0    0  0.00000000000E+00  0.00000000000E+00  0.99999998245E-14  0.12500000000E+03  0.12500000000E+03 0.  0.
        -11    1    3    3    0    0  0.18418643137E+02 -0.32264156948E+02 -0.86622091316E+01  0.38147819150E+02  0.51100000000E-03 0. -1.
         23    2    1    0    0    0  0.11637141781E+02  0.25031969713E+02  0.36853158580E+01  0.97150329813E+02  0.93072995296E+02 0.  0.
         11    1    3    3    0    0 -0.67815013561E+01  0.57296126661E+02  0.12347524990E+02  0.59002510663E+02  0.51100000000E-03 0.  1.
         22    1    1    0    0    0 -0.11637141781E+02 -0.25031969713E+02 -0.36853158580E+01  0.27849670187E+02  0.00000000000E+00 0.  1.
</event>
<event>
 5    1  0.8962567E-005  0.9118800E+02  0.7818608E-02  0.1130116E+00
         25   -1    0    0    0    0  0.00000000000E+00  0.00000000000E+00  0.99999998245E-14  0.12500000000E+03  0.12500000000E+03 0.  0.
        -11    1    3    3    0    0 -0.34456341755E+02  0.37553362722E+02  0.22119609133E+02  0.55558722513E+02  0.51100000000E-03 0. -1.
         23    2    1    0    0    0  0.45854356336E+00  0.17000815310E+02  0.23374642230E+02  0.96093047847E+02  0.91642031632E+02 0.  0.
         11    1    3    3    0    0  0.34914885318E+02 -0.20552547412E+02  0.12550330980E+01  0.40534325333E+02  0.51100000000E-03 0.  1.
         22    1    1    0    0    0 -0.45854356336E+00 -0.17000815310E+02 -0.23374642230E+02  0.28906952153E+02  0.00000000000E+00 0. -1.
</event>
<event>
 5    1  0.8962567E-005  0.9118800E+02  0.7818608E-02  0.1130116E+00
         25   -1    0    0    0    0  0.00000000000E+00  0.00000000000E+00  0.99999998245E-14  0.12500000000E+03  0.12500000000E+03 0.  0.
        -11    1    3    3    0    0  0.41839652101E+02 -0.95804726163E+01 -0.19621231242E+02  0.47194646510E+02  0.51100000000E-03 0.  1.
         23    2    1    0    0    0  0.18756310208E+02  0.75069983042E+00  0.22113367139E+02  0.95993729487E+02  0.91506460820E+02 0.  0.
         11    1    3    3    0    0 -0.23083341893E+02  0.10331172447E+02  0.41734598381E+02  0.48799082977E+02  0.51100000000E-03 0. -1.
         22    1    1    0    0    0 -0.18756310208E+02 -0.75069983042E+00 -0.22113367139E+02  0.29006270513E+02  0.00000000000E+00 0.  1.
</event>
<event>
 5    1  0.8962567E-005  0.9118800E+02  0.7818608E-02  0.1130116E+00
         25   -1    0    0    0    0  0.00000000000E+00  0.00000000000E+00  0.99999998245E-14  0.12500000000E+03  0.12500000000E+03 0.  0.
        -11    1    3    3    0    0  0.67460643316E+01  0.18588030549E+02 -0.30318897833E+02  0.36197511375E+02  0.51100000000E-03 0.  1.
         23    2    1    0    0    0  0.20163872388E+02 -0.11487911689E+02  0.18661849253E+02  0.95220502318E+02  0.90444046678E+02 0.  0.
         11    1    3    3    0    0  0.13417808057E+02 -0.30075942238E+02  0.48980747086E+02  0.59022990943E+02  0.51100000000E-03 0. -1.
         22    1    1    0    0    0 -0.20163872388E+02  0.11487911689E+02 -0.18661849253E+02  0.29779497682E+02  0.00000000000E+00 0. -1.
</event>
<event>
 5    1  0.8962567E-005  0.9118800E+02  0.7818608E-02  0.1130116E+00
         25   -1    0    0    0    0  0.00000000000E+00  0.00000000000E+00  0.99999998245E-14  0.12500000000E+03  0.12500000000E+03 0.  0.
        -11    1    3    3    0    0 -0.26811451964E+02 -0.49135367166E+01 -0.20333070754E+02  0.34006331265E+02  0.51100000000E-03 0.  1.
         23    2    1    0    0    0  0.28329423322E+02  0.11979983119E+02 -0.37498769228E+01  0.94013909601E+02  0.88760787514E+02 0.  0.
         11    1    3    3    0    0  0.55140875287E+02  0.16893519835E+02  0.16583193832E+02  0.60007578336E+02  0.51100000000E-03 0. -1.
         22    1    1    0    0    0 -0.28329423322E+02 -0.11979983119E+02  0.37498769228E+01  0.30986090399E+02  0.00000000000E+00 0. -1.
</event>
<event>
 5    1  0.8962567E-005  0.9118800E+02  0.7818608E-02  0.1130116E+00
         25   -1    0    0    0    0  0.00000000000E+00  0.00000000000E+00  0.99999998245E-14  0.12500000000E+03  0.12500000000E+03 0.  0.
        -11    1    3    3    0    0 -0.23933628140E+02  0.15105091183E+02  0.24123802142E+02  0.37187903485E+02  0.51100000000E-03 0.  1.
         23    2    1    0    0    0  0.17075630540E+02  0.15995163929E+02 -0.17618529835E+02  0.95711179248E+02  0.91119673025E+02 0.  0.
         11    1    3    3    0    0  0.41009258680E+02  0.89007274635E+00 -0.41742331977E+02  0.58523275763E+02  0.51100000000E-03 0. -1.
         22    1    1    0    0    0 -0.17075630540E+02 -0.15995163929E+02  0.17618529835E+02  0.29288820752E+02  0.00000000000E+00 0. -1.
</event>
<event>
 5    1  0.8962567E-005  0.9118800E+02  0.7818608E-02  0.1130116E+00
         25   -1    0    0    0    0  0.00000000000E+00  0.00000000000E+00  0.99999998245E-14  0.12500000000E+03  0.12500000000E+03 0.  0.
        -11    1    3    3    0    0 -0.22981704650E+02 -0.40489374868E+02 -0.56609684913E+01  0.46899837850E+02  0.51100000000E-03 0. -1.
         23    2    1    0    0    0  0.17259687369E+02 -0.20538089360E+02  0.12569075995E+02  0.95374139776E+02  0.90656135722E+02 0.  0.
         11    1    3    3    0    0  0.40241392019E+02  0.19951285508E+02  0.18230044486E+02  0.48474301927E+02  0.51100000000E-03 0.  1.
         22    1    1    0    0    0 -0.17259687369E+02  0.20538089360E+02 -0.12569075995E+02  0.29625860224E+02  0.00000000000E+00 0. -1.
</event>
<event>
 5    1  0.8962567E-005  0.9118800E+02  0.7818608E-02  0.1130116E+00
         25   -1    0    0    0    0  0.00000000000E+00  0.00000000000E+00  0.99999998245E-14  0.12500000000E+03  0.12500000000E+03 0.  0.
        -11    1    3    3    0    0 -0.28152175285E+02 -0.34080791590E+02  0.42936768187E+02  0.61624762809E+02  0.51100000000E-03 0. -1.
         23    2    1    0    0    0 -0.13464568399E+02 -0.24699723740E+02  0.19762888118E+02  0.90620606437E+02  0.83845999364E+02 0.  0.
         11    1    3    3    0    0  0.14687606886E+02  0.93810678501E+01 -0.23173880068E+02  0.28995843629E+02  0.51100000000E-03 0.  1.
         22    1    1    0    0    0  0.13464568399E+02  0.24699723740E+02 -0.19762888118E+02  0.34379393563E+02  0.00000000000E+00 0. -1.
</event>
<event>
 5    1  0.8962567E-005  0.9118800E+02  0.7818608E-02  0.1130116E+00
         25   -1    0    0    0    0  0.00000000000E+00  0.00000000000E+00  0.99999998245E-14  0.12500000000E+03  0.12500000000E+03 0.  0.
        -11    1    3    3    0    0 -0.38222226732E+02 -0.84536335386E+01 -0.16137738306E+01  0.39179162862E+02  0.51100000000E-03 0.  1.
         23    2    1    0    0    0  0.85396975158E+01  0.14906589813E+02  0.22455540924E+02  0.96726617258E+02  0.92502185457E+02 0.  0.
         11    1    3    3    0    0  0.46761924248E+02  0.23360223352E+02  0.24069314754E+02  0.57547454395E+02  0.51100000000E-03 0. -1.
         22    1    1    0    0    0 -0.85396975158E+01 -0.14906589813E+02 -0.22455540924E+02  0.28273382742E+02  0.00000000000E+00 0. -1.
</event>
<event>
 5    1  0.8962567E-005  0.9118800E+02  0.7818608E-02  0.1130116E+00
         25   -1    0    0    0    0  0.00000000000E+00  0.00000000000E+00  0.99999998245E-14  0.12500000000E+03  0.12500000000E+03 0.  0.
        -11    1    3    3    0    0 -0.33178437641E+02  0.50575760834E+02  0.53442398517E+01  0.60722954540E+02  0.51100000000E-03 0. -1.
         23    2    1    0    0    0 -0.89514889553E+01  0.24798262745E+02  0.10786031509E+02  0.96514539404E+02  0.92215155213E+02 0.  0.
         11    1    3    3    0    0  0.24226948686E+02 -0.25777498089E+02  0.54417916570E+01  0.35791584864E+02  0.51100000000E-03 0.  1.
         22    1    1    0    0    0  0.89514889553E+01 -0.24798262745E+02 -0.10786031509E+02  0.28485460596E+02  0.00000000000E+00 0. -1.
</event>
<event>
 5    1  0.8962567E-005  0.9118800E+02  0.7818608E-02  0.1130116E+00
         25   -1    0    0    0    0  0.00000000000E+00  0.00000000000E+00  0.99999998245E-14  0.12500000000E+03  0.12500000000E+03 0.  0.
        -11    1    3    3    0    0  0.34875807114E+01  0.18217539270E+02 -0.58987516731E+02  0.61835015053E+02  0.51100000000E-03 0.  1.
         23    2    1    0    0    0  0.73659786248E+01  0.10740933513E+02 -0.25487121666E+02  0.96378003832E+02  0.92029891654E+02 0.  0.
         11    1    3    3    0    0  0.38783979133E+01 -0.74766057570E+01  0.33500395064E+02  0.34542988779E+02  0.51100000000E-03 0. -1.
         22    1    1    0    0    0 -0.73659786248E+01 -0.10740933513E+02  0.25487121666E+02  0.28621996168E+02  0.00000000000E+00 0.  1.
</event>
<event>
 5    1  0.8962567E-005  0.9118800E+02  0.7818608E-02  0.1130116E+00
         25   -1    0    0    0    0  0.00000000000E+00  0.00000000000E+00  0.99999998245E-14  0.12500000000E+03  0.12500000000E+03 0.  0.
        -11    1    3    3    0    0 -0.12812543784E+02  0.40943839852E+02 -0.20201612703E+02  0.47420084944E+02  0.51100000000E-03 0. -1.
         23    2    1    0    0    0 -0.19378531801E+02  0.14904259903E+02  0.18370553129E+02  0.94419913665E+02  0.89330724928E+02 0.  0.
         11    1    3    3    0    0 -0.65659880165E+01 -0.26039579949E+02  0.38572165832E+02  0.46999828720E+02  0.51100000000E-03 0.  1.
         22    1    1    0    0    0  0.19378531801E+02 -0.14904259903E+02 -0.18370553129E+02  0.30580086335E+02  0.00000000000E+00 0.  1.
</event>
<event>
 5    1  0.8962567E-005  0.9118800E+02  0.7818608E-02  0.1130116E+00
         25   -1    0    0    0    0  0.00000000000E+00  0.00000000000E+00  0.99999998245E-14  0.12500000000E+03  0.12500000000E+03 0.  0.
        -11    1    3    3    0    0 -0.12358398102E+02 -0.21006367462E+02  0.38810805189E+02  0.45828769101E+02  0.51100000000E-03 0. -1.
         23    2    1    0    0    0  0.25726682488E+02 -0.10734860089E+02  0.76638087033E+01  0.96089216946E+02  0.91636806123E+02 0.  0.
         11    1    3    3    0    0  0.38085080590E+02  0.10271507373E+02 -0.31146996485E+02  0.50260447845E+02  0.51100000000E-03 0.  1.
         22    1    1    0    0    0 -0.25726682488E+02  0.10734860089E+02 -0.76638087033E+01  0.28910783054E+02  0.00000000000E+00 0. -1.
</event>
<event>
 5    1  0.8962567E-005  0.9118800E+02  0.7818608E-02  0.1130116E+00
         25   -1    0    0    0    0  0.00000000000E+00  0.00000000000E+00  0.99999998245E-14  0.12500000000E+03  0.12500000000E+03 0.  0.
        -11    1    3    3    0    0  0.27329099839E+02  0.52290118331E+01 -0.44195016700E+02  0.52224723686E+02  0.51100000000E-03 0.  1.
         23    2    1    0    0    0  0.81105877099E+01  0.25578029434E+02 -0.10119372584E+02  0.96322152727E+02  0.91954000357E+02 0.  0.
         11    1    3    3    0    0 -0.19218512129E+02  0.20349017601E+02  0.34075644116E+02  0.44097429040E+02  0.51100000000E-03 0. -1.
         22    1    1    0    0    0 -0.81105877099E+01 -0.25578029434E+02  0.10119372584E+02  0.28677847273E+02  0.00000000000E+00 0.  1.
</event>
<event>
 5    1  0.8962567E-005  0.9118800E+02  0.7818608E-02  0.1130116E+00
         25   -1    0    0    0    0  0.00000000000E+00  0.00000000000E+00  0.99999998245E-14  0.12500000000E+03  0.12500000000E+03 0.  0.
        -11    1    3    3    0    0 -0.37886781155E+02  0.11415364181E+02  0.40960127166E+02  0.56951301507E+02  0.51100000000E-03 0.  1.
         23    2    1    0    0    0 -0.21365343733E+02  0.17349068599E+02  0.49170482455E+01  0.97042077017E+02  0.92927494609E+02 0.  0.
         11    1    3    3    0    0  0.16521437422E+02  0.59337044184E+01 -0.36043078921E+02  0.40090775509E+02  0.51100000000E-03 0. -1.
         22    1    1    0    0    0  0.21365343733E+02 -0.17349068599E+02 -0.49170482455E+01  0.27957922983E+02  0.00000000000E+00 0.  1.
</event>
<event>
 5    1  0.8962567E-005  0.9118800E+02  0.7818608E-02  0.1130116E+00
         25   -1    0    0    0    0  0.00000000000E+00  0.00000000000E+00  0.99999998245E-14  0.12500000000E+03  0.12500000000E+03 0.  0.
        -11    1    3    3    0    0  0.16895148141E+02  0.45128602137E+02 -0.25466278749E+02  0.54502918410E+02  0.51100000000E-03 0. -1.
         23    2    1    0    0    0  0.22675071873E+02  0.19271949819E+02 -0.31489619741E+02  0.81673759848E+02  0.69234673119E+02 0.  0.
         11    1    3    3    0    0  0.57799237323E+01 -0.25856652319E+02 -0.60233409925E+01  0.27170841438E+02  0.51100000000E-03 0.  1.
         22    1    1    0    0    0 -0.22675071873E+02 -0.19271949819E+02  0.31489619741E+02  0.43326240152E+02  0.00000000000E+00 0. -1.
</event>
<event>
 5    1  0.8962567E-005  0.9118800E+02  0.7818608E-02  0.1130116E+00
         25   -1    0    0    0    0  0.00000000000E+00  0.00000000000E+00  0.99999998245E-14  0.12500000000E+03  0.12500000000E+03 0.  0.
        -11    1    3    3    0    0  0.97369305494E+01  0.36198371207E+02  0.38671339588E+02  0.53857240928E+02  0.51100000000E-03 0.  1.
         23    2    1    0    0    0  0.25082351020E+02  0.10684611904E+02  0.80352858533E+01  0.96577278754E+02  0.92300160826E+02 0.  0.
         11    1    3    3    0    0  0.15345420471E+02 -0.25513759303E+02 -0.30636053735E+02  0.42720037826E+02  0.51100000000E-03 0. -1.
         22    1    1    0    0    0 -0.25082351020E+02 -0.10684611904E+02 -0.80352858533E+01  0.28422721246E+02  0.00000000000E+00 0.  1.
</event>
<event>
 5    1  0.8962567E-005  0.9118800E+02  0.7818608E-02  0.1130116E+00
         25   -1    0    0    0    0  0.00000000000E+00  0.00000000000E+00  0.99999998245E-14  0.12500000000E+03  0.12500000000E+03 0.  0.
        -11    1    3    3    0    0 -0.59805567641E+02  0.42222610425E+01 -0.64918984252E+01  0.60304876707E+02  0.51100000000E-03 0.  1.
         23    2    1    0    0    0 -0.26224645063E+02  0.12901320288E+02 -0.68104610677E+01  0.94990693880E+02  0.90125875696E+02 0.  0.
         11    1    3    3    0    0  0.33580922578E+02  0.86790592450E+01 -0.31856264249E+00  0.34685817173E+02  0.51100000000E-03 0. -1.
         22    1    1    0    0    0  0.26224645063E+02 -0.12901320288E+02  0.68104610677E+01  0.30009306120E+02  0.00000000000E+00 0.  1.
</event>
<event>
 5    1  0.8962567E-005  0.9118800E+02  0.7818608E-02  0.1130116E+00
         25   -1    0    0    0    0  0.00000000000E+00  0.00000000000E+00  0.99999998245E-14  0.12500000000E+03  0.12500000000E+03 0.  0.
        -11    1    3    3    0    0  0.25846529446E+01  0.26937774409E+02  0.28282815066E+02  0.39143859662E+02  0.51100000000E-03 0.  1.
         23    2    1    0    0    0  0.67767412839E+01 -0.26454807918E+02  0.12410915255E+02  0.95003135133E+02  0.90143129428E+02 0.  0.
         11    1    3    3    0    0  0.41920883393E+01 -0.53392582327E+02 -0.15871899812E+02  0.55859275470E+02  0.51100000000E-03 0. -1.
         22    1    1    0    0    0 -0.67767412839E+01  0.26454807918E+02 -0.12410915255E+02  0.29996864867E+02  0.00000000000E+00 0. -1.
</event>
<event>
 5    1  0.8962567E-005  0.9118800E+02  0.7818608E-02  0.1130116E+00
         25   -1    0    0    0    0  0.00000000000E+00  0.00000000000E+00  0.99999998245E-14  0.12500000000E+03  0.12500000000E+03 0.  0.
        -11    1    3    3    0    0 -0.24303556261E+02 -0.47004024679E+02 -0.35608933361E+01  0.53035093520E+02  0.51100000000E-03 0. -1.
         23    2    1    0    0    0  0.14348026346E+02 -0.20079457592E+02  0.51141173879E+00  0.10031575362E+03  0.97231365339E+02 0.  0.
         11    1    3    3    0    0  0.38651582608E+02  0.26924567087E+02  0.40723050749E+01  0.47280660103E+02  0.51100000000E-03 0.  1.
         22    1    1    0    0    0 -0.14348026346E+02  0.20079457592E+02 -0.51141173879E+00  0.24684246377E+02  0.00000000000E+00 0. -1.
</event>
<event>
 5    1  0.8962567E-005  0.9118800E+02  0.7818608E-02  0.1130116E+00
         25   -1    0    0    0    0  0.00000000000E+00  0.00000000000E+00  0.99999998245E-14  0.12500000000E+03  0.12500000000E+03 0.  0.
        -11    1    3    3    0    0  0.30703087245E+02 -0.13904443184E+02  0.54268479229E+01  0.34138889632E+02  0.51100000000E-03 0. -1.
         23    2    1    0    0    0 -0.22975697317E+02  0.61815510639E+01 -0.17077943891E+02  0.95712623738E+02  0.91121654586E+02 0.  0.
         11    1    3    3    0    0 -0.53678784562E+02  0.20085994248E+02 -0.22504791814E+02  0.61573734107E+02  0.51100000000E-03 0.  1.
         22    1    1    0    0    0  0.22975697317E+02 -0.61815510639E+01  0.17077943891E+02  0.29287376262E+02  0.00000000000E+00 0.  1.
</event>
<event>
 5    1  0.8962567E-005  0.9118800E+02  0.7818608E-02  0.1130116E+00
         25   -1    0    0    0    0  0.00000000000E+00  0.00000000000E+00  0.99999998245E-14  0.12500000000E+03  0.12500000000E+03 0.  0.
        -11    1    3    3    0    0  0.11300159247E+02 -0.87275902587E+01  0.46630398392E+02  0.48767391618E+02  0.51100000000E-03 0.  1.
         23    2    1    0    0    0  0.90580271152E+01 -0.27324721260E+02  0.32364642226E+01  0.96031690628E+02  0.91558301956E+02 0.  0.
         11    1    3    3    0    0 -0.22421321315E+01 -0.18597131002E+02 -0.43393934170E+02  0.47264299011E+02  0.51100000000E-03 0. -1.
         22    1    1    0    0    0 -0.90580271152E+01  0.27324721260E+02 -0.32364642226E+01  0.28968309372E+02  0.00000000000E+00 0.  1.
</event>
<event>
 5    1  0.8962567E-005  0.9118800E+02  0.7818608E-02  0.1130116E+00
         25   -1    0    0    0    0  0.00000000000E+00  0.00000000000E+00  0.99999998245E-14  0.12500000000E+03  0.12500000000E+03 0.  0.
        -11    1    3    3    0    0 -0.48207652619E+02  0.52846520797E+01  0.53191957410E+01  0.48787284842E+02  0.51100000000E-03 0. -1.
         23    2    1    0    0    0 -0.92967312344E+01 -0.19901592210E+02  0.17730443910E+02  0.96771092380E+02  0.92562266043E+02 0.  0.
         11    1    3    3    0    0  0.38910921385E+02 -0.25186244290E+02  0.12411248169E+02  0.47983807538E+02  0.51100000000E-03 0.  1.
         22    1    1    0    0    0  0.92967312344E+01  0.19901592210E+02 -0.17730443910E+02  0.28228907620E+02  0.00000000000E+00 0. -1.
</event>
<event>
 5    1  0.8962567E-005  0.9118800E+02  0.7818608E-02  0.1130116E+00
         25   -1    0    0    0    0  0.00000000000E+00  0.00000000000E+00  0.99999998245E-14  0.12500000000E+03  0.12500000000E+03 0.  0.
        -11    1    3    3    0    0 -0.17333667828E+02  0.33556403733E+02  0.14043779009E+02  0.40295359546E+02  0.51100000000E-03 0.  1.
         23    2    1    0    0    0  0.22862005745E+02  0.13158852989E+02 -0.15703149724E+02  0.94301211263E+02  0.89164470590E+02 0.  0.
         11    1    3    3    0    0  0.40195673573E+02 -0.20397550744E+02 -0.29746928732E+02  0.54005851716E+02  0.51100000000E-03 0. -1.
         22    1    1    0    0    0 -0.22862005745E+02 -0.13158852989E+02  0.15703149724E+02  0.30698788737E+02  0.00000000000E+00 0. -1.
</event>
<event>
 5    1  0.8962567E-005  0.9118800E+02  0.7818608E-02  0.1130116E+00
         25   -1    0    0    0    0  0.00000000000E+00  0.00000000000E+00  0.99999998245E-14  0.12500000000E+03  0.12500000000E+03 0.  0.
        -11    1    3    3    0    0 -0.24936384062E+02 -0.74234512438E+01 -0.31999357787E+01  0.26213936516E+02  0.51100000000E-03 0.  1.
         23    2    1    0    0    0  0.25454071101E+02  0.14214513262E+01  0.28783775122E+02  0.86549564765E+02  0.77539610467E+02 0.  0.
         11    1    3    3    0    0  0.50390455163E+02  0.88449025700E+01  0.31983710900E+02  0.60335628249E+02  0.51100000000E-03 0. -1.
         22    1    1    0    0    0 -0.25454071101E+02 -0.14214513262E+01 -0.28783775122E+02  0.38450435235E+02  0.00000000000E+00 0. -1.
</event>
<event>
 5    1  0.8962567E-005  0.9118800E+02  0.7818608E-02  0.1130116E+00
         25   -1    0    0    0    0  0.00000000000E+00  0.00000000000E+00  0.99999998245E-14  0.12500000000E+03  0.12500000000E+03 0.  0.
        -11    1    3    3    0    0  0.17431589417E+02  0.78201383748E+01 -0.33476274458E+02  0.38544465564E+02  0.51100000000E-03 0.  1.
         23    2    1    0    0    0  0.54411824957E+01  0.22029010953E+02  0.19745791517E+02  0.94920437617E+02  0.90028381105E+02 0.  0.
         11    1    3    3    0    0 -0.11990406921E+02  0.14208872578E+02  0.53222065975E+02  0.56375972053E+02  0.51100000000E-03 0. -1.
         22    1    1    0    0    0 -0.54411824957E+01 -0.22029010953E+02 -0.19745791517E+02  0.30079562383E+02  0.00000000000E+00 0. -1.
</event>
<event>
 5    1  0.8962567E-005  0.9118800E+02  0.7818608E-02  0.1130116E+00
         25   -1    0    0    0    0  0.00000000000E+00  0.00000000000E+00  0.99999998245E-14  0.12500000000E+03  0.12500000000E+03 0.  0.
        -11    1    3    3    0    0  0.50552067071E+01 -0.45105357146E+02 -0.10623919219E+02  0.46614547278E+02  0.51100000000E-03 0. -1.
         23    2    1    0    0    0 -0.29562797982E+01  0.12748396129E+01 -0.28021584760E+02  0.96794078304E+02  0.92593302003E+02 0.  0.
         11    1    3    3    0    0 -0.80114865053E+01  0.46380196759E+02 -0.17397665541E+02  0.50179531026E+02  0.51100000000E-03 0.  1.
         22    1    1    0    0    0  0.29562797982E+01 -0.12748396129E+01  0.28021584760E+02  0.28205921696E+02  0.00000000000E+00 0.  1.
</event>
<event>
 5    1  0.8962567E-005  0.9118800E+02  0.7818608E-02  0.1130116E+00
         25   -1    0    0    0    0  0.00000000000E+00  0.00000000000E+00  0.99999998245E-14  0.12500000000E+03  0.12500000000E+03 0.  0.
        -11    1    3    3    0    0  0.42746815071E+02 -0.26917166382E+02  0.42888514642E+01  0.50697320362E+02  0.51100000000E-03 0.  1.
         23    2    1    0    0    0 -0.28722466556E+01 -0.28017396723E+02  0.53027460114E+01  0.96340910076E+02  0.91979495101E+02 0.  0.
         11    1    3    3    0    0 -0.45619061726E+02 -0.11002303412E+01  0.10138945472E+01  0.45643589714E+02  0.51100000000E-03 0. -1.
         22    1    1    0    0    0  0.28722466556E+01  0.28017396723E+02 -0.53027460114E+01  0.28659089924E+02  0.00000000000E+00 0. -1.
</event>
<event>
 5    1  0.8962567E-005  0.9118800E+02  0.7818608E-02  0.1130116E+00
         25   -1    0    0    0    0  0.00000000000E+00  0.00000000000E+00  0.99999998245E-14  0.12500000000E+03  0.12500000000E+03 0.  0.
        -11    1    3    3    0    0 -0.15879089681E+02 -0.54164762034E+02 -0.11279840112E+02  0.57560418071E+02  0.51100000000E-03 0.  1.
         23    2    1    0    0    0 -0.21124590660E+01 -0.27087467828E+02  0.11467258456E+02  0.95509469094E+02  0.90842541100E+02 0.  0.
         11    1    3    3    0    0  0.13766630615E+02  0.27077294206E+02  0.22747098568E+02  0.37949051023E+02  0.51100000000E-03 0. -1.
         22    1    1    0    0    0  0.21124590660E+01  0.27087467828E+02 -0.11467258456E+02  0.29490530906E+02  0.00000000000E+00 0.  1.
</event>
<event>
 5    1  0.8962567E-005  0.9118800E+02  0.7818608E-02  0.1130116E+00
         25   -1    0    0    0    0  0.00000000000E+00  0.00000000000E+00  0.99999998245E-14  0.12500000000E+03  0.12500000000E+03 0.  0.
        -11    1    3    3    0    0  0.17332706797E+02 -0.10695801591E+02 -0.31586966096E+02  0.37584030172E+02  0.51100000000E-03 0. -1.
         23    2    1    0    0    0 -0.24904533876E+02 -0.10110877132E+02  0.94807524632E+01  0.96498240208E+02  0.92193058589E+02 0.  0.
         11    1    3    3    0    0 -0.42237240673E+02  0.58492445900E+00  0.41067718559E+02  0.58914210036E+02  0.51100000000E-03 0.  1.
         22    1    1    0    0    0  0.24904533876E+02  0.10110877132E+02 -0.94807524632E+01  0.28501759792E+02  0.00000000000E+00 0.  1.
</event>
<event>
 5    1  0.8962567E-005  0.9118800E+02  0.7818608E-02  0.1130116E+00
         25   -1    0    0    0    0  0.00000000000E+00  0.00000000000E+00  0.99999998245E-14  0.12500000000E+03  0.12500000000E+03 0.  0.
        -11    1    3    3    0    0 -0.34685865855E+02  0.35608002240E+01  0.40388901446E+02  0.53357773085E+02  0.51100000000E-03 0. -1.
         23    2    1    0    0    0 -0.18814444412E+02  0.21477446029E+02  0.51046446485E+01  0.95994459091E+02  0.91507457470E+02 0.  0.
         11    1    3    3    0    0  0.15871421442E+02  0.17916645805E+02 -0.35284256798E+02  0.42636686005E+02  0.51100000000E-03 0.  1.
         22    1    1    0    0    0  0.18814444412E+02 -0.21477446029E+02 -0.51046446485E+01  0.29005540909E+02  0.00000000000E+00 0. -1.
</event>
<event>
 5    1  0.8962567E-005  0.9118800E+02  0.7818608E-02  0.1130116E+00
         25   -1    0    0    0    0  0.00000000000E+00  0.00000000000E+00  0.99999998245E-14  0.12500000000E+03  0.12500000000E+03 0.  0.
        -11    1    3    3    0    0  0.11656969505E+02 -0.33309730173E+02  0.59919168507E+01  0.35795616073E+02  0.51100000000E-03 0. -1.
         23    2    1    0    0    0  0.13410615026E+02  0.25923722135E+02 -0.26968560515E+01  0.95688620004E+02  0.91088720492E+02 0.  0.
         11    1    3    3    0    0  0.17536455213E+01  0.59233452309E+02 -0.86887729022E+01  0.59893003931E+02  0.51100000000E-03 0.  1.
         22    1    1    0    0    0 -0.13410615026E+02 -0.25923722135E+02  0.26968560515E+01  0.29311379996E+02  0.00000000000E+00 0.  1.
</event>
<event>
 5    1  0.8962567E-005  0.9118800E+02  0.7818608E-02  0.1130116E+00
         25   -1    0    0    0    0  0.00000000000E+00  0.00000000000E+00  0.99999998245E-14  0.12500000000E+03  0.12500000000E+03 0.  0.
        -11    1    3    3    0    0  0.29475338390E+02  0.68706586694E+01  0.85602153050E+01  0.31452802897E+02  0.51100000000E-03 0. -1.
         23    2    1    0    0    0 -0.26865175202E+02  0.15271466841E+02 -0.11765180501E+02  0.91933781433E+02  0.85781381186E+02 0.  0.
         11    1    3    3    0    0 -0.56340513592E+02  0.84008081720E+01 -0.20325395806E+02  0.60480978536E+02  0.51100000000E-03 0.  1.
         22    1    1    0    0    0  0.26865175202E+02 -0.15271466841E+02  0.11765180501E+02  0.33066218567E+02  0.00000000000E+00 0.  1.
</event>
<event>
 5    1  0.8962567E-005  0.9118800E+02  0.7818608E-02  0.1130116E+00
         25   -1    0    0    0    0  0.00000000000E+00  0.00000000000E+00  0.99999998245E-14  0.12500000000E+03  0.12500000000E+03 0.  0.
        -11    1    3    3    0    0 -0.28215415190E+02 -0.29592132769E+02 -0.27313535021E+02  0.49171467049E+02  0.51100000000E-03 0. -1.
         23    2    1    0    0    0 -0.19486339151E+02  0.14526816747E+02 -0.17075218321E+02  0.95296315060E+02  0.90548764569E+02 0.  0.
         11    1    3    3    0    0  0.87290760394E+01  0.44118949516E+02  0.10238316701E+02  0.46124848011E+02  0.51100000000E-03 0.  1.
         22    1    1    0    0    0  0.19486339151E+02 -0.14526816747E+02  0.17075218321E+02  0.29703684940E+02  0.00000000000E+00 0. -1.
</event>
<event>
 5    1  0.8962567E-005  0.9118800E+02  0.7818608E-02  0.1130116E+00
         25   -1    0    0    0    0  0.00000000000E+00  0.00000000000E+00  0.99999998245E-14  0.12500000000E+03  0.12500000000E+03 0.  0.
        -11    1    3    3    0    0  0.30411257881E+02  0.43587788440E+02  0.31449242074E+02  0.61755928738E+02  0.51100000000E-03 0. -1.
         23    2    1    0    0    0  0.20147983315E+02  0.22484986393E+02  0.11047264399E+02  0.92851004752E+02  0.87107698787E+02 0.  0.
         11    1    3    3    0    0 -0.10263274566E+02 -0.21102802046E+02 -0.20401977675E+02  0.31095076014E+02  0.51100000000E-03 0.  1.
         22    1    1    0    0    0 -0.20147983315E+02 -0.22484986393E+02 -0.11047264399E+02  0.32148995248E+02  0.00000000000E+00 0. -1.
</event>
<event>
 5    1  0.8962567E-005  0.9118800E+02  0.7818608E-02  0.1130116E+00
         25   -1    0    0    0    0  0.00000000000E+00  0.00000000000E+00  0.99999998245E-14  0.12500000000E+03  0.12500000000E+03 0.  0.
        -11    1    3    3    0    0  0.55295203095E+02  0.20913467133E+02 -0.99072304244E+01  0.59942354040E+02  0.51100000000E-03 0. -1.
         23    2    1    0    0    0  0.40494930523E+02  0.41821570773E+01 -0.12459666475E+02  0.82425675290E+02  0.70579167057E+02 0.  0.
         11    1    3    3    0    0 -0.14800272573E+02 -0.16731310056E+02 -0.25524360506E+01  0.22483321251E+02  0.51100000000E-03 0.  1.
         22    1    1    0    0    0 -0.40494930523E+02 -0.41821570773E+01  0.12459666475E+02  0.42574324710E+02  0.00000000000E+00 0. -1.
</event>
<event>
 5    1  0.8962567E-005  0.9118800E+02  0.7818608E-02  0.1130116E+00
         25   -1    0    0    0    0  0.00000000000E+00  0.00000000000E+00  0.99999998245E-14  0.12500000000E+03  0.12500000000E+03 0.  0.
        -11    1    3    3    0    0  0.52868406985E+02  0.26269746687E+02  0.19905388636E+02  0.62300822989E+02  0.51100000000E-03 0.  1.
         23    2    1    0    0    0  0.25021302349E+02  0.13423899204E+02  0.59765466987E+01  0.95983009261E+02  0.91491815565E+02 0.  0.
         11    1    3    3    0    0 -0.27847104636E+02 -0.12845847482E+02 -0.13928841937E+02  0.33682186273E+02  0.51100000000E-03 0. -1.
         22    1    1    0    0    0 -0.25021302349E+02 -0.13423899204E+02 -0.59765466987E+01  0.29016990739E+02  0.00000000000E+00 0.  1.
</event>
<event>
 5    1  0.8962567E-005  0.9118800E+02  0.7818608E-02  0.1130116E+00
         25   -1    0    0    0    0  0.00000000000E+00  0.00000000000E+00  0.99999998245E-14  0.12500000000E+03  0.12500000000E+03 0.  0.
        -11    1    3    3    0    0 -0.13538478483E+02  0.41385701089E+02  0.18648701965E+02  0.47369196104E+02  0.51100000000E-03 0.  1.
         23    2    1    0    0    0  0.21716699800E+02  0.21202679338E+02 -0.47959611399E+01  0.94272652172E+02  0.89124424503E+02 0.  0.
         11    1    3    3    0    0  0.35255178283E+02 -0.20183021751E+02 -0.23444663105E+02  0.46903456068E+02  0.51100000000E-03 0. -1.
         22    1    1    0    0    0 -0.21716699800E+02 -0.21202679338E+02  0.47959611399E+01  0.30727347828E+02  0.00000000000E+00 0.  1.
</event>
<event>
 5    1  0.8962567E-005  0.9118800E+02  0.7818608E-02  0.1130116E+00
         25   -1    0    0    0    0  0.00000000000E+00  0.00000000000E+00  0.99999998245E-14  0.12500000000E+03  0.12500000000E+03 0.  0.
        -11    1    3    3    0    0  0.18381421216E+02  0.40064021914E+02 -0.19369419851E+02  0.48147449812E+02  0.51100000000E-03 0.  1.
         23    2    1    0    0    0 -0.12922500871E+02  0.21757337459E+02  0.12815876202E+02  0.96634185277E+02  0.92377195883E+02 0.  0.
         11    1    3    3    0    0 -0.31303922087E+02 -0.18306684455E+02  0.32185296053E+02  0.48486735465E+02  0.51100000000E-03 0. -1.
         22    1    1    0    0    0  0.12922500871E+02 -0.21757337459E+02 -0.12815876202E+02  0.28365814723E+02  0.00000000000E+00 0.  1.
</event>
<event>
 5    1  0.8962567E-005  0.9118800E+02  0.7818608E-02  0.1130116E+00
         25   -1    0    0    0    0  0.00000000000E+00  0.00000000000E+00  0.99999998245E-14  0.12500000000E+03  0.12500000000E+03 0.  0.
        -11    1    3    3    0    0  0.34462778034E+02 -0.56124604400E+01  0.43512961620E+02  0.55790327219E+02  0.51100000000E-03 0.  1.
         23    2    1    0    0    0  0.28036452682E+02  0.69795770092E+01  0.65357712010E+01  0.95377821157E+02  0.90661211602E+02 0.  0.
         11    1    3    3    0    0 -0.64263253519E+01  0.12592037449E+02 -0.36977190419E+02  0.39587493937E+02  0.51100000000E-03 0. -1.
         22    1    1    0    0    0 -0.28036452682E+02 -0.69795770092E+01 -0.65357712010E+01  0.29622178843E+02  0.00000000000E+00 0.  1.
</event>
<event>
 5    1  0.8962567E-005  0.9118800E+02  0.7818608E-02  0.1130116E+00
         25   -1    0    0    0    0  0.00000000000E+00  0.00000000000E+00  0.99999998245E-14  0.12500000000E+03  0.12500000000E+03 0.  0.
        -11    1    3    3    0    0  0.34200325967E+02  0.44986717158E+02  0.11943008869E+01  0.56523387830E+02  0.51100000000E-03 0.  1.
         23    2    1    0    0    0  0.25656624338E+02  0.70335971627E+01  0.10290982205E+02  0.96475656428E+02  0.92162433274E+02 0.  0.
         11    1    3    3    0    0 -0.85437016293E+01 -0.37953119995E+02  0.90966813177E+01  0.39952268598E+02  0.51100000000E-03 0. -1.
         22    1    1    0    0    0 -0.25656624338E+02 -0.70335971627E+01 -0.10290982205E+02  0.28524343572E+02  0.00000000000E+00 0.  1.
</event>
<event>
 5    1  0.8962567E-005  0.9118800E+02  0.7818608E-02  0.1130116E+00
         25   -1    0    0    0    0  0.00000000000E+00  0.00000000000E+00  0.99999998245E-14  0.12500000000E+03  0.12500000000E+03 0.  0.
        -11    1    3    3    0    0 -0.26741960923E+02 -0.17338290501E+01  0.33235601767E+02  0.42693604466E+02  0.51100000000E-03 0.  1.
         23    2    1    0    0    0 -0.55899284195E+01 -0.19295006091E+02 -0.16156022467E+02  0.99220907275E+02  0.95813500190E+02 0.  0.
         11    1    3    3    0    0  0.21152032504E+02 -0.17561177041E+02 -0.49391624234E+02  0.56527302809E+02  0.51100000000E-03 0. -1.
         22    1    1    0    0    0  0.55899284195E+01  0.19295006091E+02  0.16156022467E+02  0.25779092725E+02  0.00000000000E+00 0. -1.
</event>
<event>
 5    1  0.8962567E-005  0.9118800E+02  0.7818608E-02  0.1130116E+00
         25   -1    0    0    0    0  0.00000000000E+00  0.00000000000E+00  0.99999998245E-14  0.12500000000E+03  0.12500000000E+03 0.  0.
        -11    1    3    3    0    0 -0.30069843621E+02 -0.17298471224E+02  0.18271398399E+02  0.39208119080E+02  0.51100000000E-03 0.  1.
         23    2    1    0    0    0  0.21465280662E+02 -0.20098082542E+02 -0.38177667382E+01  0.95347571118E+02  0.90619494478E+02 0.  0.
         11    1    3    3    0    0  0.51535124283E+02 -0.27996113175E+01 -0.22089165137E+02  0.56139452038E+02  0.51100000000E-03 0. -1.
         22    1    1    0    0    0 -0.21465280662E+02  0.20098082542E+02  0.38177667382E+01  0.29652428882E+02  0.00000000000E+00 0. -1.
</event>
<event>
 5    1  0.8962567E-005  0.9118800E+02  0.7818608E-02  0.1130116E+00
         25   -1    0    0    0    0  0.00000000000E+00  0.00000000000E+00  0.99999998245E-14  0.12500000000E+03  0.12500000000E+03 0.  0.
        -11    1    3    3    0    0 -0.33182626058E+02  0.20262556095E+02  0.14745391584E+02  0.41582260939E+02  0.51100000000E-03 0.  1.
         23    2    1    0    0    0  0.27054014527E+01 -0.19241788461E+02  0.22228342335E+02  0.95476029685E+02  0.90796516570E+02 0.  0.
         11    1    3    3    0    0  0.35888027511E+02 -0.39504344556E+02  0.74829507514E+01  0.53893768746E+02  0.51100000000E-03 0. -1.
         22    1    1    0    0    0 -0.27054014527E+01  0.19241788461E+02 -0.22228342335E+02  0.29523970315E+02  0.00000000000E+00 0. -1.
</event>
<event>
 5    1  0.8962567E-005  0.9118800E+02  0.7818608E-02  0.1130116E+00
         25   -1    0    0    0    0  0.00000000000E+00  0.00000000000E+00  0.99999998245E-14  0.12500000000E+03  0.12500000000E+03 0.  0.
        -11    1    3    3    0    0 -0.17178012082E+02  0.90574251975E+00 -0.53587473784E+02  0.56280741070E+02  0.51100000000E-03 0.  1.
         23    2    1    0    0    0 -0.25176321773E+02  0.16101858050E+01 -0.15096472472E+02  0.95600283038E+02  0.90967415921E+02 0.  0.
         11    1    3    3    0    0 -0.79983096918E+01  0.70444328529E+00  0.38491001312E+02  0.39319541967E+02  0.51100000000E-03 0. -1.
         22    1    1    0    0    0  0.25176321773E+02 -0.16101858050E+01  0.15096472472E+02  0.29399716962E+02  0.00000000000E+00 0.  1.
</event>
<event>
 5    1  0.8962567E-005  0.9118800E+02  0.7818608E-02  0.1130116E+00
         25   -1    0    0    0    0  0.00000000000E+00  0.00000000000E+00  0.99999998245E-14  0.12500000000E+03  0.12500000000E+03 0.  0.
        -11    1    3    3    0    0  0.50471696696E+02 -0.43904819969E+00 -0.20736897231E+02  0.54567424694E+02  0.51100000000E-03 0.  1.
         23    2    1    0    0    0  0.25714934519E+02 -0.12136990234E+02  0.91767091089E+01  0.95120636229E+02  0.90305919282E+02 0.  0.
         11    1    3    3    0    0 -0.24756762177E+02 -0.11697942035E+02  0.29913606340E+02  0.40553211535E+02  0.51100000000E-03 0. -1.
         22    1    1    0    0    0 -0.25714934519E+02  0.12136990234E+02 -0.91767091089E+01  0.29879363771E+02  0.00000000000E+00 0.  1.
</event>
<event>
 5    1  0.8962567E-005  0.9118800E+02  0.7818608E-02  0.1130116E+00
         25   -1    0    0    0    0  0.00000000000E+00  0.00000000000E+00  0.99999998245E-14  0.12500000000E+03  0.12500000000E+03 0.  0.
        -11    1    3    3    0    0  0.40581382167E+02  0.16766495093E+02 -0.34820120139E+02  0.56039313906E+02  0.51100000000E-03 0. -1.
         23    2    1    0    0    0  0.26592757618E+02 -0.10647262710E+02 -0.14764937597E+02  0.92773576941E+02  0.86996518524E+02 0.  0.
         11    1    3    3    0    0 -0.13988624550E+02 -0.27413757802E+02  0.20055182543E+02  0.36734263035E+02  0.51100000000E-03 0.  1.
         22    1    1    0    0    0 -0.26592757618E+02  0.10647262710E+02  0.14764937597E+02  0.32226423059E+02  0.00000000000E+00 0. -1.
</event>
<event>
 5    1  0.8962567E-005  0.9118800E+02  0.7818608E-02  0.1130116E+00
         25   -1    0    0    0    0  0.00000000000E+00  0.00000000000E+00  0.99999998245E-14  0.12500000000E+03  0.12500000000E+03 0.  0.
        -11    1    3    3    0    0  0.19417367431E+02 -0.38979545147E+02 -0.27310541737E+02  0.51403353860E+02  0.51100000000E-03 0. -1.
         23    2    1    0    0    0 -0.12297999107E+02 -0.31477592233E+02 -0.51481986488E+01  0.90815448750E+02  0.84135974396E+02 0.  0.
         11    1    3    3    0    0 -0.31715366538E+02  0.75019529142E+01  0.22162343088E+02  0.39412094890E+02  0.51100000000E-03 0.  1.
         22    1    1    0    0    0  0.12297999107E+02  0.31477592233E+02  0.51481986488E+01  0.34184551250E+02  0.00000000000E+00 0. -1.
</event>
<event>
 5    1  0.8962567E-005  0.9118800E+02  0.7818608E-02  0.1130116E+00
         25   -1    0    0    0    0  0.00000000000E+00  0.00000000000E+00  0.99999998245E-14  0.12500000000E+03  0.12500000000E+03 0.  0.
        -11    1    3    3    0    0  0.31285494166E+02  0.48925910514E+02 -0.55875296283E+01  0.58341643382E+02  0.51100000000E-03 0. -1.
         23    2    1    0    0    0  0.21035053887E+02  0.14250733707E+02 -0.14720705805E+02  0.95635802708E+02  0.91016211066E+02 0.  0.
         11    1    3    3    0    0 -0.10250440279E+02 -0.34675176807E+02 -0.91331761765E+01  0.37294159326E+02  0.51100000000E-03 0.  1.
         22    1    1    0    0    0 -0.21035053887E+02 -0.14250733707E+02  0.14720705805E+02  0.29364197292E+02  0.00000000000E+00 0. -1.
</event>
<event>
 5    1  0.8962567E-005  0.9118800E+02  0.7818608E-02  0.1130116E+00
         25   -1    0    0    0    0  0.00000000000E+00  0.00000000000E+00  0.99999998245E-14  0.12500000000E+03  0.12500000000E+03 0.  0.
        -11    1    3    3    0    0  0.36423349282E+02 -0.12309655103E+02  0.30689049502E+01  0.38569497786E+02  0.51100000000E-03 0.  1.
         23    2    1    0    0    0 -0.62550954084E+01  0.20210757278E+02  0.21046644223E+02  0.95157711861E+02  0.90357224201E+02 0.  0.
         11    1    3    3    0    0 -0.42678444690E+02  0.32520412380E+02  0.17977739273E+02  0.56588214075E+02  0.51100000000E-03 0. -1.
         22    1    1    0    0    0  0.62550954084E+01 -0.20210757278E+02 -0.21046644223E+02  0.29842288139E+02  0.00000000000E+00 0. -1.
</event>
<event>
 5    1  0.8962567E-005  0.9118800E+02  0.7818608E-02  0.1130116E+00
         25   -1    0    0    0    0  0.00000000000E+00  0.00000000000E+00  0.99999998245E-14  0.12500000000E+03  0.12500000000E+03 0.  0.
        -11    1    3    3    0    0 -0.17020058223E+02  0.30399641028E+02  0.88648103829E+01  0.35950040611E+02  0.51100000000E-03 0.  1.
         23    2    1    0    0    0 -0.32249696994E+01 -0.27052852143E+02  0.12241153185E+02  0.95131905485E+02  0.90321516658E+02 0.  0.
         11    1    3    3    0    0  0.13795088524E+02 -0.57452493172E+02  0.33763428018E+01  0.59181864874E+02  0.51100000000E-03 0. -1.
         22    1    1    0    0    0  0.32249696994E+01  0.27052852143E+02 -0.12241153185E+02  0.29868094515E+02  0.00000000000E+00 0. -1.
</event>
<event>
 5    1  0.8962567E-005  0.9118800E+02  0.7818608E-02  0.1130116E+00
         25   -1    0    0    0    0  0.00000000000E+00  0.00000000000E+00  0.99999998245E-14  0.12500000000E+03  0.12500000000E+03 0.  0.
        -11    1    3    3    0    0  0.16562645139E+02 -0.57796643149E+02  0.70319619048E+01  0.60532814752E+02  0.51100000000E-03 0. -1.
         23    2    1    0    0    0  0.22399451898E+01 -0.29215778537E+02 -0.60597967290E+01  0.95078432422E+02  0.90247482543E+02 0.  0.
         11    1    3    3    0    0 -0.14322699949E+02  0.28580864612E+02 -0.13091758634E+02  0.34545617670E+02  0.51100000000E-03 0.  1.
         22    1    1    0    0    0 -0.22399451898E+01  0.29215778537E+02  0.60597967290E+01  0.29921567578E+02  0.00000000000E+00 0. -1.
</event>
<event>
 5    1  0.8962567E-005  0.9118800E+02  0.7818608E-02  0.1130116E+00
         25   -1    0    0    0    0  0.00000000000E+00  0.00000000000E+00  0.99999998245E-14  0.12500000000E+03  0.12500000000E+03 0.  0.
        -11    1    3    3    0    0 -0.47656943337E+02  0.12501650242E+02 -0.20794636860E+02  0.53477962091E+02  0.51100000000E-03 0.  1.
         23    2    1    0    0    0 -0.14735591335E+02  0.26352590911E+02  0.88012910811E-03  0.94807340288E+02  0.89871213812E+02 0.  0.
         11    1    3    3    0    0  0.32921352002E+02  0.13850940669E+02  0.20795516989E+02  0.41329378197E+02  0.51100000000E-03 0. -1.
         22    1    1    0    0    0  0.14735591335E+02 -0.26352590911E+02 -0.88012910812E-03  0.30192659712E+02  0.00000000000E+00 0.  1.
</event>
<event>
 5    1  0.8962567E-005  0.9118800E+02  0.7818608E-02  0.1130116E+00
         25   -1    0    0    0    0  0.00000000000E+00  0.00000000000E+00  0.99999998245E-14  0.12500000000E+03  0.12500000000E+03 0.  0.
        -11    1    3    3    0    0 -0.21890401079E+02  0.50526667725E+02  0.17340152479E+02  0.57730535239E+02  0.51100000000E-03 0. -1.
         23    2    1    0    0    0 -0.98689843546E+01  0.14601244558E+02  0.22989257144E+02  0.96032792008E+02  0.91559805602E+02 0.  0.
         11    1    3    3    0    0  0.12021416725E+02 -0.35925423167E+02  0.56491046647E+01  0.38302256768E+02  0.51100000000E-03 0.  1.
         22    1    1    0    0    0  0.98689843546E+01 -0.14601244558E+02 -0.22989257144E+02  0.28967207992E+02  0.00000000000E+00 0. -1.
</event>
<event>
 5    1  0.8962567E-005  0.9118800E+02  0.7818608E-02  0.1130116E+00
         25   -1    0    0    0    0  0.00000000000E+00  0.00000000000E+00  0.99999998245E-14  0.12500000000E+03  0.12500000000E+03 0.  0.
        -11    1    3    3    0    0 -0.26414869290E+01  0.53860518419E+00  0.36664831525E+02  0.36763805839E+02  0.51100000000E-03 0.  1.
         23    2    1    0    0    0  0.68028808363E+01  0.22766231040E+02 -0.17114581026E+02  0.95717080966E+02  0.91127768773E+02 0.  0.
         11    1    3    3    0    0  0.94443677654E+01  0.22227625856E+02 -0.53779412551E+02  0.58953275127E+02  0.51100000000E-03 0. -1.
         22    1    1    0    0    0 -0.68028808363E+01 -0.22766231040E+02  0.17114581026E+02  0.29282919034E+02  0.00000000000E+00 0. -1.
</event>
<event>
 5    1  0.8962567E-005  0.9118800E+02  0.7818608E-02  0.1130116E+00
         25   -1    0    0    0    0  0.00000000000E+00  0.00000000000E+00  0.99999998245E-14  0.12500000000E+03  0.12500000000E+03 0.  0.
        -11    1    3    3    0    0 -0.11428010398E+02 -0.18408142577E+02 -0.41150346601E+02  0.46506022841E+02  0.51100000000E-03 0.  1.
         23    2    1    0    0    0 -0.22707860060E+02 -0.13490860382E+02  0.81810755124E+01  0.97348956279E+02  0.93339375773E+02 0.  0.
         11    1    3    3    0    0 -0.11279849661E+02  0.49172821955E+01  0.49331422114E+02  0.50842933438E+02  0.51100000000E-03 0. -1.
         22    1    1    0    0    0  0.22707860060E+02  0.13490860382E+02 -0.81810755124E+01  0.27651043721E+02  0.00000000000E+00 0. -1.
</event>
<event>
 5    1  0.8962567E-005  0.9118800E+02  0.7818608E-02  0.1130116E+00
         25   -1    0    0    0    0  0.00000000000E+00  0.00000000000E+00  0.99999998245E-14  0.12500000000E+03  0.12500000000E+03 0.  0.
        -11    1    3    3    0    0  0.43105488988E+02 -0.30886965644E+02 -0.96936107027E+01  0.53907827969E+02  0.51100000000E-03 0.  1.
         23    2    1    0    0    0  0.88074523454E+00 -0.27997706213E+02 -0.20735905300E+01  0.96911798864E+02  0.92752087395E+02 0.  0.
         11    1    3    3    0    0 -0.42224743754E+02  0.28892594309E+01  0.76200201727E+01  0.43003970896E+02  0.51100000000E-03 0. -1.
         22    1    1    0    0    0 -0.88074523454E+00  0.27997706213E+02  0.20735905300E+01  0.28088201136E+02  0.00000000000E+00 0.  1.
</event>
<event>
 5    1  0.8962567E-005  0.9118800E+02  0.7818608E-02  0.1130116E+00
         25   -1    0    0    0    0  0.00000000000E+00  0.00000000000E+00  0.99999998245E-14  0.12500000000E+03  0.12500000000E+03 0.  0.
        -11    1    3    3    0    0  0.95188681175E+00  0.36434867559E+02  0.15305821773E+02  0.39530669650E+02  0.51100000000E-03 0. -1.
         23    2    1    0    0    0 -0.58756389840E+01 -0.20213029476E+02  0.18912052048E+02  0.96702378073E+02  0.92469424775E+02 0.  0.
         11    1    3    3    0    0 -0.68275257957E+01 -0.56647897035E+02  0.36062302752E+01  0.57171708423E+02  0.51100000000E-03 0.  1.
         22    1    1    0    0    0  0.58756389840E+01  0.20213029476E+02 -0.18912052048E+02  0.28297621927E+02  0.00000000000E+00 0.  1.
</event>
<event>
 5    1  0.8962567E-005  0.9118800E+02  0.7818608E-02  0.1130116E+00
         25   -1    0    0    0    0  0.00000000000E+00  0.00000000000E+00  0.99999998245E-14  0.12500000000E+03  0.12500000000E+03 0.  0.
        -11    1    3    3    0    0  0.55146009713E+02 -0.17243540687E+02  0.13551026323E+02  0.59346881952E+02  0.51100000000E-03 0.  1.
         23    2    1    0    0    0  0.23076831068E+02 -0.11157187063E+02  0.19836830539E+02  0.92588230515E+02  0.86729796660E+02 0.  0.
         11    1    3    3    0    0 -0.32069178645E+02  0.60863536236E+01  0.62858042164E+01  0.33241348563E+02  0.51100000000E-03 0. -1.
         22    1    1    0    0    0 -0.23076831068E+02  0.11157187063E+02 -0.19836830539E+02  0.32411769485E+02  0.00000000000E+00 0.  1.
</event>
<event>
 5    1  0.8962567E-005  0.9118800E+02  0.7818608E-02  0.1130116E+00
         25   -1    0    0    0    0  0.00000000000E+00  0.00000000000E+00  0.99999998245E-14  0.12500000000E+03  0.12500000000E+03 0.  0.
        -11    1    3    3    0    0  0.38439537581E+02 -0.31951255323E+02  0.12210883676E+02  0.51454702861E+02  0.51100000000E-03 0. -1.
         23    2    1    0    0    0  0.35524646822E+01 -0.81615061501E+01  0.27291877967E+02  0.96293262274E+02  0.91914718997E+02 0.  0.
         11    1    3    3    0    0 -0.34887072898E+02  0.23789749173E+02  0.15080994290E+02  0.44838559412E+02  0.51100000000E-03 0.  1.
         22    1    1    0    0    0 -0.35524646822E+01  0.81615061501E+01 -0.27291877967E+02  0.28706737726E+02  0.00000000000E+00 0. -1.
</event>
<event>
 5    1  0.8962567E-005  0.9118800E+02  0.7818608E-02  0.1130116E+00
         25   -1    0    0    0    0  0.00000000000E+00  0.00000000000E+00  0.99999998245E-14  0.12500000000E+03  0.12500000000E+03 0.  0.
        -11    1    3    3    0    0  0.38549044439E+02  0.35553907862E+02 -0.10316368793E+01  0.52451629777E+02  0.51100000000E-03 0. -1.
         23    2    1    0    0    0  0.22615376986E+02 -0.26309892102E+01  0.15975413839E+02  0.97186491991E+02  0.93121549589E+02 0.  0.
         11    1    3    3    0    0 -0.15933667453E+02 -0.38184897072E+02  0.17007050718E+02  0.44734862214E+02  0.51100000000E-03 0.  1.
         22    1    1    0    0    0 -0.22615376986E+02  0.26309892102E+01 -0.15975413839E+02  0.27813508009E+02  0.00000000000E+00 0.  1.
</event>
<event>
 5    1  0.8962567E-005  0.9118800E+02  0.7818608E-02  0.1130116E+00
         25   -1    0    0    0    0  0.00000000000E+00  0.00000000000E+00  0.99999998245E-14  0.12500000000E+03  0.12500000000E+03 0.  0.
        -11    1    3    3    0    0  0.13638275252E+02 -0.31734223814E+02  0.43873233363E+02  0.55838374966E+02  0.51100000000E-03 0. -1.
         23    2    1    0    0    0  0.19267665135E+02 -0.26451509753E+02  0.97073268043E+01  0.90865596802E+02  0.84210445911E+02 0.  0.
         11    1    3    3    0    0  0.56293898839E+01  0.52827140604E+01 -0.34165906558E+02  0.35027221836E+02  0.51100000000E-03 0.  1.
         22    1    1    0    0    0 -0.19267665135E+02  0.26451509753E+02 -0.97073268043E+01  0.34134403198E+02  0.00000000000E+00 0. -1.
</event>
<event>
 5    1  0.8962567E-005  0.9118800E+02  0.7818608E-02  0.1130116E+00
         25   -1    0    0    0    0  0.00000000000E+00  0.00000000000E+00  0.99999998245E-14  0.12500000000E+03  0.12500000000E+03 0.  0.
        -11    1    3    3    0    0  0.35253213048E+02  0.49130479774E+01  0.17194653381E+02  0.39529522838E+02  0.51100000000E-03 0. -1.
         23    2    1    0    0    0  0.39475221512E+01  0.21006642051E+01 -0.29139775484E+02  0.95519120832E+02  0.90855820992E+02 0.  0.
         11    1    3    3    0    0 -0.31305690897E+02 -0.28123837723E+01 -0.46334428865E+02  0.55989597994E+02  0.51100000000E-03 0.  1.
         22    1    1    0    0    0 -0.39475221512E+01 -0.21006642051E+01  0.29139775484E+02  0.29480879168E+02  0.00000000000E+00 0.  1.
</event>
<event>
 5    1  0.8962567E-005  0.9118800E+02  0.7818608E-02  0.1130116E+00
         25   -1    0    0    0    0  0.00000000000E+00  0.00000000000E+00  0.99999998245E-14  0.12500000000E+03  0.12500000000E+03 0.  0.
        -11    1    3    3    0    0 -0.18550309213E+02 -0.35682105324E+02  0.39477891868E+02  0.56354507884E+02  0.51100000000E-03 0. -1.
         23    2    1    0    0    0  0.76541544912E+01 -0.26564820746E+02  0.14051004391E+02  0.93988606826E+02  0.88725146979E+02 0.  0.
         11    1    3    3    0    0  0.26204463704E+02  0.91172845786E+01 -0.25426887477E+02  0.37634098942E+02  0.51100000000E-03 0.  1.
         22    1    1    0    0    0 -0.76541544912E+01  0.26564820746E+02 -0.14051004391E+02  0.31011393174E+02  0.00000000000E+00 0. -1.
</event>
<event>
 5    1  0.8962567E-005  0.9118800E+02  0.7818608E-02  0.1130116E+00
         25   -1    0    0    0    0  0.00000000000E+00  0.00000000000E+00  0.99999998245E-14  0.12500000000E+03  0.12500000000E+03 0.  0.
        -11    1    3    3    0    0  0.37415397657E+02 -0.12594269357E+02  0.32403306565E+02  0.51073494879E+02  0.51100000000E-03 0. -1.
         23    2    1    0    0    0 -0.14871742141E+01  0.10585659188E+02  0.26101065787E+02  0.96794796529E+02  0.92594271596E+02 0.  0.
         11    1    3    3    0    0 -0.38902571872E+02  0.23179928544E+02 -0.63022407781E+01  0.45721301651E+02  0.51100000000E-03 0.  1.
         22    1    1    0    0    0  0.14871742141E+01 -0.10585659188E+02 -0.26101065787E+02  0.28205203471E+02  0.00000000000E+00 0. -1.
</event>
<event>
 5    1  0.8962567E-005  0.9118800E+02  0.7818608E-02  0.1130116E+00
         25   -1    0    0    0    0  0.00000000000E+00  0.00000000000E+00  0.99999998245E-14  0.12500000000E+03  0.12500000000E+03 0.  0.
        -11    1    3    3    0    0  0.41641675626E+02 -0.20265840870E+02 -0.23075245050E+02  0.51741669760E+02  0.51100000000E-03 0. -1.
         23    2    1    0    0    0 -0.22419687304E+01 -0.13371129703E+02 -0.25382521393E+02  0.96223517839E+02  0.91819820625E+02 0.  0.
         11    1    3    3    0    0 -0.43883644357E+02  0.68947111674E+01 -0.23072763426E+01  0.44481848079E+02  0.51100000000E-03 0.  1.
         22    1    1    0    0    0  0.22419687304E+01  0.13371129703E+02  0.25382521393E+02  0.28776482161E+02  0.00000000000E+00 0.  1.
</event>
<event>
 5    1  0.8962567E-005  0.9118800E+02  0.7818608E-02  0.1130116E+00
         25   -1    0    0    0    0  0.00000000000E+00  0.00000000000E+00  0.99999998245E-14  0.12500000000E+03  0.12500000000E+03 0.  0.
        -11    1    3    3    0    0  0.44723357003E+02 -0.30409695103E+02  0.42422320838E+01  0.54248730411E+02  0.51100000000E-03 0. -1.
         23    2    1    0    0    0  0.22656733438E+02  0.32226332233E+01  0.17048090778E+02  0.96463175823E+02  0.92145504262E+02 0.  0.
         11    1    3    3    0    0 -0.22066623566E+02  0.33632328326E+02  0.12805858694E+02  0.42214445412E+02  0.51100000000E-03 0.  1.
         22    1    1    0    0    0 -0.22656733438E+02 -0.32226332233E+01 -0.17048090778E+02  0.28536824177E+02  0.00000000000E+00 0. -1.
</event>
<event>
 5    1  0.8962567E-005  0.9118800E+02  0.7818608E-02  0.1130116E+00
         25   -1    0    0    0    0  0.00000000000E+00  0.00000000000E+00  0.99999998245E-14  0.12500000000E+03  0.12500000000E+03 0.  0.
        -11    1    3    3    0    0 -0.32202646833E+02  0.24453254595E+00 -0.79650576736E+01  0.33173971773E+02  0.51100000000E-03 0.  1.
         23    2    1    0    0    0 -0.22404209144E+01  0.22874862654E+02  0.30421996342E+02  0.86871576367E+02  0.78056992587E+02 0.  0.
         11    1    3    3    0    0  0.29962225919E+02  0.22630330108E+02  0.38387054016E+02  0.53697604593E+02  0.51100000000E-03 0. -1.
         22    1    1    0    0    0  0.22404209144E+01 -0.22874862654E+02 -0.30421996342E+02  0.38128423633E+02  0.00000000000E+00 0. -1.
</event>
<event>
 5    1  0.8962567E-005  0.9118800E+02  0.7818608E-02  0.1130116E+00
         25   -1    0    0    0    0  0.00000000000E+00  0.00000000000E+00  0.99999998245E-14  0.12500000000E+03  0.12500000000E+03 0.  0.
        -11    1    3    3    0    0  0.10402261661E+02 -0.27484623759E+02  0.19365450825E+02  0.35194208000E+02  0.51100000000E-03 0. -1.
         23    2    1    0    0    0 -0.22334461182E+02  0.18134757396E+02 -0.38879945918E+01  0.95968739537E+02  0.91472317585E+02 0.  0.
         11    1    3    3    0    0 -0.32736722843E+02  0.45619381155E+02 -0.23253445417E+02  0.60774531537E+02  0.51100000000E-03 0.  1.
         22    1    1    0    0    0  0.22334461182E+02 -0.18134757396E+02  0.38879945918E+01  0.29031260463E+02  0.00000000000E+00 0.  1.
</event>
<event>
 5    1  0.8962567E-005  0.9118800E+02  0.7818608E-02  0.1130116E+00
         25   -1    0    0    0    0  0.00000000000E+00  0.00000000000E+00  0.99999998245E-14  0.12500000000E+03  0.12500000000E+03 0.  0.
        -11    1    3    3    0    0 -0.46377917338E+02  0.11617073623E+01 -0.22108459018E+02  0.51391095931E+02  0.51100000000E-03 0.  1.
         23    2    1    0    0    0 -0.19247692420E+02 -0.25074307087E+02 -0.15819530999E+02  0.89652410260E+02  0.82389942135E+02 0.  0.
         11    1    3    3    0    0  0.27130224917E+02 -0.26236014449E+02  0.62889280189E+01  0.38261314328E+02  0.51100000000E-03 0. -1.
         22    1    1    0    0    0  0.19247692420E+02  0.25074307087E+02  0.15819530999E+02  0.35347589740E+02  0.00000000000E+00 0.  1.
</event>
<event>
 5    1  0.8962567E-005  0.9118800E+02  0.7818608E-02  0.1130116E+00
         25   -1    0    0    0    0  0.00000000000E+00  0.00000000000E+00  0.99999998245E-14  0.12500000000E+03  0.12500000000E+03 0.  0.
        -11    1    3    3    0    0 -0.22438828400E+02  0.24767022778E+02 -0.14575868442E+02  0.36460422081E+02  0.51100000000E-03 0.  1.
         23    2    1    0    0    0  0.26819679970E+02  0.73434022786E+01  0.11564927224E+02  0.94884085065E+02  0.89977893208E+02 0.  0.
         11    1    3    3    0    0  0.49258508370E+02 -0.17423620499E+02  0.26140795666E+02  0.58423662983E+02  0.51100000000E-03 0. -1.
         22    1    1    0    0    0 -0.26819679970E+02 -0.73434022786E+01 -0.11564927224E+02  0.30115914935E+02  0.00000000000E+00 0. -1.
</event>
<event>
 5    1  0.8962567E-005  0.9118800E+02  0.7818608E-02  0.1130116E+00
         25   -1    0    0    0    0  0.00000000000E+00  0.00000000000E+00  0.99999998245E-14  0.12500000000E+03  0.12500000000E+03 0.  0.
        -11    1    3    3    0    0  0.38089456114E+02  0.11326421586E+02 -0.22856295746E+02  0.45842172162E+02  0.51100000000E-03 0. -1.
         23    2    1    0    0    0  0.20074855174E+02  0.11482456240E+02  0.21316777885E+02  0.93547629168E+02  0.88101687225E+02 0.  0.
         11    1    3    3    0    0 -0.18014600940E+02  0.15603465355E+00  0.44173073631E+02  0.47705457006E+02  0.51100000000E-03 0.  1.
         22    1    1    0    0    0 -0.20074855174E+02 -0.11482456240E+02 -0.21316777885E+02  0.31452370832E+02  0.00000000000E+00 0. -1.
</event>
<event>
 5    1  0.8962567E-005  0.9118800E+02  0.7818608E-02  0.1130116E+00
         25   -1    0    0    0    0  0.00000000000E+00  0.00000000000E+00  0.99999998245E-14  0.12500000000E+03  0.12500000000E+03 0.  0.
        -11    1    3    3    0    0 -0.55907071405E+01 -0.45131831062E+01  0.40280601429E+02  0.40916398666E+02  0.51100000000E-03 0.  1.
         23    2    1    0    0    0  0.23271567588E+02  0.14467232504E+02 -0.42454389191E+01  0.97271126494E+02  0.93235087941E+02 0.  0.
         11    1    3    3    0    0  0.28862274728E+02  0.18980415610E+02 -0.44526040348E+02  0.56354727828E+02  0.51100000000E-03 0. -1.
         22    1    1    0    0    0 -0.23271567588E+02 -0.14467232504E+02  0.42454389191E+01  0.27728873506E+02  0.00000000000E+00 0. -1.
</event>
<event>
 5    1  0.8962567E-005  0.9118800E+02  0.7818608E-02  0.1130116E+00
         25   -1    0    0    0    0  0.00000000000E+00  0.00000000000E+00  0.99999998245E-14  0.12500000000E+03  0.12500000000E+03 0.  0.
        -11    1    3    3    0    0 -0.20367332283E+02 -0.50137348964E+02 -0.13507600758E+01  0.54133229523E+02  0.51100000000E-03 0. -1.
         23    2    1    0    0    0 -0.81593504095E+01 -0.88467974266E+01 -0.20477520777E+02  0.10124774367E+03  0.98422232836E+02 0.  0.
         11    1    3    3    0    0  0.12207981874E+02  0.41290551538E+02 -0.19126760701E+02  0.47114514143E+02  0.51100000000E-03 0.  1.
         22    1    1    0    0    0  0.81593504095E+01  0.88467974266E+01  0.20477520777E+02  0.23752256335E+02  0.00000000000E+00 0. -1.
</event>
<event>
 5    1  0.8962567E-005  0.9118800E+02  0.7818608E-02  0.1130116E+00
         25   -1    0    0    0    0  0.00000000000E+00  0.00000000000E+00  0.99999998245E-14  0.12500000000E+03  0.12500000000E+03 0.  0.
        -11    1    3    3    0    0  0.34558496561E+00  0.62768715730E+01 -0.32454729991E+02  0.33057949797E+02  0.51100000000E-03 0.  1.
         23    2    1    0    0    0 -0.10920367384E+02 -0.45382779361E+01  0.27527468224E+02  0.95039828150E+02  0.90193996683E+02 0.  0.
         11    1    3    3    0    0 -0.11265952349E+02 -0.10815149509E+02  0.59982198215E+02  0.61981878354E+02  0.51100000000E-03 0. -1.
         22    1    1    0    0    0  0.10920367384E+02  0.45382779361E+01 -0.27527468224E+02  0.29960171850E+02  0.00000000000E+00 0. -1.
</event>
<event>
 5    1  0.8962567E-005  0.9118800E+02  0.7818608E-02  0.1130116E+00
         25   -1    0    0    0    0  0.00000000000E+00  0.00000000000E+00  0.99999998245E-14  0.12500000000E+03  0.12500000000E+03 0.  0.
        -11    1    3    3    0    0 -0.16957763630E+02 -0.13717481128E+02 -0.49069398712E+02  0.53698611956E+02  0.51100000000E-03 0.  1.
         23    2    1    0    0    0 -0.87272853392E+01  0.17207637645E+02 -0.23030721394E+02  0.94955326086E+02  0.90076809010E+02 0.  0.
         11    1    3    3    0    0  0.82304782910E+01  0.30925118773E+02  0.26038677318E+02  0.41256714129E+02  0.51100000000E-03 0. -1.
         22    1    1    0    0    0  0.87272853392E+01 -0.17207637645E+02  0.23030721394E+02  0.30044673914E+02  0.00000000000E+00 0.  1.
</event>
<event>
 5    1  0.8962567E-005  0.9118800E+02  0.7818608E-02  0.1130116E+00
         25   -1    0    0    0    0  0.00000000000E+00  0.00000000000E+00  0.99999998245E-14  0.12500000000E+03  0.12500000000E+03 0.  0.
        -11    1    3    3    0    0  0.41676396791E+01 -0.33478762473E+02  0.13844456680E+02  0.36467324254E+02  0.51100000000E-03 0.  1.
         23    2    1    0    0    0  0.14407868726E+02  0.19921995120E+02  0.22675771097E+02  0.91553577686E+02  0.85225550285E+02 0.  0.
         11    1    3    3    0    0  0.10240229047E+02  0.53400757593E+02  0.88313144172E+01  0.55086253431E+02  0.51100000000E-03 0. -1.
         22    1    1    0    0    0 -0.14407868726E+02 -0.19921995120E+02 -0.22675771097E+02  0.33446422314E+02  0.00000000000E+00 0. -1.
</event>
<event>
 5    1  0.8962567E-005  0.9118800E+02  0.7818608E-02  0.1130116E+00
         25   -1    0    0    0    0  0.00000000000E+00  0.00000000000E+00  0.99999998245E-14  0.12500000000E+03  0.12500000000E+03 0.  0.
        -11    1    3    3    0    0  0.29515798111E+02 -0.23260724046E+02 -0.46310766662E+02  0.59640009477E+02  0.51100000000E-03 0. -1.
         23    2    1    0    0    0  0.17777683998E+02  0.21717439990E+01 -0.21084465882E+02  0.97335632632E+02  0.93321531053E+02 0.  0.
         11    1    3    3    0    0 -0.11738114113E+02  0.25432468045E+02  0.25226300781E+02  0.37695623156E+02  0.51100000000E-03 0.  1.
         22    1    1    0    0    0 -0.17777683998E+02 -0.21717439990E+01  0.21084465882E+02  0.27664367368E+02  0.00000000000E+00 0. -1.
</event>
<event>
 5    1  0.8962567E-005  0.9118800E+02  0.7818608E-02  0.1130116E+00
         25   -1    0    0    0    0  0.00000000000E+00  0.00000000000E+00  0.99999998245E-14  0.12500000000E+03  0.12500000000E+03 0.  0.
        -11    1    3    3    0    0 -0.91714912672E+01  0.30025022602E+02 -0.37963111648E+02  0.49262725063E+02  0.51100000000E-03 0.  1.
         23    2    1    0    0    0  0.22717293466E+02  0.14510004142E+02 -0.51923886076E+01  0.97548651361E+02  0.93606425208E+02 0.  0.
         11    1    3    3    0    0  0.31888784734E+02 -0.15515018460E+02  0.32770723041E+02  0.48285926298E+02  0.51100000000E-03 0. -1.
         22    1    1    0    0    0 -0.22717293466E+02 -0.14510004142E+02  0.51923886076E+01  0.27451348639E+02  0.00000000000E+00 0. -1.
</event>
<event>
 5    1  0.8962567E-005  0.9118800E+02  0.7818608E-02  0.1130116E+00
         25   -1    0    0    0    0  0.00000000000E+00  0.00000000000E+00  0.99999998245E-14  0.12500000000E+03  0.12500000000E+03 0.  0.
        -11    1    3    3    0    0 -0.42581530841E+01 -0.23338807538E+02 -0.26439843794E+02  0.35523191652E+02  0.51100000000E-03 0.  1.
         23    2    1    0    0    0  0.12183226923E+02  0.27353044942E+02  0.96914460714E-01  0.95056228055E+02  0.90216722473E+02 0.  0.
         11    1    3    3    0    0  0.16441380007E+02  0.50691852481E+02  0.26536758255E+02  0.59533036403E+02  0.51100000000E-03 0. -1.
         22    1    1    0    0    0 -0.12183226923E+02 -0.27353044942E+02 -0.96914460714E-01  0.29943771945E+02  0.00000000000E+00 0. -1.
</event>
<event>
 5    1  0.8962567E-005  0.9118800E+02  0.7818608E-02  0.1130116E+00
         25   -1    0    0    0    0  0.00000000000E+00  0.00000000000E+00  0.99999998245E-14  0.12500000000E+03  0.12500000000E+03 0.  0.
        -11    1    3    3    0    0  0.13349402285E+02  0.11380430146E+02 -0.54277373702E+02  0.57041686755E+02  0.51100000000E-03 0.  1.
         23    2    1    0    0    0 -0.81859818126E+01 -0.63861300379E+01 -0.26996486658E+02  0.96075905425E+02  0.91618646335E+02 0.  0.
         11    1    3    3    0    0 -0.21535384098E+02 -0.17766560184E+02  0.27280887043E+02  0.39034218670E+02  0.51100000000E-03 0. -1.
         22    1    1    0    0    0  0.81859818126E+01  0.63861300379E+01  0.26996486658E+02  0.28924094575E+02  0.00000000000E+00 0.  1.
</event>
<event>
 5    1  0.8962567E-005  0.9118800E+02  0.7818608E-02  0.1130116E+00
         25   -1    0    0    0    0  0.00000000000E+00  0.00000000000E+00  0.99999998245E-14  0.12500000000E+03  0.12500000000E+03 0.  0.
        -11    1    3    3    0    0  0.31905471486E+02  0.26917404753E+02  0.18363542121E+00  0.41743736197E+02  0.51100000000E-03 0. -1.
         23    2    1    0    0    0 -0.12258268776E+02  0.12206902361E+02 -0.24945621104E+02  0.94642832298E+02  0.89642111055E+02 0.  0.
         11    1    3    3    0    0 -0.44163740262E+02 -0.14710502392E+02 -0.25129256525E+02  0.52899096101E+02  0.51100000000E-03 0.  1.
         22    1    1    0    0    0  0.12258268776E+02 -0.12206902361E+02  0.24945621104E+02  0.30357167702E+02  0.00000000000E+00 0.  1.
</event>
<event>
 5    1  0.8962567E-005  0.9118800E+02  0.7818608E-02  0.1130116E+00
         25   -1    0    0    0    0  0.00000000000E+00  0.00000000000E+00  0.99999998245E-14  0.12500000000E+03  0.12500000000E+03 0.  0.
        -11    1    3    3    0    0  0.17589128354E+01  0.39566107502E+02  0.17466443933E+02  0.43285647750E+02  0.51100000000E-03 0. -1.
         23    2    1    0    0    0  0.17810620174E+02  0.62876836228E+01 -0.21090983123E+02  0.96687763680E+02  0.92449666955E+02 0.  0.
         11    1    3    3    0    0  0.16051707339E+02 -0.33278423879E+02 -0.38557427056E+02  0.53402115930E+02  0.51100000000E-03 0.  1.
         22    1    1    0    0    0 -0.17810620174E+02 -0.62876836228E+01  0.21090983123E+02  0.28312236320E+02  0.00000000000E+00 0.  1.
</event>
<event>
 5    1  0.8962567E-005  0.9118800E+02  0.7818608E-02  0.1130116E+00
         25   -1    0    0    0    0  0.00000000000E+00  0.00000000000E+00  0.99999998245E-14  0.12500000000E+03  0.12500000000E+03 0.  0.
        -11    1    3    3    0    0  0.33275946455E+02  0.23765544249E+02 -0.42712438976E+02  0.59130720861E+02  0.51100000000E-03 0. -1.
         23    2    1    0    0    0  0.20377804162E+02 -0.26601074374E+01 -0.20402119829E+02  0.96041796196E+02  0.91572097547E+02 0.  0.
         11    1    3    3    0    0 -0.12898142293E+02 -0.26425651687E+02  0.22310319148E+02  0.36911075335E+02  0.51100000000E-03 0.  1.
         22    1    1    0    0    0 -0.20377804162E+02  0.26601074374E+01  0.20402119829E+02  0.28958203804E+02  0.00000000000E+00 0. -1.
</event>
<event>
 5    1  0.8962567E-005  0.9118800E+02  0.7818608E-02  0.1130116E+00
         25   -1    0    0    0    0  0.00000000000E+00  0.00000000000E+00  0.99999998245E-14  0.12500000000E+03  0.12500000000E+03 0.  0.
        -11    1    3    3    0    0  0.10674441629E+01  0.47690748758E+01 -0.32959334936E+02  0.33319682950E+02  0.51100000000E-03 0.  1.
         23    2    1    0    0    0 -0.37027476185E+01 -0.16590838477E+02  0.24712918717E+02  0.95005090218E+02  0.90145840472E+02 0.  0.
         11    1    3    3    0    0 -0.47701917813E+01 -0.21359913353E+02  0.57672253653E+02  0.61685407268E+02  0.51100000000E-03 0. -1.
         22    1    1    0    0    0  0.37027476185E+01  0.16590838477E+02 -0.24712918717E+02  0.29994909782E+02  0.00000000000E+00 0. -1.
</event>
<event>
 5    1  0.8962567E-005  0.9118800E+02  0.7818608E-02  0.1130116E+00
         25   -1    0    0    0    0  0.00000000000E+00  0.00000000000E+00  0.99999998245E-14  0.12500000000E+03  0.12500000000E+03 0.  0.
        -11    1    3    3    0    0 -0.12617451110E+02  0.21344287614E+01  0.42232471143E+02  0.44128646906E+02  0.51100000000E-03 0.  1.
         23    2    1    0    0    0  0.21062914728E+02 -0.19252782818E+02  0.22621630431E+02  0.88584973068E+02  0.80754215166E+02 0.  0.
         11    1    3    3    0    0  0.33680365838E+02 -0.21387211579E+02 -0.19610840712E+02  0.44456326162E+02  0.51100000000E-03 0. -1.
         22    1    1    0    0    0 -0.21062914728E+02  0.19252782818E+02 -0.22621630431E+02  0.36415026932E+02  0.00000000000E+00 0.  1.
</event>
<event>
 5    1  0.8962567E-005  0.9118800E+02  0.7818608E-02  0.1130116E+00
         25   -1    0    0    0    0  0.00000000000E+00  0.00000000000E+00  0.99999998245E-14  0.12500000000E+03  0.12500000000E+03 0.  0.
        -11    1    3    3    0    0  0.43948179493E+02 -0.35761354450E+02  0.21948222064E+02  0.60762170837E+02  0.51100000000E-03 0. -1.
         23    2    1    0    0    0  0.26592805861E+02 -0.14050375492E+02  0.22304366530E+01  0.94841000967E+02  0.89918019561E+02 0.  0.
         11    1    3    3    0    0 -0.17355373632E+02  0.21710978958E+02 -0.19717785411E+02  0.34078830130E+02  0.51100000000E-03 0.  1.
         22    1    1    0    0    0 -0.26592805861E+02  0.14050375492E+02 -0.22304366530E+01  0.30158999033E+02  0.00000000000E+00 0. -1.
</event>
<event>
 5    1  0.8962567E-005  0.9118800E+02  0.7818608E-02  0.1130116E+00
         25   -1    0    0    0    0  0.00000000000E+00  0.00000000000E+00  0.99999998245E-14  0.12500000000E+03  0.12500000000E+03 0.  0.
        -11    1    3    3    0    0 -0.38216946309E+02 -0.14213112804E+02 -0.22801615217E+02  0.46716819429E+02  0.51100000000E-03 0.  1.
         23    2    1    0    0    0 -0.21103087637E+02  0.15506512604E+02  0.12541694232E+02  0.95964050986E+02  0.91465910297E+02 0.  0.
         11    1    3    3    0    0  0.17113858672E+02  0.29719625408E+02  0.35343309449E+02  0.49247231557E+02  0.51100000000E-03 0. -1.
         22    1    1    0    0    0  0.21103087637E+02 -0.15506512604E+02 -0.12541694232E+02  0.29035949014E+02  0.00000000000E+00 0.  1.
</event>
<event>
 5    1  0.8962567E-005  0.9118800E+02  0.7818608E-02  0.1130116E+00
         25   -1    0    0    0    0  0.00000000000E+00  0.00000000000E+00  0.99999998245E-14  0.12500000000E+03  0.12500000000E+03 0.  0.
        -11    1    3    3    0    0 -0.14626266954E+02  0.16520578431E+02 -0.32973962566E+02  0.39675425697E+02  0.51100000000E-03 0.  1.
         23    2    1    0    0    0  0.65122511103E+01  0.26345272882E+02  0.15703168178E+02  0.93646016066E+02  0.88241169623E+02 0.  0.
         11    1    3    3    0    0  0.21138518064E+02  0.98246944501E+01  0.48677130744E+02  0.53970590368E+02  0.51100000000E-03 0. -1.
         22    1    1    0    0    0 -0.65122511103E+01 -0.26345272882E+02 -0.15703168178E+02  0.31353983934E+02  0.00000000000E+00 0. -1.
</event>
<event>
 5    1  0.8962567E-005  0.9118800E+02  0.7818608E-02  0.1130116E+00
         25   -1    0    0    0    0  0.00000000000E+00  0.00000000000E+00  0.99999998245E-14  0.12500000000E+03  0.12500000000E+03 0.  0.
        -11    1    3    3    0    0 -0.24480182379E+02  0.21810705325E+02  0.13204618861E+01  0.32813561464E+02  0.51100000000E-03 0.  1.
         23    2    1    0    0    0  0.20091582512E+02 -0.19962639194E+02 -0.10044176667E+02  0.94948974455E+02  0.90067994391E+02 0.  0.
         11    1    3    3    0    0  0.44571764891E+02 -0.41773344519E+02 -0.11364638553E+02  0.62135412991E+02  0.51100000000E-03 0. -1.
         22    1    1    0    0    0 -0.20091582512E+02  0.19962639194E+02  0.10044176667E+02  0.30051025545E+02  0.00000000000E+00 0. -1.
</event>
<event>
 5    1  0.8962567E-005  0.9118800E+02  0.7818608E-02  0.1130116E+00
         25   -1    0    0    0    0  0.00000000000E+00  0.00000000000E+00  0.99999998245E-14  0.12500000000E+03  0.12500000000E+03 0.  0.
        -11    1    3    3    0    0 -0.20961004927E+02  0.28294812688E+02 -0.33303223739E+02  0.48467152426E+02  0.51100000000E-03 0. -1.
         23    2    1    0    0    0  0.12585419494E+02  0.27559561607E+02 -0.15517113422E+01  0.94663058362E+02  0.89670310530E+02 0.  0.
         11    1    3    3    0    0  0.33546424421E+02 -0.73525108092E+00  0.31751512397E+02  0.46195905937E+02  0.51100000000E-03 0.  1.
         22    1    1    0    0    0 -0.12585419494E+02 -0.27559561607E+02  0.15517113422E+01  0.30336941638E+02  0.00000000000E+00 0. -1.
</event>
<event>
 5    1  0.8962567E-005  0.9118800E+02  0.7818608E-02  0.1130116E+00
         25   -1    0    0    0    0  0.00000000000E+00  0.00000000000E+00  0.99999998245E-14  0.12500000000E+03  0.12500000000E+03 0.  0.
        -11    1    3    3    0    0  0.39573138425E+02 -0.17977863237E+02  0.27108133037E+02  0.51225850197E+02  0.51100000000E-03 0.  1.
         23    2    1    0    0    0  0.24439537297E+02  0.11174457899E+02 -0.55666690453E+01  0.97556470764E+02  0.93616866488E+02 0.  0.
         11    1    3    3    0    0 -0.15133601128E+02  0.29152321137E+02 -0.32674802082E+02  0.46330620567E+02  0.51100000000E-03 0. -1.
         22    1    1    0    0    0 -0.24439537297E+02 -0.11174457899E+02  0.55666690453E+01  0.27443529236E+02  0.00000000000E+00 0. -1.
</event>
<event>
 5    1  0.8962567E-005  0.9118800E+02  0.7818608E-02  0.1130116E+00
         25   -1    0    0    0    0  0.00000000000E+00  0.00000000000E+00  0.99999998245E-14  0.12500000000E+03  0.12500000000E+03 0.  0.
        -11    1    3    3    0    0 -0.11752017035E+02 -0.38924230534E+01  0.37124421936E+02  0.39134173889E+02  0.51100000000E-03 0. -1.
         23    2    1    0    0    0  0.21325144110E+02 -0.22100859576E+02 -0.28925224862E+01  0.94152367163E+02  0.88955560763E+02 0.  0.
         11    1    3    3    0    0  0.33077161145E+02 -0.18208436523E+02 -0.40016944422E+02  0.55018193274E+02  0.51100000000E-03 0.  1.
         22    1    1    0    0    0 -0.21325144110E+02  0.22100859576E+02  0.28925224862E+01  0.30847632837E+02  0.00000000000E+00 0.  1.
</event>
<event>
 5    1  0.8962567E-005  0.9118800E+02  0.7818608E-02  0.1130116E+00
         25   -1    0    0    0    0  0.00000000000E+00  0.00000000000E+00  0.99999998245E-14  0.12500000000E+03  0.12500000000E+03 0.  0.
        -11    1    3    3    0    0  0.25223895151E+02  0.87702724585E+00  0.26088838340E+02  0.36299332633E+02  0.51100000000E-03 0.  1.
         23    2    1    0    0    0 -0.10609581992E+02 -0.22974785798E+02 -0.14811722505E+02  0.95677804719E+02  0.91073877593E+02 0.  0.
         11    1    3    3    0    0 -0.35833477143E+02 -0.23851813044E+02 -0.40900560845E+02  0.59378472087E+02  0.51100000000E-03 0. -1.
         22    1    1    0    0    0  0.10609581992E+02  0.22974785798E+02  0.14811722505E+02  0.29322195281E+02  0.00000000000E+00 0. -1.
</event>
<event>
 5    1  0.8962567E-005  0.9118800E+02  0.7818608E-02  0.1130116E+00
         25   -1    0    0    0    0  0.00000000000E+00  0.00000000000E+00  0.99999998245E-14  0.12500000000E+03  0.12500000000E+03 0.  0.
        -11    1    3    3    0    0  0.94540495647E+01  0.90690454043E+01 -0.32599549922E+02  0.35133421312E+02  0.51100000000E-03 0.  1.
         23    2    1    0    0    0 -0.16855189868E+02 -0.24477668048E+02  0.82278316820E+01  0.94162508650E+02  0.88969810400E+02 0.  0.
         11    1    3    3    0    0 -0.26309239433E+02 -0.33546713453E+02  0.40827381604E+02  0.59029087338E+02  0.51100000000E-03 0. -1.
         22    1    1    0    0    0  0.16855189868E+02  0.24477668048E+02 -0.82278316820E+01  0.30837491350E+02  0.00000000000E+00 0. -1.
</event>
<event>
 5    1  0.8962567E-005  0.9118800E+02  0.7818608E-02  0.1130116E+00
         25   -1    0    0    0    0  0.00000000000E+00  0.00000000000E+00  0.99999998245E-14  0.12500000000E+03  0.12500000000E+03 0.  0.
        -11    1    3    3    0    0 -0.83960779630E+00 -0.31367775154E+02 -0.23842179655E+02  0.39409285586E+02  0.51100000000E-03 0.  1.
         23    2    1    0    0    0  0.19743020332E+02 -0.26875635431E+01  0.20716159489E+02  0.96256842317E+02  0.91865176096E+02 0.  0.
         11    1    3    3    0    0  0.20582628128E+02  0.28680211611E+02  0.44558339145E+02  0.56847556731E+02  0.51100000000E-03 0. -1.
         22    1    1    0    0    0 -0.19743020332E+02  0.26875635431E+01 -0.20716159489E+02  0.28743157683E+02  0.00000000000E+00 0. -1.
</event>
<event>
 5    1  0.8962567E-005  0.9118800E+02  0.7818608E-02  0.1130116E+00
         25   -1    0    0    0    0  0.00000000000E+00  0.00000000000E+00  0.99999998245E-14  0.12500000000E+03  0.12500000000E+03 0.  0.
        -11    1    3    3    0    0 -0.22130280090E+02  0.44110479735E+01  0.40662614596E+02  0.46504353206E+02  0.51100000000E-03 0. -1.
         23    2    1    0    0    0 -0.25917609553E+02  0.82246903566E+01 -0.89242449587E+01  0.96381646370E+02  0.92034839015E+02 0.  0.
         11    1    3    3    0    0 -0.37873294630E+01  0.38136423831E+01 -0.49586859554E+02  0.49877293164E+02  0.51100000000E-03 0.  1.
         22    1    1    0    0    0  0.25917609553E+02 -0.82246903566E+01  0.89242449587E+01  0.28618353630E+02  0.00000000000E+00 0. -1.
</event>
<event>
 5    1  0.8962567E-005  0.9118800E+02  0.7818608E-02  0.1130116E+00
         25   -1    0    0    0    0  0.00000000000E+00  0.00000000000E+00  0.99999998245E-14  0.12500000000E+03  0.12500000000E+03 0.  0.
        -11    1    3    3    0    0  0.94471754055E+01  0.19734243548E+02 -0.26795018672E+02  0.34592810199E+02  0.51100000000E-03 0. -1.
         23    2    1    0    0    0  0.62164366799E+01 -0.31175829155E+02  0.19573490908E+01  0.93150233534E+02  0.87536040483E+02 0.  0.
         11    1    3    3    0    0 -0.32307387256E+01 -0.50910072703E+02  0.28752367763E+02  0.58557423335E+02  0.51100000000E-03 0.  1.
         22    1    1    0    0    0 -0.62164366799E+01  0.31175829155E+02 -0.19573490908E+01  0.31849766466E+02  0.00000000000E+00 0.  1.
</event>
<event>
 5    1  0.8962567E-005  0.9118800E+02  0.7818608E-02  0.1130116E+00
         25   -1    0    0    0    0  0.00000000000E+00  0.00000000000E+00  0.99999998245E-14  0.12500000000E+03  0.12500000000E+03 0.  0.
        -11    1    3    3    0    0 -0.43046887837E+01 -0.32762831194E+02  0.11668283804E+02  0.35044005202E+02  0.51100000000E-03 0.  1.
         23    2    1    0    0    0  0.12004411341E+02  0.19673402203E+02 -0.16398360499E+02  0.96714758743E+02  0.92486159429E+02 0.  0.
         11    1    3    3    0    0  0.16309100125E+02  0.52436233397E+02 -0.28066644302E+02  0.61670753542E+02  0.51100000000E-03 0. -1.
         22    1    1    0    0    0 -0.12004411341E+02 -0.19673402203E+02  0.16398360499E+02  0.28285241257E+02  0.00000000000E+00 0. -1.
</event>
<event>
 5    1  0.8962567E-005  0.9118800E+02  0.7818608E-02  0.1130116E+00
         25   -1    0    0    0    0  0.00000000000E+00  0.00000000000E+00  0.99999998245E-14  0.12500000000E+03  0.12500000000E+03 0.  0.
        -11    1    3    3    0    0  0.31032071363E+01 -0.17191842697E+02  0.48909025438E+02  0.51935364824E+02  0.51100000000E-03 0.  1.
         23    2    1    0    0    0  0.21791820467E+02  0.76376561662E+01  0.18544642423E+02  0.95383771449E+02  0.90669415252E+02 0.  0.
         11    1    3    3    0    0  0.18688613331E+02  0.24829498863E+02 -0.30364383016E+02  0.43448406625E+02  0.51100000000E-03 0. -1.
         22    1    1    0    0    0 -0.21791820467E+02 -0.76376561662E+01 -0.18544642423E+02  0.29616228551E+02  0.00000000000E+00 0.  1.
</event>
<event>
 5    1  0.8962567E-005  0.9118800E+02  0.7818608E-02  0.1130116E+00
         25   -1    0    0    0    0  0.00000000000E+00  0.00000000000E+00  0.99999998245E-14  0.12500000000E+03  0.12500000000E+03 0.  0.
        -11    1    3    3    0    0  0.48914449607E+02 -0.17360641377E+02 -0.19287014024E+02  0.55371510360E+02  0.51100000000E-03 0.  1.
         23    2    1    0    0    0  0.12549048963E+02  0.58478233124E+00 -0.25667951109E+02  0.96422660824E+02  0.92090527232E+02 0.  0.
         11    1    3    3    0    0 -0.36365400644E+02  0.17945423708E+02 -0.63809370852E+01  0.41051150464E+02  0.51100000000E-03 0. -1.
         22    1    1    0    0    0 -0.12549048963E+02 -0.58478233124E+00  0.25667951109E+02  0.28577339176E+02  0.00000000000E+00 0.  1.
</event>
<event>
 5    1  0.8962567E-005  0.9118800E+02  0.7818608E-02  0.1130116E+00
         25   -1    0    0    0    0  0.00000000000E+00  0.00000000000E+00  0.99999998245E-14  0.12500000000E+03  0.12500000000E+03 0.  0.
        -11    1    3    3    0    0 -0.29163366937E+02  0.38578826799E+02  0.38746612521E+02  0.61968764957E+02  0.51100000000E-03 0. -1.
         23    2    1    0    0    0 -0.18309126314E+02  0.16169584480E+02  0.15256224055E+02  0.96200139912E+02  0.91787989291E+02 0.  0.
         11    1    3    3    0    0  0.10854240622E+02 -0.22409242318E+02 -0.23490388466E+02  0.34231374955E+02  0.51100000000E-03 0.  1.
         22    1    1    0    0    0  0.18309126314E+02 -0.16169584480E+02 -0.15256224055E+02  0.28799860088E+02  0.00000000000E+00 0. -1.
</event>
<event>
 5    1  0.8962567E-005  0.9118800E+02  0.7818608E-02  0.1130116E+00
         25   -1    0    0    0    0  0.00000000000E+00  0.00000000000E+00  0.99999998245E-14  0.12500000000E+03  0.12500000000E+03 0.  0.
        -11    1    3    3    0    0 -0.37672723542E+01  0.32201270448E+02  0.28735726943E+02  0.43322698007E+02  0.51100000000E-03 0. -1.
         23    2    1    0    0    0  0.24469205980E+02  0.14754834936E+02 -0.10358722857E+02  0.94606738666E+02  0.89591766734E+02 0.  0.
         11    1    3    3    0    0  0.28236478335E+02 -0.17446435512E+02 -0.39094449800E+02  0.51284040659E+02  0.51100000000E-03 0.  1.
         22    1    1    0    0    0 -0.24469205980E+02 -0.14754834936E+02  0.10358722857E+02  0.30393261334E+02  0.00000000000E+00 0.  1.
</event>
<event>
 5    1  0.8962567E-005  0.9118800E+02  0.7818608E-02  0.1130116E+00
         25   -1    0    0    0    0  0.00000000000E+00  0.00000000000E+00  0.99999998245E-14  0.12500000000E+03  0.12500000000E+03 0.  0.
        -11    1    3    3    0    0 -0.21002004349E+02  0.35885976408E+02  0.46357025276E+02  0.62272476120E+02  0.51100000000E-03 0.  1.
         23    2    1    0    0    0 -0.12746819421E+02  0.14373043050E+02  0.21549096912E+02  0.96130823538E+02  0.91693543309E+02 0.  0.
         11    1    3    3    0    0  0.82551849285E+01 -0.21512933358E+02 -0.24807928364E+02  0.33858347418E+02  0.51100000000E-03 0. -1.
         22    1    1    0    0    0  0.12746819421E+02 -0.14373043050E+02 -0.21549096912E+02  0.28869176462E+02  0.00000000000E+00 0.  1.
</event>
<event>
 5    1  0.8962567E-005  0.9118800E+02  0.7818608E-02  0.1130116E+00
         25   -1    0    0    0    0  0.00000000000E+00  0.00000000000E+00  0.99999998245E-14  0.12500000000E+03  0.12500000000E+03 0.  0.
        -11    1    3    3    0    0 -0.55030111322E+01  0.32570739562E+02 -0.41879986511E+01  0.33296779726E+02  0.51100000000E-03 0.  1.
         23    2    1    0    0    0 -0.30058786840E+01 -0.29401506678E+02 -0.24536914445E+01  0.95343558823E+02  0.90613959773E+02 0.  0.
         11    1    3    3    0    0  0.24971324481E+01 -0.61972246240E+02  0.17343072067E+01  0.62046779097E+02  0.51100000000E-03 0. -1.
         22    1    1    0    0    0  0.30058786840E+01  0.29401506678E+02  0.24536914445E+01  0.29656441177E+02  0.00000000000E+00 0. -1.
</event>
<event>
 5    1  0.8962567E-005  0.9118800E+02  0.7818608E-02  0.1130116E+00
         25   -1    0    0    0    0  0.00000000000E+00  0.00000000000E+00  0.99999998245E-14  0.12500000000E+03  0.12500000000E+03 0.  0.
        -11    1    3    3    0    0 -0.45974155101E+02  0.46532390552E+01 -0.10627397194E+02  0.47415368208E+02  0.51100000000E-03 0. -1.
         23    2    1    0    0    0 -0.18118161346E+02 -0.90813003827E+01 -0.33403197425E+02  0.85929405105E+02  0.76533334412E+02 0.  0.
         11    1    3    3    0    0  0.27855993754E+02 -0.13734539438E+02 -0.22775800232E+02  0.38514036897E+02  0.51100000000E-03 0.  1.
         22    1    1    0    0    0  0.18118161346E+02  0.90813003827E+01  0.33403197425E+02  0.39070594895E+02  0.00000000000E+00 0.  1.
</event>
<event>
 5    1  0.8962567E-005  0.9118800E+02  0.7818608E-02  0.1130116E+00
         25   -1    0    0    0    0  0.00000000000E+00  0.00000000000E+00  0.99999998245E-14  0.12500000000E+03  0.12500000000E+03 0.  0.
        -11    1    3    3    0    0  0.26956880987E+02 -0.41598320307E+02 -0.12750688096E+02  0.51182748384E+02  0.51100000000E-03 0. -1.
         23    2    1    0    0    0  0.21390195038E+02  0.14278134587E+01 -0.20596610344E+02  0.95271235265E+02  0.90514136002E+02 0.  0.
         11    1    3    3    0    0 -0.55666859494E+01  0.43026133766E+02 -0.78459222475E+01  0.44088486881E+02  0.51100000000E-03 0.  1.
         22    1    1    0    0    0 -0.21390195038E+02 -0.14278134587E+01  0.20596610344E+02  0.29728764735E+02  0.00000000000E+00 0.  1.
</event>
<event>
 5    1  0.8962567E-005  0.9118800E+02  0.7818608E-02  0.1130116E+00
         25   -1    0    0    0    0  0.00000000000E+00  0.00000000000E+00  0.99999998245E-14  0.12500000000E+03  0.12500000000E+03 0.  0.
        -11    1    3    3    0    0  0.53260893003E+02  0.23869383338E+02 -0.40657456903E+01  0.58506413945E+02  0.51100000000E-03 0.  1.
         23    2    1    0    0    0  0.20437155293E+02  0.17377925429E+02  0.11986548710E+02  0.95617233645E+02  0.90990705082E+02 0.  0.
         11    1    3    3    0    0 -0.32823737710E+02 -0.64914579081E+01  0.16052294400E+02  0.37110819700E+02  0.51100000000E-03 0. -1.
         22    1    1    0    0    0 -0.20437155293E+02 -0.17377925429E+02 -0.11986548710E+02  0.29382766355E+02  0.00000000000E+00 0.  1.
</event>
<event>
 5    1  0.8962567E-005  0.9118800E+02  0.7818608E-02  0.1130116E+00
         25   -1    0    0    0    0  0.00000000000E+00  0.00000000000E+00  0.99999998245E-14  0.12500000000E+03  0.12500000000E+03 0.  0.
        -11    1    3    3    0    0 -0.40880954340E+02 -0.20849347996E+02  0.10924948651E+02  0.47173109320E+02  0.51100000000E-03 0.  1.
         23    2    1    0    0    0 -0.66959436111E+01 -0.15605666934E+02 -0.23523729236E+02  0.95987272819E+02  0.91497640433E+02 0.  0.
         11    1    3    3    0    0  0.34185010729E+02  0.52436810625E+01 -0.34448677887E+02  0.48814163499E+02  0.51100000000E-03 0. -1.
         22    1    1    0    0    0  0.66959436111E+01  0.15605666934E+02  0.23523729236E+02  0.29012727181E+02  0.00000000000E+00 0. -1.
</event>
<event>
 5    1  0.8962567E-005  0.9118800E+02  0.7818608E-02  0.1130116E+00
         25   -1    0    0    0    0  0.00000000000E+00  0.00000000000E+00  0.99999998245E-14  0.12500000000E+03  0.12500000000E+03 0.  0.
        -11    1    3    3    0    0  0.37670557909E+02  0.40588113860E+01 -0.46967737405E+02  0.60344952069E+02  0.51100000000E-03 0.  1.
         23    2    1    0    0    0  0.23650679913E+02  0.38109106080E+01 -0.11615009915E+02  0.98376961943E+02  0.94706074176E+02 0.  0.
         11    1    3    3    0    0 -0.14019877995E+02 -0.24790077793E+00  0.35352727490E+02  0.38032009874E+02  0.51100000000E-03 0. -1.
         22    1    1    0    0    0 -0.23650679913E+02 -0.38109106080E+01  0.11615009915E+02  0.26623038057E+02  0.00000000000E+00 0.  1.
</event>
<event>
 5    1  0.8962567E-005  0.9118800E+02  0.7818608E-02  0.1130116E+00
         25   -1    0    0    0    0  0.00000000000E+00  0.00000000000E+00  0.99999998245E-14  0.12500000000E+03  0.12500000000E+03 0.  0.
        -11    1    3    3    0    0  0.38019445487E+02  0.96169725817E+01 -0.46694493555E+02  0.60978193851E+02  0.51100000000E-03 0.  1.
         23    2    1    0    0    0  0.25007179540E+02  0.73689900442E+01 -0.15952562816E+02  0.94436209280E+02  0.89353524384E+02 0.  0.
         11    1    3    3    0    0 -0.13012265948E+02 -0.22479825376E+01  0.30741930739E+02  0.33458015428E+02  0.51100000000E-03 0. -1.
         22    1    1    0    0    0 -0.25007179540E+02 -0.73689900442E+01  0.15952562816E+02  0.30563790720E+02  0.00000000000E+00 0.  1.
</event>
<event>
 5    1  0.8962567E-005  0.9118800E+02  0.7818608E-02  0.1130116E+00
         25   -1    0    0    0    0  0.00000000000E+00  0.00000000000E+00  0.99999998245E-14  0.12500000000E+03  0.12500000000E+03 0.  0.
        -11    1    3    3    0    0  0.44156840017E+01 -0.34816506690E+02  0.17498523335E+01  0.35139000936E+02  0.51100000000E-03 0.  1.
         23    2    1    0    0    0  0.30260568688E+01  0.25833340379E+02  0.11460610961E+02  0.96577049786E+02  0.92299850739E+02 0.  0.
         11    1    3    3    0    0 -0.13896271329E+01  0.60649847069E+02  0.97107586277E+01  0.61438048850E+02  0.51100000000E-03 0. -1.
         22    1    1    0    0    0 -0.30260568688E+01 -0.25833340379E+02 -0.11460610961E+02  0.28422950214E+02  0.00000000000E+00 0. -1.
</event>
<event>
 5    1  0.8962567E-005  0.9118800E+02  0.7818608E-02  0.1130116E+00
         25   -1    0    0    0    0  0.00000000000E+00  0.00000000000E+00  0.99999998245E-14  0.12500000000E+03  0.12500000000E+03 0.  0.
        -11    1    3    3    0    0  0.34853059896E+01  0.59435488105E+01  0.36564700857E+02  0.37208204463E+02  0.51100000000E-03 0.  1.
         23    2    1    0    0    0  0.26761962488E+02  0.28431391435E+01 -0.15229628024E+02  0.94077069251E+02  0.88849689435E+02 0.  0.
         11    1    3    3    0    0  0.23276656498E+02 -0.31004096670E+01 -0.51794328881E+02  0.56868864788E+02  0.51100000000E-03 0. -1.
         22    1    1    0    0    0 -0.26761962488E+02 -0.28431391435E+01  0.15229628024E+02  0.30922930749E+02  0.00000000000E+00 0. -1.
</event>
<event>
 5    1  0.8962567E-005  0.9118800E+02  0.7818608E-02  0.1130116E+00
         25   -1    0    0    0    0  0.00000000000E+00  0.00000000000E+00  0.99999998245E-14  0.12500000000E+03  0.12500000000E+03 0.  0.
        -11    1    3    3    0    0  0.94751592919E+01  0.47581157652E+02 -0.37267603740E+02  0.61176952326E+02  0.51100000000E-03 0. -1.
         23    2    1    0    0    0  0.87339705338E+01  0.25729336160E+02 -0.10188115761E+02  0.95981407972E+02  0.91489627789E+02 0.  0.
         11    1    3    3    0    0 -0.74118875804E+00 -0.21851821492E+02  0.27079487980E+02  0.34804455646E+02  0.51100000000E-03 0.  1.
         22    1    1    0    0    0 -0.87339705338E+01 -0.25729336160E+02  0.10188115761E+02  0.29018592028E+02  0.00000000000E+00 0. -1.
</event>
<event>
 5    1  0.8962567E-005  0.9118800E+02  0.7818608E-02  0.1130116E+00
         25   -1    0    0    0    0  0.00000000000E+00  0.00000000000E+00  0.99999998245E-14  0.12500000000E+03  0.12500000000E+03 0.  0.
        -11    1    3    3    0    0  0.16174482431E+02 -0.46596739335E+02  0.38320142585E+02  0.62460414076E+02  0.51100000000E-03 0.  1.
         23    2    1    0    0    0  0.87456916415E+01 -0.21437706621E+02  0.19197891226E+02  0.94923075041E+02  0.90032042964E+02 0.  0.
         11    1    3    3    0    0 -0.74287907894E+01  0.25159032713E+02 -0.19122251359E+02  0.32462660965E+02  0.51100000000E-03 0. -1.
         22    1    1    0    0    0 -0.87456916415E+01  0.21437706621E+02 -0.19197891226E+02  0.30076924959E+02  0.00000000000E+00 0.  1.
</event>
<event>
 5    1  0.8962567E-005  0.9118800E+02  0.7818608E-02  0.1130116E+00
         25   -1    0    0    0    0  0.00000000000E+00  0.00000000000E+00  0.99999998245E-14  0.12500000000E+03  0.12500000000E+03 0.  0.
        -11    1    3    3    0    0 -0.28205272562E+02 -0.22239384877E+02  0.17563650262E+02  0.39982614357E+02  0.51100000000E-03 0.  1.
         23    2    1    0    0    0  0.23213335555E+02 -0.16092304387E+02 -0.47276606976E+01  0.96361355065E+02  0.92007275616E+02 0.  0.
         11    1    3    3    0    0  0.51418608117E+02  0.61470804902E+01 -0.22291310960E+02  0.56378740708E+02  0.51100000000E-03 0. -1.
         22    1    1    0    0    0 -0.23213335555E+02  0.16092304387E+02  0.47276606976E+01  0.28638644935E+02  0.00000000000E+00 0. -1.
</event>
<event>
 5    1  0.8962567E-005  0.9118800E+02  0.7818608E-02  0.1130116E+00
         25   -1    0    0    0    0  0.00000000000E+00  0.00000000000E+00  0.99999998245E-14  0.12500000000E+03  0.12500000000E+03 0.  0.
        -11    1    3    3    0    0  0.54938155966E+02 -0.20904851769E+02  0.80970966932E+01  0.59336133877E+02  0.51100000000E-03 0. -1.
         23    2    1    0    0    0  0.22803334150E+02 -0.14627658951E+02 -0.92284020696E+01  0.96379660039E+02  0.92032141177E+02 0.  0.
         11    1    3    3    0    0 -0.32134821816E+02  0.62771928174E+01 -0.17325498763E+02  0.37043526161E+02  0.51100000000E-03 0.  1.
         22    1    1    0    0    0 -0.22803334150E+02  0.14627658951E+02  0.92284020696E+01  0.28620339961E+02  0.00000000000E+00 0. -1.
</event>
<event>
 5    1  0.8962567E-005  0.9118800E+02  0.7818608E-02  0.1130116E+00
         25   -1    0    0    0    0  0.00000000000E+00  0.00000000000E+00  0.99999998245E-14  0.12500000000E+03  0.12500000000E+03 0.  0.
        -11    1    3    3    0    0  0.50678264227E+02 -0.20342510439E+02 -0.22298121129E+02  0.58985679637E+02  0.51100000000E-03 0. -1.
         23    2    1    0    0    0  0.14326046096E+02 -0.15517586176E+02  0.31851639536E+01  0.10364171480E+03  0.10141710260E+03 0.  0.
         11    1    3    3    0    0 -0.36352218131E+02  0.48249242632E+01  0.25483285082E+02  0.44656035158E+02  0.51100000000E-03 0.  1.
         22    1    1    0    0    0 -0.14326046096E+02  0.15517586176E+02 -0.31851639536E+01  0.21358285205E+02  0.00000000000E+00 0. -1.
</event>
<event>
 5    1  0.8962567E-005  0.9118800E+02  0.7818608E-02  0.1130116E+00
         25   -1    0    0    0    0  0.00000000000E+00  0.00000000000E+00  0.99999998245E-14  0.12500000000E+03  0.12500000000E+03 0.  0.
        -11    1    3    3    0    0 -0.14030088101E+01 -0.27382260888E+02 -0.54614693717E+02  0.61110730769E+02  0.51100000000E-03 0. -1.
         23    2    1    0    0    0  0.14334899582E+01 -0.20687327158E+02 -0.21059818285E+02  0.95444351731E+02  0.90752894900E+02 0.  0.
         11    1    3    3    0    0  0.28364987683E+01  0.66949337298E+01  0.33554875431E+02  0.34333620962E+02  0.51100000000E-03 0.  1.
         22    1    1    0    0    0 -0.14334899582E+01  0.20687327158E+02  0.21059818285E+02  0.29555648269E+02  0.00000000000E+00 0. -1.
</event>
<event>
 5    1  0.8962567E-005  0.9118800E+02  0.7818608E-02  0.1130116E+00
         25   -1    0    0    0    0  0.00000000000E+00  0.00000000000E+00  0.99999998245E-14  0.12500000000E+03  0.12500000000E+03 0.  0.
        -11    1    3    3    0    0  0.51039990133E+01 -0.61717715924E+02 -0.36388915889E+01  0.62035222230E+02  0.51100000000E-03 0. -1.
         23    2    1    0    0    0  0.78505701932E+01 -0.29801637928E+02 -0.13086486347E+01  0.94153904027E+02  0.88957720332E+02 0.  0.
         11    1    3    3    0    0  0.27465711799E+01  0.31916077996E+02  0.23302429542E+01  0.32118681797E+02  0.51100000000E-03 0.  1.
         22    1    1    0    0    0 -0.78505701932E+01  0.29801637928E+02  0.13086486347E+01  0.30846095973E+02  0.00000000000E+00 0. -1.
</event>
<event>
 5    1  0.8962567E-005  0.9118800E+02  0.7818608E-02  0.1130116E+00
         25   -1    0    0    0    0  0.00000000000E+00  0.00000000000E+00  0.99999998245E-14  0.12500000000E+03  0.12500000000E+03 0.  0.
        -11    1    3    3    0    0  0.31896623561E+02  0.14313021760E+02  0.12422028527E+02  0.37102075137E+02  0.51100000000E-03 0. -1.
         23    2    1    0    0    0 -0.19955875592E+02  0.14794601541E+02 -0.15222165193E+02  0.95865286709E+02  0.91330836398E+02 0.  0.
         11    1    3    3    0    0 -0.51852499153E+02  0.48157978072E+00 -0.27644193720E+02  0.58763211572E+02  0.51100000000E-03 0.  1.
         22    1    1    0    0    0  0.19955875592E+02 -0.14794601541E+02  0.15222165193E+02  0.29134713291E+02  0.00000000000E+00 0.  1.
</event>
<event>
 5    1  0.8962567E-005  0.9118800E+02  0.7818608E-02  0.1130116E+00
         25   -1    0    0    0    0  0.00000000000E+00  0.00000000000E+00  0.99999998245E-14  0.12500000000E+03  0.12500000000E+03 0.  0.
        -11    1    3    3    0    0  0.43974064959E+02 -0.82713042095E+01 -0.56271888637E+01  0.45097650905E+02  0.51100000000E-03 0.  1.
         23    2    1    0    0    0  0.87854070868E+01  0.27811876722E+02 -0.43196035149E+01  0.95515379619E+02  0.90850673661E+02 0.  0.
         11    1    3    3    0    0 -0.35188657872E+02  0.36083180932E+02  0.13075853489E+01  0.50417728714E+02  0.51100000000E-03 0. -1.
         22    1    1    0    0    0 -0.87854070868E+01 -0.27811876722E+02  0.43196035149E+01  0.29484620381E+02  0.00000000000E+00 0.  1.
</event>
<event>
 5    1  0.8962567E-005  0.9118800E+02  0.7818608E-02  0.1130116E+00
         25   -1    0    0    0    0  0.00000000000E+00  0.00000000000E+00  0.99999998245E-14  0.12500000000E+03  0.12500000000E+03 0.  0.
        -11    1    3    3    0    0 -0.56545496805E+02 -0.14986271580E+02  0.21362158843E+02  0.62276186263E+02  0.51100000000E-03 0.  1.
         23    2    1    0    0    0 -0.25740069157E+02 -0.10601140661E+02  0.10910815220E+02  0.95100481069E+02  0.90278016523E+02 0.  0.
         11    1    3    3    0    0  0.30805427648E+02  0.43851309187E+01 -0.10451343623E+02  0.32824294806E+02  0.51100000000E-03 0. -1.
         22    1    1    0    0    0  0.25740069157E+02  0.10601140661E+02 -0.10910815220E+02  0.29899518931E+02  0.00000000000E+00 0.  1.
</event>
<event>
 5    1  0.8962567E-005  0.9118800E+02  0.7818608E-02  0.1130116E+00
         25   -1    0    0    0    0  0.00000000000E+00  0.00000000000E+00  0.99999998245E-14  0.12500000000E+03  0.12500000000E+03 0.  0.
        -11    1    3    3    0    0  0.17193334494E+02 -0.43331279673E+02  0.76447631616E+01  0.47240374186E+02  0.51100000000E-03 0.  1.
         23    2    1    0    0    0  0.13460207240E+02  0.34945606271E+01  0.24235163927E+02  0.97058412653E+02  0.92949465642E+02 0.  0.
         11    1    3    3    0    0 -0.37331272533E+01  0.46825840300E+02  0.16590400765E+02  0.49818038467E+02  0.51100000000E-03 0. -1.
         22    1    1    0    0    0 -0.13460207240E+02 -0.34945606271E+01 -0.24235163927E+02  0.27941587347E+02  0.00000000000E+00 0. -1.
</event>
<event>
 5    1  0.8962567E-005  0.9118800E+02  0.7818608E-02  0.1130116E+00
         25   -1    0    0    0    0  0.00000000000E+00  0.00000000000E+00  0.99999998245E-14  0.12500000000E+03  0.12500000000E+03 0.  0.
        -11    1    3    3    0    0 -0.17205762412E+02 -0.46834382108E+02  0.65494354390E+01  0.50322884580E+02  0.51100000000E-03 0. -1.
         23    2    1    0    0    0 -0.27994255153E+02 -0.33783020596E+01 -0.45112531353E+01  0.96444043507E+02  0.92119546659E+02 0.  0.
         11    1    3    3    0    0 -0.10788492741E+02  0.43456080048E+02 -0.11060688574E+02  0.46121158927E+02  0.51100000000E-03 0.  1.
         22    1    1    0    0    0  0.27994255153E+02  0.33783020596E+01  0.45112531353E+01  0.28555956493E+02  0.00000000000E+00 0. -1.
</event>
<event>
 5    1  0.8962567E-005  0.9118800E+02  0.7818608E-02  0.1130116E+00
         25   -1    0    0    0    0  0.00000000000E+00  0.00000000000E+00  0.99999998245E-14  0.12500000000E+03  0.12500000000E+03 0.  0.
        -11    1    3    3    0    0 -0.30316031676E+02  0.32517321930E+02 -0.27405067781E+01  0.44541535444E+02  0.51100000000E-03 0.  1.
         23    2    1    0    0    0 -0.16953928727E+02 -0.19035257424E+02  0.67361755711E+01  0.98634249758E+02  0.95045054787E+02 0.  0.
         11    1    3    3    0    0  0.13362102949E+02 -0.51552579354E+02  0.94766823492E+01  0.54092714314E+02  0.51100000000E-03 0. -1.
         22    1    1    0    0    0  0.16953928727E+02  0.19035257424E+02 -0.67361755711E+01  0.26365750242E+02  0.00000000000E+00 0.  1.
</event>
<event>
 5    1  0.8962567E-005  0.9118800E+02  0.7818608E-02  0.1130116E+00
         25   -1    0    0    0    0  0.00000000000E+00  0.00000000000E+00  0.99999998245E-14  0.12500000000E+03  0.12500000000E+03 0.  0.
        -11    1    3    3    0    0  0.56719513678E+02  0.47298789836E+01 -0.25545321015E+02  0.62386203708E+02  0.51100000000E-03 0.  1.
         23    2    1    0    0    0  0.25011909381E+02  0.18249968883E+01 -0.14154878780E+02  0.96202659536E+02  0.91791420536E+02 0.  0.
         11    1    3    3    0    0 -0.31707604297E+02 -0.29048820953E+01  0.11390442236E+02  0.33816455828E+02  0.51100000000E-03 0. -1.
         22    1    1    0    0    0 -0.25011909381E+02 -0.18249968883E+01  0.14154878780E+02  0.28797340464E+02  0.00000000000E+00 0.  1.
</event>
<event>
 5    1  0.8962567E-005  0.9118800E+02  0.7818608E-02  0.1130116E+00
         25   -1    0    0    0    0  0.00000000000E+00  0.00000000000E+00  0.99999998245E-14  0.12500000000E+03  0.12500000000E+03 0.  0.
        -11    1    3    3    0    0 -0.31161335416E+02 -0.24042223223E+02 -0.10785725156E+02  0.40809180215E+02  0.51100000000E-03 0.  1.
         23    2    1    0    0    0  0.14881784591E+02  0.36097124087E+01 -0.24378460999E+02  0.96210993471E+02  0.91802768845E+02 0.  0.
         11    1    3    3    0    0  0.46043120007E+02  0.27651935631E+02 -0.13592735842E+02  0.55401813256E+02  0.51100000000E-03 0. -1.
         22    1    1    0    0    0 -0.14881784591E+02 -0.36097124087E+01  0.24378460999E+02  0.28789006529E+02  0.00000000000E+00 0.  1.
</event>
<event>
 5    1  0.8962567E-005  0.9118800E+02  0.7818608E-02  0.1130116E+00
         25   -1    0    0    0    0  0.00000000000E+00  0.00000000000E+00  0.99999998245E-14  0.12500000000E+03  0.12500000000E+03 0.  0.
        -11    1    3    3    0    0  0.49784568037E+02  0.22395671816E+02 -0.78091165673E+00  0.54595596471E+02  0.51100000000E-03 0. -1.
         23    2    1    0    0    0  0.22067844228E+02 -0.48025356560E+01 -0.17054043703E+02  0.96699920420E+02  0.92466102465E+02 0.  0.
         11    1    3    3    0    0 -0.27716723809E+02 -0.27198207472E+02 -0.16273132046E+02  0.42104323949E+02  0.51100000000E-03 0.  1.
         22    1    1    0    0    0 -0.22067844228E+02  0.48025356560E+01  0.17054043703E+02  0.28300079580E+02  0.00000000000E+00 0. -1.
</event>
<event>
 5    1  0.8962567E-005  0.9118800E+02  0.7818608E-02  0.1130116E+00
         25   -1    0    0    0    0  0.00000000000E+00  0.00000000000E+00  0.99999998245E-14  0.12500000000E+03  0.12500000000E+03 0.  0.
        -11    1    3    3    0    0  0.12096686505E+02  0.43051276704E+02 -0.67607900493E+01  0.45226657322E+02  0.51100000000E-03 0.  1.
         23    2    1    0    0    0 -0.13623183043E+02  0.12846391783E+02  0.23377447476E+02  0.95047939160E+02  0.90205237044E+02 0.  0.
         11    1    3    3    0    0 -0.25719869548E+02 -0.30204884920E+02  0.30138237525E+02  0.49821281838E+02  0.51100000000E-03 0. -1.
         22    1    1    0    0    0  0.13623183043E+02 -0.12846391783E+02 -0.23377447476E+02  0.29952060840E+02  0.00000000000E+00 0.  1.
</event>
<event>
 5    1  0.8962567E-005  0.9118800E+02  0.7818608E-02  0.1130116E+00
         25   -1    0    0    0    0  0.00000000000E+00  0.00000000000E+00  0.99999998245E-14  0.12500000000E+03  0.12500000000E+03 0.  0.
        -11    1    3    3    0    0  0.56823309813E+02 -0.17518849464E+02 -0.56652714050E+01  0.59731850173E+02  0.51100000000E-03 0.  1.
         23    2    1    0    0    0  0.28133923405E+02  0.48539588680E+01 -0.78234963574E+00  0.96439701791E+02  0.92113655056E+02 0.  0.
         11    1    3    3    0    0 -0.28689386408E+02  0.22372808332E+02  0.48829217693E+01  0.36707851618E+02  0.51100000000E-03 0. -1.
         22    1    1    0    0    0 -0.28133923405E+02 -0.48539588680E+01  0.78234963574E+00  0.28560298209E+02  0.00000000000E+00 0.  1.
</event>
<event>
 5    1  0.8962567E-005  0.9118800E+02  0.7818608E-02  0.1130116E+00
         25   -1    0    0    0    0  0.00000000000E+00  0.00000000000E+00  0.99999998245E-14  0.12500000000E+03  0.12500000000E+03 0.  0.
        -11    1    3    3    0    0 -0.37067893416E+02 -0.25057004059E+02  0.56651871081E+01  0.45099628823E+02  0.51100000000E-03 0.  1.
         23    2    1    0    0    0  0.85457620461E+01 -0.10889576347E+02  0.24836318276E+02  0.96566645863E+02  0.92285759822E+02 0.  0.
         11    1    3    3    0    0  0.45613655462E+02  0.14167427712E+02  0.19171131168E+02  0.51467017041E+02  0.51100000000E-03 0. -1.
         22    1    1    0    0    0 -0.85457620461E+01  0.10889576347E+02 -0.24836318276E+02  0.28433354137E+02  0.00000000000E+00 0. -1.
</event>
<event>
 5    1  0.8962567E-005  0.9118800E+02  0.7818608E-02  0.1130116E+00
         25   -1    0    0    0    0  0.00000000000E+00  0.00000000000E+00  0.99999998245E-14  0.12500000000E+03  0.12500000000E+03 0.  0.
        -11    1    3    3    0    0  0.32927555691E+02 -0.33445610949E+02  0.61415371898E+01  0.47334462021E+02  0.51100000000E-03 0. -1.
         23    2    1    0    0    0  0.91346364276E+01 -0.31682777438E+01  0.30570490124E+02  0.92937023954E+02  0.87231049452E+02 0.  0.
         11    1    3    3    0    0 -0.23792919263E+02  0.30277333205E+02  0.24428952934E+02  0.45602561933E+02  0.51100000000E-03 0.  1.
         22    1    1    0    0    0 -0.91346364276E+01  0.31682777438E+01 -0.30570490124E+02  0.32062976046E+02  0.00000000000E+00 0. -1.
</event>
<event>
 5    1  0.8962567E-005  0.9118800E+02  0.7818608E-02  0.1130116E+00
         25   -1    0    0    0    0  0.00000000000E+00  0.00000000000E+00  0.99999998245E-14  0.12500000000E+03  0.12500000000E+03 0.  0.
        -11    1    3    3    0    0  0.76845627775E+01  0.16471879619E+02  0.40611130465E+02  0.44493137012E+02  0.51100000000E-03 0.  1.
         23    2    1    0    0    0  0.23788010310E+02  0.23217590332E+02 -0.31520558418E+01  0.91610459851E+02  0.85308938352E+02 0.  0.
         11    1    3    3    0    0  0.16103447533E+02  0.67457107128E+01 -0.43763186307E+02  0.47117322839E+02  0.51100000000E-03 0. -1.
         22    1    1    0    0    0 -0.23788010310E+02 -0.23217590332E+02  0.31520558418E+01  0.33389540149E+02  0.00000000000E+00 0.  1.
</event>
<event>
 5    1  0.8962567E-005  0.9118800E+02  0.7818608E-02  0.1130116E+00
         25   -1    0    0    0    0  0.00000000000E+00  0.00000000000E+00  0.99999998245E-14  0.12500000000E+03  0.12500000000E+03 0.  0.
        -11    1    3    3    0    0  0.48945617122E+02 -0.13777587330E+02  0.21824570886E+01  0.50894581905E+02  0.51100000000E-03 0.  1.
         23    2    1    0    0    0  0.24179503025E+02 -0.33185761136E+02  0.87019945321E+01  0.83027773260E+02  0.71637583118E+02 0.  0.
         11    1    3    3    0    0 -0.24766114097E+02 -0.19408173806E+02  0.65195374436E+01  0.32133191355E+02  0.51100000000E-03 0. -1.
         22    1    1    0    0    0 -0.24179503025E+02  0.33185761136E+02 -0.87019945321E+01  0.41972226740E+02  0.00000000000E+00 0.  1.
</event>
<event>
 5    1  0.8962567E-005  0.9118800E+02  0.7818608E-02  0.1130116E+00
         25   -1    0    0    0    0  0.00000000000E+00  0.00000000000E+00  0.99999998245E-14  0.12500000000E+03  0.12500000000E+03 0.  0.
        -11    1    3    3    0    0 -0.54549820572E+01 -0.18828460622E+02  0.47173182246E+02  0.51084017874E+02  0.51100000000E-03 0. -1.
         23    2    1    0    0    0  0.22488345733E+02  0.12086441294E+01  0.18592202506E+02  0.95796292899E+02  0.91236359116E+02 0.  0.
         11    1    3    3    0    0  0.27943327790E+02  0.20037104752E+02 -0.28580979740E+02  0.44712275025E+02  0.51100000000E-03 0.  1.
         22    1    1    0    0    0 -0.22488345733E+02 -0.12086441294E+01 -0.18592202506E+02  0.29203707101E+02  0.00000000000E+00 0. -1.
</event>
<event>
 5    1  0.8962567E-005  0.9118800E+02  0.7818608E-02  0.1130116E+00
         25   -1    0    0    0    0  0.00000000000E+00  0.00000000000E+00  0.99999998245E-14  0.12500000000E+03  0.12500000000E+03 0.  0.
        -11    1    3    3    0    0 -0.32077165933E+02  0.43206020086E+02  0.23052999081E+02  0.58541827037E+02  0.51100000000E-03 0. -1.
         23    2    1    0    0    0 -0.25589353052E+01  0.29671571713E+02  0.12677624648E+02  0.92632230776E+02  0.86793189214E+02 0.  0.
         11    1    3    3    0    0  0.29518230628E+02 -0.13534448373E+02 -0.10375374433E+02  0.34090403738E+02  0.51100000000E-03 0.  1.
         22    1    1    0    0    0  0.25589353052E+01 -0.29671571713E+02 -0.12677624648E+02  0.32367769224E+02  0.00000000000E+00 0. -1.
</event>
<event>
 5    1  0.8962567E-005  0.9118800E+02  0.7818608E-02  0.1130116E+00
         25   -1    0    0    0    0  0.00000000000E+00  0.00000000000E+00  0.99999998245E-14  0.12500000000E+03  0.12500000000E+03 0.  0.
        -11    1    3    3    0    0  0.14979362444E+02 -0.50823921807E+02  0.16151675908E+02  0.55392499149E+02  0.51100000000E-03 0. -1.
         23    2    1    0    0    0  0.17571873771E+02 -0.20367565196E+02 -0.10672697793E+02  0.96060149655E+02  0.91597147410E+02 0.  0.
         11    1    3    3    0    0  0.25925113269E+01  0.30456356611E+02 -0.26824373700E+02  0.40667650506E+02  0.51100000000E-03 0.  1.
         22    1    1    0    0    0 -0.17571873771E+02  0.20367565196E+02  0.10672697793E+02  0.28939850345E+02  0.00000000000E+00 0. -1.
</event>
<event>
 5    1  0.8962567E-005  0.9118800E+02  0.7818608E-02  0.1130116E+00
         25   -1    0    0    0    0  0.00000000000E+00  0.00000000000E+00  0.99999998245E-14  0.12500000000E+03  0.12500000000E+03 0.  0.
        -11    1    3    3    0    0 -0.42662692861E+02 -0.11017332382E+02 -0.98442641980E+01  0.45148604772E+02  0.51100000000E-03 0. -1.
         23    2    1    0    0    0 -0.14128884814E+02  0.14475883997E+02  0.22133867585E+02  0.95015258917E+02  0.90159939713E+02 0.  0.
         11    1    3    3    0    0  0.28533808047E+02  0.25493216379E+02  0.31978131783E+02  0.49866654145E+02  0.51100000000E-03 0.  1.
         22    1    1    0    0    0  0.14128884814E+02 -0.14475883997E+02 -0.22133867585E+02  0.29984741083E+02  0.00000000000E+00 0.  1.
</event>
<event>
 5    1  0.8962567E-005  0.9118800E+02  0.7818608E-02  0.1130116E+00
         25   -1    0    0    0    0  0.00000000000E+00  0.00000000000E+00  0.99999998245E-14  0.12500000000E+03  0.12500000000E+03 0.  0.
        -11    1    3    3    0    0 -0.27640493023E+02 -0.67315352485E+01 -0.36432677045E+02  0.46223915653E+02  0.51100000000E-03 0. -1.
         23    2    1    0    0    0 -0.37047124008E+01 -0.28437636455E+02  0.17801535691E+01  0.96266865680E+02  0.91878813772E+02 0.  0.
         11    1    3    3    0    0  0.23935780623E+02 -0.21706101206E+02  0.38212830614E+02  0.50042950027E+02  0.51100000000E-03 0.  1.
         22    1    1    0    0    0  0.37047124008E+01  0.28437636455E+02 -0.17801535691E+01  0.28733134320E+02  0.00000000000E+00 0.  1.
</event>
<event>
 5    1  0.8962567E-005  0.9118800E+02  0.7818608E-02  0.1130116E+00
         25   -1    0    0    0    0  0.00000000000E+00  0.00000000000E+00  0.99999998245E-14  0.12500000000E+03  0.12500000000E+03 0.  0.
        -11    1    3    3    0    0  0.40201614204E+01 -0.63992421113E+01 -0.41135487022E+02  0.41823920073E+02  0.51100000000E-03 0.  1.
         23    2    1    0    0    0  0.21304050366E+02 -0.19599639076E+02  0.74960011827E+01  0.95096848867E+02  0.90272987194E+02 0.  0.
         11    1    3    3    0    0  0.17283888946E+02 -0.13200396965E+02  0.48631488205E+02  0.53272928795E+02  0.51100000000E-03 0. -1.
         22    1    1    0    0    0 -0.21304050366E+02  0.19599639076E+02 -0.74960011827E+01  0.29903151133E+02  0.00000000000E+00 0. -1.
</event>
<event>
 5    1  0.8962567E-005  0.9118800E+02  0.7818608E-02  0.1130116E+00
         25   -1    0    0    0    0  0.00000000000E+00  0.00000000000E+00  0.99999998245E-14  0.12500000000E+03  0.12500000000E+03 0.  0.
        -11    1    3    3    0    0  0.21463939485E+02 -0.50713583309E+02  0.53105737601E+01  0.55324229991E+02  0.51100000000E-03 0.  1.
         23    2    1    0    0    0  0.12669372170E+02 -0.19202842145E+02 -0.18245442503E+02  0.95637467586E+02  0.91018497552E+02 0.  0.
         11    1    3    3    0    0 -0.87945673146E+01  0.31510741164E+02 -0.23556016263E+02  0.40313237595E+02  0.51100000000E-03 0. -1.
         22    1    1    0    0    0 -0.12669372170E+02  0.19202842145E+02  0.18245442503E+02  0.29362532414E+02  0.00000000000E+00 0.  1.
</event>
<event>
 5    1  0.8962567E-005  0.9118800E+02  0.7818608E-02  0.1130116E+00
         25   -1    0    0    0    0  0.00000000000E+00  0.00000000000E+00  0.99999998245E-14  0.12500000000E+03  0.12500000000E+03 0.  0.
        -11    1    3    3    0    0  0.11476442976E+01 -0.34857097633E+02  0.18584642932E+01  0.34925466821E+02  0.51100000000E-03 0.  1.
         23    2    1    0    0    0 -0.10896643099E+02  0.25565634261E+02 -0.44344193034E+01  0.96857459948E+02  0.92678827070E+02 0.  0.
         11    1    3    3    0    0 -0.12044287397E+02  0.60422731895E+02 -0.62928835966E+01  0.61931993127E+02  0.51100000000E-03 0. -1.
         22    1    1    0    0    0  0.10896643099E+02 -0.25565634261E+02  0.44344193034E+01  0.28142540052E+02  0.00000000000E+00 0. -1.
</event>
<event>
 5    1  0.8962567E-005  0.9118800E+02  0.7818608E-02  0.1130116E+00
         25   -1    0    0    0    0  0.00000000000E+00  0.00000000000E+00  0.99999998245E-14  0.12500000000E+03  0.12500000000E+03 0.  0.
        -11    1    3    3    0    0  0.60080822426E+01 -0.15129389595E+02  0.33950302435E+02  0.37651275110E+02  0.51100000000E-03 0.  1.
         23    2    1    0    0    0  0.12565779731E+02  0.29437227586E+02  0.18989107016E+01  0.92936702446E+02  0.87230588737E+02 0.  0.
         11    1    3    3    0    0  0.65576974880E+01  0.44566617182E+02 -0.32051391733E+02  0.55285427335E+02  0.51100000000E-03 0. -1.
         22    1    1    0    0    0 -0.12565779731E+02 -0.29437227586E+02 -0.18989107016E+01  0.32063297554E+02  0.00000000000E+00 0. -1.
</event>
<event>
 5    1  0.8962567E-005  0.9118800E+02  0.7818608E-02  0.1130116E+00
         25   -1    0    0    0    0  0.00000000000E+00  0.00000000000E+00  0.99999998245E-14  0.12500000000E+03  0.12500000000E+03 0.  0.
        -11    1    3    3    0    0  0.28879698947E+02  0.26147595251E+02 -0.42137399574E+02  0.57387230215E+02  0.51100000000E-03 0.  1.
         23    2    1    0    0    0  0.25241442841E+02 -0.47161200372E+00 -0.14708932055E+02  0.95781760204E+02  0.91216446165E+02 0.  0.
         11    1    3    3    0    0 -0.36382561062E+01 -0.26619207255E+02  0.27428467518E+02  0.38394529988E+02  0.51100000000E-03 0. -1.
         22    1    1    0    0    0 -0.25241442841E+02  0.47161200372E+00  0.14708932055E+02  0.29218239796E+02  0.00000000000E+00 0.  1.
</event>
<event>
 5    1  0.8962567E-005  0.9118800E+02  0.7818608E-02  0.1130116E+00
         25   -1    0    0    0    0  0.00000000000E+00  0.00000000000E+00  0.99999998245E-14  0.12500000000E+03  0.12500000000E+03 0.  0.
        -11    1    3    3    0    0  0.27372751569E+02  0.51281260615E+02  0.11171231464E+02  0.59193172169E+02  0.51100000000E-03 0.  1.
         23    2    1    0    0    0  0.25163253049E+02  0.16821291946E+02  0.38907401470E+01  0.94483069852E+02  0.89419055369E+02 0.  0.
         11    1    3    3    0    0 -0.22094985198E+01 -0.34459968669E+02 -0.72804913174E+01  0.35289897683E+02  0.51100000000E-03 0. -1.
         22    1    1    0    0    0 -0.25163253049E+02 -0.16821291946E+02 -0.38907401470E+01  0.30516930148E+02  0.00000000000E+00 0.  1.
</event>
<event>
 5    1  0.8962567E-005  0.9118800E+02  0.7818608E-02  0.1130116E+00
         25   -1    0    0    0    0  0.00000000000E+00  0.00000000000E+00  0.99999998245E-14  0.12500000000E+03  0.12500000000E+03 0.  0.
        -11    1    3    3    0    0 -0.25673886440E+02  0.50508881119E+02  0.17645543332E+02  0.59343581933E+02  0.51100000000E-03 0. -1.
         23    2    1    0    0    0 -0.15258000793E+02  0.15455173716E+02  0.19294538452E+02  0.95949213489E+02  0.91445630690E+02 0.  0.
         11    1    3    3    0    0  0.10415885647E+02 -0.35053707403E+02  0.16489951210E+01  0.36605631557E+02  0.51100000000E-03 0.  1.
         22    1    1    0    0    0  0.15258000793E+02 -0.15455173716E+02 -0.19294538452E+02  0.29050786511E+02  0.00000000000E+00 0. -1.
</event>
<event>
 5    1  0.8962567E-005  0.9118800E+02  0.7818608E-02  0.1130116E+00
         25   -1    0    0    0    0  0.00000000000E+00  0.00000000000E+00  0.99999998245E-14  0.12500000000E+03  0.12500000000E+03 0.  0.
        -11    1    3    3    0    0 -0.15903418882E+02  0.18002112855E+02  0.51465983668E+02  0.56795618445E+02  0.51100000000E-03 0. -1.
         23    2    1    0    0    0 -0.77273052005E+01 -0.10432593838E+02  0.26429646575E+02  0.95553837636E+02  0.90903572037E+02 0.  0.
         11    1    3    3    0    0  0.81761136813E+01 -0.28434706693E+02 -0.25036337092E+02  0.38758219191E+02  0.51100000000E-03 0.  1.
         22    1    1    0    0    0  0.77273052005E+01  0.10432593838E+02 -0.26429646575E+02  0.29446162364E+02  0.00000000000E+00 0. -1.
</event>
<event>
 5    1  0.8962567E-005  0.9118800E+02  0.7818608E-02  0.1130116E+00
         25   -1    0    0    0    0  0.00000000000E+00  0.00000000000E+00  0.99999998245E-14  0.12500000000E+03  0.12500000000E+03 0.  0.
        -11    1    3    3    0    0  0.76000575789E+01  0.41230440629E+02  0.57706357139E+00  0.41929024700E+02  0.51100000000E-03 0.  1.
         23    2    1    0    0    0 -0.28773400738E+02  0.23332303546E+01 -0.57729355590E+01  0.95560581887E+02  0.90912845471E+02 0.  0.
         11    1    3    3    0    0 -0.36373458316E+02 -0.38897210274E+02 -0.63499991304E+01  0.53631557186E+02  0.51100000000E-03 0. -1.
         22    1    1    0    0    0  0.28773400738E+02 -0.23332303546E+01  0.57729355590E+01  0.29439418113E+02  0.00000000000E+00 0.  1.
</event>
<event>
 5    1  0.8962567E-005  0.9118800E+02  0.7818608E-02  0.1130116E+00
         25   -1    0    0    0    0  0.00000000000E+00  0.00000000000E+00  0.99999998245E-14  0.12500000000E+03  0.12500000000E+03 0.  0.
        -11    1    3    3    0    0 -0.95369053276E+01  0.47485780858E+02 -0.17465347022E+02  0.51486797276E+02  0.51100000000E-03 0. -1.
         23    2    1    0    0    0  0.54266402357E+01  0.56211127789E+01 -0.26945318093E+02  0.96944777665E+02  0.92796521574E+02 0.  0.
         11    1    3    3    0    0  0.14963545563E+02 -0.41864668079E+02 -0.94799710718E+01  0.45457980388E+02  0.51100000000E-03 0.  1.
         22    1    1    0    0    0 -0.54266402357E+01 -0.56211127789E+01  0.26945318093E+02  0.28055222335E+02  0.00000000000E+00 0. -1.
</event>
<event>
 5    1  0.8962567E-005  0.9118800E+02  0.7818608E-02  0.1130116E+00
         25   -1    0    0    0    0  0.00000000000E+00  0.00000000000E+00  0.99999998245E-14  0.12500000000E+03  0.12500000000E+03 0.  0.
        -11    1    3    3    0    0  0.17198061195E+02 -0.11917249856E+02  0.25534574792E+02  0.33012250197E+02  0.51100000000E-03 0. -1.
         23    2    1    0    0    0 -0.20650028897E+02  0.18834233581E+02 -0.12032860012E+02  0.94570708715E+02  0.89541483006E+02 0.  0.
         11    1    3    3    0    0 -0.37848090092E+02  0.30751483437E+02 -0.37567434803E+02  0.61558458518E+02  0.51100000000E-03 0.  1.
         22    1    1    0    0    0  0.20650028897E+02 -0.18834233581E+02  0.12032860012E+02  0.30429291285E+02  0.00000000000E+00 0.  1.
</event>
<event>
 5    1  0.8962567E-005  0.9118800E+02  0.7818608E-02  0.1130116E+00
         25   -1    0    0    0    0  0.00000000000E+00  0.00000000000E+00  0.99999998245E-14  0.12500000000E+03  0.12500000000E+03 0.  0.
        -11    1    3    3    0    0 -0.29818339290E+02  0.27301500251E+02 -0.38687138265E+02  0.55957125921E+02  0.51100000000E-03 0.  1.
         23    2    1    0    0    0 -0.15403732220E+02 -0.79561151913E+01 -0.20455018297E+02  0.98186150802E+02  0.94453891929E+02 0.  0.
         11    1    3    3    0    0  0.14414607070E+02 -0.35257615442E+02  0.18232119967E+02  0.42229024881E+02  0.51100000000E-03 0. -1.
         22    1    1    0    0    0  0.15403732220E+02  0.79561151913E+01  0.20455018297E+02  0.26813849198E+02  0.00000000000E+00 0. -1.
</event>
<event>
 5    1  0.8962567E-005  0.9118800E+02  0.7818608E-02  0.1130116E+00
         25   -1    0    0    0    0  0.00000000000E+00  0.00000000000E+00  0.99999998245E-14  0.12500000000E+03  0.12500000000E+03 0.  0.
        -11    1    3    3    0    0  0.21067651385E+02 -0.31021093227E+02  0.45309604849E+02  0.58814236811E+02  0.51100000000E-03 0.  1.
         23    2    1    0    0    0 -0.53628336992E+01 -0.17998335963E+02  0.17535499838E+02  0.99305762566E+02  0.95924140036E+02 0.  0.
         11    1    3    3    0    0 -0.26430485084E+02  0.13022757263E+02 -0.27774105011E+02  0.40491525755E+02  0.51100000000E-03 0. -1.
         22    1    1    0    0    0  0.53628336992E+01  0.17998335963E+02 -0.17535499838E+02  0.25694237434E+02  0.00000000000E+00 0.  1.
</event>
<event>
 5    1  0.8962567E-005  0.9118800E+02  0.7818608E-02  0.1130116E+00
         25   -1    0    0    0    0  0.00000000000E+00  0.00000000000E+00  0.99999998245E-14  0.12500000000E+03  0.12500000000E+03 0.  0.
        -11    1    3    3    0    0  0.29558643496E+02 -0.24256276508E+02  0.24008500248E+02  0.45149622809E+02  0.51100000000E-03 0.  1.
         23    2    1    0    0    0  0.20619154627E+02  0.19480852729E+02 -0.15527442190E+01  0.96591125063E+02  0.92318910661E+02 0.  0.
         11    1    3    3    0    0 -0.89394888685E+01  0.43737129237E+02 -0.25561244467E+02  0.51441502254E+02  0.51100000000E-03 0. -1.
         22    1    1    0    0    0 -0.20619154627E+02 -0.19480852729E+02  0.15527442190E+01  0.28408874937E+02  0.00000000000E+00 0. -1.
</event>
<event>
 5    1  0.8962567E-005  0.9118800E+02  0.7818608E-02  0.1130116E+00
         25   -1    0    0    0    0  0.00000000000E+00  0.00000000000E+00  0.99999998245E-14  0.12500000000E+03  0.12500000000E+03 0.  0.
        -11    1    3    3    0    0  0.34643055372E+01 -0.31047068494E+02 -0.13968659747E+02  0.34220539597E+02  0.51100000000E-03 0.  1.
         23    2    1    0    0    0 -0.13489908386E+02  0.17064088862E+02  0.19954457697E+02  0.95481511913E+02  0.90804063666E+02 0.  0.
         11    1    3    3    0    0 -0.16954213923E+02  0.48111157355E+02  0.33923117444E+02  0.61260972317E+02  0.51100000000E-03 0. -1.
         22    1    1    0    0    0  0.13489908386E+02 -0.17064088862E+02 -0.19954457697E+02  0.29518488087E+02  0.00000000000E+00 0. -1.
</event>
<event>
 5    1  0.8962567E-005  0.9118800E+02  0.7818608E-02  0.1130116E+00
         25   -1    0    0    0    0  0.00000000000E+00  0.00000000000E+00  0.99999998245E-14  0.12500000000E+03  0.12500000000E+03 0.  0.
        -11    1    3    3    0    0  0.96228542243E+01 -0.50657828741E+02  0.92596053862E+01  0.52388502826E+02  0.51100000000E-03 0.  1.
         23    2    1    0    0    0 -0.14857774266E+01 -0.21642153106E+02 -0.20312419160E+02  0.95281576459E+02  0.90528416062E+02 0.  0.
         11    1    3    3    0    0 -0.11108631651E+02  0.29015675634E+02 -0.29572024546E+02  0.42893073633E+02  0.51100000000E-03 0. -1.
         22    1    1    0    0    0  0.14857774266E+01  0.21642153106E+02  0.20312419160E+02  0.29718423541E+02  0.00000000000E+00 0.  1.
</event>
<event>
 5    1  0.8962567E-005  0.9118800E+02  0.7818608E-02  0.1130116E+00
         25   -1    0    0    0    0  0.00000000000E+00  0.00000000000E+00  0.99999998245E-14  0.12500000000E+03  0.12500000000E+03 0.  0.
        -11    1    3    3    0    0 -0.20920696404E+02 -0.33114236342E+02 -0.12021536276E+02  0.40972497132E+02  0.51100000000E-03 0.  1.
         23    2    1    0    0    0  0.10601312962E+02 -0.96220574944E+01  0.25780065812E+02  0.95511296736E+02  0.90845055913E+02 0.  0.
         11    1    3    3    0    0  0.31522009366E+02  0.23492178848E+02  0.37801602088E+02  0.54538799603E+02  0.51100000000E-03 0. -1.
         22    1    1    0    0    0 -0.10601312962E+02  0.96220574944E+01 -0.25780065812E+02  0.29488703264E+02  0.00000000000E+00 0. -1.
</event>
<event>
 5    1  0.8962567E-005  0.9118800E+02  0.7818608E-02  0.1130116E+00
         25   -1    0    0    0    0  0.00000000000E+00  0.00000000000E+00  0.99999998245E-14  0.12500000000E+03  0.12500000000E+03 0.  0.
        -11    1    3    3    0    0  0.28436295099E+02  0.35102704770E+02  0.40271591893E+02  0.60519615622E+02  0.51100000000E-03 0. -1.
         23    2    1    0    0    0  0.17657550770E+02  0.21080739307E+02  0.96961350798E+01  0.95841781529E+02  0.91298660353E+02 0.  0.
         11    1    3    3    0    0 -0.10778744329E+02 -0.14021965463E+02 -0.30575456814E+02  0.35322165907E+02  0.51100000000E-03 0.  1.
         22    1    1    0    0    0 -0.17657550770E+02 -0.21080739307E+02 -0.96961350798E+01  0.29158218471E+02  0.00000000000E+00 0. -1.
</event>
<event>
 5    1  0.8962567E-005  0.9118800E+02  0.7818608E-02  0.1130116E+00
         25   -1    0    0    0    0  0.00000000000E+00  0.00000000000E+00  0.99999998245E-14  0.12500000000E+03  0.12500000000E+03 0.  0.
        -11    1    3    3    0    0 -0.24577192118E+02 -0.35947488106E+02  0.13283264124E+02  0.45526974198E+02  0.51100000000E-03 0.  1.
         23    2    1    0    0    0  0.63459773575E+01  0.24858054249E+01  0.27342828264E+02  0.96820558652E+02  0.92629043301E+02 0.  0.
         11    1    3    3    0    0  0.30923169476E+02  0.38433293531E+02  0.14059564140E+02  0.51293584454E+02  0.51100000000E-03 0. -1.
         22    1    1    0    0    0 -0.63459773575E+01 -0.24858054249E+01 -0.27342828264E+02  0.28179441348E+02  0.00000000000E+00 0. -1.
</event>
<event>
 5    1  0.8962567E-005  0.9118800E+02  0.7818608E-02  0.1130116E+00
         25   -1    0    0    0    0  0.00000000000E+00  0.00000000000E+00  0.99999998245E-14  0.12500000000E+03  0.12500000000E+03 0.  0.
        -11    1    3    3    0    0  0.29081772956E+02  0.27191645247E+02  0.64570697348E+01  0.40333966323E+02  0.51100000000E-03 0.  1.
         23    2    1    0    0    0  0.11991664490E+02 -0.23115248999E+02 -0.11659455547E+02  0.96468304341E+02  0.92152461091E+02 0.  0.
         11    1    3    3    0    0 -0.17090108466E+02 -0.50306894247E+02 -0.18116525282E+02  0.56134338018E+02  0.51100000000E-03 0. -1.
         22    1    1    0    0    0 -0.11991664490E+02  0.23115248999E+02  0.11659455547E+02  0.28531695659E+02  0.00000000000E+00 0. -1.
</event>
<event>
 5    1  0.8962567E-005  0.9118800E+02  0.7818608E-02  0.1130116E+00
         25   -1    0    0    0    0  0.00000000000E+00  0.00000000000E+00  0.99999998245E-14  0.12500000000E+03  0.12500000000E+03 0.  0.
        -11    1    3    3    0    0 -0.35632615283E+02  0.33017173401E+02  0.89373924702E+01  0.49393258607E+02  0.51100000000E-03 0.  1.
         23    2    1    0    0    0 -0.24333343153E+02 -0.82424012438E+01 -0.11558129946E+02  0.96828398429E+02  0.92639622231E+02 0.  0.
         11    1    3    3    0    0  0.11299272131E+02 -0.41259574645E+02 -0.20495522416E+02  0.47435139822E+02  0.51100000000E-03 0. -1.
         22    1    1    0    0    0  0.24333343153E+02  0.82424012438E+01  0.11558129946E+02  0.28171601571E+02  0.00000000000E+00 0.  1.
</event>
<event>
 5    1  0.8962567E-005  0.9118800E+02  0.7818608E-02  0.1130116E+00
         25   -1    0    0    0    0  0.00000000000E+00  0.00000000000E+00  0.99999998245E-14  0.12500000000E+03  0.12500000000E+03 0.  0.
        -11    1    3    3    0    0  0.24996001031E+02  0.97301974663E+00  0.51029332585E+02  0.56830798158E+02  0.51100000000E-03 0.  1.
         23    2    1    0    0    0  0.14861494189E+02 -0.17091087848E+02  0.16949835326E+02  0.96711023155E+02  0.92481110443E+02 0.  0.
         11    1    3    3    0    0 -0.10134506842E+02 -0.18064107595E+02 -0.34079497259E+02  0.39880224997E+02  0.51100000000E-03 0. -1.
         22    1    1    0    0    0 -0.14861494189E+02  0.17091087848E+02 -0.16949835326E+02  0.28288976845E+02  0.00000000000E+00 0.  1.
</event>
<event>
 5    1  0.8962567E-005  0.9118800E+02  0.7818608E-02  0.1130116E+00
         25   -1    0    0    0    0  0.00000000000E+00  0.00000000000E+00  0.99999998245E-14  0.12500000000E+03  0.12500000000E+03 0.  0.
        -11    1    3    3    0    0 -0.57698095414E+01 -0.21631334711E+02  0.56711375121E+02  0.60970365030E+02  0.51100000000E-03 0. -1.
         23    2    1    0    0    0  0.16745731732E+01 -0.19244389806E+02  0.26314718554E+02  0.92356238775E+02  0.86394789737E+02 0.  0.
         11    1    3    3    0    0  0.74443827146E+01  0.23869449048E+01 -0.30396656567E+02  0.31385873744E+02  0.51100000000E-03 0.  1.
         22    1    1    0    0    0 -0.16745731732E+01  0.19244389806E+02 -0.26314718554E+02  0.32643761225E+02  0.00000000000E+00 0. -1.
</event>
<event>
 5    1  0.8962567E-005  0.9118800E+02  0.7818608E-02  0.1130116E+00
         25   -1    0    0    0    0  0.00000000000E+00  0.00000000000E+00  0.99999998245E-14  0.12500000000E+03  0.12500000000E+03 0.  0.
        -11    1    3    3    0    0 -0.58023104468E+01  0.43420012349E+02 -0.15852003519E+01  0.43834656829E+02  0.51100000000E-03 0.  1.
         23    2    1    0    0    0 -0.24349918070E+02  0.17093756957E+01  0.19152849525E+02  0.93973042040E+02  0.88703215895E+02 0.  0.
         11    1    3    3    0    0 -0.18547607624E+02 -0.41710636654E+02  0.20738049877E+02  0.50138385211E+02  0.51100000000E-03 0. -1.
         22    1    1    0    0    0  0.24349918070E+02 -0.17093756957E+01 -0.19152849525E+02  0.31026957960E+02  0.00000000000E+00 0. -1.
</event>
<event>
 5    1  0.8962567E-005  0.9118800E+02  0.7818608E-02  0.1130116E+00
         25   -1    0    0    0    0  0.00000000000E+00  0.00000000000E+00  0.99999998245E-14  0.12500000000E+03  0.12500000000E+03 0.  0.
        -11    1    3    3    0    0  0.43923680574E+02  0.15234672633E+01 -0.17345409902E+02  0.47249062558E+02  0.51100000000E-03 0. -1.
         23    2    1    0    0    0  0.14221795000E+02 -0.14819731440E+02  0.19048796811E+02  0.96986778962E+02  0.92853081481E+02 0.  0.
         11    1    3    3    0    0 -0.29701885574E+02 -0.16343198704E+02  0.36394206713E+02  0.49737716404E+02  0.51100000000E-03 0.  1.
         22    1    1    0    0    0 -0.14221795000E+02  0.14819731440E+02 -0.19048796811E+02  0.28013221038E+02  0.00000000000E+00 0. -1.
</event>
<event>
 5    1  0.8962567E-005  0.9118800E+02  0.7818608E-02  0.1130116E+00
         25   -1    0    0    0    0  0.00000000000E+00  0.00000000000E+00  0.99999998245E-14  0.12500000000E+03  0.12500000000E+03 0.  0.
        -11    1    3    3    0    0 -0.32637290539E+02 -0.38024836462E+02 -0.13290616640E+02  0.51843238832E+02  0.51100000000E-03 0.  1.
         23    2    1    0    0    0 -0.34332283270E+02 -0.31755458029E+02  0.10974964088E+02  0.76962882831E+02  0.60130863188E+02 0.  0.
         11    1    3    3    0    0 -0.16949927312E+01  0.62693784335E+01  0.24265580728E+02  0.25119643999E+02  0.51100000000E-03 0. -1.
         22    1    1    0    0    0  0.34332283270E+02  0.31755458029E+02 -0.10974964088E+02  0.48037117169E+02  0.00000000000E+00 0.  1.
</event>
<event>
 5    1  0.8962567E-005  0.9118800E+02  0.7818608E-02  0.1130116E+00
         25   -1    0    0    0    0  0.00000000000E+00  0.00000000000E+00  0.99999998245E-14  0.12500000000E+03  0.12500000000E+03 0.  0.
        -11    1    3    3    0    0  0.23171454384E+02  0.17677574294E+01 -0.29280634673E+02  0.37381771383E+02  0.51100000000E-03 0. -1.
         23    2    1    0    0    0 -0.24260973019E+02 -0.12743683250E+02  0.42693122393E+01  0.97265124813E+02  0.93227041159E+02 0.  0.
         11    1    3    3    0    0 -0.47432427403E+02 -0.14511440679E+02  0.33549946912E+02  0.59883353430E+02  0.51100000000E-03 0.  1.
         22    1    1    0    0    0  0.24260973019E+02  0.12743683250E+02 -0.42693122393E+01  0.27734875187E+02  0.00000000000E+00 0.  1.
</event>
<event>
 5    1  0.8962567E-005  0.9118800E+02  0.7818608E-02  0.1130116E+00
         25   -1    0    0    0    0  0.00000000000E+00  0.00000000000E+00  0.99999998245E-14  0.12500000000E+03  0.12500000000E+03 0.  0.
        -11    1    3    3    0    0  0.40142337109E+02 -0.17342928844E+02  0.32382405373E+02  0.54413275839E+02  0.51100000000E-03 0. -1.
         23    2    1    0    0    0  0.19933502603E+02 -0.20155056911E+02 -0.42414125504E+01  0.96337124612E+02  0.91974350516E+02 0.  0.
         11    1    3    3    0    0 -0.20208834506E+02 -0.28121280665E+01 -0.36623817924E+02  0.41923848773E+02  0.51100000000E-03 0.  1.
         22    1    1    0    0    0 -0.19933502603E+02  0.20155056911E+02  0.42414125504E+01  0.28662875388E+02  0.00000000000E+00 0. -1.
</event>
<event>
 5    1  0.8962567E-005  0.9118800E+02  0.7818608E-02  0.1130116E+00
         25   -1    0    0    0    0  0.00000000000E+00  0.00000000000E+00  0.99999998245E-14  0.12500000000E+03  0.12500000000E+03 0.  0.
        -11    1    3    3    0    0  0.10063414962E+02 -0.44226986956E+02  0.20806839604E+02  0.49902136933E+02  0.51100000000E-03 0.  1.
         23    2    1    0    0    0 -0.23300453933E+02 -0.14697846125E+02  0.93704704336E+01  0.95901141769E+02  0.91379896269E+02 0.  0.
         11    1    3    3    0    0 -0.33363868896E+02  0.29529140830E+02 -0.11436369170E+02  0.45999004836E+02  0.51100000000E-03 0. -1.
         22    1    1    0    0    0  0.23300453933E+02  0.14697846125E+02 -0.93704704336E+01  0.29098858231E+02  0.00000000000E+00 0. -1.
</event>
<event>
 5    1  0.8962567E-005  0.9118800E+02  0.7818608E-02  0.1130116E+00
         25   -1    0    0    0    0  0.00000000000E+00  0.00000000000E+00  0.99999998245E-14  0.12500000000E+03  0.12500000000E+03 0.  0.
        -11    1    3    3    0    0 -0.49661934746E+02  0.53329454446E+01 -0.33639660899E+02  0.60219389365E+02  0.51100000000E-03 0.  1.
         23    2    1    0    0    0 -0.16530513421E+02 -0.12190040795E+01 -0.24870131433E+02  0.95112422607E+02  0.90294549402E+02 0.  0.
         11    1    3    3    0    0  0.33131421325E+02 -0.65519495241E+01  0.87695294653E+01  0.34893033243E+02  0.51100000000E-03 0. -1.
         22    1    1    0    0    0  0.16530513421E+02  0.12190040795E+01  0.24870131433E+02  0.29887577393E+02  0.00000000000E+00 0.  1.
</event>
<event>
 5    1  0.8962567E-005  0.9118800E+02  0.7818608E-02  0.1130116E+00
         25   -1    0    0    0    0  0.00000000000E+00  0.00000000000E+00  0.99999998245E-14  0.12500000000E+03  0.12500000000E+03 0.  0.
        -11    1    3    3    0    0 -0.49022792894E+02  0.28208213324E+00 -0.97604404279E+01  0.49985797894E+02  0.51100000000E-03 0.  1.
         23    2    1    0    0    0 -0.18510454055E+02  0.23824414147E+02  0.98963657850E+01  0.93248186280E+02  0.87675803789E+02 0.  0.
         11    1    3    3    0    0  0.30512338840E+02  0.23542332014E+02  0.19656806213E+02  0.43262388386E+02  0.51100000000E-03 0. -1.
         22    1    1    0    0    0  0.18510454055E+02 -0.23824414147E+02 -0.98963657850E+01  0.31751813720E+02  0.00000000000E+00 0.  1.
</event>
<event>
 5    1  0.8962567E-005  0.9118800E+02  0.7818608E-02  0.1130116E+00
         25   -1    0    0    0    0  0.00000000000E+00  0.00000000000E+00  0.99999998245E-14  0.12500000000E+03  0.12500000000E+03 0.  0.
        -11    1    3    3    0    0 -0.46716020584E+02 -0.10766850458E+02 -0.15284132592E+02  0.50318151371E+02  0.51100000000E-03 0.  1.
         23    2    1    0    0    0 -0.88972141286E+01 -0.26736683651E+02 -0.18169465753E+02  0.91471800561E+02  0.85105523558E+02 0.  0.
         11    1    3    3    0    0  0.37818806456E+02 -0.15969833193E+02 -0.28853331612E+01  0.41153649190E+02  0.51100000000E-03 0. -1.
         22    1    1    0    0    0  0.88972141286E+01  0.26736683651E+02  0.18169465753E+02  0.33528199439E+02  0.00000000000E+00 0.  1.
</event>
<event>
 5    1  0.8962567E-005  0.9118800E+02  0.7818608E-02  0.1130116E+00
         25   -1    0    0    0    0  0.00000000000E+00  0.00000000000E+00  0.99999998245E-14  0.12500000000E+03  0.12500000000E+03 0.  0.
        -11    1    3    3    0    0  0.33282576354E+02  0.72122242507E+01 -0.16480199867E+02  0.37833094710E+02  0.51100000000E-03 0.  1.
         23    2    1    0    0    0  0.29750377716E+02  0.13034786283E+02  0.27563546568E+02  0.82400237946E+02  0.70534101585E+02 0.  0.
         11    1    3    3    0    0 -0.35321986384E+01  0.58225620327E+01  0.44043746435E+02  0.44567143235E+02  0.51100000000E-03 0. -1.
         22    1    1    0    0    0 -0.29750377716E+02 -0.13034786283E+02 -0.27563546568E+02  0.42599762054E+02  0.00000000000E+00 0.  1.
</event>
<event>
 5    1  0.8962567E-005  0.9118800E+02  0.7818608E-02  0.1130116E+00
         25   -1    0    0    0    0  0.00000000000E+00  0.00000000000E+00  0.99999998245E-14  0.12500000000E+03  0.12500000000E+03 0.  0.
        -11    1    3    3    0    0  0.47144183106E+02 -0.32545986894E+02  0.18787685365E+01  0.57317929439E+02  0.51100000000E-03 0.  1.
         23    2    1    0    0    0  0.18964750914E+02 -0.11148875101E+02 -0.16792179394E+02  0.97324442516E+02  0.93306541191E+02 0.  0.
         11    1    3    3    0    0 -0.28179432192E+02  0.21397111793E+02 -0.18670947930E+02  0.40006513078E+02  0.51100000000E-03 0. -1.
         22    1    1    0    0    0 -0.18964750914E+02  0.11148875101E+02  0.16792179394E+02  0.27675557484E+02  0.00000000000E+00 0.  1.
</event>
<event>
 5    1  0.8962567E-005  0.9118800E+02  0.7818608E-02  0.1130116E+00
         25   -1    0    0    0    0  0.00000000000E+00  0.00000000000E+00  0.99999998245E-14  0.12500000000E+03  0.12500000000E+03 0.  0.
        -11    1    3    3    0    0  0.39151042864E+02 -0.29646903739E+02  0.51866889844E+01  0.49382636640E+02  0.51100000000E-03 0. -1.
         23    2    1    0    0    0  0.58387876046E+01 -0.62594525444E+01  0.27777190501E+02  0.95933791114E+02  0.91424546915E+02 0.  0.
         11    1    3    3    0    0 -0.33312255259E+02  0.23387451195E+02  0.22590501517E+02  0.46551154474E+02  0.51100000000E-03 0.  1.
         22    1    1    0    0    0 -0.58387876046E+01  0.62594525444E+01 -0.27777190501E+02  0.29066208886E+02  0.00000000000E+00 0. -1.
</event>
<event>
 5    1  0.8962567E-005  0.9118800E+02  0.7818608E-02  0.1130116E+00
         25   -1    0    0    0    0  0.00000000000E+00  0.00000000000E+00  0.99999998245E-14  0.12500000000E+03  0.12500000000E+03 0.  0.
        -11    1    3    3    0    0 -0.45533999498E+01  0.12258869496E+02  0.56966877724E+02  0.58448596992E+02  0.51100000000E-03 0.  1.
         23    2    1    0    0    0  0.36276101816E+01 -0.90622179636E+01  0.28077801125E+02  0.95273811781E+02  0.90517694100E+02 0.  0.
         11    1    3    3    0    0  0.81810101315E+01 -0.21321087460E+02 -0.28889076599E+02  0.36825214789E+02  0.51100000000E-03 0. -1.
         22    1    1    0    0    0 -0.36276101816E+01  0.90622179636E+01 -0.28077801125E+02  0.29726188219E+02  0.00000000000E+00 0.  1.
</event>
<event>
 5    1  0.8962567E-005  0.9118800E+02  0.7818608E-02  0.1130116E+00
         25   -1    0    0    0    0  0.00000000000E+00  0.00000000000E+00  0.99999998245E-14  0.12500000000E+03  0.12500000000E+03 0.  0.
        -11    1    3    3    0    0 -0.78615320339E+01 -0.49659378068E+02 -0.33950154824E+02  0.60666881648E+02  0.51100000000E-03 0. -1.
         23    2    1    0    0    0 -0.46381190975E+01 -0.16215678862E+02 -0.23921985548E+02  0.95730189918E+02  0.91145748553E+02 0.  0.
         11    1    3    3    0    0  0.32234129364E+01  0.33443699206E+02  0.10028169276E+02  0.35063308270E+02  0.51100000000E-03 0.  1.
         22    1    1    0    0    0  0.46381190975E+01  0.16215678862E+02  0.23921985548E+02  0.29269810082E+02  0.00000000000E+00 0. -1.
</event>
<event>
 5    1  0.8962567E-005  0.9118800E+02  0.7818608E-02  0.1130116E+00
         25   -1    0    0    0    0  0.00000000000E+00  0.00000000000E+00  0.99999998245E-14  0.12500000000E+03  0.12500000000E+03 0.  0.
        -11    1    3    3    0    0 -0.31148339811E+01  0.32601924032E+02 -0.11569251738E+02  0.34733776463E+02  0.51100000000E-03 0.  1.
         23    2    1    0    0    0  0.16838782527E+02 -0.15099748829E+02  0.19568428901E+02  0.95092301638E+02  0.90266690476E+02 0.  0.
         11    1    3    3    0    0  0.19953616508E+02 -0.47701672861E+02  0.31137680639E+02  0.60358525175E+02  0.51100000000E-03 0. -1.
         22    1    1    0    0    0 -0.16838782527E+02  0.15099748829E+02 -0.19568428901E+02  0.29907698362E+02  0.00000000000E+00 0. -1.
</event>
<event>
 5    1  0.8962567E-005  0.9118800E+02  0.7818608E-02  0.1130116E+00
         25   -1    0    0    0    0  0.00000000000E+00  0.00000000000E+00  0.99999998245E-14  0.12500000000E+03  0.12500000000E+03 0.  0.
        -11    1    3    3    0    0 -0.25928010235E+02  0.36957243592E+02  0.21961590086E+02  0.50203695163E+02  0.51100000000E-03 0. -1.
         23    2    1    0    0    0 -0.16060931993E+02 -0.75085394190E+01  0.23240426185E+02  0.95769038505E+02  0.91199011103E+02 0.  0.
         11    1    3    3    0    0  0.98670782420E+01 -0.44465783011E+02  0.12788360985E+01  0.45565343342E+02  0.51100000000E-03 0.  1.
         22    1    1    0    0    0  0.16060931993E+02  0.75085394190E+01 -0.23240426185E+02  0.29230961495E+02  0.00000000000E+00 0. -1.
</event>
<event>
 5    1  0.8962567E-005  0.9118800E+02  0.7818608E-02  0.1130116E+00
         25   -1    0    0    0    0  0.00000000000E+00  0.00000000000E+00  0.99999998245E-14  0.12500000000E+03  0.12500000000E+03 0.  0.
        -11    1    3    3    0    0 -0.16162939722E+02 -0.43657481231E+02 -0.38635545071E+02  0.60497286147E+02  0.51100000000E-03 0.  1.
         23    2    1    0    0    0 -0.17379398895E+02 -0.15751516706E+02 -0.20895294515E+02  0.93587150442E+02  0.88157742772E+02 0.  0.
         11    1    3    3    0    0 -0.12164591724E+01  0.27905964525E+02  0.17740250557E+02  0.33089864295E+02  0.51100000000E-03 0. -1.
         22    1    1    0    0    0  0.17379398895E+02  0.15751516706E+02  0.20895294515E+02  0.31412849558E+02  0.00000000000E+00 0.  1.
</event>
<event>
 5    1  0.8962567E-005  0.9118800E+02  0.7818608E-02  0.1130116E+00
         25   -1    0    0    0    0  0.00000000000E+00  0.00000000000E+00  0.99999998245E-14  0.12500000000E+03  0.12500000000E+03 0.  0.
        -11    1    3    3    0    0  0.23750608113E+02 -0.30499692083E+02  0.45513277839E+02  0.59714161325E+02  0.51100000000E-03 0.  1.
         23    2    1    0    0    0  0.17470586048E+02 -0.27323599050E+02  0.18428286554E+02  0.87698496180E+02  0.79370171003E+02 0.  0.
         11    1    3    3    0    0 -0.62800220653E+01  0.31760930330E+01 -0.27084991285E+02  0.27984334855E+02  0.51100000000E-03 0. -1.
         22    1    1    0    0    0 -0.17470586048E+02  0.27323599050E+02 -0.18428286554E+02  0.37301503820E+02  0.00000000000E+00 0.  1.
</event>
<event>
 5    1  0.8962567E-005  0.9118800E+02  0.7818608E-02  0.1130116E+00
         25   -1    0    0    0    0  0.00000000000E+00  0.00000000000E+00  0.99999998245E-14  0.12500000000E+03  0.12500000000E+03 0.  0.
        -11    1    3    3    0    0 -0.10347988453E+02 -0.47586798912E+02 -0.80628781504E+01  0.49361870913E+02  0.51100000000E-03 0. -1.
         23    2    1    0    0    0 -0.34562135046E+01 -0.51388755655E+01 -0.27684994546E+02  0.96630784698E+02  0.92372594282E+02 0.  0.
         11    1    3    3    0    0  0.68917749484E+01  0.42447923346E+02 -0.19622116395E+02  0.47268913785E+02  0.51100000000E-03 0.  1.
         22    1    1    0    0    0  0.34562135046E+01  0.51388755655E+01  0.27684994546E+02  0.28369215302E+02  0.00000000000E+00 0.  1.
</event>
<event>
 5    1  0.8962567E-005  0.9118800E+02  0.7818608E-02  0.1130116E+00
         25   -1    0    0    0    0  0.00000000000E+00  0.00000000000E+00  0.99999998245E-14  0.12500000000E+03  0.12500000000E+03 0.  0.
        -11    1    3    3    0    0  0.80435491360E+01  0.26942037536E+02  0.33819713752E+02  0.43981190386E+02  0.51100000000E-03 0.  1.
         23    2    1    0    0    0  0.16961680844E+02  0.21923209242E+02 -0.14738874712E+02  0.93606367711E+02  0.88184986974E+02 0.  0.
         11    1    3    3    0    0  0.89181317083E+01 -0.50188282937E+01 -0.48558588464E+02  0.49625177325E+02  0.51100000000E-03 0. -1.
         22    1    1    0    0    0 -0.16961680844E+02 -0.21923209242E+02  0.14738874712E+02  0.31393632289E+02  0.00000000000E+00 0. -1.
</event>
<event>
 5    1  0.8962567E-005  0.9118800E+02  0.7818608E-02  0.1130116E+00
         25   -1    0    0    0    0  0.00000000000E+00  0.00000000000E+00  0.99999998245E-14  0.12500000000E+03  0.12500000000E+03 0.  0.
        -11    1    3    3    0    0 -0.37158214471E+02 -0.12811312237E+02  0.33192690622E+02  0.51445284866E+02  0.51100000000E-03 0.  1.
         23    2    1    0    0    0 -0.29317325534E+02  0.22387793668E+01 -0.67403706533E+01  0.94834617422E+02  0.89909145005E+02 0.  0.
         11    1    3    3    0    0  0.78408889371E+01  0.15050091604E+02 -0.39933061275E+02  0.43389332556E+02  0.51100000000E-03 0. -1.
         22    1    1    0    0    0  0.29317325534E+02 -0.22387793668E+01  0.67403706533E+01  0.30165382578E+02  0.00000000000E+00 0.  1.
</event>
<event>
 5    1  0.8962567E-005  0.9118800E+02  0.7818608E-02  0.1130116E+00
         25   -1    0    0    0    0  0.00000000000E+00  0.00000000000E+00  0.99999998245E-14  0.12500000000E+03  0.12500000000E+03 0.  0.
        -11    1    3    3    0    0  0.29396243463E+02 -0.20065156919E+02 -0.18181738420E+01  0.35637836751E+02  0.51100000000E-03 0.  1.
         23    2    1    0    0    0 -0.17425630782E+02  0.15156273195E+02 -0.17188668063E+02  0.96210843446E+02  0.91802564569E+02 0.  0.
         11    1    3    3    0    0 -0.46821874246E+02  0.35221430114E+02 -0.15370494221E+02  0.60573006694E+02  0.51100000000E-03 0. -1.
         22    1    1    0    0    0  0.17425630782E+02 -0.15156273195E+02  0.17188668063E+02  0.28789156554E+02  0.00000000000E+00 0. -1.
</event>
<event>
 5    1  0.8962567E-005  0.9118800E+02  0.7818608E-02  0.1130116E+00
         25   -1    0    0    0    0  0.00000000000E+00  0.00000000000E+00  0.99999998245E-14  0.12500000000E+03  0.12500000000E+03 0.  0.
        -11    1    3    3    0    0  0.21149075706E+02  0.14418408427E+02  0.52101504136E+02  0.58049467167E+02  0.51100000000E-03 0.  1.
         23    2    1    0    0    0 -0.66973383770E+01  0.81262842278E+01  0.26833917757E+02  0.96173797009E+02  0.91752107618E+02 0.  0.
         11    1    3    3    0    0 -0.27846414083E+02 -0.62921241989E+01 -0.25267586380E+02  0.38124329843E+02  0.51100000000E-03 0. -1.
         22    1    1    0    0    0  0.66973383770E+01 -0.81262842278E+01 -0.26833917757E+02  0.28826202991E+02  0.00000000000E+00 0.  1.
</event>
<event>
 5    1  0.8962567E-005  0.9118800E+02  0.7818608E-02  0.1130116E+00
         25   -1    0    0    0    0  0.00000000000E+00  0.00000000000E+00  0.99999998245E-14  0.12500000000E+03  0.12500000000E+03 0.  0.
        -11    1    3    3    0    0  0.32316500061E+02 -0.18835656159E+02 -0.10442250030E+01  0.37419627540E+02  0.51100000000E-03 0.  1.
         23    2    1    0    0    0 -0.15202734329E+02  0.29626589692E+01 -0.25521362750E+02  0.95146349706E+02  0.90341504451E+02 0.  0.
         11    1    3    3    0    0 -0.47519234390E+02  0.21798315129E+02 -0.24477137747E+02  0.57726722166E+02  0.51100000000E-03 0. -1.
         22    1    1    0    0    0  0.15202734329E+02 -0.29626589692E+01  0.25521362750E+02  0.29853650294E+02  0.00000000000E+00 0. -1.
</event>
<event>
 5    1  0.8962567E-005  0.9118800E+02  0.7818608E-02  0.1130116E+00
         25   -1    0    0    0    0  0.00000000000E+00  0.00000000000E+00  0.99999998245E-14  0.12500000000E+03  0.12500000000E+03 0.  0.
        -11    1    3    3    0    0 -0.36721133020E+02 -0.33639063464E+02 -0.35784484162E+02  0.61323384676E+02  0.51100000000E-03 0. -1.
         23    2    1    0    0    0 -0.12862665774E+02 -0.15741283883E+02 -0.24385105160E+02  0.93253038842E+02  0.87682721847E+02 0.  0.
         11    1    3    3    0    0  0.23858467246E+02  0.17897779582E+02  0.11399379002E+02  0.31929654166E+02  0.51100000000E-03 0.  1.
         22    1    1    0    0    0  0.12862665774E+02  0.15741283883E+02  0.24385105160E+02  0.31746961158E+02  0.00000000000E+00 0. -1.
</event>
<event>
 5    1  0.8962567E-005  0.9118800E+02  0.7818608E-02  0.1130116E+00
         25   -1    0    0    0    0  0.00000000000E+00  0.00000000000E+00  0.99999998245E-14  0.12500000000E+03  0.12500000000E+03 0.  0.
        -11    1    3    3    0    0  0.19750439898E+01 -0.60269501419E+02 -0.83178923398E+01  0.60872825902E+02  0.51100000000E-03 0. -1.
         23    2    1    0    0    0 -0.89354023356E+01 -0.29006030430E+02 -0.19974928435E+01  0.94583208686E+02  0.89558931276E+02 0.  0.
         11    1    3    3    0    0 -0.10910446325E+02  0.31263470989E+02  0.63203994963E+01  0.33710382783E+02  0.51100000000E-03 0.  1.
         22    1    1    0    0    0  0.89354023356E+01  0.29006030430E+02  0.19974928435E+01  0.30416791314E+02  0.00000000000E+00 0. -1.
</event>
<event>
 5    1  0.8962567E-005  0.9118800E+02  0.7818608E-02  0.1130116E+00
         25   -1    0    0    0    0  0.00000000000E+00  0.00000000000E+00  0.99999998245E-14  0.12500000000E+03  0.12500000000E+03 0.  0.
        -11    1    3    3    0    0 -0.34002259696E+02  0.40335224666E+02  0.26674690760E+02  0.59115337609E+02  0.51100000000E-03 0. -1.
         23    2    1    0    0    0 -0.28650191946E+02  0.14902799057E+02  0.22975315763E+02  0.85366780945E+02  0.75608830411E+02 0.  0.
         11    1    3    3    0    0  0.53520677497E+01 -0.25432425609E+02 -0.36993749967E+01  0.26251443335E+02  0.51100000000E-03 0.  1.
         22    1    1    0    0    0  0.28650191946E+02 -0.14902799057E+02 -0.22975315763E+02  0.39633219055E+02  0.00000000000E+00 0. -1.
</event>
<event>
 5    1  0.8962567E-005  0.9118800E+02  0.7818608E-02  0.1130116E+00
         25   -1    0    0    0    0  0.00000000000E+00  0.00000000000E+00  0.99999998245E-14  0.12500000000E+03  0.12500000000E+03 0.  0.
        -11    1    3    3    0    0  0.30541008191E+02  0.46812634361E+02  0.22426928926E+02  0.60225767396E+02  0.51100000000E-03 0.  1.
         23    2    1    0    0    0  0.23195459193E+02  0.15535072602E+02  0.54792968327E+01  0.96550210867E+02  0.92263496123E+02 0.  0.
         11    1    3    3    0    0 -0.73455489980E+01 -0.31277561759E+02 -0.16947632093E+02  0.36324443471E+02  0.51100000000E-03 0. -1.
         22    1    1    0    0    0 -0.23195459193E+02 -0.15535072602E+02 -0.54792968327E+01  0.28449789133E+02  0.00000000000E+00 0.  1.
</event>
<event>
 5    1  0.8962567E-005  0.9118800E+02  0.7818608E-02  0.1130116E+00
         25   -1    0    0    0    0  0.00000000000E+00  0.00000000000E+00  0.99999998245E-14  0.12500000000E+03  0.12500000000E+03 0.  0.
        -11    1    3    3    0    0 -0.41562330017E+02 -0.27432426310E+02  0.98384512154E+01  0.50761800720E+02  0.51100000000E-03 0.  1.
         23    2    1    0    0    0  0.38039115071E+01 -0.23580790844E+02  0.15325239911E+02  0.96620669178E+02  0.92358904792E+02 0.  0.
         11    1    3    3    0    0  0.45366241524E+02  0.38516354656E+01  0.54867886956E+01  0.45858868458E+02  0.51100000000E-03 0. -1.
         22    1    1    0    0    0 -0.38039115071E+01  0.23580790844E+02 -0.15325239911E+02  0.28379330822E+02  0.00000000000E+00 0. -1.
</event>
<event>
 5    1  0.8962567E-005  0.9118800E+02  0.7818608E-02  0.1130116E+00
         25   -1    0    0    0    0  0.00000000000E+00  0.00000000000E+00  0.99999998245E-14  0.12500000000E+03  0.12500000000E+03 0.  0.
        -11    1    3    3    0    0 -0.20193257655E+02 -0.51789226528E+01 -0.43589284912E+02  0.48317850262E+02  0.51100000000E-03 0.  1.
         23    2    1    0    0    0 -0.17166322102E+02 -0.25230401677E+02 -0.22043943688E+01  0.94404001278E+02  0.89308456035E+02 0.  0.
         11    1    3    3    0    0  0.30269355530E+01 -0.20051479024E+02  0.41384890543E+02  0.46086151015E+02  0.51100000000E-03 0. -1.
         22    1    1    0    0    0  0.17166322102E+02  0.25230401677E+02  0.22043943688E+01  0.30595998722E+02  0.00000000000E+00 0. -1.
</event>
<event>
 5    1  0.8962567E-005  0.9118800E+02  0.7818608E-02  0.1130116E+00
         25   -1    0    0    0    0  0.00000000000E+00  0.00000000000E+00  0.99999998245E-14  0.12500000000E+03  0.12500000000E+03 0.  0.
        -11    1    3    3    0    0  0.97417515092E+01 -0.21017951225E+02 -0.42170488298E+02  0.48114510075E+02  0.51100000000E-03 0.  1.
         23    2    1    0    0    0 -0.25064504954E+02 -0.34829448508E+01 -0.17250718073E+02  0.94374070015E+02  0.89266553108E+02 0.  0.
         11    1    3    3    0    0 -0.34806256463E+02  0.17535006374E+02  0.24919770225E+02  0.46259559940E+02  0.51100000000E-03 0. -1.
         22    1    1    0    0    0  0.25064504954E+02  0.34829448508E+01  0.17250718073E+02  0.30625929985E+02  0.00000000000E+00 0.  1.
</event>
<event>
 5    1  0.8962567E-005  0.9118800E+02  0.7818608E-02  0.1130116E+00
         25   -1    0    0    0    0  0.00000000000E+00  0.00000000000E+00  0.99999998245E-14  0.12500000000E+03  0.12500000000E+03 0.  0.
        -11    1    3    3    0    0 -0.81526626930E+01  0.22747284356E+02 -0.23686758530E+02  0.33837366690E+02  0.51100000000E-03 0.  1.
         23    2    1    0    0    0  0.17705292031E+02  0.26342410208E+02  0.21947284491E+02  0.86411358692E+02  0.77316490305E+02 0.  0.
         11    1    3    3    0    0  0.25857954724E+02  0.35951258513E+01  0.45634043021E+02  0.52573992003E+02  0.51100000000E-03 0. -1.
         22    1    1    0    0    0 -0.17705292031E+02 -0.26342410208E+02 -0.21947284491E+02  0.38588641308E+02  0.00000000000E+00 0. -1.
</event>
<event>
 5    1  0.8962567E-005  0.9118800E+02  0.7818608E-02  0.1130116E+00
         25   -1    0    0    0    0  0.00000000000E+00  0.00000000000E+00  0.99999998245E-14  0.12500000000E+03  0.12500000000E+03 0.  0.
        -11    1    3    3    0    0 -0.87163330877E+01 -0.22506206904E+02 -0.37047553722E+02  0.44215665196E+02  0.51100000000E-03 0. -1.
         23    2    1    0    0    0  0.18901533368E+02  0.15731868072E+02 -0.13767739021E+02  0.96816489317E+02  0.92623551698E+02 0.  0.
         11    1    3    3    0    0  0.27617866456E+02  0.38238074975E+02  0.23279814701E+02  0.52600824121E+02  0.51100000000E-03 0.  1.
         22    1    1    0    0    0 -0.18901533368E+02 -0.15731868072E+02  0.13767739021E+02  0.28183510683E+02  0.00000000000E+00 0. -1.
</event>
<event>
 5    1  0.8962567E-005  0.9118800E+02  0.7818608E-02  0.1130116E+00
         25   -1    0    0    0    0  0.00000000000E+00  0.00000000000E+00  0.99999998245E-14  0.12500000000E+03  0.12500000000E+03 0.  0.
        -11    1    3    3    0    0  0.29647184355E+02  0.29624006403E+02 -0.28293604218E+02  0.50567433546E+02  0.51100000000E-03 0. -1.
         23    2    1    0    0    0  0.25331264452E+02 -0.11253663307E+02 -0.10476250576E+02  0.95367758729E+02  0.90647336874E+02 0.  0.
         11    1    3    3    0    0 -0.43159199024E+01 -0.40877669710E+02  0.17817353641E+02  0.44800325183E+02  0.51100000000E-03 0.  1.
         22    1    1    0    0    0 -0.25331264452E+02  0.11253663307E+02  0.10476250576E+02  0.29632241271E+02  0.00000000000E+00 0. -1.
</event>
<event>
 5    1  0.8962567E-005  0.9118800E+02  0.7818608E-02  0.1130116E+00
         25   -1    0    0    0    0  0.00000000000E+00  0.00000000000E+00  0.99999998245E-14  0.12500000000E+03  0.12500000000E+03 0.  0.
        -11    1    3    3    0    0 -0.19528147344E+02 -0.11330779399E+02 -0.39197361315E+02  0.45234591131E+02  0.51100000000E-03 0. -1.
         23    2    1    0    0    0  0.23373225734E+02  0.41643001363E+01 -0.15614333556E+02  0.96584221123E+02  0.92309562239E+02 0.  0.
         11    1    3    3    0    0  0.42901373077E+02  0.15495079536E+02  0.23583027760E+02  0.51349629992E+02  0.51100000000E-03 0.  1.
         22    1    1    0    0    0 -0.23373225734E+02 -0.41643001363E+01  0.15614333556E+02  0.28415778877E+02  0.00000000000E+00 0.  1.
</event>
<event>
 5    1  0.8962567E-005  0.9118800E+02  0.7818608E-02  0.1130116E+00
         25   -1    0    0    0    0  0.00000000000E+00  0.00000000000E+00  0.99999998245E-14  0.12500000000E+03  0.12500000000E+03 0.  0.
        -11    1    3    3    0    0 -0.12963260529E+02  0.21166846399E+02 -0.54969038531E+02  0.60313155342E+02  0.51100000000E-03 0. -1.
         23    2    1    0    0    0  0.46989239300E+01  0.54116770739E+01 -0.27543266818E+02  0.96539541784E+02  0.92249040352E+02 0.  0.
         11    1    3    3    0    0  0.17662184459E+02 -0.15755169325E+02  0.27425771713E+02  0.36226386442E+02  0.51100000000E-03 0.  1.
         22    1    1    0    0    0 -0.46989239300E+01 -0.54116770739E+01  0.27543266818E+02  0.28460458216E+02  0.00000000000E+00 0. -1.
</event>
<event>
 5    1  0.8962567E-005  0.9118800E+02  0.7818608E-02  0.1130116E+00
         25   -1    0    0    0    0  0.00000000000E+00  0.00000000000E+00  0.99999998245E-14  0.12500000000E+03  0.12500000000E+03 0.  0.
        -11    1    3    3    0    0  0.52855204429E+02 -0.47589728021E+01 -0.53120567435E+01  0.53334214201E+02  0.51100000000E-03 0.  1.
         23    2    1    0    0    0  0.17940523909E+02 -0.18140790562E+02  0.14503928949E+02  0.95651837616E+02  0.91038230453E+02 0.  0.
         11    1    3    3    0    0 -0.34914680519E+02 -0.13381817759E+02  0.19815985692E+02  0.42317623415E+02  0.51100000000E-03 0. -1.
         22    1    1    0    0    0 -0.17940523909E+02  0.18140790562E+02 -0.14503928949E+02  0.29348162384E+02  0.00000000000E+00 0.  1.
</event>
<event>
 5    1  0.8962567E-005  0.9118800E+02  0.7818608E-02  0.1130116E+00
         25   -1    0    0    0    0  0.00000000000E+00  0.00000000000E+00  0.99999998245E-14  0.12500000000E+03  0.12500000000E+03 0.  0.
        -11    1    3    3    0    0 -0.22900739813E+02 -0.31728608958E+00  0.26900881930E+02  0.35329902396E+02  0.51100000000E-03 0.  1.
         23    2    1    0    0    0  0.88848383269E+01  0.23080974319E+02 -0.17473931106E+02  0.94717827095E+02  0.89746625416E+02 0.  0.
         11    1    3    3    0    0  0.31785578140E+02  0.23398260408E+02 -0.44374813036E+02  0.59387924699E+02  0.51100000000E-03 0. -1.
         22    1    1    0    0    0 -0.88848383269E+01 -0.23080974319E+02  0.17473931106E+02  0.30282172905E+02  0.00000000000E+00 0. -1.
</event>
<event>
 5    1  0.8962567E-005  0.9118800E+02  0.7818608E-02  0.1130116E+00
         25   -1    0    0    0    0  0.00000000000E+00  0.00000000000E+00  0.99999998245E-14  0.12500000000E+03  0.12500000000E+03 0.  0.
        -11    1    3    3    0    0 -0.17923060812E+02  0.25824833686E+02 -0.34755292197E+02  0.46862442101E+02  0.51100000000E-03 0.  1.
         23    2    1    0    0    0 -0.69219221099E+01  0.26819419271E+02  0.11933690000E+02  0.94840304830E+02  0.89917051818E+02 0.  0.
         11    1    3    3    0    0  0.11001138702E+02  0.99458558486E+00  0.46688982197E+02  0.47977862729E+02  0.51100000000E-03 0. -1.
         22    1    1    0    0    0  0.69219221099E+01 -0.26819419271E+02 -0.11933690000E+02  0.30159695170E+02  0.00000000000E+00 0. -1.
</event>
<event>
 5    1  0.8962567E-005  0.9118800E+02  0.7818608E-02  0.1130116E+00
         25   -1    0    0    0    0  0.00000000000E+00  0.00000000000E+00  0.99999998245E-14  0.12500000000E+03  0.12500000000E+03 0.  0.
        -11    1    3    3    0    0 -0.54954427309E+02 -0.11900706645E+02 -0.26147791788E+02  0.62010667753E+02  0.51100000000E-03 0.  1.
         23    2    1    0    0    0 -0.23897401602E+02 -0.10674274185E+02 -0.10624869827E+02  0.96752632130E+02  0.92537333182E+02 0.  0.
         11    1    3    3    0    0  0.31057025707E+02  0.12264324597E+01  0.15522921961E+02  0.34741964377E+02  0.51100000000E-03 0. -1.
         22    1    1    0    0    0  0.23897401602E+02  0.10674274185E+02  0.10624869827E+02  0.28247367870E+02  0.00000000000E+00 0.  1.
</event>
<event>
 5    1  0.8962567E-005  0.9118800E+02  0.7818608E-02  0.1130116E+00
         25   -1    0    0    0    0  0.00000000000E+00  0.00000000000E+00  0.99999998245E-14  0.12500000000E+03  0.12500000000E+03 0.  0.
        -11    1    3    3    0    0  0.51307783053E+02  0.99913821997E+01  0.30010566717E+02  0.60273961500E+02  0.51100000000E-03 0. -1.
         23    2    1    0    0    0  0.15852761366E+02  0.62472317091E+01  0.22613722132E+02  0.96685368171E+02  0.92446427961E+02 0.  0.
         11    1    3    3    0    0 -0.35455021686E+02 -0.37441504906E+01 -0.73968445848E+01  0.36411406671E+02  0.51100000000E-03 0.  1.
         22    1    1    0    0    0 -0.15852761366E+02 -0.62472317091E+01 -0.22613722132E+02  0.28314631829E+02  0.00000000000E+00 0. -1.
</event>
<event>
 5    1  0.8962567E-005  0.9118800E+02  0.7818608E-02  0.1130116E+00
         25   -1    0    0    0    0  0.00000000000E+00  0.00000000000E+00  0.99999998245E-14  0.12500000000E+03  0.12500000000E+03 0.  0.
        -11    1    3    3    0    0  0.13816009469E+02 -0.49673906876E+02 -0.98102846974E+01  0.52484481784E+02  0.51100000000E-03 0.  1.
         23    2    1    0    0    0  0.13194012091E+02 -0.10842156538E+02  0.17951300955E+02  0.10022332711E+03  0.97112469735E+02 0.  0.
         11    1    3    3    0    0 -0.62199737798E+00  0.38831750339E+02  0.27761585652E+02  0.47738845328E+02  0.51100000000E-03 0. -1.
         22    1    1    0    0    0 -0.13194012091E+02  0.10842156538E+02 -0.17951300955E+02  0.24776672888E+02  0.00000000000E+00 0.  1.
</event>
<event>
 5    1  0.8962567E-005  0.9118800E+02  0.7818608E-02  0.1130116E+00
         25   -1    0    0    0    0  0.00000000000E+00  0.00000000000E+00  0.99999998245E-14  0.12500000000E+03  0.12500000000E+03 0.  0.
        -11    1    3    3    0    0 -0.29174578462E+02 -0.15978837136E+02 -0.28199155185E+02  0.43608159994E+02  0.51100000000E-03 0.  1.
         23    2    1    0    0    0 -0.40276973080E+01 -0.21379973758E+02  0.18184084425E+02  0.96645343418E+02  0.92392293263E+02 0.  0.
         11    1    3    3    0    0  0.25146881154E+02 -0.54011366221E+01  0.46383239610E+02  0.53037183424E+02  0.51100000000E-03 0. -1.
         22    1    1    0    0    0  0.40276973080E+01  0.21379973758E+02 -0.18184084425E+02  0.28354656582E+02  0.00000000000E+00 0.  1.
</event>
<event>
 5    1  0.8962567E-005  0.9118800E+02  0.7818608E-02  0.1130116E+00
         25   -1    0    0    0    0  0.00000000000E+00  0.00000000000E+00  0.99999998245E-14  0.12500000000E+03  0.12500000000E+03 0.  0.
        -11    1    3    3    0    0 -0.32219013360E+02 -0.17802183070E+02 -0.32624753056E+02  0.49186960225E+02  0.51100000000E-03 0.  1.
         23    2    1    0    0    0  0.12540486840E+02 -0.10597839669E+02 -0.24897131691E+02  0.95176432436E+02  0.90383118496E+02 0.  0.
         11    1    3    3    0    0  0.44759500200E+02  0.72043434015E+01  0.77276213655E+01  0.45989472211E+02  0.51100000000E-03 0. -1.
         22    1    1    0    0    0 -0.12540486840E+02  0.10597839669E+02  0.24897131691E+02  0.29823567564E+02  0.00000000000E+00 0. -1.
</event>
<event>
 5    1  0.8962567E-005  0.9118800E+02  0.7818608E-02  0.1130116E+00
         25   -1    0    0    0    0  0.00000000000E+00  0.00000000000E+00  0.99999998245E-14  0.12500000000E+03  0.12500000000E+03 0.  0.
        -11    1    3    3    0    0  0.34258562712E+02  0.42904743997E+02  0.13268783899E+02  0.56484748410E+02  0.51100000000E-03 0. -1.
         23    2    1    0    0    0  0.17385899788E+02  0.14413924567E+02 -0.13169448439E+02  0.98856834449E+02  0.95337341122E+02 0.  0.
         11    1    3    3    0    0 -0.16872662924E+02 -0.28490819430E+02 -0.26438232337E+02  0.42372086039E+02  0.51100000000E-03 0.  1.
         22    1    1    0    0    0 -0.17385899788E+02 -0.14413924567E+02  0.13169448439E+02  0.26143165551E+02  0.00000000000E+00 0. -1.
</event>
<event>
 5    1  0.8962567E-005  0.9118800E+02  0.7818608E-02  0.1130116E+00
         25   -1    0    0    0    0  0.00000000000E+00  0.00000000000E+00  0.99999998245E-14  0.12500000000E+03  0.12500000000E+03 0.  0.
        -11    1    3    3    0    0 -0.23655676607E+02 -0.29954948307E+02 -0.53671932691E+01  0.38544736705E+02  0.51100000000E-03 0.  1.
         23    2    1    0    0    0  0.28122019609E+02 -0.94252030085E+01  0.41514875532E+01  0.95051422613E+02  0.90210064035E+02 0.  0.
         11    1    3    3    0    0  0.51777696216E+02  0.20529745298E+02  0.95186808223E+01  0.56506685908E+02  0.51100000000E-03 0. -1.
         22    1    1    0    0    0 -0.28122019609E+02  0.94252030085E+01 -0.41514875532E+01  0.29948577387E+02  0.00000000000E+00 0. -1.
</event>
<event>
 5    1  0.8962567E-005  0.9118800E+02  0.7818608E-02  0.1130116E+00
         25   -1    0    0    0    0  0.00000000000E+00  0.00000000000E+00  0.99999998245E-14  0.12500000000E+03  0.12500000000E+03 0.  0.
        -11    1    3    3    0    0  0.34529550795E+02  0.23774017277E+01 -0.72738041830E+01  0.35367359877E+02  0.51100000000E-03 0. -1.
         23    2    1    0    0    0 -0.25228246971E+02  0.67055877803E+01  0.88896218749E+01  0.97423656338E+02  0.93439360467E+02 0.  0.
         11    1    3    3    0    0 -0.59757797766E+02  0.43281860526E+01  0.16163426058E+02  0.62056296461E+02  0.51100000000E-03 0.  1.
         22    1    1    0    0    0  0.25228246971E+02 -0.67055877803E+01 -0.88896218749E+01  0.27576343662E+02  0.00000000000E+00 0.  1.
</event>
<event>
 5    1  0.8962567E-005  0.9118800E+02  0.7818608E-02  0.1130116E+00
         25   -1    0    0    0    0  0.00000000000E+00  0.00000000000E+00  0.99999998245E-14  0.12500000000E+03  0.12500000000E+03 0.  0.
        -11    1    3    3    0    0 -0.14264038009E+02 -0.26013748965E+02 -0.30224466541E+02  0.42352051821E+02  0.51100000000E-03 0.  1.
         23    2    1    0    0    0  0.22157896976E+02 -0.18694436157E+02  0.72463551980E+01  0.95117496670E+02  0.90301573449E+02 0.  0.
         11    1    3    3    0    0  0.36421934985E+02  0.73193128078E+01  0.37470821739E+02  0.52765444848E+02  0.51100000000E-03 0. -1.
         22    1    1    0    0    0 -0.22157896976E+02  0.18694436157E+02 -0.72463551980E+01  0.29882503330E+02  0.00000000000E+00 0. -1.
</event>
<event>
 5    1  0.8962567E-005  0.9118800E+02  0.7818608E-02  0.1130116E+00
         25   -1    0    0    0    0  0.00000000000E+00  0.00000000000E+00  0.99999998245E-14  0.12500000000E+03  0.12500000000E+03 0.  0.
        -11    1    3    3    0    0 -0.34112091844E+02 -0.23867657048E+02 -0.41006096881E+02  0.58436288765E+02  0.51100000000E-03 0.  1.
         23    2    1    0    0    0 -0.39771538258E+01 -0.62415057192E+01 -0.28555075324E+02  0.95501415746E+02  0.90831458959E+02 0.  0.
         11    1    3    3    0    0  0.30134938018E+02  0.17626151329E+02  0.12451021557E+02  0.37065126981E+02  0.51100000000E-03 0. -1.
         22    1    1    0    0    0  0.39771538258E+01  0.62415057192E+01  0.28555075324E+02  0.29498584254E+02  0.00000000000E+00 0.  1.
</event>
<event>
 5    1  0.8962567E-005  0.9118800E+02  0.7818608E-02  0.1130116E+00
         25   -1    0    0    0    0  0.00000000000E+00  0.00000000000E+00  0.99999998245E-14  0.12500000000E+03  0.12500000000E+03 0.  0.
        -11    1    3    3    0    0  0.18422753462E+02  0.11287882346E+02  0.47396168037E+02  0.52088490839E+02  0.51100000000E-03 0.  1.
         23    2    1    0    0    0  0.24651407990E+02 -0.11305722683E+02  0.10255523888E+02  0.96005396166E+02  0.91522396393E+02 0.  0.
         11    1    3    3    0    0  0.62286545275E+01 -0.22593605029E+02 -0.37140644149E+02  0.43916905327E+02  0.51100000000E-03 0. -1.
         22    1    1    0    0    0 -0.24651407990E+02  0.11305722683E+02 -0.10255523888E+02  0.28994603834E+02  0.00000000000E+00 0.  1.
</event>
<event>
 5    1  0.8962567E-005  0.9118800E+02  0.7818608E-02  0.1130116E+00
         25   -1    0    0    0    0  0.00000000000E+00  0.00000000000E+00  0.99999998245E-14  0.12500000000E+03  0.12500000000E+03 0.  0.
        -11    1    3    3    0    0 -0.33821515926E+02  0.34962293451E+02 -0.37963649425E+02  0.61704907267E+02  0.51100000000E-03 0. -1.
         23    2    1    0    0    0 -0.10304521980E+02  0.15769343703E+02 -0.22119773562E+02  0.95945916699E+02  0.91441124089E+02 0.  0.
         11    1    3    3    0    0  0.23516993946E+02 -0.19192949748E+02  0.15843875863E+02  0.34241009432E+02  0.51100000000E-03 0.  1.
         22    1    1    0    0    0  0.10304521980E+02 -0.15769343703E+02  0.22119773562E+02  0.29054083301E+02  0.00000000000E+00 0. -1.
</event>
<event>
 5    1  0.8962567E-005  0.9118800E+02  0.7818608E-02  0.1130116E+00
         25   -1    0    0    0    0  0.00000000000E+00  0.00000000000E+00  0.99999998245E-14  0.12500000000E+03  0.12500000000E+03 0.  0.
        -11    1    3    3    0    0  0.11280865509E+02 -0.23045485141E+02  0.50854921963E+02  0.56961174497E+02  0.51100000000E-03 0. -1.
         23    2    1    0    0    0  0.46044396629E+01 -0.25357858292E+02  0.11792032161E+02  0.96657913552E+02  0.92409298168E+02 0.  0.
         11    1    3    3    0    0 -0.66764258465E+01 -0.23123731510E+01 -0.39062889801E+02  0.39696739055E+02  0.51100000000E-03 0.  1.
         22    1    1    0    0    0 -0.46044396629E+01  0.25357858292E+02 -0.11792032161E+02  0.28342086448E+02  0.00000000000E+00 0. -1.
</event>
<event>
 5    1  0.8962567E-005  0.9118800E+02  0.7818608E-02  0.1130116E+00
         25   -1    0    0    0    0  0.00000000000E+00  0.00000000000E+00  0.99999998245E-14  0.12500000000E+03  0.12500000000E+03 0.  0.
        -11    1    3    3    0    0 -0.21039327020E+02  0.31317763641E+02 -0.25747637455E+02  0.45677088739E+02  0.51100000000E-03 0.  1.
         23    2    1    0    0    0 -0.13363435350E+02 -0.17143993210E+02 -0.20668656345E+02  0.95005146063E+02  0.90145917910E+02 0.  0.
         11    1    3    3    0    0  0.76758916704E+01 -0.48461756851E+02  0.50789811096E+01  0.49328057324E+02  0.51100000000E-03 0. -1.
         22    1    1    0    0    0  0.13363435350E+02  0.17143993210E+02  0.20668656345E+02  0.29994853937E+02  0.00000000000E+00 0.  1.
</event>
<event>
 5    1  0.8962567E-005  0.9118800E+02  0.7818608E-02  0.1130116E+00
         25   -1    0    0    0    0  0.00000000000E+00  0.00000000000E+00  0.99999998245E-14  0.12500000000E+03  0.12500000000E+03 0.  0.
        -11    1    3    3    0    0 -0.51592630722E+02  0.35573297292E+01  0.18189546980E+02  0.54820742053E+02  0.51100000000E-03 0.  1.
         23    2    1    0    0    0 -0.26983783353E+02 -0.16194541612E+02 -0.38273521125E+01  0.93297691468E+02  0.87746355292E+02 0.  0.
         11    1    3    3    0    0  0.24608847370E+02 -0.19751871341E+02 -0.22016899093E+02  0.38476949415E+02  0.51100000000E-03 0. -1.
         22    1    1    0    0    0  0.26983783353E+02  0.16194541612E+02  0.38273521125E+01  0.31702308532E+02  0.00000000000E+00 0. -1.
</event>
<event>
 5    1  0.8962567E-005  0.9118800E+02  0.7818608E-02  0.1130116E+00
         25   -1    0    0    0    0  0.00000000000E+00  0.00000000000E+00  0.99999998245E-14  0.12500000000E+03  0.12500000000E+03 0.  0.
        -11    1    3    3    0    0  0.29096169554E+02  0.26760437945E+02 -0.55912275762E+01  0.39924553194E+02  0.51100000000E-03 0.  1.
         23    2    1    0    0    0  0.19184007240E+01 -0.20321991019E+02 -0.20268123789E+02  0.96234388200E+02  0.91834617928E+02 0.  0.
         11    1    3    3    0    0 -0.27177768830E+02 -0.47082428963E+02 -0.14676896213E+02  0.56309835006E+02  0.51100000000E-03 0. -1.
         22    1    1    0    0    0 -0.19184007240E+01  0.20321991019E+02  0.20268123789E+02  0.28765611800E+02  0.00000000000E+00 0. -1.
</event>
<event>
 5    1  0.8962567E-005  0.9118800E+02  0.7818608E-02  0.1130116E+00
         25   -1    0    0    0    0  0.00000000000E+00  0.00000000000E+00  0.99999998245E-14  0.12500000000E+03  0.12500000000E+03 0.  0.
        -11    1    3    3    0    0  0.16286955269E+02  0.31893199277E+02  0.32994777230E+02  0.48693905130E+02  0.51100000000E-03 0.  1.
         23    2    1    0    0    0  0.29526395278E+02 -0.83882357560E+00  0.24857101878E+01  0.95357287603E+02  0.90632896350E+02 0.  0.
         11    1    3    3    0    0  0.13239440008E+02 -0.32732022853E+02 -0.30509067042E+02  0.46663382473E+02  0.51100000000E-03 0. -1.
         22    1    1    0    0    0 -0.29526395278E+02  0.83882357560E+00 -0.24857101878E+01  0.29642712397E+02  0.00000000000E+00 0.  1.
</event>
<event>
 5    1  0.8962567E-005  0.9118800E+02  0.7818608E-02  0.1130116E+00
         25   -1    0    0    0    0  0.00000000000E+00  0.00000000000E+00  0.99999998245E-14  0.12500000000E+03  0.12500000000E+03 0.  0.
        -11    1    3    3    0    0 -0.24630749546E+02 -0.22176443273E+02 -0.23999161802E+02  0.40919777943E+02  0.51100000000E-03 0. -1.
         23    2    1    0    0    0  0.23739287271E+01  0.11551977378E+02  0.19487443705E+02  0.10222184860E+03  0.99651704202E+02 0.  0.
         11    1    3    3    0    0  0.27004678273E+02  0.33728420651E+02  0.43486605507E+02  0.61302070659E+02  0.51100000000E-03 0.  1.
         22    1    1    0    0    0 -0.23739287271E+01 -0.11551977378E+02 -0.19487443705E+02  0.22778151398E+02  0.00000000000E+00 0.  1.
</event>
<event>
 5    1  0.8962567E-005  0.9118800E+02  0.7818608E-02  0.1130116E+00
         25   -1    0    0    0    0  0.00000000000E+00  0.00000000000E+00  0.99999998245E-14  0.12500000000E+03  0.12500000000E+03 0.  0.
        -11    1    3    3    0    0 -0.25345959476E+02 -0.33814599566E+02 -0.18713312041E+02  0.46217235458E+02  0.51100000000E-03 0. -1.
         23    2    1    0    0    0  0.20156990973E+02 -0.20391326419E+02 -0.31075742921E+01  0.96159620388E+02  0.91732791830E+02 0.  0.
         11    1    3    3    0    0  0.45502950449E+02  0.13423273147E+02  0.15605737749E+02  0.49942384930E+02  0.51100000000E-03 0.  1.
         22    1    1    0    0    0 -0.20156990973E+02  0.20391326419E+02  0.31075742921E+01  0.28840379612E+02  0.00000000000E+00 0.  1.
</event>
<event>
 5    1  0.8962567E-005  0.9118800E+02  0.7818608E-02  0.1130116E+00
         25   -1    0    0    0    0  0.00000000000E+00  0.00000000000E+00  0.99999998245E-14  0.12500000000E+03  0.12500000000E+03 0.  0.
        -11    1    3    3    0    0  0.42599880335E+02  0.42567357486E+02  0.96729070337E+01  0.60994219879E+02  0.51100000000E-03 0.  1.
         23    2    1    0    0    0  0.24462213275E+02  0.15701142619E+02 -0.29549168733E+01  0.95782585817E+02  0.91217577550E+02 0.  0.
         11    1    3    3    0    0 -0.18137667061E+02 -0.26866214867E+02 -0.12627823907E+02  0.34788365937E+02  0.51100000000E-03 0. -1.
         22    1    1    0    0    0 -0.24462213275E+02 -0.15701142619E+02  0.29549168733E+01  0.29217414183E+02  0.00000000000E+00 0.  1.
</event>
<event>
 5    1  0.8962567E-005  0.9118800E+02  0.7818608E-02  0.1130116E+00
         25   -1    0    0    0    0  0.00000000000E+00  0.00000000000E+00  0.99999998245E-14  0.12500000000E+03  0.12500000000E+03 0.  0.
        -11    1    3    3    0    0 -0.75761291408E+01  0.41459859908E+02 -0.90756157471E+01  0.43112463602E+02  0.51100000000E-03 0.  1.
         23    2    1    0    0    0 -0.70552847782E+01  0.98698455915E+01  0.29575100246E+02  0.93033182050E+02  0.87368733037E+02 0.  0.
         11    1    3    3    0    0  0.52084436258E+00 -0.31590014317E+02  0.38650715993E+02  0.49920718448E+02  0.51100000000E-03 0. -1.
         22    1    1    0    0    0  0.70552847782E+01 -0.98698455915E+01 -0.29575100246E+02  0.31966817950E+02  0.00000000000E+00 0.  1.
</event>
<event>
 5    1  0.8962567E-005  0.9118800E+02  0.7818608E-02  0.1130116E+00
         25   -1    0    0    0    0  0.00000000000E+00  0.00000000000E+00  0.99999998245E-14  0.12500000000E+03  0.12500000000E+03 0.  0.
        -11    1    3    3    0    0 -0.10687390245E+02  0.26011320271E+02  0.29797873805E+02  0.40972214684E+02  0.51100000000E-03 0.  1.
         23    2    1    0    0    0  0.21670497560E+02  0.13570408559E+02 -0.13216330202E+02  0.96217403922E+02  0.91811496996E+02 0.  0.
         11    1    3    3    0    0  0.32357887805E+02 -0.12440911712E+02 -0.43014204007E+02  0.55245189239E+02  0.51100000000E-03 0. -1.
         22    1    1    0    0    0 -0.21670497560E+02 -0.13570408559E+02  0.13216330202E+02  0.28782596078E+02  0.00000000000E+00 0. -1.
</event>
<event>
 5    1  0.8962567E-005  0.9118800E+02  0.7818608E-02  0.1130116E+00
         25   -1    0    0    0    0  0.00000000000E+00  0.00000000000E+00  0.99999998245E-14  0.12500000000E+03  0.12500000000E+03 0.  0.
        -11    1    3    3    0    0  0.26936525752E+02  0.17709322558E+02 -0.20700610088E+02  0.38310726739E+02  0.51100000000E-03 0. -1.
         23    2    1    0    0    0  0.18547264656E+02  0.84617249670E+01  0.28997600123E+02  0.89553383398E+02  0.82239563772E+02 0.  0.
         11    1    3    3    0    0 -0.83892610958E+01 -0.92475975905E+01  0.49698210211E+02  0.51242656658E+02  0.51100000000E-03 0.  1.
         22    1    1    0    0    0 -0.18547264656E+02 -0.84617249670E+01 -0.28997600123E+02  0.35446616602E+02  0.00000000000E+00 0.  1.
</event>
<event>
 5    1  0.8962567E-005  0.9118800E+02  0.7818608E-02  0.1130116E+00
         25   -1    0    0    0    0  0.00000000000E+00  0.00000000000E+00  0.99999998245E-14  0.12500000000E+03  0.12500000000E+03 0.  0.
        -11    1    3    3    0    0 -0.26560575481E+02 -0.41113254386E+02  0.38441903101E+02  0.62237800173E+02  0.51100000000E-03 0. -1.
         23    2    1    0    0    0 -0.93292445020E+01 -0.18270356266E+02  0.20427917193E+02  0.96049343325E+02  0.91582399135E+02 0.  0.
         11    1    3    3    0    0  0.17231330979E+02  0.22842898119E+02 -0.18013985908E+02  0.33811543153E+02  0.51100000000E-03 0.  1.
         22    1    1    0    0    0  0.93292445020E+01  0.18270356266E+02 -0.20427917193E+02  0.28950656675E+02  0.00000000000E+00 0. -1.
</event>
<event>
 5    1  0.8962567E-005  0.9118800E+02  0.7818608E-02  0.1130116E+00
         25   -1    0    0    0    0  0.00000000000E+00  0.00000000000E+00  0.99999998245E-14  0.12500000000E+03  0.12500000000E+03 0.  0.
        -11    1    3    3    0    0 -0.13417849042E+02 -0.25086375879E+02  0.43343350024E+02  0.51846030892E+02  0.51100000000E-03 0. -1.
         23    2    1    0    0    0  0.94427785761E+01 -0.27068506705E+02  0.59465943164E+01  0.95721473630E+02  0.91133793992E+02 0.  0.
         11    1    3    3    0    0  0.22860627618E+02 -0.19821308254E+01 -0.37396755708E+02  0.43875442738E+02  0.51100000000E-03 0.  1.
         22    1    1    0    0    0 -0.94427785761E+01  0.27068506705E+02 -0.59465943164E+01  0.29278526370E+02  0.00000000000E+00 0. -1.
</event>
<event>
 5    1  0.8962567E-005  0.9118800E+02  0.7818608E-02  0.1130116E+00
         25   -1    0    0    0    0  0.00000000000E+00  0.00000000000E+00  0.99999998245E-14  0.12500000000E+03  0.12500000000E+03 0.  0.
        -11    1    3    3    0    0 -0.17457977587E+02 -0.15482298387E+02  0.27468034347E+02  0.36041302084E+02  0.51100000000E-03 0.  1.
         23    2    1    0    0    0 -0.10367479442E+02  0.26133979227E+02 -0.12550494648E+02  0.94210644435E+02  0.89037414095E+02 0.  0.
         11    1    3    3    0    0  0.70904981450E+01  0.41616277614E+02 -0.40018528994E+02  0.58169342351E+02  0.51100000000E-03 0. -1.
         22    1    1    0    0    0  0.10367479442E+02 -0.26133979227E+02  0.12550494648E+02  0.30789355565E+02  0.00000000000E+00 0. -1.
</event>
<event>
 5    1  0.8962567E-005  0.9118800E+02  0.7818608E-02  0.1130116E+00
         25   -1    0    0    0    0  0.00000000000E+00  0.00000000000E+00  0.99999998245E-14  0.12500000000E+03  0.12500000000E+03 0.  0.
        -11    1    3    3    0    0  0.19289706376E+01  0.36375342738E+02 -0.30767455792E+01  0.36556160228E+02  0.51100000000E-03 0.  1.
         23    2    1    0    0    0  0.34190945028E+02  0.92569109717E+01 -0.22577543037E+02  0.82994564968E+02  0.71579614709E+02 0.  0.
         11    1    3    3    0    0  0.32261974391E+02 -0.27118431766E+02 -0.19500797457E+02  0.46438404740E+02  0.51100000000E-03 0. -1.
         22    1    1    0    0    0 -0.34190945028E+02 -0.92569109717E+01  0.22577543037E+02  0.42005435032E+02  0.00000000000E+00 0. -1.
</event>
<event>
 5    1  0.8962567E-005  0.9118800E+02  0.7818608E-02  0.1130116E+00
         25   -1    0    0    0    0  0.00000000000E+00  0.00000000000E+00  0.99999998245E-14  0.12500000000E+03  0.12500000000E+03 0.  0.
        -11    1    3    3    0    0 -0.28098284203E+02  0.19944287652E+02  0.21351273358E+01  0.34523136504E+02  0.51100000000E-03 0. -1.
         23    2    1    0    0    0  0.12540814546E+02 -0.25603049164E+02  0.66287634404E+01  0.95730072417E+02  0.91145587410E+02 0.  0.
         11    1    3    3    0    0  0.40639098749E+02 -0.45547336816E+02  0.44936361046E+01  0.61206935913E+02  0.51100000000E-03 0.  1.
         22    1    1    0    0    0 -0.12540814546E+02  0.25603049164E+02 -0.66287634404E+01  0.29269927583E+02  0.00000000000E+00 0.  1.
</event>
<event>
 5    1  0.8962567E-005  0.9118800E+02  0.7818608E-02  0.1130116E+00
         25   -1    0    0    0    0  0.00000000000E+00  0.00000000000E+00  0.99999998245E-14  0.12500000000E+03  0.12500000000E+03 0.  0.
        -11    1    3    3    0    0  0.87558070047E+01  0.55001009549E+02 -0.80308994016E+00  0.55699373079E+02  0.51100000000E-03 0.  1.
         23    2    1    0    0    0 -0.13564932056E+02  0.28208874153E+02  0.98901615612E+01  0.92173741329E+02  0.86130339209E+02 0.  0.
         11    1    3    3    0    0 -0.22320739060E+02 -0.26792135396E+02  0.10693251501E+02  0.36474368250E+02  0.51100000000E-03 0. -1.
         22    1    1    0    0    0  0.13564932056E+02 -0.28208874153E+02 -0.98901615612E+01  0.32826258671E+02  0.00000000000E+00 0. -1.
</event>
<event>
 5    1  0.8962567E-005  0.9118800E+02  0.7818608E-02  0.1130116E+00
         25   -1    0    0    0    0  0.00000000000E+00  0.00000000000E+00  0.99999998245E-14  0.12500000000E+03  0.12500000000E+03 0.  0.
        -11    1    3    3    0    0  0.99540133847E+01 -0.27244741672E+01  0.35515398059E+02  0.36984437829E+02  0.51100000000E-03 0.  1.
         23    2    1    0    0    0 -0.13450750018E+02 -0.20543904240E+02 -0.15563150045E+02  0.95927911723E+02  0.91416507978E+02 0.  0.
         11    1    3    3    0    0 -0.23404763402E+02 -0.17819430072E+02 -0.51078548104E+02  0.58943473894E+02  0.51100000000E-03 0. -1.
         22    1    1    0    0    0  0.13450750018E+02  0.20543904240E+02  0.15563150045E+02  0.29072088277E+02  0.00000000000E+00 0. -1.
</event>
<event>
 5    1  0.8962567E-005  0.9118800E+02  0.7818608E-02  0.1130116E+00
         25   -1    0    0    0    0  0.00000000000E+00  0.00000000000E+00  0.99999998245E-14  0.12500000000E+03  0.12500000000E+03 0.  0.
        -11    1    3    3    0    0  0.77586676302E+01  0.34922949648E+02  0.14633082293E+02  0.38651473881E+02  0.51100000000E-03 0. -1.
         23    2    1    0    0    0  0.20115200581E+02 -0.42557016685E+01 -0.22849010357E+02  0.94262245277E+02  0.89109827288E+02 0.  0.
         11    1    3    3    0    0  0.12356532951E+02 -0.39178651317E+02 -0.37482092650E+02  0.55610771396E+02  0.51100000000E-03 0.  1.
         22    1    1    0    0    0 -0.20115200581E+02  0.42557016685E+01  0.22849010357E+02  0.30737754723E+02  0.00000000000E+00 0.  1.
</event>
<event>
 5    1  0.8962567E-005  0.9118800E+02  0.7818608E-02  0.1130116E+00
         25   -1    0    0    0    0  0.00000000000E+00  0.00000000000E+00  0.99999998245E-14  0.12500000000E+03  0.12500000000E+03 0.  0.
        -11    1    3    3    0    0  0.19485950076E+02 -0.51737978760E+02 -0.84176045344E+01  0.55922953810E+02  0.51100000000E-03 0. -1.
         23    2    1    0    0    0  0.15618815387E+01 -0.25606602153E+02  0.14961368878E+02  0.95301850117E+02  0.90556405236E+02 0.  0.
         11    1    3    3    0    0 -0.17924068538E+02  0.26131376607E+02  0.23378973412E+02  0.39378896307E+02  0.51100000000E-03 0.  1.
         22    1    1    0    0    0 -0.15618815387E+01  0.25606602153E+02 -0.14961368878E+02  0.29698149883E+02  0.00000000000E+00 0. -1.
</event>
<event>
 5    1  0.8962567E-005  0.9118800E+02  0.7818608E-02  0.1130116E+00
         25   -1    0    0    0    0  0.00000000000E+00  0.00000000000E+00  0.99999998245E-14  0.12500000000E+03  0.12500000000E+03 0.  0.
        -11    1    3    3    0    0 -0.25291313355E+02 -0.23168036328E+02 -0.30396257145E+02  0.45829476183E+02  0.51100000000E-03 0. -1.
         23    2    1    0    0    0 -0.26779405420E+02 -0.22735525112E+00  0.13220795337E+02  0.95134004715E+02  0.90324421829E+02 0.  0.
         11    1    3    3    0    0 -0.14880920646E+01  0.22940681077E+02  0.43617052482E+02  0.49304528532E+02  0.51100000000E-03 0.  1.
         22    1    1    0    0    0  0.26779405420E+02  0.22735525112E+00 -0.13220795337E+02  0.29865995285E+02  0.00000000000E+00 0.  1.
</event>
<event>
 5    1  0.8962567E-005  0.9118800E+02  0.7818608E-02  0.1130116E+00
         25   -1    0    0    0    0  0.00000000000E+00  0.00000000000E+00  0.99999998245E-14  0.12500000000E+03  0.12500000000E+03 0.  0.
        -11    1    3    3    0    0  0.11804325910E+02 -0.40228434711E+02 -0.44135362023E+01  0.42156237635E+02  0.51100000000E-03 0.  1.
         23    2    1    0    0    0 -0.26474901286E+02 -0.72989687045E+01  0.11685519102E+02  0.95154620141E+02  0.90352947020E+02 0.  0.
         11    1    3    3    0    0 -0.38279227197E+02  0.32929466007E+02  0.16099055304E+02  0.52998382505E+02  0.51100000000E-03 0. -1.
         22    1    1    0    0    0  0.26474901286E+02  0.72989687045E+01 -0.11685519102E+02  0.29845379859E+02  0.00000000000E+00 0. -1.
</event>
<event>
 5    1  0.8962567E-005  0.9118800E+02  0.7818608E-02  0.1130116E+00
         25   -1    0    0    0    0  0.00000000000E+00  0.00000000000E+00  0.99999998245E-14  0.12500000000E+03  0.12500000000E+03 0.  0.
        -11    1    3    3    0    0  0.46381648207E+02 -0.76564469493E+01 -0.18196168015E+02  0.50408124355E+02  0.51100000000E-03 0. -1.
         23    2    1    0    0    0  0.20098093684E+02 -0.89722043203E+01  0.18966764684E+02  0.95945362115E+02  0.91440365970E+02 0.  0.
         11    1    3    3    0    0 -0.26283554523E+02 -0.13157573710E+01  0.37162932698E+02  0.45537237760E+02  0.51100000000E-03 0.  1.
         22    1    1    0    0    0 -0.20098093684E+02  0.89722043203E+01 -0.18966764684E+02  0.29054637885E+02  0.00000000000E+00 0. -1.
</event>
<event>
 5    1  0.8962567E-005  0.9118800E+02  0.7818608E-02  0.1130116E+00
         25   -1    0    0    0    0  0.00000000000E+00  0.00000000000E+00  0.99999998245E-14  0.12500000000E+03  0.12500000000E+03 0.  0.
        -11    1    3    3    0    0  0.12095066358E+02  0.77453630686E+01 -0.35832087832E+02  0.38603365111E+02  0.51100000000E-03 0. -1.
         23    2    1    0    0    0 -0.81185248889E+01  0.24297304327E+02  0.14681692994E+02  0.95473375522E+02  0.90792862497E+02 0.  0.
         11    1    3    3    0    0 -0.20213591247E+02  0.16551941258E+02  0.50513780826E+02  0.56870010410E+02  0.51100000000E-03 0.  1.
         22    1    1    0    0    0  0.81185248889E+01 -0.24297304327E+02 -0.14681692994E+02  0.29526624478E+02  0.00000000000E+00 0.  1.
</event>
<event>
 5    1  0.8962567E-005  0.9118800E+02  0.7818608E-02  0.1130116E+00
         25   -1    0    0    0    0  0.00000000000E+00  0.00000000000E+00  0.99999998245E-14  0.12500000000E+03  0.12500000000E+03 0.  0.
        -11    1    3    3    0    0 -0.96155858632E+01  0.53966690799E+02  0.19467300347E+02  0.58170774366E+02  0.51100000000E-03 0. -1.
         23    2    1    0    0    0 -0.19722073687E+02  0.19963125965E+02  0.49281206948E+01  0.96508370310E+02  0.92206792469E+02 0.  0.
         11    1    3    3    0    0 -0.10106487824E+02 -0.34003564834E+02 -0.14539179652E+02  0.38337595944E+02  0.51100000000E-03 0.  1.
         22    1    1    0    0    0  0.19722073687E+02 -0.19963125965E+02 -0.49281206948E+01  0.28491629690E+02  0.00000000000E+00 0. -1.
</event>
<event>
 5    1  0.8962567E-005  0.9118800E+02  0.7818608E-02  0.1130116E+00
         25   -1    0    0    0    0  0.00000000000E+00  0.00000000000E+00  0.99999998245E-14  0.12500000000E+03  0.12500000000E+03 0.  0.
        -11    1    3    3    0    0 -0.20025212645E+02  0.89847492330E+01  0.26343738390E+02  0.34288881768E+02  0.51100000000E-03 0. -1.
         23    2    1    0    0    0  0.12924404662E+02  0.12280839530E+02 -0.24338552190E+02  0.94830074940E+02  0.89902829404E+02 0.  0.
         11    1    3    3    0    0  0.32949617307E+02  0.32960902970E+01 -0.50682290580E+02  0.60541193172E+02  0.51100000000E-03 0.  1.
         22    1    1    0    0    0 -0.12924404662E+02 -0.12280839530E+02  0.24338552190E+02  0.30169925060E+02  0.00000000000E+00 0.  1.
</event>
<event>
 5    1  0.8962567E-005  0.9118800E+02  0.7818608E-02  0.1130116E+00
         25   -1    0    0    0    0  0.00000000000E+00  0.00000000000E+00  0.99999998245E-14  0.12500000000E+03  0.12500000000E+03 0.  0.
        -11    1    3    3    0    0  0.40743687613E+01 -0.44967252297E+02  0.43093921683E+02  0.62415866142E+02  0.51100000000E-03 0.  1.
         23    2    1    0    0    0  0.40160163175E+01 -0.20134113600E+02  0.20426262338E+02  0.96038938027E+02  0.91568195934E+02 0.  0.
         11    1    3    3    0    0 -0.58352443802E-01  0.24833138697E+02 -0.22667659344E+02  0.33623071885E+02  0.51100000000E-03 0. -1.
         22    1    1    0    0    0 -0.40160163175E+01  0.20134113600E+02 -0.20426262338E+02  0.28961061973E+02  0.00000000000E+00 0.  1.
</event>
<event>
 5    1  0.8962567E-005  0.9118800E+02  0.7818608E-02  0.1130116E+00
         25   -1    0    0    0    0  0.00000000000E+00  0.00000000000E+00  0.99999998245E-14  0.12500000000E+03  0.12500000000E+03 0.  0.
        -11    1    3    3    0    0  0.11365022107E+02 -0.44057550804E+02  0.37170769251E+02  0.58752851822E+02  0.51100000000E-03 0.  1.
         23    2    1    0    0    0 -0.97828755161E+01 -0.22607063716E+02  0.14937685081E+02  0.96191695316E+02  0.91776488432E+02 0.  0.
         11    1    3    3    0    0 -0.21147897623E+02  0.21450487088E+02 -0.22233084170E+02  0.37438843493E+02  0.51100000000E-03 0. -1.
         22    1    1    0    0    0  0.97828755161E+01  0.22607063716E+02 -0.14937685081E+02  0.28808304684E+02  0.00000000000E+00 0.  1.
</event>
<event>
 5    1  0.8962567E-005  0.9118800E+02  0.7818608E-02  0.1130116E+00
         25   -1    0    0    0    0  0.00000000000E+00  0.00000000000E+00  0.99999998245E-14  0.12500000000E+03  0.12500000000E+03 0.  0.
        -11    1    3    3    0    0 -0.83395296193E+00  0.25361379109E+02 -0.38923987162E+02  0.46464737218E+02  0.51100000000E-03 0.  1.
         23    2    1    0    0    0  0.24600382865E+02  0.15574661892E+02  0.22020833150E+01  0.95800717456E+02  0.91242420858E+02 0.  0.
         11    1    3    3    0    0  0.25434335827E+02 -0.97867172176E+01  0.41126070477E+02  0.49335980238E+02  0.51100000000E-03 0. -1.
         22    1    1    0    0    0 -0.24600382865E+02 -0.15574661892E+02 -0.22020833150E+01  0.29199282544E+02  0.00000000000E+00 0. -1.
</event>
<event>
 5    1  0.8962567E-005  0.9118800E+02  0.7818608E-02  0.1130116E+00
         25   -1    0    0    0    0  0.00000000000E+00  0.00000000000E+00  0.99999998245E-14  0.12500000000E+03  0.12500000000E+03 0.  0.
        -11    1    3    3    0    0  0.49989804814E+02  0.28584295621E+02  0.40755737980E+01  0.57729133404E+02  0.51100000000E-03 0.  1.
         23    2    1    0    0    0  0.31189880829E+02 -0.10241077427E+01  0.73034803445E+01  0.92950065711E+02  0.87249735975E+02 0.  0.
         11    1    3    3    0    0 -0.18799923986E+02 -0.29608403364E+02  0.32279065465E+01  0.35220932307E+02  0.51100000000E-03 0. -1.
         22    1    1    0    0    0 -0.31189880829E+02  0.10241077427E+01 -0.73034803445E+01  0.32049934289E+02  0.00000000000E+00 0.  1.
</event>
<event>
 5    1  0.8962567E-005  0.9118800E+02  0.7818608E-02  0.1130116E+00
         25   -1    0    0    0    0  0.00000000000E+00  0.00000000000E+00  0.99999998245E-14  0.12500000000E+03  0.12500000000E+03 0.  0.
        -11    1    3    3    0    0 -0.21951963672E+02  0.50961500374E+02 -0.12709267434E+02  0.56925290587E+02  0.51100000000E-03 0.  1.
         23    2    1    0    0    0 -0.15491981401E+02  0.22527474546E+02  0.11996987346E+02  0.95143404371E+02  0.90337429080E+02 0.  0.
         11    1    3    3    0    0  0.64599822709E+01 -0.28434025828E+02  0.24706254780E+02  0.38218113784E+02  0.51100000000E-03 0. -1.
         22    1    1    0    0    0  0.15491981401E+02 -0.22527474546E+02 -0.11996987346E+02  0.29856595629E+02  0.00000000000E+00 0.  1.
</event>
<event>
 5    1  0.8962567E-005  0.9118800E+02  0.7818608E-02  0.1130116E+00
         25   -1    0    0    0    0  0.00000000000E+00  0.00000000000E+00  0.99999998245E-14  0.12500000000E+03  0.12500000000E+03 0.  0.
        -11    1    3    3    0    0  0.48123624619E+02  0.91708566913E+01 -0.20839913417E+01  0.49033976782E+02  0.51100000000E-03 0.  1.
         23    2    1    0    0    0  0.69038217890E+01  0.61788723310E+01  0.24927417047E+02  0.98406441772E+02  0.94744975820E+02 0.  0.
         11    1    3    3    0    0 -0.41219802830E+02 -0.29919843604E+01  0.27011408389E+02  0.49372464990E+02  0.51100000000E-03 0. -1.
         22    1    1    0    0    0 -0.69038217890E+01 -0.61788723310E+01 -0.24927417047E+02  0.26593558228E+02  0.00000000000E+00 0.  1.
</event>
<event>
 5    1  0.8962567E-005  0.9118800E+02  0.7818608E-02  0.1130116E+00
         25   -1    0    0    0    0  0.00000000000E+00  0.00000000000E+00  0.99999998245E-14  0.12500000000E+03  0.12500000000E+03 0.  0.
        -11    1    3    3    0    0 -0.20103547578E+02  0.23785656037E+02 -0.23777602225E+02  0.39182705703E+02  0.51100000000E-03 0.  1.
         23    2    1    0    0    0  0.26024970068E+02 -0.64739212160E+01 -0.12127905842E+02  0.95567079264E+02  0.90921778557E+02 0.  0.
         11    1    3    3    0    0  0.46128517647E+02 -0.30259577253E+02  0.11649696382E+02  0.56384373561E+02  0.51100000000E-03 0. -1.
         22    1    1    0    0    0 -0.26024970068E+02  0.64739212160E+01  0.12127905842E+02  0.29432920736E+02  0.00000000000E+00 0. -1.
</event>
<event>
 5    1  0.8962567E-005  0.9118800E+02  0.7818608E-02  0.1130116E+00
         25   -1    0    0    0    0  0.00000000000E+00  0.00000000000E+00  0.99999998245E-14  0.12500000000E+03  0.12500000000E+03 0.  0.
        -11    1    3    3    0    0  0.91944505319E+01 -0.18802253187E+02 -0.35408543957E+02  0.41131832331E+02  0.51100000000E-03 0.  1.
         23    2    1    0    0    0 -0.18845455422E+01  0.27387599108E+02 -0.63246643123E+01  0.96828498878E+02  0.92639757769E+02 0.  0.
         11    1    3    3    0    0 -0.11078996074E+02  0.46189852295E+02  0.29083879644E+02  0.55696666547E+02  0.51100000000E-03 0. -1.
         22    1    1    0    0    0  0.18845455422E+01 -0.27387599108E+02  0.63246643123E+01  0.28171501122E+02  0.00000000000E+00 0. -1.
</event>
<event>
 5    1  0.8962567E-005  0.9118800E+02  0.7818608E-02  0.1130116E+00
         25   -1    0    0    0    0  0.00000000000E+00  0.00000000000E+00  0.99999998245E-14  0.12500000000E+03  0.12500000000E+03 0.  0.
        -11    1    3    3    0    0  0.16121176560E+02  0.30215950629E+02  0.17973098731E+01  0.34294698265E+02  0.51100000000E-03 0.  1.
         23    2    1    0    0    0 -0.37290714847E+01 -0.27452372273E+02 -0.82218304733E+01  0.96101259303E+02  0.91653231398E+02 0.  0.
         11    1    3    3    0    0 -0.19850248045E+02 -0.57668322902E+02 -0.10019140346E+02  0.61806561037E+02  0.51100000000E-03 0. -1.
         22    1    1    0    0    0  0.37290714847E+01  0.27452372273E+02  0.82218304733E+01  0.28898740697E+02  0.00000000000E+00 0. -1.
</event>
<event>
 5    1  0.8962567E-005  0.9118800E+02  0.7818608E-02  0.1130116E+00
         25   -1    0    0    0    0  0.00000000000E+00  0.00000000000E+00  0.99999998245E-14  0.12500000000E+03  0.12500000000E+03 0.  0.
        -11    1    3    3    0    0 -0.21057550689E+02 -0.24689920674E+02  0.31677214494E+02  0.45348192271E+02  0.51100000000E-03 0. -1.
         23    2    1    0    0    0 -0.29952412274E+02  0.61268537343E+01  0.36063433167E+02  0.77721500135E+02  0.61687721904E+02 0.  0.
         11    1    3    3    0    0 -0.88948615848E+01  0.30816774408E+02  0.43862186736E+01  0.32373307864E+02  0.51100000000E-03 0.  1.
         22    1    1    0    0    0  0.29952412274E+02 -0.61268537343E+01 -0.36063433167E+02  0.47278499865E+02  0.00000000000E+00 0. -1.
</event>
<event>
 5    1  0.8962567E-005  0.9118800E+02  0.7818608E-02  0.1130116E+00
         25   -1    0    0    0    0  0.00000000000E+00  0.00000000000E+00  0.99999998245E-14  0.12500000000E+03  0.12500000000E+03 0.  0.
        -11    1    3    3    0    0  0.17144333594E+02 -0.17341683431E+02 -0.20197776282E+02  0.31664054156E+02  0.51100000000E-03 0. -1.
         23    2    1    0    0    0  0.40542475564E+01 -0.54186567904E+00  0.34446242924E+02  0.90311757132E+02  0.83384286787E+02 0.  0.
         11    1    3    3    0    0 -0.13090086038E+02  0.16799817752E+02  0.54644019207E+02  0.58647702975E+02  0.51100000000E-03 0.  1.
         22    1    1    0    0    0 -0.40542475564E+01  0.54186567904E+00 -0.34446242924E+02  0.34688242868E+02  0.00000000000E+00 0.  1.
</event>
<event>
 5    1  0.8962567E-005  0.9118800E+02  0.7818608E-02  0.1130116E+00
         25   -1    0    0    0    0  0.00000000000E+00  0.00000000000E+00  0.99999998245E-14  0.12500000000E+03  0.12500000000E+03 0.  0.
        -11    1    3    3    0    0  0.40438501879E+02 -0.21468197030E+02 -0.12909168936E+01  0.45801991055E+02  0.51100000000E-03 0.  1.
         23    2    1    0    0    0  0.54555166801E+00 -0.22685310175E+02  0.23134458692E+02  0.92594381608E+02  0.86738661519E+02 0.  0.
         11    1    3    3    0    0 -0.39892950211E+02 -0.12171131448E+01  0.24425375586E+02  0.46792390553E+02  0.51100000000E-03 0. -1.
         22    1    1    0    0    0 -0.54555166801E+00  0.22685310175E+02 -0.23134458692E+02  0.32405618392E+02  0.00000000000E+00 0.  1.
</event>
<event>
 5    1  0.8962567E-005  0.9118800E+02  0.7818608E-02  0.1130116E+00
         25   -1    0    0    0    0  0.00000000000E+00  0.00000000000E+00  0.99999998245E-14  0.12500000000E+03  0.12500000000E+03 0.  0.
        -11    1    3    3    0    0  0.12656385652E+02 -0.78284927433E+01 -0.57702576388E+02  0.59590743564E+02  0.51100000000E-03 0.  1.
         23    2    1    0    0    0 -0.79332387411E+00 -0.15144348641E+02 -0.23966880716E+02  0.96638194173E+02  0.92382620353E+02 0.  0.
         11    1    3    3    0    0 -0.13449709526E+02 -0.73158558977E+01  0.33735695672E+02  0.37047450609E+02  0.51100000000E-03 0. -1.
         22    1    1    0    0    0  0.79332387411E+00  0.15144348641E+02  0.23966880716E+02  0.28361805827E+02  0.00000000000E+00 0.  1.
</event>
<event>
 5    1  0.8962567E-005  0.9118800E+02  0.7818608E-02  0.1130116E+00
         25   -1    0    0    0    0  0.00000000000E+00  0.00000000000E+00  0.99999998245E-14  0.12500000000E+03  0.12500000000E+03 0.  0.
        -11    1    3    3    0    0 -0.17312129002E+02  0.45579318633E+01 -0.47217329792E+02  0.50497136417E+02  0.51100000000E-03 0. -1.
         23    2    1    0    0    0  0.98970904765E+01  0.22781530841E+02 -0.18942037029E+02  0.93762981670E+02  0.88406704595E+02 0.  0.
         11    1    3    3    0    0  0.27209219479E+02  0.18223598978E+02  0.28275292762E+02  0.43265845252E+02  0.51100000000E-03 0.  1.
         22    1    1    0    0    0 -0.98970904765E+01 -0.22781530841E+02  0.18942037029E+02  0.31237018330E+02  0.00000000000E+00 0.  1.
</event>
<event>
 5    1  0.8962567E-005  0.9118800E+02  0.7818608E-02  0.1130116E+00
         25   -1    0    0    0    0  0.00000000000E+00  0.00000000000E+00  0.99999998245E-14  0.12500000000E+03  0.12500000000E+03 0.  0.
        -11    1    3    3    0    0  0.38746479688E+01 -0.46700939493E+02  0.26260997840E+01  0.46934923530E+02  0.51100000000E-03 0.  1.
         23    2    1    0    0    0 -0.22615913518E+02 -0.80699308458E+01  0.16590648394E+02  0.95813480128E+02  0.91259903748E+02 0.  0.
         11    1    3    3    0    0 -0.26490561487E+02  0.38631008647E+02  0.13964548610E+02  0.48878556598E+02  0.51100000000E-03 0. -1.
         22    1    1    0    0    0  0.22615913518E+02  0.80699308458E+01 -0.16590648394E+02  0.29186519872E+02  0.00000000000E+00 0.  1.
</event>
<event>
 5    1  0.8962567E-005  0.9118800E+02  0.7818608E-02  0.1130116E+00
         25   -1    0    0    0    0  0.00000000000E+00  0.00000000000E+00  0.99999998245E-14  0.12500000000E+03  0.12500000000E+03 0.  0.
        -11    1    3    3    0    0  0.74438500174E+01 -0.43579814350E+02  0.15824527874E+02  0.46957712940E+02  0.51100000000E-03 0.  1.
         23    2    1    0    0    0  0.27530659989E+02  0.82147578551E+00  0.80282444653E+01  0.96310894558E+02  0.91938695006E+02 0.  0.
         11    1    3    3    0    0  0.20086809971E+02  0.44401290136E+02 -0.77962834082E+01  0.49353181618E+02  0.51100000000E-03 0. -1.
         22    1    1    0    0    0 -0.27530659989E+02 -0.82147578551E+00 -0.80282444653E+01  0.28689105442E+02  0.00000000000E+00 0. -1.
</event>
<event>
 5    1  0.8962567E-005  0.9118800E+02  0.7818608E-02  0.1130116E+00
         25   -1    0    0    0    0  0.00000000000E+00  0.00000000000E+00  0.99999998245E-14  0.12500000000E+03  0.12500000000E+03 0.  0.
        -11    1    3    3    0    0 -0.13442600641E+02 -0.41232967179E+02 -0.27422107979E+01  0.43455503848E+02  0.51100000000E-03 0.  1.
         23    2    1    0    0    0  0.96615745204E+01  0.34013158346E+01 -0.24668395191E+02  0.98289614512E+02  0.94590716394E+02 0.  0.
         11    1    3    3    0    0  0.23104175162E+02  0.44634283013E+02 -0.21926184393E+02  0.54834110664E+02  0.51100000000E-03 0. -1.
         22    1    1    0    0    0 -0.96615745204E+01 -0.34013158346E+01  0.24668395191E+02  0.26710385488E+02  0.00000000000E+00 0. -1.
</event>
<event>
 5    1  0.8962567E-005  0.9118800E+02  0.7818608E-02  0.1130116E+00
         25   -1    0    0    0    0  0.00000000000E+00  0.00000000000E+00  0.99999998245E-14  0.12500000000E+03  0.12500000000E+03 0.  0.
        -11    1    3    3    0    0  0.37937581406E+02  0.27364741029E+02 -0.27292008489E+02  0.54156651135E+02  0.51100000000E-03 0. -1.
         23    2    1    0    0    0  0.21900386568E+01  0.32281852224E+01 -0.27434105680E+02  0.97289936781E+02  0.93260303427E+02 0.  0.
         11    1    3    3    0    0 -0.35747542749E+02 -0.24136555807E+02 -0.14209719069E+00  0.43133285647E+02  0.51100000000E-03 0.  1.
         22    1    1    0    0    0 -0.21900386568E+01 -0.32281852224E+01  0.27434105680E+02  0.27710063219E+02  0.00000000000E+00 0. -1.
</event>
<event>
 5    1  0.8962567E-005  0.9118800E+02  0.7818608E-02  0.1130116E+00
         25   -1    0    0    0    0  0.00000000000E+00  0.00000000000E+00  0.99999998245E-14  0.12500000000E+03  0.12500000000E+03 0.  0.
        -11    1    3    3    0    0 -0.15526718867E+02  0.24328838240E+02  0.37140869285E+00  0.28863633062E+02  0.51100000000E-03 0.  1.
         23    2    1    0    0    0  0.36292866564E+02 -0.25466536708E+00  0.10744331340E+02  0.87149271159E+02  0.78500431780E+02 0.  0.
         11    1    3    3    0    0  0.51819585431E+02 -0.24583503607E+02  0.10372922647E+02  0.58285638097E+02  0.51100000000E-03 0. -1.
         22    1    1    0    0    0 -0.36292866564E+02  0.25466536708E+00 -0.10744331340E+02  0.37850728841E+02  0.00000000000E+00 0. -1.
</event>
<event>
 5    1  0.8962567E-005  0.9118800E+02  0.7818608E-02  0.1130116E+00
         25   -1    0    0    0    0  0.00000000000E+00  0.00000000000E+00  0.99999998245E-14  0.12500000000E+03  0.12500000000E+03 0.  0.
        -11    1    3    3    0    0  0.50845638951E+02 -0.21745943434E+02 -0.18964980390E+01  0.55333188606E+02  0.51100000000E-03 0.  1.
         23    2    1    0    0    0  0.24921448135E+02  0.56834917184E+01  0.13497820498E+02  0.96093740929E+02  0.91642976994E+02 0.  0.
         11    1    3    3    0    0 -0.25924190816E+02  0.27429435152E+02  0.15394318537E+02  0.40760552324E+02  0.51100000000E-03 0. -1.
         22    1    1    0    0    0 -0.24921448135E+02 -0.56834917184E+01 -0.13497820498E+02  0.28906259071E+02  0.00000000000E+00 0.  1.
</event>
<event>
 5    1  0.8962567E-005  0.9118800E+02  0.7818608E-02  0.1130116E+00
         25   -1    0    0    0    0  0.00000000000E+00  0.00000000000E+00  0.99999998245E-14  0.12500000000E+03  0.12500000000E+03 0.  0.
        -11    1    3    3    0    0 -0.35798232282E+01 -0.38531750068E+02  0.22196747362E+02  0.44611730423E+02  0.51100000000E-03 0.  1.
         23    2    1    0    0    0 -0.12119162634E+02 -0.16752674632E+02 -0.22118219115E+02  0.94722255251E+02  0.89752792785E+02 0.  0.
         11    1    3    3    0    0 -0.85393394054E+01  0.21779075437E+02 -0.44314966477E+02  0.50110524828E+02  0.51100000000E-03 0. -1.
         22    1    1    0    0    0  0.12119162634E+02  0.16752674632E+02  0.22118219115E+02  0.30277744749E+02  0.00000000000E+00 0.  1.
</event>
<event>
 5    1  0.8962567E-005  0.9118800E+02  0.7818608E-02  0.1130116E+00
         25   -1    0    0    0    0  0.00000000000E+00  0.00000000000E+00  0.99999998245E-14  0.12500000000E+03  0.12500000000E+03 0.  0.
        -11    1    3    3    0    0  0.23626391675E+02  0.86256527390E+01 -0.39074882143E+02  0.46469933113E+02  0.51100000000E-03 0.  1.
         23    2    1    0    0    0 -0.13325465334E+02  0.24168097706E+02 -0.11634385456E+02  0.95049642773E+02  0.90207597758E+02 0.  0.
         11    1    3    3    0    0 -0.36951857009E+02  0.15542444967E+02  0.27440496687E+02  0.48579709660E+02  0.51100000000E-03 0. -1.
         22    1    1    0    0    0  0.13325465334E+02 -0.24168097706E+02  0.11634385456E+02  0.29950357227E+02  0.00000000000E+00 0. -1.
</event>
