<event>
 5    1  0.6924836E-004  0.9118800E+02  0.7818608E-02  0.1130116E+00
         25   -1    0    0    0    0  0.00000000000E+00  0.00000000000E+00  0.99999998245E-14  0.12500000000E+03  0.12500000000E+03 0.  0.
        -13    1    3    3    0    0  0.14781898026E+02  0.48387804032E+02 -0.16282315117E+02  0.53150814085E+02  0.10566000000E+00 0. -1.
         23    2    1    0    0    0 -0.16074749276E+02  0.18499135562E+02 -0.15275652096E+02  0.96121614869E+02  0.91680988854E+02 0.  0.
         13    1    3    3    0    0 -0.30856647301E+02 -0.29888668469E+02  0.10066630216E+01  0.42970800784E+02  0.10566000000E+00 0.  1.
         22    1    1    0    0    0  0.16074749276E+02 -0.18499135562E+02  0.15275652096E+02  0.28878385131E+02  0.00000000000E+00 0. -1.
</event>
<event>
 5    1  0.6924836E-004  0.9118800E+02  0.7818608E-02  0.1130116E+00
         25   -1    0    0    0    0  0.00000000000E+00  0.00000000000E+00  0.99999998245E-14  0.12500000000E+03  0.12500000000E+03 0.  0.
        -13    1    3    3    0    0  0.69033597969E+01 -0.58055279134E+02 -0.18503507091E+02  0.61322612065E+02  0.10566000000E+00 0.  1.
         23    2    1    0    0    0 -0.28260991939E+01 -0.23939170318E+02 -0.14105999781E+02  0.97070625822E+02  0.92965888666E+02 0.  0.
         13    1    3    3    0    0 -0.97294589908E+01  0.34116108815E+02  0.43975073108E+01  0.35748013756E+02  0.10566000000E+00 0. -1.
         22    1    1    0    0    0  0.28260991939E+01  0.23939170318E+02  0.14105999781E+02  0.27929374178E+02  0.00000000000E+00 0.  1.
</event>
<event>
 5    1  0.6924836E-004  0.9118800E+02  0.7818608E-02  0.1130116E+00
         25   -1    0    0    0    0  0.00000000000E+00  0.00000000000E+00  0.99999998245E-14  0.12500000000E+03  0.12500000000E+03 0.  0.
        -13    1    3    3    0    0  0.41219852277E+02  0.30291527356E+02  0.23542907666E+02  0.56311033703E+02  0.10566000000E+00 0. -1.
         23    2    1    0    0    0  0.19522643504E+02 -0.30127429099E+01  0.21042605623E+02  0.96138234971E+02  0.91703646289E+02 0.  0.
         13    1    3    3    0    0 -0.21697208773E+02 -0.33304270266E+02 -0.25003020429E+01  0.39827201268E+02  0.10566000000E+00 0.  1.
         22    1    1    0    0    0 -0.19522643504E+02  0.30127429099E+01 -0.21042605623E+02  0.28861765029E+02  0.00000000000E+00 0. -1.
</event>
<event>
 5    1  0.6924836E-004  0.9118800E+02  0.7818608E-02  0.1130116E+00
         25   -1    0    0    0    0  0.00000000000E+00  0.00000000000E+00  0.99999998245E-14  0.12500000000E+03  0.12500000000E+03 0.  0.
        -13    1    3    3    0    0 -0.25112743978E+02 -0.32784582659E+02  0.85122689566E+01  0.42165728466E+02  0.10566000000E+00 0. -1.
         23    2    1    0    0    0 -0.21442040302E+02  0.16318991484E+02 -0.11993715409E+02  0.95505597401E+02  0.90837213466E+02 0.  0.
         13    1    3    3    0    0  0.36707036760E+01  0.49103574144E+02 -0.20505984366E+02  0.53339868935E+02  0.10566000000E+00 0.  1.
         22    1    1    0    0    0  0.21442040302E+02 -0.16318991484E+02  0.11993715409E+02  0.29494402599E+02  0.00000000000E+00 0.  1.
</event>
<event>
 5    1  0.6924836E-004  0.9118800E+02  0.7818608E-02  0.1130116E+00
         25   -1    0    0    0    0  0.00000000000E+00  0.00000000000E+00  0.99999998245E-14  0.12500000000E+03  0.12500000000E+03 0.  0.
        -13    1    3    3    0    0 -0.76200671304E+01  0.49716633714E+02 -0.28294429924E+02  0.57709574766E+02  0.10566000000E+00 0.  1.
         23    2    1    0    0    0 -0.13985313726E+01  0.30453008690E+02  0.23364761412E+01  0.94425488572E+02  0.89338525526E+02 0.  0.
         13    1    3    3    0    0  0.62215357578E+01 -0.19263625024E+02  0.30630906065E+02  0.36715913807E+02  0.10566000000E+00 0. -1.
         22    1    1    0    0    0  0.13985313726E+01 -0.30453008690E+02 -0.23364761412E+01  0.30574511428E+02  0.00000000000E+00 0.  1.
</event>
<event>
 5    1  0.6924836E-004  0.9118800E+02  0.7818608E-02  0.1130116E+00
         25   -1    0    0    0    0  0.00000000000E+00  0.00000000000E+00  0.99999998245E-14  0.12500000000E+03  0.12500000000E+03 0.  0.
        -13    1    3    3    0    0 -0.21111439236E+02 -0.38903883995E+01 -0.32274630923E+02  0.38761978197E+02  0.10566000000E+00 0.  1.
         23    2    1    0    0    0  0.18601207886E+02 -0.22571214291E+02  0.37122694865E+01  0.95517028743E+02  0.90852942637E+02 0.  0.
         13    1    3    3    0    0  0.39712647122E+02 -0.18680825892E+02  0.35986900409E+02  0.56755050546E+02  0.10566000000E+00 0. -1.
         22    1    1    0    0    0 -0.18601207886E+02  0.22571214291E+02 -0.37122694865E+01  0.29482971257E+02  0.00000000000E+00 0. -1.
</event>
<event>
 5    1  0.6924836E-004  0.9118800E+02  0.7818608E-02  0.1130116E+00
         25   -1    0    0    0    0  0.00000000000E+00  0.00000000000E+00  0.99999998245E-14  0.12500000000E+03  0.12500000000E+03 0.  0.
        -13    1    3    3    0    0  0.40936629906E+02 -0.14699463407E+02 -0.19694629322E+02  0.47746952580E+02  0.10566000000E+00 0. -1.
         23    2    1    0    0    0  0.18751734172E+02 -0.12861507306E+02  0.20945512027E+02  0.94084625529E+02  0.88860319503E+02 0.  0.
         13    1    3    3    0    0 -0.22184895734E+02  0.18379561007E+01  0.40640141349E+02  0.46337672948E+02  0.10566000000E+00 0.  1.
         22    1    1    0    0    0 -0.18751734172E+02  0.12861507306E+02 -0.20945512027E+02  0.30915374471E+02  0.00000000000E+00 0. -1.
</event>
<event>
 5    1  0.6924836E-004  0.9118800E+02  0.7818608E-02  0.1130116E+00
         25   -1    0    0    0    0  0.00000000000E+00  0.00000000000E+00  0.99999998245E-14  0.12500000000E+03  0.12500000000E+03 0.  0.
        -13    1    3    3    0    0  0.29031924057E+02 -0.25726246512E+02  0.45595549945E+02  0.59863659368E+02  0.10566000000E+00 0.  1.
         23    2    1    0    0    0  0.90847154776E+01 -0.19297304514E+01  0.27881650110E+02  0.95612207845E+02  0.90983800543E+02 0.  0.
         13    1    3    3    0    0 -0.19947208580E+02  0.23796516061E+02 -0.17713899835E+02  0.35748548477E+02  0.10566000000E+00 0. -1.
         22    1    1    0    0    0 -0.90847154776E+01  0.19297304514E+01 -0.27881650110E+02  0.29387792155E+02  0.00000000000E+00 0.  1.
</event>
<event>
 5    1  0.6924836E-004  0.9118800E+02  0.7818608E-02  0.1130116E+00
         25   -1    0    0    0    0  0.00000000000E+00  0.00000000000E+00  0.99999998245E-14  0.12500000000E+03  0.12500000000E+03 0.  0.
        -13    1    3    3    0    0  0.35983434635E+02  0.42749676504E+02  0.14551574711E+02  0.57741682517E+02  0.10566000000E+00 0.  1.
         23    2    1    0    0    0  0.26122526182E+02  0.12036627684E+02 -0.54906088257E+01  0.95718374952E+02  0.91129543717E+02 0.  0.
         13    1    3    3    0    0 -0.98609084526E+01 -0.30713048820E+02 -0.20042183537E+02  0.37976692435E+02  0.10566000000E+00 0. -1.
         22    1    1    0    0    0 -0.26122526182E+02 -0.12036627684E+02  0.54906088257E+01  0.29281625048E+02  0.00000000000E+00 0.  1.
</event>
<event>
 5    1  0.6924836E-004  0.9118800E+02  0.7818608E-02  0.1130116E+00
         25   -1    0    0    0    0  0.00000000000E+00  0.00000000000E+00  0.99999998245E-14  0.12500000000E+03  0.12500000000E+03 0.  0.
        -13    1    3    3    0    0  0.25908698842E+02  0.25712555520E+02  0.52574136472E+01  0.36878825217E+02  0.10566000000E+00 0. -1.
         23    2    1    0    0    0  0.64102682740E+01 -0.27411733737E+02 -0.93733640935E+01  0.95329229193E+02  0.90594190202E+02 0.  0.
         13    1    3    3    0    0 -0.19498430568E+02 -0.53124289257E+02 -0.14630777741E+02  0.58450403977E+02  0.10566000000E+00 0.  1.
         22    1    1    0    0    0 -0.64102682740E+01  0.27411733737E+02  0.93733640935E+01  0.29670770807E+02  0.00000000000E+00 0.  1.
</event>
<event>
 5    1  0.6924836E-004  0.9118800E+02  0.7818608E-02  0.1130116E+00
         25   -1    0    0    0    0  0.00000000000E+00  0.00000000000E+00  0.99999998245E-14  0.12500000000E+03  0.12500000000E+03 0.  0.
        -13    1    3    3    0    0 -0.16145761072E+02 -0.28717961077E+02 -0.87084115498E+01  0.34077184225E+02  0.10566000000E+00 0. -1.
         23    2    1    0    0    0  0.27619668972E+02 -0.15867135406E+02 -0.27021644579E+02  0.83229419732E+02  0.71988575018E+02 0.  0.
         13    1    3    3    0    0  0.43765430044E+02  0.12850825670E+02 -0.18313233029E+02  0.49152235507E+02  0.10566000000E+00 0.  1.
         22    1    1    0    0    0 -0.27619668972E+02  0.15867135406E+02  0.27021644579E+02  0.41770580268E+02  0.00000000000E+00 0.  1.
</event>
<event>
 5    1  0.6924836E-004  0.9118800E+02  0.7818608E-02  0.1130116E+00
         25   -1    0    0    0    0  0.00000000000E+00  0.00000000000E+00  0.99999998245E-14  0.12500000000E+03  0.12500000000E+03 0.  0.
        -13    1    3    3    0    0 -0.38995197882E+02  0.47123399557E+02  0.78522418989E+01  0.61667731518E+02  0.10566000000E+00 0. -1.
         23    2    1    0    0    0 -0.21607212254E+02  0.19334724416E+02 -0.21094607473E+01  0.95928484486E+02  0.91417291151E+02 0.  0.
         13    1    3    3    0    0  0.17387985628E+02 -0.27788675141E+02 -0.99617026462E+01  0.34260752968E+02  0.10566000000E+00 0.  1.
         22    1    1    0    0    0  0.21607212254E+02 -0.19334724416E+02  0.21094607473E+01  0.29071515514E+02  0.00000000000E+00 0. -1.
</event>
<event>
 5    1  0.6924836E-004  0.9118800E+02  0.7818608E-02  0.1130116E+00
         25   -1    0    0    0    0  0.00000000000E+00  0.00000000000E+00  0.99999998245E-14  0.12500000000E+03  0.12500000000E+03 0.  0.
        -13    1    3    3    0    0  0.11953413208E+02  0.57889698418E+02 -0.17666617670E+02  0.61694584967E+02  0.10566000000E+00 0.  1.
         23    2    1    0    0    0  0.13580420026E+02  0.36138475568E+02 -0.78975276444E+01  0.85594566779E+02  0.75984483250E+02 0.  0.
         13    1    3    3    0    0  0.16270068174E+01 -0.21751222850E+02  0.97690900257E+01  0.23899981812E+02  0.10566000000E+00 0. -1.
         22    1    1    0    0    0 -0.13580420026E+02 -0.36138475568E+02  0.78975276444E+01  0.39405433221E+02  0.00000000000E+00 0.  1.
</event>
<event>
 5    1  0.6924836E-004  0.9118800E+02  0.7818608E-02  0.1130116E+00
         25   -1    0    0    0    0  0.00000000000E+00  0.00000000000E+00  0.99999998245E-14  0.12500000000E+03  0.12500000000E+03 0.  0.
        -13    1    3    3    0    0 -0.12771006584E+01 -0.33517408547E+01 -0.37643748518E+02  0.37814390374E+02  0.10566000000E+00 0. -1.
         23    2    1    0    0    0  0.25727090652E+02  0.93470162682E+01  0.11500936720E+02  0.95309573059E+02  0.90567065011E+02 0.  0.
         13    1    3    3    0    0  0.27004191310E+02  0.12698757123E+02  0.49144685238E+02  0.57495182685E+02  0.10566000000E+00 0.  1.
         22    1    1    0    0    0 -0.25727090652E+02 -0.93470162682E+01 -0.11500936720E+02  0.29690426941E+02  0.00000000000E+00 0.  1.
</event>
<event>
 5    1  0.6924836E-004  0.9118800E+02  0.7818608E-02  0.1130116E+00
         25   -1    0    0    0    0  0.00000000000E+00  0.00000000000E+00  0.99999998245E-14  0.12500000000E+03  0.12500000000E+03 0.  0.
        -13    1    3    3    0    0 -0.21281953169E+02  0.44708513907E+02  0.21672674723E+02  0.54050797776E+02  0.10566000000E+00 0. -1.
         23    2    1    0    0    0 -0.94339029292E+01  0.27356530423E+02 -0.11944611458E+02  0.93694217400E+02  0.88309423903E+02 0.  0.
         13    1    3    3    0    0  0.11848050240E+02 -0.17351983484E+02 -0.33617286181E+02  0.39643419625E+02  0.10566000000E+00 0.  1.
         22    1    1    0    0    0  0.94339029292E+01 -0.27356530423E+02  0.11944611458E+02  0.31305782600E+02  0.00000000000E+00 0. -1.
</event>
<event>
 5    1  0.6924836E-004  0.9118800E+02  0.7818608E-02  0.1130116E+00
         25   -1    0    0    0    0  0.00000000000E+00  0.00000000000E+00  0.99999998245E-14  0.12500000000E+03  0.12500000000E+03 0.  0.
        -13    1    3    3    0    0 -0.27144454935E+02 -0.24333477720E+02 -0.21023490249E+02  0.42082512734E+02  0.10566000000E+00 0.  1.
         23    2    1    0    0    0  0.62498907889E+01  0.18895198357E+02 -0.20097770852E+02  0.96715551109E+02  0.92487230347E+02 0.  0.
         13    1    3    3    0    0  0.33394345724E+02  0.43228676077E+02  0.92571939732E+00  0.54633038376E+02  0.10566000000E+00 0. -1.
         22    1    1    0    0    0 -0.62498907889E+01 -0.18895198357E+02  0.20097770852E+02  0.28284448891E+02  0.00000000000E+00 0. -1.
</event>
<event>
 5    1  0.6924836E-004  0.9118800E+02  0.7818608E-02  0.1130116E+00
         25   -1    0    0    0    0  0.00000000000E+00  0.00000000000E+00  0.99999998245E-14  0.12500000000E+03  0.12500000000E+03 0.  0.
        -13    1    3    3    0    0 -0.46983573873E+02 -0.34695762622E+01  0.22800380888E+02  0.52338921521E+02  0.10566000000E+00 0. -1.
         23    2    1    0    0    0 -0.20369256077E+02  0.21661373111E+02  0.38140207488E+00  0.95263370303E+02  0.90503273840E+02 0.  0.
         13    1    3    3    0    0  0.26614317796E+02  0.25130949373E+02 -0.22418978813E+02  0.42924448782E+02  0.10566000000E+00 0.  1.
         22    1    1    0    0    0  0.20369256077E+02 -0.21661373111E+02 -0.38140207488E+00  0.29736629697E+02  0.00000000000E+00 0. -1.
</event>
<event>
 5    1  0.6924836E-004  0.9118800E+02  0.7818608E-02  0.1130116E+00
         25   -1    0    0    0    0  0.00000000000E+00  0.00000000000E+00  0.99999998245E-14  0.12500000000E+03  0.12500000000E+03 0.  0.
        -13    1    3    3    0    0  0.12740488180E+02  0.35442615363E+02  0.27240135691E+01  0.37761494102E+02  0.10566000000E+00 0. -1.
         23    2    1    0    0    0  0.17835376363E+01 -0.11500647987E+02 -0.27830295851E+02  0.94834269812E+02  0.89908661724E+02 0.  0.
         13    1    3    3    0    0 -0.10956950543E+02 -0.46943263350E+02 -0.30554309420E+02  0.57072775711E+02  0.10566000000E+00 0.  1.
         22    1    1    0    0    0 -0.17835376363E+01  0.11500647987E+02  0.27830295851E+02  0.30165730188E+02  0.00000000000E+00 0.  1.
</event>
<event>
 5    1  0.6924836E-004  0.9118800E+02  0.7818608E-02  0.1130116E+00
         25   -1    0    0    0    0  0.00000000000E+00  0.00000000000E+00  0.99999998245E-14  0.12500000000E+03  0.12500000000E+03 0.  0.
        -13    1    3    3    0    0  0.21009729063E+02  0.15334827482E+02  0.22312822731E+02  0.34270087123E+02  0.10566000000E+00 0.  1.
         23    2    1    0    0    0 -0.25120334973E+02 -0.34592612200E+01 -0.14113233980E+02  0.95979643512E+02  0.91487217019E+02 0.  0.
         13    1    3    3    0    0 -0.46130064036E+02 -0.18794088702E+02 -0.36426056711E+02  0.61709556388E+02  0.10566000000E+00 0. -1.
         22    1    1    0    0    0  0.25120334973E+02  0.34592612200E+01  0.14113233980E+02  0.29020356488E+02  0.00000000000E+00 0. -1.
</event>
<event>
 5    1  0.6924836E-004  0.9118800E+02  0.7818608E-02  0.1130116E+00
         25   -1    0    0    0    0  0.00000000000E+00  0.00000000000E+00  0.99999998245E-14  0.12500000000E+03  0.12500000000E+03 0.  0.
        -13    1    3    3    0    0 -0.40932785592E+02 -0.30012977364E+02  0.19151171991E+02  0.54249887550E+02  0.10566000000E+00 0. -1.
         23    2    1    0    0    0 -0.29701295593E+02 -0.54765912586E+01 -0.92368395303E+01  0.93417105639E+02  0.87916303435E+02 0.  0.
         13    1    3    3    0    0  0.11231489999E+02  0.24536386105E+02 -0.28388011521E+02  0.39167218089E+02  0.10566000000E+00 0.  1.
         22    1    1    0    0    0  0.29701295593E+02  0.54765912586E+01  0.92368395303E+01  0.31582894361E+02  0.00000000000E+00 0. -1.
</event>
<event>
 5    1  0.6924836E-004  0.9118800E+02  0.7818608E-02  0.1130116E+00
         25   -1    0    0    0    0  0.00000000000E+00  0.00000000000E+00  0.99999998245E-14  0.12500000000E+03  0.12500000000E+03 0.  0.
        -13    1    3    3    0    0 -0.82848721750E+00 -0.26772448518E+02 -0.13410499423E+02  0.29955017101E+02  0.10566000000E+00 0. -1.
         23    2    1    0    0    0 -0.35573660624E+01  0.22495050366E+01  0.36771078261E+02  0.87988821652E+02  0.79826094813E+02 0.  0.
         13    1    3    3    0    0 -0.27288788449E+01  0.29021953554E+02  0.50181577684E+02  0.58033804551E+02  0.10566000000E+00 0.  1.
         22    1    1    0    0    0  0.35573660624E+01 -0.22495050366E+01 -0.36771078261E+02  0.37011178348E+02  0.00000000000E+00 0.  1.
</event>
<event>
 5    1  0.6924836E-004  0.9118800E+02  0.7818608E-02  0.1130116E+00
         25   -1    0    0    0    0  0.00000000000E+00  0.00000000000E+00  0.99999998245E-14  0.12500000000E+03  0.12500000000E+03 0.  0.
        -13    1    3    3    0    0  0.90262692548E+01  0.51874795070E+02  0.20398615803E+02  0.56467535726E+02  0.10566000000E+00 0.  1.
         23    2    1    0    0    0  0.21683650286E+02  0.19130654974E+02  0.22255995468E+01  0.95998001055E+02  0.91512295697E+02 0.  0.
         13    1    3    3    0    0  0.12657381032E+02 -0.32744140096E+02 -0.18173016256E+02  0.39530465329E+02  0.10566000000E+00 0. -1.
         22    1    1    0    0    0 -0.21683650286E+02 -0.19130654974E+02 -0.22255995468E+01  0.29001998945E+02  0.00000000000E+00 0.  1.
</event>
<event>
 5    1  0.6924836E-004  0.9118800E+02  0.7818608E-02  0.1130116E+00
         25   -1    0    0    0    0  0.00000000000E+00  0.00000000000E+00  0.99999998245E-14  0.12500000000E+03  0.12500000000E+03 0.  0.
        -13    1    3    3    0    0  0.32941227063E+02 -0.13131629029E+02 -0.37310622908E+02  0.51474827509E+02  0.10566000000E+00 0.  1.
         23    2    1    0    0    0 -0.95373269217E+01 -0.15007534521E+02 -0.22102078231E+02  0.96632967033E+02  0.92375547404E+02 0.  0.
         13    1    3    3    0    0 -0.42478553984E+02 -0.18759054921E+01  0.15208544676E+02  0.45158139524E+02  0.10566000000E+00 0. -1.
         22    1    1    0    0    0  0.95373269217E+01  0.15007534521E+02  0.22102078231E+02  0.28367032967E+02  0.00000000000E+00 0. -1.
</event>
<event>
 5    1  0.6924836E-004  0.9118800E+02  0.7818608E-02  0.1130116E+00
         25   -1    0    0    0    0  0.00000000000E+00  0.00000000000E+00  0.99999998245E-14  0.12500000000E+03  0.12500000000E+03 0.  0.
        -13    1    3    3    0    0 -0.56553828609E+01 -0.87145143186E+01  0.21095896388E+02  0.23515401837E+02  0.10566000000E+00 0. -1.
         23    2    1    0    0    0 -0.35322440536E+02  0.31398843454E+02 -0.14074070480E+00  0.77739213045E+02  0.61723603761E+02 0.  0.
         13    1    3    3    0    0 -0.29667057675E+02  0.40113357772E+02 -0.21236637093E+02  0.54223811208E+02  0.10566000000E+00 0.  1.
         22    1    1    0    0    0  0.35322440536E+02 -0.31398843454E+02  0.14074070480E+00  0.47260786955E+02  0.00000000000E+00 0.  1.
</event>
<event>
 5    1  0.6924836E-004  0.9118800E+02  0.7818608E-02  0.1130116E+00
         25   -1    0    0    0    0  0.00000000000E+00  0.00000000000E+00  0.99999998245E-14  0.12500000000E+03  0.12500000000E+03 0.  0.
        -13    1    3    3    0    0 -0.28871706966E+02  0.51101348881E+02  0.16842526617E+02  0.61062305782E+02  0.10566000000E+00 0. -1.
         23    2    1    0    0    0 -0.90719106467E+01  0.25379103942E+02  0.16250613724E+02  0.93528093066E+02  0.88073964748E+02 0.  0.
         13    1    3    3    0    0  0.19799796319E+02 -0.25722244939E+02 -0.59191289234E+00  0.32465787283E+02  0.10566000000E+00 0.  1.
         22    1    1    0    0    0  0.90719106467E+01 -0.25379103942E+02 -0.16250613724E+02  0.31471906934E+02  0.00000000000E+00 0. -1.
</event>
<event>
 5    1  0.6924836E-004  0.9118800E+02  0.7818608E-02  0.1130116E+00
         25   -1    0    0    0    0  0.00000000000E+00  0.00000000000E+00  0.99999998245E-14  0.12500000000E+03  0.12500000000E+03 0.  0.
        -13    1    3    3    0    0  0.73561668799E+01 -0.24748614399E+02 -0.45396631918E+02  0.52225209040E+02  0.10566000000E+00 0.  1.
         23    2    1    0    0    0 -0.18590519213E+02 -0.18029198752E+02 -0.86739828227E+01  0.97688877902E+02  0.93793493781E+02 0.  0.
         13    1    3    3    0    0 -0.25946686093E+02  0.67194156469E+01  0.36722649095E+02  0.45463668862E+02  0.10566000000E+00 0. -1.
         22    1    1    0    0    0  0.18590519213E+02  0.18029198752E+02  0.86739828227E+01  0.27311122098E+02  0.00000000000E+00 0.  1.
</event>
<event>
 5    1  0.6924836E-004  0.9118800E+02  0.7818608E-02  0.1130116E+00
         25   -1    0    0    0    0  0.00000000000E+00  0.00000000000E+00  0.99999998245E-14  0.12500000000E+03  0.12500000000E+03 0.  0.
        -13    1    3    3    0    0  0.21477325544E+02  0.26284300573E+02  0.32730146542E+02  0.47153087129E+02  0.10566000000E+00 0. -1.
         23    2    1    0    0    0  0.19552544850E+02 -0.17806513330E+02  0.13734996949E+02  0.95200267312E+02  0.90416076159E+02 0.  0.
         13    1    3    3    0    0 -0.19247806941E+01 -0.44090813903E+02 -0.18995149593E+02  0.48047180182E+02  0.10566000000E+00 0.  1.
         22    1    1    0    0    0 -0.19552544850E+02  0.17806513330E+02 -0.13734996949E+02  0.29799732688E+02  0.00000000000E+00 0. -1.
</event>
<event>
 5    1  0.6924836E-004  0.9118800E+02  0.7818608E-02  0.1130116E+00
         25   -1    0    0    0    0  0.00000000000E+00  0.00000000000E+00  0.99999998245E-14  0.12500000000E+03  0.12500000000E+03 0.  0.
        -13    1    3    3    0    0  0.36085112014E+02 -0.53876466287E+01 -0.36129347176E+00  0.36487035262E+02  0.10566000000E+00 0. -1.
         23    2    1    0    0    0 -0.19485665673E+02 -0.11899272455E+02  0.18586641049E+02  0.95559431440E+02  0.90911263659E+02 0.  0.
         13    1    3    3    0    0 -0.55570777686E+02 -0.65116258261E+01  0.18947934520E+02  0.59072396178E+02  0.10566000000E+00 0.  1.
         22    1    1    0    0    0  0.19485665673E+02  0.11899272455E+02 -0.18586641049E+02  0.29440568560E+02  0.00000000000E+00 0.  1.
</event>
<event>
 5    1  0.6924836E-004  0.9118800E+02  0.7818608E-02  0.1130116E+00
         25   -1    0    0    0    0  0.00000000000E+00  0.00000000000E+00  0.99999998245E-14  0.12500000000E+03  0.12500000000E+03 0.  0.
        -13    1    3    3    0    0 -0.14128513062E+02 -0.13806935709E+00  0.58990046285E+02  0.60658640516E+02  0.10566000000E+00 0. -1.
         23    2    1    0    0    0 -0.14865946962E+02 -0.66365245148E+01  0.25756775738E+02  0.94529500609E+02  0.89483937957E+02 0.  0.
         13    1    3    3    0    0 -0.73743390043E+00 -0.64984551577E+01 -0.33233270547E+02  0.33870860093E+02  0.10566000000E+00 0.  1.
         22    1    1    0    0    0  0.14865946962E+02  0.66365245148E+01 -0.25756775738E+02  0.30470499391E+02  0.00000000000E+00 0. -1.
</event>
<event>
 5    1  0.6924836E-004  0.9118800E+02  0.7818608E-02  0.1130116E+00
         25   -1    0    0    0    0  0.00000000000E+00  0.00000000000E+00  0.99999998245E-14  0.12500000000E+03  0.12500000000E+03 0.  0.
        -13    1    3    3    0    0  0.77115605475E+01 -0.27644379601E+02  0.12451976843E+02  0.31284865046E+02  0.10566000000E+00 0.  1.
         23    2    1    0    0    0 -0.37580916979E+02  0.10697007357E+01  0.13858690098E+02  0.84930898789E+02  0.74884742753E+02 0.  0.
         13    1    3    3    0    0 -0.45292477527E+02  0.28714080337E+02  0.14067132548E+01  0.53646033743E+02  0.10566000000E+00 0. -1.
         22    1    1    0    0    0  0.37580916979E+02 -0.10697007357E+01 -0.13858690098E+02  0.40069101211E+02  0.00000000000E+00 0. -1.
</event>
<event>
 5    1  0.6924836E-004  0.9118800E+02  0.7818608E-02  0.1130116E+00
         25   -1    0    0    0    0  0.00000000000E+00  0.00000000000E+00  0.99999998245E-14  0.12500000000E+03  0.12500000000E+03 0.  0.
        -13    1    3    3    0    0 -0.55341116071E+02 -0.22869048152E+02 -0.15139012965E+02  0.61764337355E+02  0.10566000000E+00 0.  1.
         23    2    1    0    0    0 -0.28415491930E+02 -0.57721172448E+01 -0.31698196166E+01  0.95831433434E+02  0.91284491337E+02 0.  0.
         13    1    3    3    0    0  0.26925624141E+02  0.17096930907E+02  0.11969193348E+02  0.34067096079E+02  0.10566000000E+00 0. -1.
         22    1    1    0    0    0  0.28415491930E+02  0.57721172448E+01  0.31698196166E+01  0.29168566566E+02  0.00000000000E+00 0.  1.
</event>
<event>
 5    1  0.6924836E-004  0.9118800E+02  0.7818608E-02  0.1130116E+00
         25   -1    0    0    0    0  0.00000000000E+00  0.00000000000E+00  0.99999998245E-14  0.12500000000E+03  0.12500000000E+03 0.  0.
        -13    1    3    3    0    0  0.85937882822E+01  0.12564944748E+02  0.12823584006E+02  0.19904434288E+02  0.10566000000E+00 0.  1.
         23    2    1    0    0    0 -0.19100433257E+02 -0.39381720956E+02 -0.37764721962E+01  0.81068140964E+02  0.68132483010E+02 0.  0.
         13    1    3    3    0    0 -0.27694221539E+02 -0.51946665704E+02 -0.16600056202E+02  0.61163706676E+02  0.10566000000E+00 0. -1.
         22    1    1    0    0    0  0.19100433257E+02  0.39381720956E+02  0.37764721962E+01  0.43931859036E+02  0.00000000000E+00 0. -1.
</event>
<event>
 5    1  0.6924836E-004  0.9118800E+02  0.7818608E-02  0.1130116E+00
         25   -1    0    0    0    0  0.00000000000E+00  0.00000000000E+00  0.99999998245E-14  0.12500000000E+03  0.12500000000E+03 0.  0.
        -13    1    3    3    0    0 -0.65816034896E+01 -0.35705569978E+02  0.82532278173E+01  0.37233481779E+02  0.10566000000E+00 0.  1.
         23    2    1    0    0    0  0.36631994772E+01  0.95938106643E+01 -0.27370772163E+02  0.95766125774E+02  0.91195018742E+02 0.  0.
         13    1    3    3    0    0  0.10244802967E+02  0.45299380642E+02 -0.35623999981E+02  0.58532643995E+02  0.10566000000E+00 0. -1.
         22    1    1    0    0    0 -0.36631994772E+01 -0.95938106643E+01  0.27370772163E+02  0.29233874226E+02  0.00000000000E+00 0. -1.
</event>
<event>
 5    1  0.6924836E-004  0.9118800E+02  0.7818608E-02  0.1130116E+00
         25   -1    0    0    0    0  0.00000000000E+00  0.00000000000E+00  0.99999998245E-14  0.12500000000E+03  0.12500000000E+03 0.  0.
        -13    1    3    3    0    0 -0.19094105653E+01 -0.25284925745E+02 -0.31305337101E+02  0.40286581063E+02  0.10566000000E+00 0. -1.
         23    2    1    0    0    0 -0.22983392835E+02  0.52067610553E+01  0.13027532989E+02  0.98073000117E+02  0.94304029762E+02 0.  0.
         13    1    3    3    0    0 -0.21073982270E+02  0.30491686801E+02  0.44332870090E+02  0.57786419055E+02  0.10566000000E+00 0.  1.
         22    1    1    0    0    0  0.22983392835E+02 -0.52067610553E+01 -0.13027532989E+02  0.26926999883E+02  0.00000000000E+00 0.  1.
</event>
<event>
 5    1  0.6924836E-004  0.9118800E+02  0.7818608E-02  0.1130116E+00
         25   -1    0    0    0    0  0.00000000000E+00  0.00000000000E+00  0.99999998245E-14  0.12500000000E+03  0.12500000000E+03 0.  0.
        -13    1    3    3    0    0  0.41261306732E+02 -0.13245968720E+02  0.65715866643E+00  0.43340444646E+02  0.10566000000E+00 0. -1.
         23    2    1    0    0    0 -0.24450305484E+01 -0.53590425941E+01 -0.28125703840E+02  0.96264086435E+02  0.91875032565E+02 0.  0.
         13    1    3    3    0    0 -0.43706337280E+02  0.78869261255E+01 -0.28782862507E+02  0.52923641789E+02  0.10566000000E+00 0.  1.
         22    1    1    0    0    0  0.24450305484E+01  0.53590425941E+01  0.28125703840E+02  0.28735913565E+02  0.00000000000E+00 0.  1.
</event>
<event>
 5    1  0.6924836E-004  0.9118800E+02  0.7818608E-02  0.1130116E+00
         25   -1    0    0    0    0  0.00000000000E+00  0.00000000000E+00  0.99999998245E-14  0.12500000000E+03  0.12500000000E+03 0.  0.
        -13    1    3    3    0    0  0.20990502038E+02  0.28647451161E+02  0.18940966278E+02  0.40249832315E+02  0.10566000000E+00 0.  1.
         23    2    1    0    0    0  0.17261723082E+01 -0.19810842403E+02  0.25340610324E+02  0.92788267989E+02  0.87017624635E+02 0.  0.
         13    1    3    3    0    0 -0.19264329730E+02 -0.48458293564E+02  0.63996440463E+01  0.52538435673E+02  0.10566000000E+00 0. -1.
         22    1    1    0    0    0 -0.17261723082E+01  0.19810842403E+02 -0.25340610324E+02  0.32211732011E+02  0.00000000000E+00 0. -1.
</event>
<event>
 5    1  0.6924836E-004  0.9118800E+02  0.7818608E-02  0.1130116E+00
         25   -1    0    0    0    0  0.00000000000E+00  0.00000000000E+00  0.99999998245E-14  0.12500000000E+03  0.12500000000E+03 0.  0.
        -13    1    3    3    0    0 -0.62682481562E+00 -0.31191306936E+02 -0.52411036763E+02  0.60993593732E+02  0.10566000000E+00 0. -1.
         23    2    1    0    0    0  0.92444892688E+01 -0.12944566531E+02 -0.24960620772E+02  0.95401774144E+02  0.90694230996E+02 0.  0.
         13    1    3    3    0    0  0.98713140845E+01  0.18246740405E+02  0.27450415991E+02  0.34408180412E+02  0.10566000000E+00 0.  1.
         22    1    1    0    0    0 -0.92444892688E+01  0.12944566531E+02  0.24960620772E+02  0.29598225856E+02  0.00000000000E+00 0. -1.
</event>
<event>
 5    1  0.6924836E-004  0.9118800E+02  0.7818608E-02  0.1130116E+00
         25   -1    0    0    0    0  0.00000000000E+00  0.00000000000E+00  0.99999998245E-14  0.12500000000E+03  0.12500000000E+03 0.  0.
        -13    1    3    3    0    0 -0.35663332435E+02 -0.22771697323E+02  0.37017000901E+01  0.42475136574E+02  0.10566000000E+00 0. -1.
         23    2    1    0    0    0  0.12829312882E+02 -0.19908658746E+02 -0.17574570523E+02  0.95507433290E+02  0.90839739775E+02 0.  0.
         13    1    3    3    0    0  0.48492645317E+02  0.28630385773E+01 -0.21276270613E+02  0.53032296716E+02  0.10566000000E+00 0.  1.
         22    1    1    0    0    0 -0.12829312882E+02  0.19908658746E+02  0.17574570523E+02  0.29492566710E+02  0.00000000000E+00 0.  1.
</event>
<event>
 5    1  0.6924836E-004  0.9118800E+02  0.7818608E-02  0.1130116E+00
         25   -1    0    0    0    0  0.00000000000E+00  0.00000000000E+00  0.99999998245E-14  0.12500000000E+03  0.12500000000E+03 0.  0.
        -13    1    3    3    0    0 -0.36289314975E+02  0.78203846243E+00 -0.18158294133E+02  0.40586460493E+02  0.10566000000E+00 0.  1.
         23    2    1    0    0    0  0.15966409718E+02 -0.17330969966E+02 -0.17068556188E+02  0.95903189701E+02  0.91382697625E+02 0.  0.
         13    1    3    3    0    0  0.52255724692E+02 -0.18113008428E+02  0.10897379447E+01  0.55316729208E+02  0.10566000000E+00 0. -1.
         22    1    1    0    0    0 -0.15966409718E+02  0.17330969966E+02  0.17068556188E+02  0.29096810299E+02  0.00000000000E+00 0. -1.
</event>
<event>
 5    1  0.6924836E-004  0.9118800E+02  0.7818608E-02  0.1130116E+00
         25   -1    0    0    0    0  0.00000000000E+00  0.00000000000E+00  0.99999998245E-14  0.12500000000E+03  0.12500000000E+03 0.  0.
        -13    1    3    3    0    0 -0.95446653742E+01 -0.35015498822E+02 -0.50573234831E+02  0.62248285439E+02  0.10566000000E+00 0.  1.
         23    2    1    0    0    0 -0.70501968782E+01 -0.13234969950E+02 -0.24034565870E+02  0.96671038456E+02  0.92427050229E+02 0.  0.
         13    1    3    3    0    0  0.24944684960E+01  0.21780528872E+02  0.26538668961E+02  0.34422753017E+02  0.10566000000E+00 0. -1.
         22    1    1    0    0    0  0.70501968782E+01  0.13234969950E+02  0.24034565870E+02  0.28328961544E+02  0.00000000000E+00 0.  1.
</event>
<event>
 5    1  0.6924836E-004  0.9118800E+02  0.7818608E-02  0.1130116E+00
         25   -1    0    0    0    0  0.00000000000E+00  0.00000000000E+00  0.99999998245E-14  0.12500000000E+03  0.12500000000E+03 0.  0.
        -13    1    3    3    0    0  0.18360534858E+02 -0.35461418762E+02 -0.26031479797E+02  0.47668339234E+02  0.10566000000E+00 0.  1.
         23    2    1    0    0    0  0.13760817565E+02 -0.18155405118E+02  0.18492223575E+02  0.95658201013E+02  0.91046967293E+02 0.  0.
         13    1    3    3    0    0 -0.45997172931E+01  0.17306013644E+02  0.44523703373E+02  0.47989861778E+02  0.10566000000E+00 0. -1.
         22    1    1    0    0    0 -0.13760817565E+02  0.18155405118E+02 -0.18492223575E+02  0.29341798987E+02  0.00000000000E+00 0. -1.
</event>
<event>
 5    1  0.6924836E-004  0.9118800E+02  0.7818608E-02  0.1130116E+00
         25   -1    0    0    0    0  0.00000000000E+00  0.00000000000E+00  0.99999998245E-14  0.12500000000E+03  0.12500000000E+03 0.  0.
        -13    1    3    3    0    0 -0.32975989992E+02  0.69120573751E+00 -0.62563934528E+01  0.33571525202E+02  0.10566000000E+00 0. -1.
         23    2    1    0    0    0  0.23436934035E+02 -0.10647641876E+02  0.15341874495E+02  0.95032763433E+02  0.90184205148E+02 0.  0.
         13    1    3    3    0    0  0.56412924027E+02 -0.11338847614E+02  0.21598267948E+02  0.61461238230E+02  0.10566000000E+00 0.  1.
         22    1    1    0    0    0 -0.23436934035E+02  0.10647641876E+02 -0.15341874495E+02  0.29967236567E+02  0.00000000000E+00 0.  1.
</event>
<event>
 5    1  0.6924836E-004  0.9118800E+02  0.7818608E-02  0.1130116E+00
         25   -1    0    0    0    0  0.00000000000E+00  0.00000000000E+00  0.99999998245E-14  0.12500000000E+03  0.12500000000E+03 0.  0.
        -13    1    3    3    0    0 -0.49933927224E+02  0.18783219628E+02  0.57937804593E+01  0.53663632784E+02  0.10566000000E+00 0.  1.
         23    2    1    0    0    0 -0.15816797579E+02  0.16829021421E+02 -0.18347509404E+02  0.95503929940E+02  0.90834918864E+02 0.  0.
         13    1    3    3    0    0  0.34117129645E+02 -0.19541982064E+01 -0.24141289863E+02  0.41840297156E+02  0.10566000000E+00 0. -1.
         22    1    1    0    0    0  0.15816797579E+02 -0.16829021421E+02  0.18347509404E+02  0.29496070060E+02  0.00000000000E+00 0.  1.
</event>
<event>
 5    1  0.6924836E-004  0.9118800E+02  0.7818608E-02  0.1130116E+00
         25   -1    0    0    0    0  0.00000000000E+00  0.00000000000E+00  0.99999998245E-14  0.12500000000E+03  0.12500000000E+03 0.  0.
        -13    1    3    3    0    0 -0.73732720681E+01  0.35765069121E+02 -0.16883082088E+01  0.36556351826E+02  0.10566000000E+00 0.  1.
         23    2    1    0    0    0  0.21844501754E+02 -0.17255445999E+02 -0.19382450165E+01  0.97094992075E+02  0.92998645253E+02 0.  0.
         13    1    3    3    0    0  0.29217773823E+02 -0.53020515120E+02 -0.24993680765E+00  0.60538640249E+02  0.10566000000E+00 0. -1.
         22    1    1    0    0    0 -0.21844501754E+02  0.17255445999E+02  0.19382450165E+01  0.27905007925E+02  0.00000000000E+00 0. -1.
</event>
<event>
 5    1  0.6924836E-004  0.9118800E+02  0.7818608E-02  0.1130116E+00
         25   -1    0    0    0    0  0.00000000000E+00  0.00000000000E+00  0.99999998245E-14  0.12500000000E+03  0.12500000000E+03 0.  0.
        -13    1    3    3    0    0 -0.98769180354E+01  0.67156783057E+01  0.58320996838E+02  0.59531535183E+02  0.10566000000E+00 0. -1.
         23    2    1    0    0    0  0.40448359075E+01 -0.74613102392E+01  0.27653438023E+02  0.96073464042E+02  0.91615315371E+02 0.  0.
         13    1    3    3    0    0  0.13921753943E+02 -0.14176988545E+02 -0.30667558815E+02  0.36541928859E+02  0.10566000000E+00 0.  1.
         22    1    1    0    0    0 -0.40448359075E+01  0.74613102392E+01 -0.27653438023E+02  0.28926535958E+02  0.00000000000E+00 0. -1.
</event>
<event>
 5    1  0.6924836E-004  0.9118800E+02  0.7818608E-02  0.1130116E+00
         25   -1    0    0    0    0  0.00000000000E+00  0.00000000000E+00  0.99999998245E-14  0.12500000000E+03  0.12500000000E+03 0.  0.
        -13    1    3    3    0    0 -0.28644453737E+02  0.17832866659E+02 -0.73443150879E+01  0.34532100882E+02  0.10566000000E+00 0.  1.
         23    2    1    0    0    0 -0.61337986322E+01  0.88365810071E+01 -0.44677683700E+02  0.79045630563E+02  0.64314909942E+02 0.  0.
         13    1    3    3    0    0  0.22510655105E+02 -0.89962856523E+01 -0.37333368612E+02  0.44513529682E+02  0.10566000000E+00 0. -1.
         22    1    1    0    0    0  0.61337986322E+01 -0.88365810071E+01  0.44677683700E+02  0.45954369437E+02  0.00000000000E+00 0.  1.
</event>
<event>
 5    1  0.6924836E-004  0.9118800E+02  0.7818608E-02  0.1130116E+00
         25   -1    0    0    0    0  0.00000000000E+00  0.00000000000E+00  0.99999998245E-14  0.12500000000E+03  0.12500000000E+03 0.  0.
        -13    1    3    3    0    0 -0.34699708513E+01 -0.23072455864E+02 -0.26756403666E+02  0.35500636875E+02  0.10566000000E+00 0.  1.
         23    2    1    0    0    0  0.26442389621E+02 -0.95709164231E+01  0.18452214781E+02  0.91365395195E+02  0.84949095338E+02 0.  0.
         13    1    3    3    0    0  0.29912360472E+02  0.13501539441E+02  0.45208618447E+02  0.55864758321E+02  0.10566000000E+00 0. -1.
         22    1    1    0    0    0 -0.26442389621E+02  0.95709164231E+01 -0.18452214781E+02  0.33634604805E+02  0.00000000000E+00 0. -1.
</event>
<event>
 5    1  0.6924836E-004  0.9118800E+02  0.7818608E-02  0.1130116E+00
         25   -1    0    0    0    0  0.00000000000E+00  0.00000000000E+00  0.99999998245E-14  0.12500000000E+03  0.12500000000E+03 0.  0.
        -13    1    3    3    0    0  0.16740593687E+02 -0.41877133876E+01  0.32123023222E+02  0.36464835189E+02  0.10566000000E+00 0. -1.
         23    2    1    0    0    0  0.83792597759E+00 -0.19637285307E+02 -0.22325856074E+02  0.95254934130E+02  0.90491621338E+02 0.  0.
         13    1    3    3    0    0 -0.15902667710E+02 -0.15449571920E+02 -0.54448879296E+02  0.58790098940E+02  0.10566000000E+00 0.  1.
         22    1    1    0    0    0 -0.83792597759E+00  0.19637285307E+02  0.22325856074E+02  0.29745065870E+02  0.00000000000E+00 0.  1.
</event>
<event>
 5    1  0.6924836E-004  0.9118800E+02  0.7818608E-02  0.1130116E+00
         25   -1    0    0    0    0  0.00000000000E+00  0.00000000000E+00  0.99999998245E-14  0.12500000000E+03  0.12500000000E+03 0.  0.
        -13    1    3    3    0    0  0.14461566539E+02 -0.37442395145E+02  0.36615553795E+02  0.54330284416E+02  0.10566000000E+00 0.  1.
         23    2    1    0    0    0  0.75987723135E+01  0.14683580636E+01  0.29530781946E+02  0.94471906407E+02  0.89403448489E+02 0.  0.
         13    1    3    3    0    0 -0.68627942255E+01  0.38910753209E+02 -0.70847718492E+01  0.40141621991E+02  0.10566000000E+00 0. -1.
         22    1    1    0    0    0 -0.75987723135E+01 -0.14683580636E+01 -0.29530781946E+02  0.30528093593E+02  0.00000000000E+00 0.  1.
</event>
<event>
 5    1  0.6924836E-004  0.9118800E+02  0.7818608E-02  0.1130116E+00
         25   -1    0    0    0    0  0.00000000000E+00  0.00000000000E+00  0.99999998245E-14  0.12500000000E+03  0.12500000000E+03 0.  0.
        -13    1    3    3    0    0  0.32934590903E+01  0.27254579594E+02  0.46078799643E+02  0.53636982784E+02  0.10566000000E+00 0.  1.
         23    2    1    0    0    0  0.12145628012E+01  0.28156973961E+02  0.31323603244E+01  0.96643307198E+02  0.92389538366E+02 0.  0.
         13    1    3    3    0    0 -0.20788962891E+01  0.90239436754E+00 -0.42946439319E+02  0.43006324414E+02  0.10566000000E+00 0. -1.
         22    1    1    0    0    0 -0.12145628012E+01 -0.28156973961E+02 -0.31323603244E+01  0.28356692802E+02  0.00000000000E+00 0.  1.
</event>
<event>
 5    1  0.6924836E-004  0.9118800E+02  0.7818608E-02  0.1130116E+00
         25   -1    0    0    0    0  0.00000000000E+00  0.00000000000E+00  0.99999998245E-14  0.12500000000E+03  0.12500000000E+03 0.  0.
        -13    1    3    3    0    0  0.79315568541E+01  0.44940172005E+02  0.44501501552E+01  0.45851321185E+02  0.10566000000E+00 0.  1.
         23    2    1    0    0    0 -0.14125263810E+02  0.60567117170E+01  0.25471430741E+02  0.95251040043E+02  0.90486242108E+02 0.  0.
         13    1    3    3    0    0 -0.22056820664E+02 -0.38883460288E+02  0.21021280586E+02  0.49399718858E+02  0.10566000000E+00 0. -1.
         22    1    1    0    0    0  0.14125263810E+02 -0.60567117170E+01 -0.25471430741E+02  0.29748959957E+02  0.00000000000E+00 0.  1.
</event>
<event>
 5    1  0.6924836E-004  0.9118800E+02  0.7818608E-02  0.1130116E+00
         25   -1    0    0    0    0  0.00000000000E+00  0.00000000000E+00  0.99999998245E-14  0.12500000000E+03  0.12500000000E+03 0.  0.
        -13    1    3    3    0    0  0.21174575888E+02  0.13042988836E+02  0.44776678198E+02  0.51219569466E+02  0.10566000000E+00 0.  1.
         23    2    1    0    0    0  0.11833906823E+02  0.32333425178E+02  0.16179988029E+02  0.86956817338E+02  0.78193377818E+02 0.  0.
         13    1    3    3    0    0 -0.93406690657E+01  0.19290436342E+02 -0.28596690169E+02  0.35737247873E+02  0.10566000000E+00 0. -1.
         22    1    1    0    0    0 -0.11833906823E+02 -0.32333425178E+02 -0.16179988029E+02  0.38043182662E+02  0.00000000000E+00 0.  1.
</event>
<event>
 5    1  0.6924836E-004  0.9118800E+02  0.7818608E-02  0.1130116E+00
         25   -1    0    0    0    0  0.00000000000E+00  0.00000000000E+00  0.99999998245E-14  0.12500000000E+03  0.12500000000E+03 0.  0.
        -13    1    3    3    0    0 -0.30373526010E+02 -0.33983491884E+02 -0.41107563223E+02  0.61378104574E+02  0.10566000000E+00 0. -1.
         23    2    1    0    0    0 -0.22002124988E+02 -0.14365937506E+02 -0.16370846332E+02  0.94040699716E+02  0.88798507471E+02 0.  0.
         13    1    3    3    0    0  0.83714010219E+01  0.19617554378E+02  0.24736716891E+02  0.32662595142E+02  0.10566000000E+00 0.  1.
         22    1    1    0    0    0  0.22002124988E+02  0.14365937506E+02  0.16370846332E+02  0.30959300284E+02  0.00000000000E+00 0. -1.
</event>
<event>
 5    1  0.6924836E-004  0.9118800E+02  0.7818608E-02  0.1130116E+00
         25   -1    0    0    0    0  0.00000000000E+00  0.00000000000E+00  0.99999998245E-14  0.12500000000E+03  0.12500000000E+03 0.  0.
        -13    1    3    3    0    0  0.37541446529E+02 -0.33837647697E+02  0.33222385052E+02  0.60482101830E+02  0.10566000000E+00 0.  1.
         23    2    1    0    0    0  0.20502255660E+02 -0.22348700896E+02  0.68650404416E+01  0.93904410294E+02  0.88606447697E+02 0.  0.
         13    1    3    3    0    0 -0.17039190869E+02  0.11488946801E+02 -0.26357344611E+02  0.33422308464E+02  0.10566000000E+00 0. -1.
         22    1    1    0    0    0 -0.20502255660E+02  0.22348700896E+02 -0.68650404416E+01  0.31095589706E+02  0.00000000000E+00 0.  1.
</event>
<event>
 5    1  0.6924836E-004  0.9118800E+02  0.7818608E-02  0.1130116E+00
         25   -1    0    0    0    0  0.00000000000E+00  0.00000000000E+00  0.99999998245E-14  0.12500000000E+03  0.12500000000E+03 0.  0.
        -13    1    3    3    0    0 -0.48401710425E+02 -0.49491469417E+01  0.10158903319E+02  0.49703461733E+02  0.10566000000E+00 0. -1.
         23    2    1    0    0    0 -0.16948213101E+02  0.20364002074E+02 -0.12173918409E+02  0.95842860270E+02  0.91300137281E+02 0.  0.
         13    1    3    3    0    0  0.31453497324E+02  0.25313149016E+02 -0.22332821729E+02  0.46139398537E+02  0.10566000000E+00 0.  1.
         22    1    1    0    0    0  0.16948213101E+02 -0.20364002074E+02  0.12173918409E+02  0.29157139730E+02  0.00000000000E+00 0. -1.
</event>
<event>
 5    1  0.6924836E-004  0.9118800E+02  0.7818608E-02  0.1130116E+00
         25   -1    0    0    0    0  0.00000000000E+00  0.00000000000E+00  0.99999998245E-14  0.12500000000E+03  0.12500000000E+03 0.  0.
        -13    1    3    3    0    0  0.23941854305E+02  0.48204990804E+02 -0.14278578865E+02  0.55685029446E+02  0.10566000000E+00 0.  1.
         23    2    1    0    0    0  0.27231442972E+02  0.99302994160E+01 -0.23085092398E+01  0.95922662644E+02  0.91409330273E+02 0.  0.
         13    1    3    3    0    0  0.32895886667E+01 -0.38274691388E+02  0.11970069625E+02  0.40237633197E+02  0.10566000000E+00 0. -1.
         22    1    1    0    0    0 -0.27231442972E+02 -0.99302994160E+01  0.23085092398E+01  0.29077337356E+02  0.00000000000E+00 0.  1.
</event>
<event>
 5    1  0.6924836E-004  0.9118800E+02  0.7818608E-02  0.1130116E+00
         25   -1    0    0    0    0  0.00000000000E+00  0.00000000000E+00  0.99999998245E-14  0.12500000000E+03  0.12500000000E+03 0.  0.
        -13    1    3    3    0    0  0.42224436497E+02 -0.30700087636E+02  0.96911795082E+01  0.53097349677E+02  0.10566000000E+00 0. -1.
         23    2    1    0    0    0  0.17150647081E+02  0.59113240712E+01  0.19313120047E+02  0.98503112380E+02  0.94872430637E+02 0.  0.
         13    1    3    3    0    0 -0.25073789416E+02  0.36611411708E+02  0.96219405392E+01  0.45405762703E+02  0.10566000000E+00 0.  1.
         22    1    1    0    0    0 -0.17150647081E+02 -0.59113240712E+01 -0.19313120047E+02  0.26496887620E+02  0.00000000000E+00 0. -1.
</event>
<event>
 5    1  0.6924836E-004  0.9118800E+02  0.7818608E-02  0.1130116E+00
         25   -1    0    0    0    0  0.00000000000E+00  0.00000000000E+00  0.99999998245E-14  0.12500000000E+03  0.12500000000E+03 0.  0.
        -13    1    3    3    0    0 -0.22031175129E+02  0.27084694680E+02  0.16717071350E+02  0.38709494986E+02  0.10566000000E+00 0. -1.
         23    2    1    0    0    0 -0.14026739923E+02 -0.12750905953E+02 -0.22772850743E+02  0.95369985379E+02  0.90650407307E+02 0.  0.
         13    1    3    3    0    0  0.80044352064E+01 -0.39835600633E+02 -0.39489922093E+02  0.56660490394E+02  0.10566000000E+00 0.  1.
         22    1    1    0    0    0  0.14026739923E+02  0.12750905953E+02  0.22772850743E+02  0.29630014621E+02  0.00000000000E+00 0.  1.
</event>
<event>
 5    1  0.6924836E-004  0.9118800E+02  0.7818608E-02  0.1130116E+00
         25   -1    0    0    0    0  0.00000000000E+00  0.00000000000E+00  0.99999998245E-14  0.12500000000E+03  0.12500000000E+03 0.  0.
        -13    1    3    3    0    0  0.21249234729E+02  0.33578047663E+02  0.60265982817E+01  0.40191371118E+02  0.10566000000E+00 0.  1.
         23    2    1    0    0    0 -0.10613456989E+02 -0.85885899195E+01  0.25139261211E+02  0.96392452040E+02  0.92049513904E+02 0.  0.
         13    1    3    3    0    0 -0.31862691718E+02 -0.42166637583E+02  0.19112662929E+02  0.56201080922E+02  0.10566000000E+00 0. -1.
         22    1    1    0    0    0  0.10613456989E+02  0.85885899195E+01 -0.25139261211E+02  0.28607547960E+02  0.00000000000E+00 0. -1.
</event>
<event>
 5    1  0.6924836E-004  0.9118800E+02  0.7818608E-02  0.1130116E+00
         25   -1    0    0    0    0  0.00000000000E+00  0.00000000000E+00  0.99999998245E-14  0.12500000000E+03  0.12500000000E+03 0.  0.
        -13    1    3    3    0    0 -0.40001765312E+02 -0.37060143884E+02  0.24762615389E+02  0.59889847034E+02  0.10566000000E+00 0.  1.
         23    2    1    0    0    0 -0.70329468464E+01 -0.21735425049E+02  0.15453070784E+02  0.97419419149E+02  0.93433691928E+02 0.  0.
         13    1    3    3    0    0  0.32968818466E+02  0.15324718835E+02 -0.93095446044E+01  0.37529572115E+02  0.10566000000E+00 0. -1.
         22    1    1    0    0    0  0.70329468464E+01  0.21735425049E+02 -0.15453070784E+02  0.27580580851E+02  0.00000000000E+00 0.  1.
</event>
<event>
 5    1  0.6924836E-004  0.9118800E+02  0.7818608E-02  0.1130116E+00
         25   -1    0    0    0    0  0.00000000000E+00  0.00000000000E+00  0.99999998245E-14  0.12500000000E+03  0.12500000000E+03 0.  0.
        -13    1    3    3    0    0 -0.27136439163E+02 -0.49892249457E+01 -0.13665800477E+02  0.30790322550E+02  0.10566000000E+00 0.  1.
         23    2    1    0    0    0  0.29189801196E+02 -0.29071702955E+01 -0.22743924277E+02  0.87881511015E+02  0.79657879421E+02 0.  0.
         13    1    3    3    0    0  0.56326240360E+02  0.20820546502E+01 -0.90781237998E+01  0.57091188465E+02  0.10566000000E+00 0. -1.
         22    1    1    0    0    0 -0.29189801196E+02  0.29071702955E+01  0.22743924277E+02  0.37118488985E+02  0.00000000000E+00 0. -1.
</event>
<event>
 5    1  0.6924836E-004  0.9118800E+02  0.7818608E-02  0.1130116E+00
         25   -1    0    0    0    0  0.00000000000E+00  0.00000000000E+00  0.99999998245E-14  0.12500000000E+03  0.12500000000E+03 0.  0.
        -13    1    3    3    0    0  0.12966391186E+02  0.51492229612E+02 -0.30770422334E+02  0.61371060488E+02  0.10566000000E+00 0.  1.
         23    2    1    0    0    0  0.11755907778E+02  0.24485652109E+02 -0.80890107017E+01  0.96659558560E+02  0.92411523307E+02 0.  0.
         13    1    3    3    0    0 -0.12104834077E+01 -0.27006577503E+02  0.22681411633E+02  0.35288498072E+02  0.10566000000E+00 0. -1.
         22    1    1    0    0    0 -0.11755907778E+02 -0.24485652109E+02  0.80890107017E+01  0.28340441440E+02  0.00000000000E+00 0.  1.
</event>
<event>
 5    1  0.6924836E-004  0.9118800E+02  0.7818608E-02  0.1130116E+00
         25   -1    0    0    0    0  0.00000000000E+00  0.00000000000E+00  0.99999998245E-14  0.12500000000E+03  0.12500000000E+03 0.  0.
        -13    1    3    3    0    0  0.36609561399E+01  0.26496965168E+02 -0.55822903835E+02  0.61900723094E+02  0.10566000000E+00 0. -1.
         23    2    1    0    0    0  0.90060361626E-01  0.97845569377E+01 -0.34005309874E+02  0.89614879328E+02  0.82332981435E+02 0.  0.
         13    1    3    3    0    0 -0.35708957783E+01 -0.16712408230E+02  0.21817593961E+02  0.27714156234E+02  0.10566000000E+00 0.  1.
         22    1    1    0    0    0 -0.90060361626E-01 -0.97845569377E+01  0.34005309874E+02  0.35385120672E+02  0.00000000000E+00 0. -1.
</event>
<event>
 5    1  0.6924836E-004  0.9118800E+02  0.7818608E-02  0.1130116E+00
         25   -1    0    0    0    0  0.00000000000E+00  0.00000000000E+00  0.99999998245E-14  0.12500000000E+03  0.12500000000E+03 0.  0.
        -13    1    3    3    0    0  0.94964863079E+01 -0.51661863661E+02  0.25335901858E+02  0.58318526183E+02  0.10566000000E+00 0. -1.
         23    2    1    0    0    0 -0.12061567192E+01 -0.27748549631E+02  0.29083472178E+02  0.84784515736E+02  0.74639995539E+02 0.  0.
         13    1    3    3    0    0 -0.10702643027E+02  0.23913314031E+02  0.37475703198E+01  0.26465989553E+02  0.10566000000E+00 0.  1.
         22    1    1    0    0    0  0.12061567192E+01  0.27748549631E+02 -0.29083472178E+02  0.40215484264E+02  0.00000000000E+00 0. -1.
</event>
<event>
 5    1  0.6924836E-004  0.9118800E+02  0.7818608E-02  0.1130116E+00
         25   -1    0    0    0    0  0.00000000000E+00  0.00000000000E+00  0.99999998245E-14  0.12500000000E+03  0.12500000000E+03 0.  0.
        -13    1    3    3    0    0 -0.22300605868E+02  0.26145305779E+02 -0.50832492660E+02  0.61358353224E+02  0.10566000000E+00 0. -1.
         23    2    1    0    0    0 -0.18425532525E+02  0.12306772378E+02 -0.20999598159E+02  0.94472307358E+02  0.89404009080E+02 0.  0.
         13    1    3    3    0    0  0.38750733439E+01 -0.13838533400E+02  0.29832894500E+02  0.33113954134E+02  0.10566000000E+00 0.  1.
         22    1    1    0    0    0  0.18425532525E+02 -0.12306772378E+02  0.20999598159E+02  0.30527692642E+02  0.00000000000E+00 0. -1.
</event>
<event>
 5    1  0.6924836E-004  0.9118800E+02  0.7818608E-02  0.1130116E+00
         25   -1    0    0    0    0  0.00000000000E+00  0.00000000000E+00  0.99999998245E-14  0.12500000000E+03  0.12500000000E+03 0.  0.
        -13    1    3    3    0    0 -0.24052635898E+02  0.31426013422E+02 -0.52146130365E+01  0.39916499926E+02  0.10566000000E+00 0.  1.
         23    2    1    0    0    0  0.25272631914E+02  0.12236168942E+02  0.10333733291E+02  0.95079842949E+02  0.90249436216E+02 0.  0.
         13    1    3    3    0    0  0.49325267812E+02 -0.19189844480E+02  0.15548346328E+02  0.55163343023E+02  0.10566000000E+00 0. -1.
         22    1    1    0    0    0 -0.25272631914E+02 -0.12236168942E+02 -0.10333733291E+02  0.29920157051E+02  0.00000000000E+00 0. -1.
</event>
<event>
 5    1  0.6924836E-004  0.9118800E+02  0.7818608E-02  0.1130116E+00
         25   -1    0    0    0    0  0.00000000000E+00  0.00000000000E+00  0.99999998245E-14  0.12500000000E+03  0.12500000000E+03 0.  0.
        -13    1    3    3    0    0 -0.38665351184E+02 -0.35547975037E+02 -0.24440007403E+02  0.57930933337E+02  0.10566000000E+00 0. -1.
         23    2    1    0    0    0 -0.96174470042E+01 -0.11700074546E+02 -0.25287398218E+02  0.95523915797E+02  0.90862417695E+02 0.  0.
         13    1    3    3    0    0  0.29047904180E+02  0.23847900491E+02 -0.84739081526E+00  0.37592982461E+02  0.10566000000E+00 0.  1.
         22    1    1    0    0    0  0.96174470042E+01  0.11700074546E+02  0.25287398218E+02  0.29476084203E+02  0.00000000000E+00 0. -1.
</event>
<event>
 5    1  0.6924836E-004  0.9118800E+02  0.7818608E-02  0.1130116E+00
         25   -1    0    0    0    0  0.00000000000E+00  0.00000000000E+00  0.99999998245E-14  0.12500000000E+03  0.12500000000E+03 0.  0.
        -13    1    3    3    0    0 -0.35124313041E+02  0.16890493038E+02 -0.29991082779E+02  0.49178067591E+02  0.10566000000E+00 0. -1.
         23    2    1    0    0    0 -0.23031764573E+02  0.16459713470E+02  0.13006758525E+02  0.93846186202E+02  0.88524270969E+02 0.  0.
         13    1    3    3    0    0  0.12092548468E+02 -0.43077956807E+00  0.42997841304E+02  0.44668118612E+02  0.10566000000E+00 0.  1.
         22    1    1    0    0    0  0.23031764573E+02 -0.16459713470E+02 -0.13006758525E+02  0.31153813798E+02  0.00000000000E+00 0. -1.
</event>
<event>
 5    1  0.6924836E-004  0.9118800E+02  0.7818608E-02  0.1130116E+00
         25   -1    0    0    0    0  0.00000000000E+00  0.00000000000E+00  0.99999998245E-14  0.12500000000E+03  0.12500000000E+03 0.  0.
        -13    1    3    3    0    0  0.51906184814E+02  0.11449575884E+02  0.25500047957E+02  0.58954290935E+02  0.10566000000E+00 0.  1.
         23    2    1    0    0    0  0.26289946147E+02 -0.92714653846E+01  0.98095198176E+01  0.95447537871E+02  0.90757283277E+02 0.  0.
         13    1    3    3    0    0 -0.25616238666E+02 -0.20721041268E+02 -0.15690528139E+02  0.36493246936E+02  0.10566000000E+00 0. -1.
         22    1    1    0    0    0 -0.26289946147E+02  0.92714653846E+01 -0.98095198176E+01  0.29552462129E+02  0.00000000000E+00 0.  1.
</event>
<event>
 5    1  0.6924836E-004  0.9118800E+02  0.7818608E-02  0.1130116E+00
         25   -1    0    0    0    0  0.00000000000E+00  0.00000000000E+00  0.99999998245E-14  0.12500000000E+03  0.12500000000E+03 0.  0.
        -13    1    3    3    0    0  0.25119483432E+02  0.30110450500E+02 -0.47742925132E+02  0.61782082689E+02  0.10566000000E+00 0.  1.
         23    2    1    0    0    0  0.56942782335E+01  0.16197124131E+02 -0.24219203538E+02  0.95312604447E+02  0.90571248814E+02 0.  0.
         13    1    3    3    0    0 -0.19425205198E+02 -0.13913326370E+02  0.23523721594E+02  0.33530521758E+02  0.10566000000E+00 0. -1.
         22    1    1    0    0    0 -0.56942782335E+01 -0.16197124131E+02  0.24219203538E+02  0.29687395553E+02  0.00000000000E+00 0.  1.
</event>
<event>
 5    1  0.6924836E-004  0.9118800E+02  0.7818608E-02  0.1130116E+00
         25   -1    0    0    0    0  0.00000000000E+00  0.00000000000E+00  0.99999998245E-14  0.12500000000E+03  0.12500000000E+03 0.  0.
        -13    1    3    3    0    0  0.26813066516E+02 -0.22311190761E+02  0.20184216510E+02  0.40300664130E+02  0.10566000000E+00 0. -1.
         23    2    1    0    0    0  0.17626447581E+02  0.21687063728E+02 -0.10957284173E+02  0.94981964356E+02  0.90113767477E+02 0.  0.
         13    1    3    3    0    0 -0.91866189353E+01  0.43998254489E+02 -0.31141500683E+02  0.54681300226E+02  0.10566000000E+00 0.  1.
         22    1    1    0    0    0 -0.17626447581E+02 -0.21687063728E+02  0.10957284173E+02  0.30018035644E+02  0.00000000000E+00 0.  1.
</event>
<event>
 5    1  0.6924836E-004  0.9118800E+02  0.7818608E-02  0.1130116E+00
         25   -1    0    0    0    0  0.00000000000E+00  0.00000000000E+00  0.99999998245E-14  0.12500000000E+03  0.12500000000E+03 0.  0.
        -13    1    3    3    0    0 -0.17171961717E+02 -0.56481127240E+02 -0.19862386417E+02  0.62285789405E+02  0.10566000000E+00 0.  1.
         23    2    1    0    0    0 -0.82841346140E+01 -0.23122133097E+02 -0.11865413593E+02  0.97722757380E+02  0.93838634607E+02 0.  0.
         13    1    3    3    0    0  0.88878271031E+01  0.33358994143E+02  0.79969728247E+01  0.35436967975E+02  0.10566000000E+00 0. -1.
         22    1    1    0    0    0  0.82841346140E+01  0.23122133097E+02  0.11865413593E+02  0.27277242620E+02  0.00000000000E+00 0.  1.
</event>
<event>
 5    1  0.6924836E-004  0.9118800E+02  0.7818608E-02  0.1130116E+00
         25   -1    0    0    0    0  0.00000000000E+00  0.00000000000E+00  0.99999998245E-14  0.12500000000E+03  0.12500000000E+03 0.  0.
        -13    1    3    3    0    0 -0.58587298468E+02  0.12362162409E+02  0.69522251956E+01  0.60279674854E+02  0.10566000000E+00 0.  1.
         23    2    1    0    0    0 -0.26305087709E+02  0.17444607217E+02  0.15944211791E+01  0.93395979066E+02  0.87886260396E+02 0.  0.
         13    1    3    3    0    0  0.32282210760E+02  0.50824448076E+01 -0.53578040165E+01  0.33116304212E+02  0.10566000000E+00 0. -1.
         22    1    1    0    0    0  0.26305087709E+02 -0.17444607217E+02 -0.15944211791E+01  0.31604020934E+02  0.00000000000E+00 0.  1.
</event>
<event>
 5    1  0.6924836E-004  0.9118800E+02  0.7818608E-02  0.1130116E+00
         25   -1    0    0    0    0  0.00000000000E+00  0.00000000000E+00  0.99999998245E-14  0.12500000000E+03  0.12500000000E+03 0.  0.
        -13    1    3    3    0    0  0.30025267204E+01  0.25731647533E+02 -0.22482853339E+02  0.34301934490E+02  0.10566000000E+00 0.  1.
         23    2    1    0    0    0  0.85393046969E+01 -0.26523405531E+02  0.91931391250E+01  0.95658483804E+02  0.91047355541E+02 0.  0.
         13    1    3    3    0    0  0.55367779765E+01 -0.52255053065E+02  0.31675992464E+02  0.61356549314E+02  0.10566000000E+00 0. -1.
         22    1    1    0    0    0 -0.85393046969E+01  0.26523405531E+02 -0.91931391250E+01  0.29341516196E+02  0.00000000000E+00 0. -1.
</event>
<event>
 5    1  0.6924836E-004  0.9118800E+02  0.7818608E-02  0.1130116E+00
         25   -1    0    0    0    0  0.00000000000E+00  0.00000000000E+00  0.99999998245E-14  0.12500000000E+03  0.12500000000E+03 0.  0.
        -13    1    3    3    0    0  0.32776053354E+02 -0.11374319774E+01  0.12783377435E+02  0.35199280215E+02  0.10566000000E+00 0. -1.
         23    2    1    0    0    0  0.18471900619E+02  0.27900617290E+02 -0.23717263592E+02  0.83985805507E+02  0.73290186088E+02 0.  0.
         13    1    3    3    0    0 -0.14304152735E+02  0.29038049267E+02 -0.36500641027E+02  0.48786525292E+02  0.10566000000E+00 0.  1.
         22    1    1    0    0    0 -0.18471900619E+02 -0.27900617290E+02  0.23717263592E+02  0.41014194493E+02  0.00000000000E+00 0.  1.
</event>
<event>
 5    1  0.6924836E-004  0.9118800E+02  0.7818608E-02  0.1130116E+00
         25   -1    0    0    0    0  0.00000000000E+00  0.00000000000E+00  0.99999998245E-14  0.12500000000E+03  0.12500000000E+03 0.  0.
        -13    1    3    3    0    0 -0.95429850952E+01 -0.99395221157E+01  0.47421363695E+02  0.49382786101E+02  0.10566000000E+00 0.  1.
         23    2    1    0    0    0 -0.28598854360E+02 -0.69692902136E+01  0.61634969366E+01  0.94925855436E+02  0.90035903167E+02 0.  0.
         13    1    3    3    0    0 -0.19055869264E+02  0.29702319021E+01 -0.41257866758E+02  0.45543069335E+02  0.10566000000E+00 0. -1.
         22    1    1    0    0    0  0.28598854360E+02  0.69692902136E+01 -0.61634969366E+01  0.30074144564E+02  0.00000000000E+00 0.  1.
</event>
<event>
 5    1  0.6924836E-004  0.9118800E+02  0.7818608E-02  0.1130116E+00
         25   -1    0    0    0    0  0.00000000000E+00  0.00000000000E+00  0.99999998245E-14  0.12500000000E+03  0.12500000000E+03 0.  0.
        -13    1    3    3    0    0  0.14430314915E+02 -0.25506454913E+02 -0.16952540222E+02  0.33855767821E+02  0.10566000000E+00 0.  1.
         23    2    1    0    0    0 -0.40459807739E+01  0.20297538383E+02  0.20521998927E+02  0.95853602885E+02  0.91314843926E+02 0.  0.
         13    1    3    3    0    0 -0.18476295689E+02  0.45803993296E+02  0.37474539148E+02  0.61997835064E+02  0.10566000000E+00 0. -1.
         22    1    1    0    0    0  0.40459807739E+01 -0.20297538383E+02 -0.20521998927E+02  0.29146397115E+02  0.00000000000E+00 0. -1.
</event>
<event>
 5    1  0.6924836E-004  0.9118800E+02  0.7818608E-02  0.1130116E+00
         25   -1    0    0    0    0  0.00000000000E+00  0.00000000000E+00  0.99999998245E-14  0.12500000000E+03  0.12500000000E+03 0.  0.
        -13    1    3    3    0    0 -0.11056907755E+02  0.48305982984E+02 -0.25087658412E+02  0.55543901283E+02  0.10566000000E+00 0. -1.
         23    2    1    0    0    0 -0.21122280031E+02  0.10455690852E+02 -0.17995714195E+02  0.95346704832E+02  0.90618299521E+02 0.  0.
         13    1    3    3    0    0 -0.10065372276E+02 -0.37850292132E+02  0.70919442169E+01  0.39802803549E+02  0.10566000000E+00 0.  1.
         22    1    1    0    0    0  0.21122280031E+02 -0.10455690852E+02  0.17995714195E+02  0.29653295168E+02  0.00000000000E+00 0. -1.
</event>
<event>
 5    1  0.6924836E-004  0.9118800E+02  0.7818608E-02  0.1130116E+00
         25   -1    0    0    0    0  0.00000000000E+00  0.00000000000E+00  0.99999998245E-14  0.12500000000E+03  0.12500000000E+03 0.  0.
        -13    1    3    3    0    0 -0.21805806964E+02 -0.18595889167E+02  0.23747107287E+02  0.37218766501E+02  0.10566000000E+00 0. -1.
         23    2    1    0    0    0  0.14864884359E+02 -0.12376296409E+02 -0.21689978603E+02  0.95938123398E+02  0.91430470028E+02 0.  0.
         13    1    3    3    0    0  0.36670691324E+02  0.62195927584E+01 -0.45437085890E+02  0.58719356897E+02  0.10566000000E+00 0.  1.
         22    1    1    0    0    0 -0.14864884359E+02  0.12376296409E+02  0.21689978603E+02  0.29061876602E+02  0.00000000000E+00 0.  1.
</event>
<event>
 5    1  0.6924836E-004  0.9118800E+02  0.7818608E-02  0.1130116E+00
         25   -1    0    0    0    0  0.00000000000E+00  0.00000000000E+00  0.99999998245E-14  0.12500000000E+03  0.12500000000E+03 0.  0.
        -13    1    3    3    0    0  0.33927093054E+02  0.13858658225E+02  0.72775475178E+01  0.37364206305E+02  0.10566000000E+00 0.  1.
         23    2    1    0    0    0 -0.18915649663E+02  0.11467612324E+02 -0.18458734045E+02  0.96189710222E+02  0.91773784685E+02 0.  0.
         13    1    3    3    0    0 -0.52842742717E+02 -0.23910459015E+01 -0.25736281562E+02  0.58825503917E+02  0.10566000000E+00 0. -1.
         22    1    1    0    0    0  0.18915649663E+02 -0.11467612324E+02  0.18458734045E+02  0.28810289778E+02  0.00000000000E+00 0. -1.
</event>
<event>
 5    1  0.6924836E-004  0.9118800E+02  0.7818608E-02  0.1130116E+00
         25   -1    0    0    0    0  0.00000000000E+00  0.00000000000E+00  0.99999998245E-14  0.12500000000E+03  0.12500000000E+03 0.  0.
        -13    1    3    3    0    0 -0.14417144175E+02  0.41803057914E+02  0.42347003471E+01  0.44421768855E+02  0.10566000000E+00 0.  1.
         23    2    1    0    0    0  0.13083514758E+02  0.34860610473E+01  0.25476482504E+02  0.96148966382E+02  0.91718272963E+02 0.  0.
         13    1    3    3    0    0  0.27500658933E+02 -0.38316996867E+02  0.21241782157E+02  0.51727197526E+02  0.10566000000E+00 0. -1.
         22    1    1    0    0    0 -0.13083514758E+02 -0.34860610473E+01 -0.25476482504E+02  0.28851033618E+02  0.00000000000E+00 0. -1.
</event>
<event>
 5    1  0.6924836E-004  0.9118800E+02  0.7818608E-02  0.1130116E+00
         25   -1    0    0    0    0  0.00000000000E+00  0.00000000000E+00  0.99999998245E-14  0.12500000000E+03  0.12500000000E+03 0.  0.
        -13    1    3    3    0    0  0.19268559013E+02  0.37682523512E+02 -0.45695736424E+02  0.62284520036E+02  0.10566000000E+00 0. -1.
         23    2    1    0    0    0  0.75783662395E+01  0.14240337387E+02 -0.22767158723E+02  0.97097269666E+02  0.93001706525E+02 0.  0.
         13    1    3    3    0    0 -0.11690192773E+02 -0.23442186125E+02  0.22928577701E+02  0.34812749631E+02  0.10566000000E+00 0.  1.
         22    1    1    0    0    0 -0.75783662395E+01 -0.14240337387E+02  0.22767158723E+02  0.27902730334E+02  0.00000000000E+00 0. -1.
</event>
<event>
 5    1  0.6924836E-004  0.9118800E+02  0.7818608E-02  0.1130116E+00
         25   -1    0    0    0    0  0.00000000000E+00  0.00000000000E+00  0.99999998245E-14  0.12500000000E+03  0.12500000000E+03 0.  0.
        -13    1    3    3    0    0 -0.74889568422E+01  0.56445327179E+02 -0.33942474495E+01  0.57041138792E+02  0.10566000000E+00 0.  1.
         23    2    1    0    0    0 -0.20263438354E+02  0.19475142537E+02  0.32187403363E+01  0.96711337958E+02  0.92481535938E+02 0.  0.
         13    1    3    3    0    0 -0.12774481512E+02 -0.36970184642E+02  0.66129877859E+01  0.39670199166E+02  0.10566000000E+00 0. -1.
         22    1    1    0    0    0  0.20263438354E+02 -0.19475142537E+02 -0.32187403363E+01  0.28288662042E+02  0.00000000000E+00 0.  1.
</event>
<event>
 5    1  0.6924836E-004  0.9118800E+02  0.7818608E-02  0.1130116E+00
         25   -1    0    0    0    0  0.00000000000E+00  0.00000000000E+00  0.99999998245E-14  0.12500000000E+03  0.12500000000E+03 0.  0.
        -13    1    3    3    0    0 -0.59047981518E+01  0.21682484633E+02  0.23743219073E+01  0.22597463345E+02  0.10566000000E+00 0.  1.
         23    2    1    0    0    0  0.12787241955E+02 -0.36690583084E+02 -0.94308025089E+01  0.85016847550E+02  0.75028073996E+02 0.  0.
         13    1    3    3    0    0  0.18692040107E+02 -0.58373067717E+02 -0.11805124416E+02  0.62419384205E+02  0.10566000000E+00 0. -1.
         22    1    1    0    0    0 -0.12787241955E+02  0.36690583084E+02  0.94308025089E+01  0.39983152450E+02  0.00000000000E+00 0. -1.
</event>
<event>
 5    1  0.6924836E-004  0.9118800E+02  0.7818608E-02  0.1130116E+00
         25   -1    0    0    0    0  0.00000000000E+00  0.00000000000E+00  0.99999998245E-14  0.12500000000E+03  0.12500000000E+03 0.  0.
        -13    1    3    3    0    0  0.55920758864E+01 -0.21138630997E+02  0.25854924891E+02  0.33861502305E+02  0.10566000000E+00 0.  1.
         23    2    1    0    0    0  0.16602102187E+02  0.30247319503E+02  0.14184614011E+02  0.87694056656E+02  0.79363178893E+02 0.  0.
         13    1    3    3    0    0  0.11010026301E+02  0.51385950500E+02 -0.11670310880E+02  0.53832554352E+02  0.10566000000E+00 0. -1.
         22    1    1    0    0    0 -0.16602102187E+02 -0.30247319503E+02 -0.14184614011E+02  0.37305943344E+02  0.00000000000E+00 0. -1.
</event>
<event>
 5    1  0.6924836E-004  0.9118800E+02  0.7818608E-02  0.1130116E+00
         25   -1    0    0    0    0  0.00000000000E+00  0.00000000000E+00  0.99999998245E-14  0.12500000000E+03  0.12500000000E+03 0.  0.
        -13    1    3    3    0    0 -0.24621031769E+02  0.28307139906E+02 -0.32277795730E+02  0.49490975301E+02  0.10566000000E+00 0.  1.
         23    2    1    0    0    0  0.15950457306E+02  0.46762613054E+01 -0.21779770650E+02  0.97602136623E+02  0.93677821045E+02 0.  0.
         13    1    3    3    0    0  0.40571489074E+02 -0.23630878601E+02  0.10498025081E+02  0.48111161322E+02  0.10566000000E+00 0. -1.
         22    1    1    0    0    0 -0.15950457306E+02 -0.46762613054E+01  0.21779770650E+02  0.27397863377E+02  0.00000000000E+00 0. -1.
</event>
<event>
 5    1  0.6924836E-004  0.9118800E+02  0.7818608E-02  0.1130116E+00
         25   -1    0    0    0    0  0.00000000000E+00  0.00000000000E+00  0.99999998245E-14  0.12500000000E+03  0.12500000000E+03 0.  0.
        -13    1    3    3    0    0  0.29268051400E+02  0.18738708980E+02 -0.19884990949E+02  0.40039756194E+02  0.10566000000E+00 0. -1.
         23    2    1    0    0    0 -0.67390208727E+01 -0.24021133216E+02 -0.14361906035E+02  0.96212961454E+02  0.91805448442E+02 0.  0.
         13    1    3    3    0    0 -0.36007072272E+02 -0.42759842196E+02  0.55230849144E+01  0.56173205260E+02  0.10566000000E+00 0.  1.
         22    1    1    0    0    0  0.67390208727E+01  0.24021133216E+02  0.14361906035E+02  0.28787038546E+02  0.00000000000E+00 0.  1.
</event>
<event>
 5    1  0.6924836E-004  0.9118800E+02  0.7818608E-02  0.1130116E+00
         25   -1    0    0    0    0  0.00000000000E+00  0.00000000000E+00  0.99999998245E-14  0.12500000000E+03  0.12500000000E+03 0.  0.
        -13    1    3    3    0    0 -0.43600905235E+02  0.30151185381E+02 -0.39440542945E+01  0.53157310368E+02  0.10566000000E+00 0. -1.
         23    2    1    0    0    0 -0.23941835416E+02 -0.49024267764E+01 -0.16788919125E+02  0.95350158908E+02  0.90623063991E+02 0.  0.
         13    1    3    3    0    0  0.19659069819E+02 -0.35053612158E+02 -0.12844864830E+02  0.42192848541E+02  0.10566000000E+00 0.  1.
         22    1    1    0    0    0  0.23941835416E+02  0.49024267764E+01  0.16788919125E+02  0.29649841092E+02  0.00000000000E+00 0. -1.
</event>
<event>
 5    1  0.6924836E-004  0.9118800E+02  0.7818608E-02  0.1130116E+00
         25   -1    0    0    0    0  0.00000000000E+00  0.00000000000E+00  0.99999998245E-14  0.12500000000E+03  0.12500000000E+03 0.  0.
        -13    1    3    3    0    0  0.44306828531E+02 -0.11515374836E+02 -0.37770294953E+02  0.59349012266E+02  0.10566000000E+00 0. -1.
         23    2    1    0    0    0  0.99840104452E+01  0.11509327062E+01 -0.24926737300E+02  0.98123479706E+02  0.94370916741E+02 0.  0.
         13    1    3    3    0    0 -0.34322818085E+02  0.12666307542E+02  0.12843557653E+02  0.38774467441E+02  0.10566000000E+00 0.  1.
         22    1    1    0    0    0 -0.99840104452E+01 -0.11509327062E+01  0.24926737300E+02  0.26876520294E+02  0.00000000000E+00 0. -1.
</event>
<event>
 5    1  0.6924836E-004  0.9118800E+02  0.7818608E-02  0.1130116E+00
         25   -1    0    0    0    0  0.00000000000E+00  0.00000000000E+00  0.99999998245E-14  0.12500000000E+03  0.12500000000E+03 0.  0.
        -13    1    3    3    0    0  0.37720237584E+02  0.30485424496E+02  0.11401146983E+02  0.49821428589E+02  0.10566000000E+00 0.  1.
         23    2    1    0    0    0 -0.65033404250E+01  0.45028512262E+01 -0.15395714017E+02  0.10769112609E+03  0.10629102278E+03 0.  0.
         13    1    3    3    0    0 -0.44223578009E+02 -0.25982573269E+02 -0.26796861001E+02  0.57869697503E+02  0.10566000000E+00 0. -1.
         22    1    1    0    0    0  0.65033404250E+01 -0.45028512262E+01  0.15395714017E+02  0.17308873908E+02  0.00000000000E+00 0. -1.
</event>
<event>
 5    1  0.6924836E-004  0.9118800E+02  0.7818608E-02  0.1130116E+00
         25   -1    0    0    0    0  0.00000000000E+00  0.00000000000E+00  0.99999998245E-14  0.12500000000E+03  0.12500000000E+03 0.  0.
        -13    1    3    3    0    0 -0.18464632642E+02 -0.32678557240E+01  0.31881783563E+02  0.36987576655E+02  0.10566000000E+00 0. -1.
         23    2    1    0    0    0  0.11238273927E+02  0.30639444032E+02 -0.28174765378E+00  0.92363307257E+02  0.86405016141E+02 0.  0.
         13    1    3    3    0    0  0.29702906569E+02  0.33907299756E+02 -0.32163531217E+02  0.55375730602E+02  0.10566000000E+00 0.  1.
         22    1    1    0    0    0 -0.11238273927E+02 -0.30639444032E+02  0.28174765378E+00  0.32636692743E+02  0.00000000000E+00 0.  1.
</event>
<event>
 5    1  0.6924836E-004  0.9118800E+02  0.7818608E-02  0.1130116E+00
         25   -1    0    0    0    0  0.00000000000E+00  0.00000000000E+00  0.99999998245E-14  0.12500000000E+03  0.12500000000E+03 0.  0.
        -13    1    3    3    0    0 -0.36830238037E+01 -0.59124135250E+02 -0.11492517742E+02  0.60343327398E+02  0.10566000000E+00 0. -1.
         23    2    1    0    0    0 -0.10425254391E+02 -0.28521509564E+02  0.22261436998E+01  0.94551385044E+02  0.89514503077E+02 0.  0.
         13    1    3    3    0    0 -0.67422305877E+01  0.30602625685E+02  0.13718661442E+02  0.34208057646E+02  0.10566000000E+00 0.  1.
         22    1    1    0    0    0  0.10425254391E+02  0.28521509564E+02 -0.22261436998E+01  0.30448614956E+02  0.00000000000E+00 0. -1.
</event>
<event>
 5    1  0.6924836E-004  0.9118800E+02  0.7818608E-02  0.1130116E+00
         25   -1    0    0    0    0  0.00000000000E+00  0.00000000000E+00  0.99999998245E-14  0.12500000000E+03  0.12500000000E+03 0.  0.
        -13    1    3    3    0    0 -0.74580660523E+01 -0.51195420546E+02 -0.32388768693E+02  0.61037999112E+02  0.10566000000E+00 0.  1.
         23    2    1    0    0    0 -0.12287686283E+02 -0.21008300470E+02 -0.17370953557E+02  0.95098729955E+02  0.90275591877E+02 0.  0.
         13    1    3    3    0    0 -0.48296202309E+01  0.30187120076E+02  0.15017815136E+02  0.34060730843E+02  0.10566000000E+00 0. -1.
         22    1    1    0    0    0  0.12287686283E+02  0.21008300470E+02  0.17370953557E+02  0.29901270045E+02  0.00000000000E+00 0.  1.
</event>
<event>
 5    1  0.6924836E-004  0.9118800E+02  0.7818608E-02  0.1130116E+00
         25   -1    0    0    0    0  0.00000000000E+00  0.00000000000E+00  0.99999998245E-14  0.12500000000E+03  0.12500000000E+03 0.  0.
        -13    1    3    3    0    0 -0.39972271378E+02  0.16343255483E+02  0.42216652216E+02  0.60391567021E+02  0.10566000000E+00 0. -1.
         23    2    1    0    0    0 -0.81166591470E+01  0.10141269805E+02  0.24258604220E+02  0.97482634798E+02  0.93518226563E+02 0.  0.
         13    1    3    3    0    0  0.31855612231E+02 -0.62019856778E+01 -0.17958047996E+02  0.37091067777E+02  0.10566000000E+00 0.  1.
         22    1    1    0    0    0  0.81166591470E+01 -0.10141269805E+02 -0.24258604220E+02  0.27517365202E+02  0.00000000000E+00 0. -1.
</event>
<event>
 5    1  0.6924836E-004  0.9118800E+02  0.7818608E-02  0.1130116E+00
         25   -1    0    0    0    0  0.00000000000E+00  0.00000000000E+00  0.99999998245E-14  0.12500000000E+03  0.12500000000E+03 0.  0.
        -13    1    3    3    0    0 -0.26236075695E+02 -0.57535269982E+01 -0.42115252769E+02  0.49951380568E+02  0.10566000000E+00 0. -1.
         23    2    1    0    0    0  0.69258901305E+00 -0.26973747074E+02 -0.12472545089E+02  0.95274134298E+02  0.90518139477E+02 0.  0.
         13    1    3    3    0    0  0.26928664708E+02 -0.21220220076E+02  0.29642707680E+02  0.45322753730E+02  0.10566000000E+00 0.  1.
         22    1    1    0    0    0 -0.69258901305E+00  0.26973747074E+02  0.12472545089E+02  0.29725865702E+02  0.00000000000E+00 0. -1.
</event>
<event>
 5    1  0.6924836E-004  0.9118800E+02  0.7818608E-02  0.1130116E+00
         25   -1    0    0    0    0  0.00000000000E+00  0.00000000000E+00  0.99999998245E-14  0.12500000000E+03  0.12500000000E+03 0.  0.
        -13    1    3    3    0    0 -0.60073757298E+01 -0.38700254785E+02  0.37810010753E+02  0.54437178111E+02  0.10566000000E+00 0.  1.
         23    2    1    0    0    0  0.12738188465E+02 -0.25709197275E+02  0.28663277986E+01  0.96165296864E+02  0.91740526574E+02 0.  0.
         13    1    3    3    0    0  0.18745564195E+02  0.12991057510E+02 -0.34943682954E+02  0.41728118753E+02  0.10566000000E+00 0. -1.
         22    1    1    0    0    0 -0.12738188465E+02  0.25709197275E+02 -0.28663277986E+01  0.28834703136E+02  0.00000000000E+00 0.  1.
</event>
<event>
 5    1  0.6924836E-004  0.9118800E+02  0.7818608E-02  0.1130116E+00
         25   -1    0    0    0    0  0.00000000000E+00  0.00000000000E+00  0.99999998245E-14  0.12500000000E+03  0.12500000000E+03 0.  0.
        -13    1    3    3    0    0 -0.45798731580E+02  0.12752664125E+02 -0.24925717207E+02  0.53679202667E+02  0.10566000000E+00 0. -1.
         23    2    1    0    0    0 -0.24604509928E+02  0.84717674490E+01  0.11901852013E+02  0.96385199042E+02  0.92039664061E+02 0.  0.
         13    1    3    3    0    0  0.21194221652E+02 -0.42808966763E+01  0.36827569219E+02  0.42705996376E+02  0.10566000000E+00 0.  1.
         22    1    1    0    0    0  0.24604509928E+02 -0.84717674490E+01 -0.11901852013E+02  0.28614800958E+02  0.00000000000E+00 0. -1.
</event>
<event>
 5    1  0.6924836E-004  0.9118800E+02  0.7818608E-02  0.1130116E+00
         25   -1    0    0    0    0  0.00000000000E+00  0.00000000000E+00  0.99999998245E-14  0.12500000000E+03  0.12500000000E+03 0.  0.
        -13    1    3    3    0    0 -0.34251819519E+02  0.27051893219E+02 -0.19874743626E+01  0.43691569959E+02  0.10566000000E+00 0. -1.
         23    2    1    0    0    0  0.81588392481E+01  0.11042424224E+02  0.25021226131E+02  0.96459440305E+02  0.92140436705E+02 0.  0.
         13    1    3    3    0    0  0.42410658767E+02 -0.16009468995E+02  0.27008700493E+02  0.52767870346E+02  0.10566000000E+00 0.  1.
         22    1    1    0    0    0 -0.81588392481E+01 -0.11042424224E+02 -0.25021226131E+02  0.28540559695E+02  0.00000000000E+00 0.  1.
</event>
<event>
 5    1  0.6924836E-004  0.9118800E+02  0.7818608E-02  0.1130116E+00
         25   -1    0    0    0    0  0.00000000000E+00  0.00000000000E+00  0.99999998245E-14  0.12500000000E+03  0.12500000000E+03 0.  0.
        -13    1    3    3    0    0 -0.20452601013E+02 -0.21266582938E+02  0.28471614162E+02  0.41002687901E+02  0.10566000000E+00 0.  1.
         23    2    1    0    0    0 -0.19097467286E+02 -0.68111406621E+00 -0.22197054445E+02  0.95710302167E+02  0.91118469816E+02 0.  0.
         13    1    3    3    0    0  0.13551337264E+01  0.20585468872E+02 -0.50668668608E+02  0.54707614265E+02  0.10566000000E+00 0. -1.
         22    1    1    0    0    0  0.19097467286E+02  0.68111406621E+00  0.22197054445E+02  0.29289697833E+02  0.00000000000E+00 0. -1.
</event>
<event>
 5    1  0.6924836E-004  0.9118800E+02  0.7818608E-02  0.1130116E+00
         25   -1    0    0    0    0  0.00000000000E+00  0.00000000000E+00  0.99999998245E-14  0.12500000000E+03  0.12500000000E+03 0.  0.
        -13    1    3    3    0    0 -0.29932840988E+01  0.26154896031E+02 -0.23252419791E+02  0.35124414960E+02  0.10566000000E+00 0. -1.
         23    2    1    0    0    0  0.86234106605E+01 -0.28033172618E+02  0.10808398261E+01  0.95650550377E+02  0.91036462993E+02 0.  0.
         13    1    3    3    0    0  0.11616694759E+02 -0.54188068648E+02  0.24333259617E+02  0.60526135418E+02  0.10566000000E+00 0.  1.
         22    1    1    0    0    0 -0.86234106605E+01  0.28033172618E+02 -0.10808398261E+01  0.29349449623E+02  0.00000000000E+00 0.  1.
</event>
<event>
 5    1  0.6924836E-004  0.9118800E+02  0.7818608E-02  0.1130116E+00
         25   -1    0    0    0    0  0.00000000000E+00  0.00000000000E+00  0.99999998245E-14  0.12500000000E+03  0.12500000000E+03 0.  0.
        -13    1    3    3    0    0  0.18432607121E+02  0.31403728285E+02  0.12843191341E+02  0.38612354024E+02  0.10566000000E+00 0.  1.
         23    2    1    0    0    0  0.16113706630E+02 -0.21435581860E+02 -0.10206067593E+02  0.96306803476E+02  0.91933132597E+02 0.  0.
         13    1    3    3    0    0 -0.23189004908E+01 -0.52839310145E+02 -0.23049258934E+02  0.57694449452E+02  0.10566000000E+00 0. -1.
         22    1    1    0    0    0 -0.16113706630E+02  0.21435581860E+02  0.10206067593E+02  0.28693196524E+02  0.00000000000E+00 0. -1.
</event>
<event>
 5    1  0.6924836E-004  0.9118800E+02  0.7818608E-02  0.1130116E+00
         25   -1    0    0    0    0  0.00000000000E+00  0.00000000000E+00  0.99999998245E-14  0.12500000000E+03  0.12500000000E+03 0.  0.
        -13    1    3    3    0    0 -0.47688114139E+01 -0.26043085100E+02 -0.54797696099E+02  0.60858709365E+02  0.10566000000E+00 0. -1.
         23    2    1    0    0    0 -0.71202183773E+01 -0.19739104496E+02 -0.21025512692E+02  0.95294748949E+02  0.90546602571E+02 0.  0.
         13    1    3    3    0    0 -0.23514069634E+01  0.63039806037E+01  0.33772183406E+02  0.34436039584E+02  0.10566000000E+00 0.  1.
         22    1    1    0    0    0  0.71202183773E+01  0.19739104496E+02  0.21025512692E+02  0.29705251051E+02  0.00000000000E+00 0. -1.
</event>
<event>
 5    1  0.6924836E-004  0.9118800E+02  0.7818608E-02  0.1130116E+00
         25   -1    0    0    0    0  0.00000000000E+00  0.00000000000E+00  0.99999998245E-14  0.12500000000E+03  0.12500000000E+03 0.  0.
        -13    1    3    3    0    0  0.63254351051E+01 -0.32307137680E+02  0.26019234642E+02  0.41961577780E+02  0.10566000000E+00 0.  1.
         23    2    1    0    0    0  0.23948883085E+02 -0.14353999847E+02 -0.17370077829E+02  0.92116783666E+02  0.86047637484E+02 0.  0.
         13    1    3    3    0    0  0.17623447980E+02  0.17953137833E+02 -0.43389312472E+02  0.50155205887E+02  0.10566000000E+00 0. -1.
         22    1    1    0    0    0 -0.23948883085E+02  0.14353999847E+02  0.17370077829E+02  0.32883216334E+02  0.00000000000E+00 0. -1.
</event>
<event>
 5    1  0.6924836E-004  0.9118800E+02  0.7818608E-02  0.1130116E+00
         25   -1    0    0    0    0  0.00000000000E+00  0.00000000000E+00  0.99999998245E-14  0.12500000000E+03  0.12500000000E+03 0.  0.
        -13    1    3    3    0    0  0.17624798756E+02 -0.51382364128E+02 -0.13937832909E+01  0.54339071307E+02  0.10566000000E+00 0.  1.
         23    2    1    0    0    0  0.16128249321E+02 -0.39090021952E+02  0.19348794513E+02  0.78497031369E+02  0.63239685659E+02 0.  0.
         13    1    3    3    0    0 -0.14965494343E+01  0.12292342176E+02  0.20742577804E+02  0.24157960062E+02  0.10566000000E+00 0. -1.
         22    1    1    0    0    0 -0.16128249321E+02  0.39090021952E+02 -0.19348794513E+02  0.46502968631E+02  0.00000000000E+00 0.  1.
</event>
<event>
 5    1  0.6924836E-004  0.9118800E+02  0.7818608E-02  0.1130116E+00
         25   -1    0    0    0    0  0.00000000000E+00  0.00000000000E+00  0.99999998245E-14  0.12500000000E+03  0.12500000000E+03 0.  0.
        -13    1    3    3    0    0 -0.22105942223E+02 -0.38807169824E+02  0.39836609168E+02  0.59846768545E+02  0.10566000000E+00 0.  1.
         23    2    1    0    0    0 -0.15751415150E+02 -0.69809541611E+01  0.22560452844E+02  0.96613122173E+02  0.92348689992E+02 0.  0.
         13    1    3    3    0    0  0.63545270728E+01  0.31826215663E+02 -0.17276156324E+02  0.36766353628E+02  0.10566000000E+00 0. -1.
         22    1    1    0    0    0  0.15751415150E+02  0.69809541611E+01 -0.22560452844E+02  0.28386877827E+02  0.00000000000E+00 0.  1.
</event>
<event>
 5    1  0.6924836E-004  0.9118800E+02  0.7818608E-02  0.1130116E+00
         25   -1    0    0    0    0  0.00000000000E+00  0.00000000000E+00  0.99999998245E-14  0.12500000000E+03  0.12500000000E+03 0.  0.
        -13    1    3    3    0    0 -0.62129352330E+01  0.14854359191E+02 -0.31523366425E+02  0.35397547175E+02  0.10566000000E+00 0.  1.
         23    2    1    0    0    0  0.17376883874E+02 -0.20622682653E+02  0.11260280167E+02  0.95775950957E+02  0.91208485018E+02 0.  0.
         13    1    3    3    0    0  0.23589819107E+02 -0.35477041844E+02  0.42783646592E+02  0.60378403783E+02  0.10566000000E+00 0. -1.
         22    1    1    0    0    0 -0.17376883874E+02  0.20622682653E+02 -0.11260280167E+02  0.29224049043E+02  0.00000000000E+00 0. -1.
</event>
<event>
 5    1  0.6924836E-004  0.9118800E+02  0.7818608E-02  0.1130116E+00
         25   -1    0    0    0    0  0.00000000000E+00  0.00000000000E+00  0.99999998245E-14  0.12500000000E+03  0.12500000000E+03 0.  0.
        -13    1    3    3    0    0 -0.26816668688E+02  0.16091045193E+02 -0.38784927311E+02  0.49823058973E+02  0.10566000000E+00 0.  1.
         23    2    1    0    0    0  0.83132047338E+01  0.25745198036E+02 -0.10368672052E+02  0.96027013357E+02  0.91551916088E+02 0.  0.
         13    1    3    3    0    0  0.35129873422E+02  0.96541528431E+01  0.28416255259E+02  0.46203954384E+02  0.10566000000E+00 0. -1.
         22    1    1    0    0    0 -0.83132047338E+01 -0.25745198036E+02  0.10368672052E+02  0.28972986643E+02  0.00000000000E+00 0. -1.
</event>
<event>
 5    1  0.6924836E-004  0.9118800E+02  0.7818608E-02  0.1130116E+00
         25   -1    0    0    0    0  0.00000000000E+00  0.00000000000E+00  0.99999998245E-14  0.12500000000E+03  0.12500000000E+03 0.  0.
        -13    1    3    3    0    0  0.47937087515E+01  0.34549694966E+02  0.10626711537E+02  0.36463669974E+02  0.10566000000E+00 0.  1.
         23    2    1    0    0    0  0.11963833995E+02 -0.24444409746E+02 -0.35355574255E+01  0.97556190899E+02  0.93616492803E+02 0.  0.
         13    1    3    3    0    0  0.71701252431E+01 -0.58994104712E+02 -0.14162268963E+02  0.61092520925E+02  0.10566000000E+00 0. -1.
         22    1    1    0    0    0 -0.11963833995E+02  0.24444409746E+02  0.35355574255E+01  0.27443809101E+02  0.00000000000E+00 0. -1.
</event>
<event>
 5    1  0.6924836E-004  0.9118800E+02  0.7818608E-02  0.1130116E+00
         25   -1    0    0    0    0  0.00000000000E+00  0.00000000000E+00  0.99999998245E-14  0.12500000000E+03  0.12500000000E+03 0.  0.
        -13    1    3    3    0    0  0.36084302838E+02 -0.27824498338E+02  0.40365779726E+02  0.60874353844E+02  0.10566000000E+00 0.  1.
         23    2    1    0    0    0  0.90144115759E+01 -0.14477266397E+02  0.24985358518E+02  0.94749066153E+02  0.89790124948E+02 0.  0.
         13    1    3    3    0    0 -0.27069891262E+02  0.13347231941E+02 -0.15380421208E+02  0.33874712309E+02  0.10566000000E+00 0. -1.
         22    1    1    0    0    0 -0.90144115759E+01  0.14477266397E+02 -0.24985358518E+02  0.30250933847E+02  0.00000000000E+00 0.  1.
</event>
<event>
 5    1  0.6924836E-004  0.9118800E+02  0.7818608E-02  0.1130116E+00
         25   -1    0    0    0    0  0.00000000000E+00  0.00000000000E+00  0.99999998245E-14  0.12500000000E+03  0.12500000000E+03 0.  0.
        -13    1    3    3    0    0  0.32772232813E+02 -0.19784023747E+02  0.11193963963E+02  0.39884117546E+02  0.10566000000E+00 0. -1.
         23    2    1    0    0    0  0.64879448791E+01  0.18127723790E+02 -0.21282022513E+02  0.96301005578E+02  0.91925248950E+02 0.  0.
         13    1    3    3    0    0 -0.26284287934E+02  0.37911747538E+02 -0.32475986476E+02  0.56416888032E+02  0.10566000000E+00 0.  1.
         22    1    1    0    0    0 -0.64879448791E+01 -0.18127723790E+02  0.21282022513E+02  0.28698994422E+02  0.00000000000E+00 0.  1.
</event>
<event>
 5    1  0.6924836E-004  0.9118800E+02  0.7818608E-02  0.1130116E+00
         25   -1    0    0    0    0  0.00000000000E+00  0.00000000000E+00  0.99999998245E-14  0.12500000000E+03  0.12500000000E+03 0.  0.
        -13    1    3    3    0    0  0.36249588173E+01  0.97931479532E+01 -0.29650838923E+02  0.31436117542E+02  0.10566000000E+00 0.  1.
         23    2    1    0    0    0  0.15349895681E+02  0.35087543629E+02  0.14828808647E+02  0.83931172634E+02  0.73196947740E+02 0.  0.
         13    1    3    3    0    0  0.11724936863E+02  0.25294395676E+02  0.44479647570E+02  0.52495055092E+02  0.10566000000E+00 0. -1.
         22    1    1    0    0    0 -0.15349895681E+02 -0.35087543629E+02 -0.14828808647E+02  0.41068827366E+02  0.00000000000E+00 0. -1.
</event>
<event>
 5    1  0.6924836E-004  0.9118800E+02  0.7818608E-02  0.1130116E+00
         25   -1    0    0    0    0  0.00000000000E+00  0.00000000000E+00  0.99999998245E-14  0.12500000000E+03  0.12500000000E+03 0.  0.
        -13    1    3    3    0    0 -0.19290468511E+02  0.31795454659E+02 -0.15064471199E+01  0.37220339323E+02  0.10566000000E+00 0. -1.
         23    2    1    0    0    0  0.21994409450E+02 -0.16679991563E+01  0.20637827444E+02  0.94793110226E+02  0.89851419334E+02 0.  0.
         13    1    3    3    0    0  0.41284877961E+02 -0.33463453815E+02  0.22144274564E+02  0.57572770903E+02  0.10566000000E+00 0.  1.
         22    1    1    0    0    0 -0.21994409450E+02  0.16679991563E+01 -0.20637827444E+02  0.30206889774E+02  0.00000000000E+00 0.  1.
</event>
<event>
 5    1  0.6924836E-004  0.9118800E+02  0.7818608E-02  0.1130116E+00
         25   -1    0    0    0    0  0.00000000000E+00  0.00000000000E+00  0.99999998245E-14  0.12500000000E+03  0.12500000000E+03 0.  0.
        -13    1    3    3    0    0  0.45620887707E+01 -0.24705883104E+02  0.49503451187E+02  0.55513927598E+02  0.10566000000E+00 0. -1.
         23    2    1    0    0    0  0.16413589018E+02  0.10940625078E+01  0.32409631537E+02  0.88654613861E+02  0.80861940771E+02 0.  0.
         13    1    3    3    0    0  0.11851500247E+02  0.25799945612E+02 -0.17093819650E+02  0.33140686262E+02  0.10566000000E+00 0.  1.
         22    1    1    0    0    0 -0.16413589018E+02 -0.10940625078E+01 -0.32409631537E+02  0.36345386139E+02  0.00000000000E+00 0. -1.
</event>
<event>
 5    1  0.6924836E-004  0.9118800E+02  0.7818608E-02  0.1130116E+00
         25   -1    0    0    0    0  0.00000000000E+00  0.00000000000E+00  0.99999998245E-14  0.12500000000E+03  0.12500000000E+03 0.  0.
        -13    1    3    3    0    0  0.38171911407E+02 -0.89498207873E+00 -0.99490620279E+01  0.39457455730E+02  0.10566000000E+00 0. -1.
         23    2    1    0    0    0 -0.15363250261E+01 -0.72982477341E+01  0.28765269478E+02  0.95283582943E+02  0.90531186537E+02 0.  0.
         13    1    3    3    0    0 -0.39708236433E+02 -0.64032656554E+01  0.38714331506E+02  0.55826127213E+02  0.10566000000E+00 0.  1.
         22    1    1    0    0    0  0.15363250261E+01  0.72982477341E+01 -0.28765269478E+02  0.29716417057E+02  0.00000000000E+00 0.  1.
</event>
<event>
 5    1  0.6924836E-004  0.9118800E+02  0.7818608E-02  0.1130116E+00
         25   -1    0    0    0    0  0.00000000000E+00  0.00000000000E+00  0.99999998245E-14  0.12500000000E+03  0.12500000000E+03 0.  0.
        -13    1    3    3    0    0 -0.29100406047E+02 -0.17241830308E+02 -0.25896336324E+02  0.42599832670E+02  0.10566000000E+00 0.  1.
         23    2    1    0    0    0 -0.42316431126E-01  0.25968435169E+02 -0.11303240752E+02  0.96678194491E+02  0.92436727672E+02 0.  0.
         13    1    3    3    0    0  0.29058089616E+02  0.43210265477E+02  0.14593095572E+02  0.54078361820E+02  0.10566000000E+00 0. -1.
         22    1    1    0    0    0  0.42316431126E-01 -0.25968435169E+02  0.11303240752E+02  0.28321805509E+02  0.00000000000E+00 0.  1.
</event>
<event>
 5    1  0.6924836E-004  0.9118800E+02  0.7818608E-02  0.1130116E+00
         25   -1    0    0    0    0  0.00000000000E+00  0.00000000000E+00  0.99999998245E-14  0.12500000000E+03  0.12500000000E+03 0.  0.
        -13    1    3    3    0    0  0.87238203537E+01 -0.39301847917E+02 -0.41097961915E+02  0.57530808520E+02  0.10566000000E+00 0. -1.
         23    2    1    0    0    0  0.19674107141E+02 -0.10504716659E+02 -0.13264159079E+02  0.99050867452E+02  0.95591405802E+02 0.  0.
         13    1    3    3    0    0  0.10950286788E+02  0.28797131258E+02  0.27833802836E+02  0.41520058933E+02  0.10566000000E+00 0.  1.
         22    1    1    0    0    0 -0.19674107141E+02  0.10504716659E+02  0.13264159079E+02  0.25949132548E+02  0.00000000000E+00 0. -1.
</event>
<event>
 5    1  0.6924836E-004  0.9118800E+02  0.7818608E-02  0.1130116E+00
         25   -1    0    0    0    0  0.00000000000E+00  0.00000000000E+00  0.99999998245E-14  0.12500000000E+03  0.12500000000E+03 0.  0.
        -13    1    3    3    0    0  0.39183627060E+02  0.69832108799E+01  0.90835878805E+01  0.40824558743E+02  0.10566000000E+00 0. -1.
         23    2    1    0    0    0 -0.76555920666E+01 -0.16294151703E+02 -0.17842726431E+02  0.99653001044E+02  0.96375568797E+02 0.  0.
         13    1    3    3    0    0 -0.46839219126E+02 -0.23277362582E+02 -0.26926314311E+02  0.58828442301E+02  0.10566000000E+00 0.  1.
         22    1    1    0    0    0  0.76555920666E+01  0.16294151703E+02  0.17842726431E+02  0.25346998956E+02  0.00000000000E+00 0.  1.
</event>
<event>
 5    1  0.6924836E-004  0.9118800E+02  0.7818608E-02  0.1130116E+00
         25   -1    0    0    0    0  0.00000000000E+00  0.00000000000E+00  0.99999998245E-14  0.12500000000E+03  0.12500000000E+03 0.  0.
        -13    1    3    3    0    0  0.28743528879E+02 -0.45923456142E+02  0.18259382822E+01  0.54207928304E+02  0.10566000000E+00 0. -1.
         23    2    1    0    0    0 -0.94068902531E+01 -0.26101212834E+02  0.17400823304E+01  0.97200885227E+02  0.93140868080E+02 0.  0.
         13    1    3    3    0    0 -0.38150419132E+02  0.19822243308E+02 -0.85855951782E-01  0.42992956923E+02  0.10566000000E+00 0.  1.
         22    1    1    0    0    0  0.94068902531E+01  0.26101212834E+02 -0.17400823304E+01  0.27799114773E+02  0.00000000000E+00 0. -1.
</event>
<event>
 5    1  0.6924836E-004  0.9118800E+02  0.7818608E-02  0.1130116E+00
         25   -1    0    0    0    0  0.00000000000E+00  0.00000000000E+00  0.99999998245E-14  0.12500000000E+03  0.12500000000E+03 0.  0.
        -13    1    3    3    0    0  0.57887801731E+02  0.44982701022E+01 -0.21716911990E+02  0.61990865888E+02  0.10566000000E+00 0. -1.
         23    2    1    0    0    0  0.25225678873E+02 -0.10773702950E+01 -0.14434575186E+02  0.95916455475E+02  0.91400841729E+02 0.  0.
         13    1    3    3    0    0 -0.32662122858E+02 -0.55756403972E+01  0.72823368040E+01  0.33925589587E+02  0.10566000000E+00 0.  1.
         22    1    1    0    0    0 -0.25225678873E+02  0.10773702950E+01  0.14434575186E+02  0.29083544525E+02  0.00000000000E+00 0. -1.
</event>
<event>
 5    1  0.6924836E-004  0.9118800E+02  0.7818608E-02  0.1130116E+00
         25   -1    0    0    0    0  0.00000000000E+00  0.00000000000E+00  0.99999998245E-14  0.12500000000E+03  0.12500000000E+03 0.  0.
        -13    1    3    3    0    0 -0.25488328877E+02  0.34211470781E+01  0.25965469397E+02  0.36545532167E+02  0.10566000000E+00 0.  1.
         23    2    1    0    0    0  0.53088369385E+01  0.19264689551E+02 -0.21723249825E+02  0.95483706260E+02  0.90807084333E+02 0.  0.
         13    1    3    3    0    0  0.30797165816E+02  0.15843542473E+02 -0.47688719222E+02  0.58938174094E+02  0.10566000000E+00 0. -1.
         22    1    1    0    0    0 -0.53088369385E+01 -0.19264689551E+02  0.21723249825E+02  0.29516293740E+02  0.00000000000E+00 0. -1.
</event>
<event>
 5    1  0.6924836E-004  0.9118800E+02  0.7818608E-02  0.1130116E+00
         25   -1    0    0    0    0  0.00000000000E+00  0.00000000000E+00  0.99999998245E-14  0.12500000000E+03  0.12500000000E+03 0.  0.
        -13    1    3    3    0    0 -0.94149209760E+01 -0.50040551159E+02 -0.35841565545E+02  0.62268181940E+02  0.10566000000E+00 0.  1.
         23    2    1    0    0    0 -0.13184754534E+01 -0.27499496684E+02 -0.18874381499E+02  0.91620320966E+02  0.85323386252E+02 0.  0.
         13    1    3    3    0    0  0.80964455226E+01  0.22541054475E+02  0.16967184046E+02  0.29352139026E+02  0.10566000000E+00 0. -1.
         22    1    1    0    0    0  0.13184754534E+01  0.27499496684E+02  0.18874381499E+02  0.33379679034E+02  0.00000000000E+00 0.  1.
</event>
<event>
 5    1  0.6924836E-004  0.9118800E+02  0.7818608E-02  0.1130116E+00
         25   -1    0    0    0    0  0.00000000000E+00  0.00000000000E+00  0.99999998245E-14  0.12500000000E+03  0.12500000000E+03 0.  0.
        -13    1    3    3    0    0 -0.15086192781E+02  0.36814659000E+01 -0.53941289353E+02  0.56132167827E+02  0.10566000000E+00 0. -1.
         23    2    1    0    0    0 -0.47841161119E+01 -0.18052425349E+02 -0.21412068481E+02  0.96587775437E+02  0.92314375150E+02 0.  0.
         13    1    3    3    0    0  0.10302076669E+02 -0.21733891249E+02  0.32529220872E+02  0.40455607610E+02  0.10566000000E+00 0.  1.
         22    1    1    0    0    0  0.47841161119E+01  0.18052425349E+02  0.21412068481E+02  0.28412224563E+02  0.00000000000E+00 0. -1.
</event>
<event>
 5    1  0.6924836E-004  0.9118800E+02  0.7818608E-02  0.1130116E+00
         25   -1    0    0    0    0  0.00000000000E+00  0.00000000000E+00  0.99999998245E-14  0.12500000000E+03  0.12500000000E+03 0.  0.
        -13    1    3    3    0    0 -0.27519514438E+02  0.39857322154E+02  0.20155127814E+02  0.52461129852E+02  0.10566000000E+00 0. -1.
         23    2    1    0    0    0  0.13231868844E+02  0.20192851137E+02  0.10202587429E+02  0.98790719576E+02  0.95250616239E+02 0.  0.
         13    1    3    3    0    0  0.40751383282E+02 -0.19664471017E+02 -0.99525403854E+01  0.46329589723E+02  0.10566000000E+00 0.  1.
         22    1    1    0    0    0 -0.13231868844E+02 -0.20192851137E+02 -0.10202587429E+02  0.26209280424E+02  0.00000000000E+00 0. -1.
</event>
<event>
 5    1  0.6924836E-004  0.9118800E+02  0.7818608E-02  0.1130116E+00
         25   -1    0    0    0    0  0.00000000000E+00  0.00000000000E+00  0.99999998245E-14  0.12500000000E+03  0.12500000000E+03 0.  0.
        -13    1    3    3    0    0 -0.34403347626E+02  0.23326722935E+02 -0.11360812176E+01  0.41581584570E+02  0.10566000000E+00 0. -1.
         23    2    1    0    0    0  0.92953045564E+01  0.85750582023E+01 -0.27517804324E+02  0.94715286616E+02  0.89743086942E+02 0.  0.
         13    1    3    3    0    0  0.43698652183E+02 -0.14751664733E+02 -0.26381723106E+02  0.53133702046E+02  0.10566000000E+00 0.  1.
         22    1    1    0    0    0 -0.92953045564E+01 -0.85750582023E+01  0.27517804324E+02  0.30284713384E+02  0.00000000000E+00 0.  1.
</event>
<event>
 5    1  0.6924836E-004  0.9118800E+02  0.7818608E-02  0.1130116E+00
         25   -1    0    0    0    0  0.00000000000E+00  0.00000000000E+00  0.99999998245E-14  0.12500000000E+03  0.12500000000E+03 0.  0.
        -13    1    3    3    0    0 -0.21723042527E+02  0.34924296796E+02  0.11504410620E+02  0.42707841331E+02  0.10566000000E+00 0.  1.
         23    2    1    0    0    0  0.74351984482E+01  0.88555225468E+01 -0.25780908994E+02  0.96744775278E+02  0.92526719489E+02 0.  0.
         13    1    3    3    0    0  0.29158240975E+02 -0.26068774250E+02 -0.37285319614E+02  0.54036933947E+02  0.10566000000E+00 0. -1.
         22    1    1    0    0    0 -0.74351984482E+01 -0.88555225468E+01  0.25780908994E+02  0.28255224722E+02  0.00000000000E+00 0. -1.
</event>
<event>
 5    1  0.6924836E-004  0.9118800E+02  0.7818608E-02  0.1130116E+00
         25   -1    0    0    0    0  0.00000000000E+00  0.00000000000E+00  0.99999998245E-14  0.12500000000E+03  0.12500000000E+03 0.  0.
        -13    1    3    3    0    0 -0.43437738862E+02 -0.62907247338E+01 -0.20305565759E+02  0.48360495655E+02  0.10566000000E+00 0.  1.
         23    2    1    0    0    0  0.28029448359E+01 -0.15442327414E+02 -0.24735078648E+02  0.95705869335E+02  0.91112388476E+02 0.  0.
         13    1    3    3    0    0  0.46240683698E+02 -0.91516026797E+01 -0.44295128890E+01  0.47345373681E+02  0.10566000000E+00 0. -1.
         22    1    1    0    0    0 -0.28029448359E+01  0.15442327414E+02  0.24735078648E+02  0.29294130665E+02  0.00000000000E+00 0.  1.
</event>
<event>
 5    1  0.6924836E-004  0.9118800E+02  0.7818608E-02  0.1130116E+00
         25   -1    0    0    0    0  0.00000000000E+00  0.00000000000E+00  0.99999998245E-14  0.12500000000E+03  0.12500000000E+03 0.  0.
        -13    1    3    3    0    0 -0.11437796415E+02  0.60169984050E+02  0.55543220797E+01  0.61498876617E+02  0.10566000000E+00 0. -1.
         23    2    1    0    0    0 -0.21840615687E+01  0.27027514102E+02  0.97950487321E+01  0.96169467172E+02  0.91746208603E+02 0.  0.
         13    1    3    3    0    0  0.92537348460E+01 -0.33142469948E+02  0.42407266524E+01  0.34670590555E+02  0.10566000000E+00 0.  1.
         22    1    1    0    0    0  0.21840615687E+01 -0.27027514102E+02 -0.97950487321E+01  0.28830532828E+02  0.00000000000E+00 0. -1.
</event>
<event>
 5    1  0.6924836E-004  0.9118800E+02  0.7818608E-02  0.1130116E+00
         25   -1    0    0    0    0  0.00000000000E+00  0.00000000000E+00  0.99999998245E-14  0.12500000000E+03  0.12500000000E+03 0.  0.
        -13    1    3    3    0    0 -0.30602819875E+02 -0.17126846655E+02  0.29768000550E+02  0.46000070450E+02  0.10566000000E+00 0.  1.
         23    2    1    0    0    0  0.57258583111E+00  0.20925386189E+02  0.19787537224E+02  0.96194683284E+02  0.91780557969E+02 0.  0.
         13    1    3    3    0    0  0.31175405706E+02  0.38052232844E+02 -0.99804633256E+01  0.50194612834E+02  0.10566000000E+00 0. -1.
         22    1    1    0    0    0 -0.57258583111E+00 -0.20925386189E+02 -0.19787537224E+02  0.28805316716E+02  0.00000000000E+00 0. -1.
</event>
<event>
 5    1  0.6924836E-004  0.9118800E+02  0.7818608E-02  0.1130116E+00
         25   -1    0    0    0    0  0.00000000000E+00  0.00000000000E+00  0.99999998245E-14  0.12500000000E+03  0.12500000000E+03 0.  0.
        -13    1    3    3    0    0 -0.19561969279E+01  0.55056938700E+01 -0.47871448101E+02  0.48226819082E+02  0.10566000000E+00 0.  1.
         23    2    1    0    0    0 -0.20746084468E+01 -0.26326242449E+02 -0.12594926322E+02  0.95742399095E+02  0.91162491046E+02 0.  0.
         13    1    3    3    0    0 -0.11841151885E+00 -0.31831936319E+02  0.35276521779E+02  0.47515580013E+02  0.10566000000E+00 0. -1.
         22    1    1    0    0    0  0.20746084468E+01  0.26326242449E+02  0.12594926322E+02  0.29257600905E+02  0.00000000000E+00 0. -1.
</event>
<event>
 5    1  0.6924836E-004  0.9118800E+02  0.7818608E-02  0.1130116E+00
         25   -1    0    0    0    0  0.00000000000E+00  0.00000000000E+00  0.99999998245E-14  0.12500000000E+03  0.12500000000E+03 0.  0.
        -13    1    3    3    0    0  0.44057331077E+02  0.16137258567E+02  0.10512542123E+02  0.48083097254E+02  0.10566000000E+00 0.  1.
         23    2    1    0    0    0 -0.30976686238E+01  0.25049136241E+02  0.13887910050E+02  0.96191514741E+02  0.91776242489E+02 0.  0.
         13    1    3    3    0    0 -0.47154999700E+02  0.89118776742E+01  0.33753679266E+01  0.48108417487E+02  0.10566000000E+00 0. -1.
         22    1    1    0    0    0  0.30976686238E+01 -0.25049136241E+02 -0.13887910050E+02  0.28808485259E+02  0.00000000000E+00 0.  1.
</event>
<event>
 5    1  0.6924836E-004  0.9118800E+02  0.7818608E-02  0.1130116E+00
         25   -1    0    0    0    0  0.00000000000E+00  0.00000000000E+00  0.99999998245E-14  0.12500000000E+03  0.12500000000E+03 0.  0.
        -13    1    3    3    0    0 -0.25063615248E+02 -0.15191896271E+02 -0.19105165347E+02  0.34985668903E+02  0.10566000000E+00 0.  1.
         23    2    1    0    0    0  0.18389019593E+02  0.20131579096E+02  0.71175387373E+01  0.96820293185E+02  0.92628685062E+02 0.  0.
         13    1    3    3    0    0  0.43452634841E+02  0.35323475367E+02  0.26222704084E+02  0.61834624282E+02  0.10566000000E+00 0. -1.
         22    1    1    0    0    0 -0.18389019593E+02 -0.20131579096E+02 -0.71175387373E+01  0.28179706815E+02  0.00000000000E+00 0. -1.
</event>
<event>
 5    1  0.6924836E-004  0.9118800E+02  0.7818608E-02  0.1130116E+00
         25   -1    0    0    0    0  0.00000000000E+00  0.00000000000E+00  0.99999998245E-14  0.12500000000E+03  0.12500000000E+03 0.  0.
        -13    1    3    3    0    0 -0.47977228092E+02 -0.26825866179E+02  0.36856671095E+01  0.55091168237E+02  0.10566000000E+00 0. -1.
         23    2    1    0    0    0 -0.74806924473E+01 -0.26751212841E+02  0.86876340568E+01  0.95895650953E+02  0.91372384987E+02 0.  0.
         13    1    3    3    0    0  0.40496535645E+02  0.74653338682E-01  0.50019669473E+01  0.40804482716E+02  0.10566000000E+00 0.  1.
         22    1    1    0    0    0  0.74806924473E+01  0.26751212841E+02 -0.86876340568E+01  0.29104349047E+02  0.00000000000E+00 0. -1.
</event>
<event>
 5    1  0.6924836E-004  0.9118800E+02  0.7818608E-02  0.1130116E+00
         25   -1    0    0    0    0  0.00000000000E+00  0.00000000000E+00  0.99999998245E-14  0.12500000000E+03  0.12500000000E+03 0.  0.
        -13    1    3    3    0    0 -0.11876996186E+02 -0.36507068397E+02  0.31277724720E+02  0.49519049961E+02  0.10566000000E+00 0. -1.
         23    2    1    0    0    0 -0.27095022088E+02  0.18332965636E+01  0.90632565668E+01  0.96370577759E+02  0.92019804606E+02 0.  0.
         13    1    3    3    0    0 -0.15218025902E+02  0.38340364961E+02 -0.22214468153E+02  0.46851527798E+02  0.10566000000E+00 0.  1.
         22    1    1    0    0    0  0.27095022088E+02 -0.18332965636E+01 -0.90632565668E+01  0.28629422241E+02  0.00000000000E+00 0.  1.
</event>
<event>
 5    1  0.6924836E-004  0.9118800E+02  0.7818608E-02  0.1130116E+00
         25   -1    0    0    0    0  0.00000000000E+00  0.00000000000E+00  0.99999998245E-14  0.12500000000E+03  0.12500000000E+03 0.  0.
        -13    1    3    3    0    0 -0.28530859208E+02  0.19995620889E+02 -0.29538091991E+02  0.45676523777E+02  0.10566000000E+00 0. -1.
         23    2    1    0    0    0  0.16659821188E+02  0.19372834966E+02 -0.40863342236E+00  0.99445678293E+02  0.96106293100E+02 0.  0.
         13    1    3    3    0    0  0.45190680395E+02 -0.62278592374E+00  0.29129458568E+02  0.53769154516E+02  0.10566000000E+00 0.  1.
         22    1    1    0    0    0 -0.16659821188E+02 -0.19372834966E+02  0.40863342236E+00  0.25554321707E+02  0.00000000000E+00 0.  1.
</event>
<event>
 5    1  0.6924836E-004  0.9118800E+02  0.7818608E-02  0.1130116E+00
         25   -1    0    0    0    0  0.00000000000E+00  0.00000000000E+00  0.99999998245E-14  0.12500000000E+03  0.12500000000E+03 0.  0.
        -13    1    3    3    0    0 -0.29165650441E+02  0.19761644065E+02  0.89591678522E+01  0.36351555598E+02  0.10566000000E+00 0. -1.
         23    2    1    0    0    0  0.17181071093E+02  0.10802541212E+01 -0.23448554402E+02  0.95910640152E+02  0.91392888333E+02 0.  0.
         13    1    3    3    0    0  0.46346721533E+02 -0.18681389944E+02 -0.32407722254E+02  0.59559084553E+02  0.10566000000E+00 0.  1.
         22    1    1    0    0    0 -0.17181071093E+02 -0.10802541212E+01  0.23448554402E+02  0.29089359848E+02  0.00000000000E+00 0.  1.
</event>
<event>
 5    1  0.6924836E-004  0.9118800E+02  0.7818608E-02  0.1130116E+00
         25   -1    0    0    0    0  0.00000000000E+00  0.00000000000E+00  0.99999998245E-14  0.12500000000E+03  0.12500000000E+03 0.  0.
        -13    1    3    3    0    0 -0.33363122361E+02 -0.82604967505E+01 -0.12854545399E+02  0.36695834119E+02  0.10566000000E+00 0.  1.
         23    2    1    0    0    0  0.20799189606E+02 -0.20599728020E+02  0.55284919527E+01  0.95208737757E+02  0.90427785770E+02 0.  0.
         13    1    3    3    0    0  0.54162311967E+02 -0.12339231269E+02  0.18383037351E+02  0.58512903638E+02  0.10566000000E+00 0. -1.
         22    1    1    0    0    0 -0.20799189606E+02  0.20599728020E+02 -0.55284919527E+01  0.29791262243E+02  0.00000000000E+00 0. -1.
</event>
<event>
 5    1  0.6924836E-004  0.9118800E+02  0.7818608E-02  0.1130116E+00
         25   -1    0    0    0    0  0.00000000000E+00  0.00000000000E+00  0.99999998245E-14  0.12500000000E+03  0.12500000000E+03 0.  0.
        -13    1    3    3    0    0  0.20842773396E+02 -0.14001350680E+02  0.27465222124E+02  0.37213016728E+02  0.10566000000E+00 0.  1.
         23    2    1    0    0    0 -0.23900508186E+02 -0.16778757952E+02 -0.83888784653E+01  0.94616874883E+02  0.89605907845E+02 0.  0.
         13    1    3    3    0    0 -0.44743281582E+02 -0.27774072723E+01 -0.35854100589E+02  0.57403858154E+02  0.10566000000E+00 0. -1.
         22    1    1    0    0    0  0.23900508186E+02  0.16778757952E+02  0.83888784653E+01  0.30383125117E+02  0.00000000000E+00 0. -1.
</event>
<event>
 5    1  0.6924836E-004  0.9118800E+02  0.7818608E-02  0.1130116E+00
         25   -1    0    0    0    0  0.00000000000E+00  0.00000000000E+00  0.99999998245E-14  0.12500000000E+03  0.12500000000E+03 0.  0.
        -13    1    3    3    0    0 -0.18234206057E+02  0.22026585055E+02 -0.19101327928E+02  0.34387913754E+02  0.10566000000E+00 0.  1.
         23    2    1    0    0    0  0.21878025152E+02 -0.19687336696E+02  0.71986218079E+00  0.95559255915E+02  0.90911022317E+02 0.  0.
         13    1    3    3    0    0  0.40112231209E+02 -0.41713921751E+02  0.19821190109E+02  0.61171342161E+02  0.10566000000E+00 0. -1.
         22    1    1    0    0    0 -0.21878025152E+02  0.19687336696E+02 -0.71986218079E+00  0.29440744085E+02  0.00000000000E+00 0. -1.
</event>
<event>
 5    1  0.6924836E-004  0.9118800E+02  0.7818608E-02  0.1130116E+00
         25   -1    0    0    0    0  0.00000000000E+00  0.00000000000E+00  0.99999998245E-14  0.12500000000E+03  0.12500000000E+03 0.  0.
        -13    1    3    3    0    0  0.74116747424E+01  0.83120019588E+01 -0.33255826843E+02  0.35071120342E+02  0.10566000000E+00 0.  1.
         23    2    1    0    0    0 -0.14759057272E+02 -0.18543967043E+02  0.16728159687E+02  0.95990694393E+02  0.91502314716E+02 0.  0.
         13    1    3    3    0    0 -0.22170732015E+02 -0.26855969002E+02  0.49983986530E+02  0.60919574051E+02  0.10566000000E+00 0. -1.
         22    1    1    0    0    0  0.14759057272E+02  0.18543967043E+02 -0.16728159687E+02  0.29009305607E+02  0.00000000000E+00 0. -1.
</event>
<event>
 5    1  0.6924836E-004  0.9118800E+02  0.7818608E-02  0.1130116E+00
         25   -1    0    0    0    0  0.00000000000E+00  0.00000000000E+00  0.99999998245E-14  0.12500000000E+03  0.12500000000E+03 0.  0.
        -13    1    3    3    0    0  0.52474584287E+02 -0.14184342084E+02 -0.89609151392E+01  0.55091621147E+02  0.10566000000E+00 0.  1.
         23    2    1    0    0    0  0.26035642686E+02  0.11877406965E+02  0.70590482120E+01  0.95525304956E+02  0.90864328748E+02 0.  0.
         13    1    3    3    0    0 -0.26438941601E+02  0.26061749050E+02  0.16019963351E+02  0.40433683808E+02  0.10566000000E+00 0. -1.
         22    1    1    0    0    0 -0.26035642686E+02 -0.11877406965E+02 -0.70590482120E+01  0.29474695044E+02  0.00000000000E+00 0.  1.
</event>
<event>
 5    1  0.6924836E-004  0.9118800E+02  0.7818608E-02  0.1130116E+00
         25   -1    0    0    0    0  0.00000000000E+00  0.00000000000E+00  0.99999998245E-14  0.12500000000E+03  0.12500000000E+03 0.  0.
        -13    1    3    3    0    0 -0.24262839827E+01 -0.23847022440E+02  0.22556414907E+02  0.32914591759E+02  0.10566000000E+00 0. -1.
         23    2    1    0    0    0  0.62643123589E+01  0.24144680512E+02 -0.16239671058E+02  0.95235354489E+02  0.90464571088E+02 0.  0.
         13    1    3    3    0    0  0.86905963416E+01  0.47991702952E+02 -0.38796085965E+02  0.62320762729E+02  0.10566000000E+00 0.  1.
         22    1    1    0    0    0 -0.62643123589E+01 -0.24144680512E+02  0.16239671058E+02  0.29764645511E+02  0.00000000000E+00 0.  1.
</event>
<event>
 5    1  0.6924836E-004  0.9118800E+02  0.7818608E-02  0.1130116E+00
         25   -1    0    0    0    0  0.00000000000E+00  0.00000000000E+00  0.99999998245E-14  0.12500000000E+03  0.12500000000E+03 0.  0.
        -13    1    3    3    0    0  0.38418079538E+02  0.45018604630E+02  0.17315492455E+02  0.61664098479E+02  0.10566000000E+00 0.  1.
         23    2    1    0    0    0  0.15940436941E+02  0.24190542351E+02  0.18993286859E+01  0.95967478260E+02  0.91470593991E+02 0.  0.
         13    1    3    3    0    0 -0.22477642597E+02 -0.20828062279E+02 -0.15416163769E+02  0.34303379781E+02  0.10566000000E+00 0. -1.
         22    1    1    0    0    0 -0.15940436941E+02 -0.24190542351E+02 -0.18993286859E+01  0.29032521740E+02  0.00000000000E+00 0.  1.
</event>
<event>
 5    1  0.6924836E-004  0.9118800E+02  0.7818608E-02  0.1130116E+00
         25   -1    0    0    0    0  0.00000000000E+00  0.00000000000E+00  0.99999998245E-14  0.12500000000E+03  0.12500000000E+03 0.  0.
        -13    1    3    3    0    0  0.29833608854E+01 -0.16063012158E+02  0.44423268338E+02  0.47332427950E+02  0.10566000000E+00 0. -1.
         23    2    1    0    0    0  0.24728812459E+02  0.10630048917E+02  0.92851928456E+01  0.96526733384E+02  0.92231682984E+02 0.  0.
         13    1    3    3    0    0  0.21745451573E+02  0.26693061076E+02 -0.35138075493E+02  0.49194305434E+02  0.10566000000E+00 0.  1.
         22    1    1    0    0    0 -0.24728812459E+02 -0.10630048917E+02 -0.92851928456E+01  0.28473266616E+02  0.00000000000E+00 0. -1.
</event>
<event>
 5    1  0.6924836E-004  0.9118800E+02  0.7818608E-02  0.1130116E+00
         25   -1    0    0    0    0  0.00000000000E+00  0.00000000000E+00  0.99999998245E-14  0.12500000000E+03  0.12500000000E+03 0.  0.
        -13    1    3    3    0    0 -0.12317131063E+02  0.38795529780E+02  0.40806055416E+02  0.57636361537E+02  0.10566000000E+00 0.  1.
         23    2    1    0    0    0  0.95625733010E+01  0.24058986516E+02  0.12769547737E+02  0.96132388569E+02  0.91695676791E+02 0.  0.
         13    1    3    3    0    0  0.21879704364E+02 -0.14736543264E+02 -0.28036507679E+02  0.38496027032E+02  0.10566000000E+00 0. -1.
         22    1    1    0    0    0 -0.95625733010E+01 -0.24058986516E+02 -0.12769547737E+02  0.28867611431E+02  0.00000000000E+00 0.  1.
</event>
<event>
 5    1  0.6924836E-004  0.9118800E+02  0.7818608E-02  0.1130116E+00
         25   -1    0    0    0    0  0.00000000000E+00  0.00000000000E+00  0.99999998245E-14  0.12500000000E+03  0.12500000000E+03 0.  0.
        -13    1    3    3    0    0  0.22950104190E+02 -0.36184258179E+02  0.32857553465E+01  0.42974587544E+02  0.10566000000E+00 0.  1.
         23    2    1    0    0    0 -0.18098429127E+02 -0.12754008182E+02 -0.19546671676E+02  0.95465439986E+02  0.90781936511E+02 0.  0.
         13    1    3    3    0    0 -0.41048533317E+02  0.23430249997E+02 -0.22832427023E+02  0.52490852443E+02  0.10566000000E+00 0. -1.
         22    1    1    0    0    0  0.18098429127E+02  0.12754008182E+02  0.19546671676E+02  0.29534560014E+02  0.00000000000E+00 0. -1.
</event>
<event>
 5    1  0.6924836E-004  0.9118800E+02  0.7818608E-02  0.1130116E+00
         25   -1    0    0    0    0  0.00000000000E+00  0.00000000000E+00  0.99999998245E-14  0.12500000000E+03  0.12500000000E+03 0.  0.
        -13    1    3    3    0    0 -0.30251965008E+02 -0.31691729478E+02 -0.27641211263E+02  0.51803424870E+02  0.10566000000E+00 0. -1.
         23    2    1    0    0    0  0.11778071119E+02 -0.17510796038E+02 -0.18149449959E+02  0.97165606330E+02  0.93093509884E+02 0.  0.
         13    1    3    3    0    0  0.42030036127E+02  0.14180933440E+02  0.94917613043E+01  0.45362181459E+02  0.10566000000E+00 0.  1.
         22    1    1    0    0    0 -0.11778071119E+02  0.17510796038E+02  0.18149449959E+02  0.27834393670E+02  0.00000000000E+00 0.  1.
</event>
<event>
 5    1  0.6924836E-004  0.9118800E+02  0.7818608E-02  0.1130116E+00
         25   -1    0    0    0    0  0.00000000000E+00  0.00000000000E+00  0.99999998245E-14  0.12500000000E+03  0.12500000000E+03 0.  0.
        -13    1    3    3    0    0  0.31487330055E+02  0.32489214791E+02 -0.17930243812E+02  0.48667297428E+02  0.10566000000E+00 0. -1.
         23    2    1    0    0    0  0.16338144658E+02 -0.12522378392E+02 -0.20126553737E+02  0.96210712118E+02  0.91802385750E+02 0.  0.
         13    1    3    3    0    0 -0.15149185398E+02 -0.45011593183E+02 -0.21963099255E+01  0.47543414690E+02  0.10566000000E+00 0.  1.
         22    1    1    0    0    0 -0.16338144658E+02  0.12522378392E+02  0.20126553737E+02  0.28789287882E+02  0.00000000000E+00 0.  1.
</event>
<event>
 5    1  0.6924836E-004  0.9118800E+02  0.7818608E-02  0.1130116E+00
         25   -1    0    0    0    0  0.00000000000E+00  0.00000000000E+00  0.99999998245E-14  0.12500000000E+03  0.12500000000E+03 0.  0.
        -13    1    3    3    0    0 -0.77924402000E+01 -0.18818919254E+02  0.27457773360E+02  0.34187926642E+02  0.10566000000E+00 0.  1.
         23    2    1    0    0    0 -0.18373146631E+01  0.86672203099E+01 -0.27599986150E+02  0.96012836142E+02  0.91532557243E+02 0.  0.
         13    1    3    3    0    0  0.59551255369E+01  0.27486139564E+02 -0.55057759510E+02  0.61824909499E+02  0.10566000000E+00 0. -1.
         22    1    1    0    0    0  0.18373146631E+01 -0.86672203099E+01  0.27599986150E+02  0.28987163858E+02  0.00000000000E+00 0. -1.
</event>
<event>
 5    1  0.6924836E-004  0.9118800E+02  0.7818608E-02  0.1130116E+00
         25   -1    0    0    0    0  0.00000000000E+00  0.00000000000E+00  0.99999998245E-14  0.12500000000E+03  0.12500000000E+03 0.  0.
        -13    1    3    3    0    0  0.28202093486E+02  0.48414289646E+02 -0.55942883071E+01  0.56308158775E+02  0.10566000000E+00 0. -1.
         23    2    1    0    0    0 -0.51958843181E+01  0.27808805096E+02 -0.79263928534E+01  0.95620507861E+02  0.90995202979E+02 0.  0.
         13    1    3    3    0    0 -0.33397977804E+02 -0.20605484551E+02 -0.23321045463E+01  0.39312349086E+02  0.10566000000E+00 0.  1.
         22    1    1    0    0    0  0.51958843181E+01 -0.27808805096E+02  0.79263928534E+01  0.29379492139E+02  0.00000000000E+00 0. -1.
</event>
<event>
 5    1  0.6924836E-004  0.9118800E+02  0.7818608E-02  0.1130116E+00
         25   -1    0    0    0    0  0.00000000000E+00  0.00000000000E+00  0.99999998245E-14  0.12500000000E+03  0.12500000000E+03 0.  0.
        -13    1    3    3    0    0 -0.15221765625E+01  0.26828018603E+02 -0.48605873086E+02  0.55539190363E+02  0.10566000000E+00 0.  1.
         23    2    1    0    0    0 -0.12962706365E+02 -0.52242989731E+01 -0.22830914017E+02  0.98231068551E+02  0.94513317251E+02 0.  0.
         13    1    3    3    0    0 -0.11440529803E+02 -0.32052317576E+02  0.25774959070E+02  0.42691878188E+02  0.10566000000E+00 0. -1.
         22    1    1    0    0    0  0.12962706365E+02  0.52242989731E+01  0.22830914017E+02  0.26768931449E+02  0.00000000000E+00 0.  1.
</event>
<event>
 5    1  0.6924836E-004  0.9118800E+02  0.7818608E-02  0.1130116E+00
         25   -1    0    0    0    0  0.00000000000E+00  0.00000000000E+00  0.99999998245E-14  0.12500000000E+03  0.12500000000E+03 0.  0.
        -13    1    3    3    0    0 -0.29067693171E+01 -0.30020820218E+02 -0.21918623680E+02  0.37284530069E+02  0.10566000000E+00 0.  1.
         23    2    1    0    0    0 -0.21614217475E+02  0.95728401401E+01  0.17009950389E+02  0.95876949376E+02  0.91346797119E+02 0.  0.
         13    1    3    3    0    0 -0.18707448158E+02  0.39593660358E+02  0.38928574069E+02  0.58592419307E+02  0.10566000000E+00 0. -1.
         22    1    1    0    0    0  0.21614217475E+02 -0.95728401401E+01 -0.17009950389E+02  0.29123050624E+02  0.00000000000E+00 0. -1.
</event>
<event>
 5    1  0.6924836E-004  0.9118800E+02  0.7818608E-02  0.1130116E+00
         25   -1    0    0    0    0  0.00000000000E+00  0.00000000000E+00  0.99999998245E-14  0.12500000000E+03  0.12500000000E+03 0.  0.
        -13    1    3    3    0    0 -0.22263346864E+02  0.47505721573E+02  0.27359739476E+02  0.59169389924E+02  0.10566000000E+00 0. -1.
         23    2    1    0    0    0 -0.15347171801E+01  0.15909776458E+02  0.22689857387E+02  0.97245613464E+02  0.93200876422E+02 0.  0.
         13    1    3    3    0    0  0.20728629684E+02 -0.31595945115E+02 -0.46698820890E+01  0.38076223540E+02  0.10566000000E+00 0.  1.
         22    1    1    0    0    0  0.15347171801E+01 -0.15909776458E+02 -0.22689857387E+02  0.27754386536E+02  0.00000000000E+00 0. -1.
</event>
<event>
 5    1  0.6924836E-004  0.9118800E+02  0.7818608E-02  0.1130116E+00
         25   -1    0    0    0    0  0.00000000000E+00  0.00000000000E+00  0.99999998245E-14  0.12500000000E+03  0.12500000000E+03 0.  0.
        -13    1    3    3    0    0  0.22893724478E+02  0.19800879613E+01 -0.50283261685E+02  0.55285268730E+02  0.10566000000E+00 0.  1.
         23    2    1    0    0    0  0.14927422631E+02  0.19730466088E+02 -0.13703683551E+02  0.96717316582E+02  0.92489616420E+02 0.  0.
         13    1    3    3    0    0 -0.79663018466E+01  0.17750378127E+02  0.36579578134E+02  0.41432047853E+02  0.10566000000E+00 0. -1.
         22    1    1    0    0    0 -0.14927422631E+02 -0.19730466088E+02  0.13703683551E+02  0.28282683418E+02  0.00000000000E+00 0.  1.
</event>
<event>
 5    1  0.6924836E-004  0.9118800E+02  0.7818608E-02  0.1130116E+00
         25   -1    0    0    0    0  0.00000000000E+00  0.00000000000E+00  0.99999998245E-14  0.12500000000E+03  0.12500000000E+03 0.  0.
        -13    1    3    3    0    0 -0.26859681057E+00 -0.45828144465E+02 -0.28065217547E+02  0.53739729897E+02  0.10566000000E+00 0. -1.
         23    2    1    0    0    0 -0.22876045366E+02 -0.15343809777E+02 -0.12136062914E+02  0.94899668223E+02  0.89999539197E+02 0.  0.
         13    1    3    3    0    0 -0.22607448555E+02  0.30484334689E+02  0.15929154634E+02  0.41159938326E+02  0.10566000000E+00 0.  1.
         22    1    1    0    0    0  0.22876045366E+02  0.15343809777E+02  0.12136062914E+02  0.30100331777E+02  0.00000000000E+00 0.  1.
</event>
<event>
 5    1  0.6924836E-004  0.9118800E+02  0.7818608E-02  0.1130116E+00
         25   -1    0    0    0    0  0.00000000000E+00  0.00000000000E+00  0.99999998245E-14  0.12500000000E+03  0.12500000000E+03 0.  0.
        -13    1    3    3    0    0 -0.10212299212E+02 -0.41536914898E+02 -0.15239848871E+02  0.45407824348E+02  0.10566000000E+00 0. -1.
         23    2    1    0    0    0 -0.14559198912E+02 -0.78987409555E+01  0.23085740170E+02  0.96586767504E+02  0.92313010329E+02 0.  0.
         13    1    3    3    0    0 -0.43468997000E+01  0.33638173942E+02  0.38325589041E+02  0.51178943156E+02  0.10566000000E+00 0.  1.
         22    1    1    0    0    0  0.14559198912E+02  0.78987409555E+01 -0.23085740170E+02  0.28413232496E+02  0.00000000000E+00 0. -1.
</event>
<event>
 5    1  0.6924836E-004  0.9118800E+02  0.7818608E-02  0.1130116E+00
         25   -1    0    0    0    0  0.00000000000E+00  0.00000000000E+00  0.99999998245E-14  0.12500000000E+03  0.12500000000E+03 0.  0.
        -13    1    3    3    0    0 -0.43174984999E+02  0.51067085865E+01  0.40031677858E+02  0.59099104887E+02  0.10566000000E+00 0.  1.
         23    2    1    0    0    0 -0.70186415788E+01  0.12953909863E+02  0.16169531557E+02  0.10312492603E+03  0.10077813011E+03 0.  0.
         13    1    3    3    0    0  0.36156343420E+02  0.78472012763E+01 -0.23862146301E+02  0.44025821145E+02  0.10566000000E+00 0. -1.
         22    1    1    0    0    0  0.70186415788E+01 -0.12953909863E+02 -0.16169531557E+02  0.21875073968E+02  0.00000000000E+00 0.  1.
</event>
<event>
 5    1  0.6924836E-004  0.9118800E+02  0.7818608E-02  0.1130116E+00
         25   -1    0    0    0    0  0.00000000000E+00  0.00000000000E+00  0.99999998245E-14  0.12500000000E+03  0.12500000000E+03 0.  0.
        -13    1    3    3    0    0 -0.38918585688E+02 -0.18967930020E+01 -0.37771958095E+02  0.54267726302E+02  0.10566000000E+00 0.  1.
         23    2    1    0    0    0 -0.37609485758E+02  0.61593232308E+01 -0.68121646782E+01  0.86285451453E+02  0.77112663442E+02 0.  0.
         13    1    3    3    0    0  0.13090999300E+01  0.80561162328E+01  0.30959793417E+02  0.32017725151E+02  0.10566000000E+00 0. -1.
         22    1    1    0    0    0  0.37609485758E+02 -0.61593232308E+01  0.68121646782E+01  0.38714548547E+02  0.00000000000E+00 0.  1.
</event>
<event>
 5    1  0.6924836E-004  0.9118800E+02  0.7818608E-02  0.1130116E+00
         25   -1    0    0    0    0  0.00000000000E+00  0.00000000000E+00  0.99999998245E-14  0.12500000000E+03  0.12500000000E+03 0.  0.
        -13    1    3    3    0    0  0.27647235380E+02  0.30812317093E+02  0.11660162073E+02  0.43008592774E+02  0.10566000000E+00 0. -1.
         23    2    1    0    0    0 -0.20017602452E+02  0.19769464969E+02 -0.80188956002E+01  0.95745276625E+02  0.91166436566E+02 0.  0.
         13    1    3    3    0    0 -0.47664837832E+02 -0.11042852124E+02 -0.19679057673E+02  0.52736683851E+02  0.10566000000E+00 0.  1.
         22    1    1    0    0    0  0.20017602452E+02 -0.19769464969E+02  0.80188956002E+01  0.29254723375E+02  0.00000000000E+00 0.  1.
</event>
<event>
 5    1  0.6924836E-004  0.9118800E+02  0.7818608E-02  0.1130116E+00
         25   -1    0    0    0    0  0.00000000000E+00  0.00000000000E+00  0.99999998245E-14  0.12500000000E+03  0.12500000000E+03 0.  0.
        -13    1    3    3    0    0  0.70719260870E+01 -0.22012501003E+02  0.29986174051E+02  0.37864813973E+02  0.10566000000E+00 0.  1.
         23    2    1    0    0    0  0.17196529196E+02  0.19427794049E+02 -0.10811228175E+02  0.96892306166E+02  0.92725813782E+02 0.  0.
         13    1    3    3    0    0  0.10124603109E+02  0.41440295053E+02 -0.40797402226E+02  0.59027492193E+02  0.10566000000E+00 0. -1.
         22    1    1    0    0    0 -0.17196529196E+02 -0.19427794049E+02  0.10811228175E+02  0.28107693834E+02  0.00000000000E+00 0. -1.
</event>
<event>
 5    1  0.6924836E-004  0.9118800E+02  0.7818608E-02  0.1130116E+00
         25   -1    0    0    0    0  0.00000000000E+00  0.00000000000E+00  0.99999998245E-14  0.12500000000E+03  0.12500000000E+03 0.  0.
        -13    1    3    3    0    0  0.15253113557E+02 -0.35922449382E+02 -0.18800087276E+02  0.43318983003E+02  0.10566000000E+00 0. -1.
         23    2    1    0    0    0  0.28742186533E+02  0.22586057109E+01  0.11568029289E+02  0.93935005422E+02  0.88649598733E+02 0.  0.
         13    1    3    3    0    0  0.13489072976E+02  0.38181055093E+02  0.30368116566E+02  0.50616022419E+02  0.10566000000E+00 0.  1.
         22    1    1    0    0    0 -0.28742186533E+02 -0.22586057109E+01 -0.11568029289E+02  0.31064994578E+02  0.00000000000E+00 0.  1.
</event>
<event>
 5    1  0.6924836E-004  0.9118800E+02  0.7818608E-02  0.1130116E+00
         25   -1    0    0    0    0  0.00000000000E+00  0.00000000000E+00  0.99999998245E-14  0.12500000000E+03  0.12500000000E+03 0.  0.
        -13    1    3    3    0    0 -0.12596010264E+02  0.31586903491E+02 -0.11366882831E+02  0.35855392009E+02  0.10566000000E+00 0.  1.
         23    2    1    0    0    0 -0.92017989741E+01 -0.26514642904E+02  0.53916791102E+01  0.96420818831E+02  0.92088026951E+02 0.  0.
         13    1    3    3    0    0  0.33942112901E+01 -0.58101546395E+02  0.16758561941E+02  0.60565426822E+02  0.10566000000E+00 0. -1.
         22    1    1    0    0    0  0.92017989741E+01  0.26514642904E+02 -0.53916791102E+01  0.28579181169E+02  0.00000000000E+00 0. -1.
</event>
<event>
 5    1  0.6924836E-004  0.9118800E+02  0.7818608E-02  0.1130116E+00
         25   -1    0    0    0    0  0.00000000000E+00  0.00000000000E+00  0.99999998245E-14  0.12500000000E+03  0.12500000000E+03 0.  0.
        -13    1    3    3    0    0  0.47517623817E+02 -0.36822177553E+02  0.80498487299E+01  0.60651533877E+02  0.10566000000E+00 0. -1.
         23    2    1    0    0    0  0.18184611114E+02 -0.24466134878E+02 -0.30570630502E+01  0.94363135413E+02  0.89251240066E+02 0.  0.
         13    1    3    3    0    0 -0.29333012703E+02  0.12356042676E+02 -0.11106911780E+02  0.33711601537E+02  0.10566000000E+00 0.  1.
         22    1    1    0    0    0 -0.18184611114E+02  0.24466134878E+02  0.30570630502E+01  0.30636864587E+02  0.00000000000E+00 0. -1.
</event>
<event>
 5    1  0.6924836E-004  0.9118800E+02  0.7818608E-02  0.1130116E+00
         25   -1    0    0    0    0  0.00000000000E+00  0.00000000000E+00  0.99999998245E-14  0.12500000000E+03  0.12500000000E+03 0.  0.
        -13    1    3    3    0    0 -0.23699941429E+02 -0.36760613454E+02 -0.96973480061E+01  0.44800442494E+02  0.10566000000E+00 0. -1.
         23    2    1    0    0    0 -0.39577599762E+01  0.45890493252E+01 -0.29620945100E+02  0.94765522556E+02  0.89813031565E+02 0.  0.
         13    1    3    3    0    0  0.19742181453E+02  0.41349662779E+02 -0.19923597093E+02  0.49965080062E+02  0.10566000000E+00 0.  1.
         22    1    1    0    0    0  0.39577599762E+01 -0.45890493252E+01  0.29620945100E+02  0.30234477444E+02  0.00000000000E+00 0. -1.
</event>
<event>
 5    1  0.6924836E-004  0.9118800E+02  0.7818608E-02  0.1130116E+00
         25   -1    0    0    0    0  0.00000000000E+00  0.00000000000E+00  0.99999998245E-14  0.12500000000E+03  0.12500000000E+03 0.  0.
        -13    1    3    3    0    0 -0.11638280093E+02  0.48415687194E+02 -0.15540214710E+01  0.49819217946E+02  0.10566000000E+00 0.  1.
         23    2    1    0    0    0  0.15391839400E+02  0.17758016528E+02  0.18258754400E+02  0.95240329582E+02  0.90471445194E+02 0.  0.
         13    1    3    3    0    0  0.27030119493E+02 -0.30657670666E+02  0.19812775871E+02  0.45421111636E+02  0.10566000000E+00 0. -1.
         22    1    1    0    0    0 -0.15391839400E+02 -0.17758016528E+02 -0.18258754400E+02  0.29759670418E+02  0.00000000000E+00 0. -1.
</event>
<event>
 5    1  0.6924836E-004  0.9118800E+02  0.7818608E-02  0.1130116E+00
         25   -1    0    0    0    0  0.00000000000E+00  0.00000000000E+00  0.99999998245E-14  0.12500000000E+03  0.12500000000E+03 0.  0.
        -13    1    3    3    0    0 -0.40989768503E+01  0.29949236780E+02  0.53697308417E+02  0.61621185401E+02  0.10566000000E+00 0.  1.
         23    2    1    0    0    0  0.51701245737E+01  0.12902972927E+02  0.27086753386E+02  0.94554817992E+02  0.89519296792E+02 0.  0.
         13    1    3    3    0    0  0.92691014240E+01 -0.17046263853E+02 -0.26610555031E+02  0.32933632591E+02  0.10566000000E+00 0. -1.
         22    1    1    0    0    0 -0.51701245737E+01 -0.12902972927E+02 -0.27086753386E+02  0.30445182008E+02  0.00000000000E+00 0.  1.
</event>
<event>
 5    1  0.6924836E-004  0.9118800E+02  0.7818608E-02  0.1130116E+00
         25   -1    0    0    0    0  0.00000000000E+00  0.00000000000E+00  0.99999998245E-14  0.12500000000E+03  0.12500000000E+03 0.  0.
        -13    1    3    3    0    0 -0.15296434486E+02  0.15798172656E+02 -0.38625110584E+02  0.44446299046E+02  0.10566000000E+00 0.  1.
         23    2    1    0    0    0 -0.12093474048E+01  0.23058036372E+02  0.13036586285E+02  0.98484190669E+02  0.94847496895E+02 0.  0.
         13    1    3    3    0    0  0.14087087081E+02  0.72598637161E+01  0.51661696869E+02  0.54037891623E+02  0.10566000000E+00 0. -1.
         22    1    1    0    0    0  0.12093474048E+01 -0.23058036372E+02 -0.13036586285E+02  0.26515809331E+02  0.00000000000E+00 0. -1.
</event>
<event>
 5    1  0.6924836E-004  0.9118800E+02  0.7818608E-02  0.1130116E+00
         25   -1    0    0    0    0  0.00000000000E+00  0.00000000000E+00  0.99999998245E-14  0.12500000000E+03  0.12500000000E+03 0.  0.
        -13    1    3    3    0    0  0.21079912496E+02  0.31961151402E+02  0.24449403230E+02  0.45427551025E+02  0.10566000000E+00 0.  1.
         23    2    1    0    0    0  0.27579088654E+02 -0.59326795056E+01 -0.79339280651E+01  0.95695562936E+02  0.91098247700E+02 0.  0.
         13    1    3    3    0    0  0.64991761577E+01 -0.37893830908E+02 -0.32383331296E+02  0.50268011911E+02  0.10566000000E+00 0. -1.
         22    1    1    0    0    0 -0.27579088654E+02  0.59326795056E+01  0.79339280651E+01  0.29304437064E+02  0.00000000000E+00 0.  1.
</event>
<event>
 5    1  0.6924836E-004  0.9118800E+02  0.7818608E-02  0.1130116E+00
         25   -1    0    0    0    0  0.00000000000E+00  0.00000000000E+00  0.99999998245E-14  0.12500000000E+03  0.12500000000E+03 0.  0.
        -13    1    3    3    0    0  0.37114671045E+02 -0.18475551586E+02  0.42881837257E+01  0.41680265077E+02  0.10566000000E+00 0. -1.
         23    2    1    0    0    0  0.11579075687E+02  0.16683175752E+02 -0.24023470470E+02  0.93543196596E+02  0.88095398002E+02 0.  0.
         13    1    3    3    0    0 -0.25535595358E+02  0.35158727339E+02 -0.28311654196E+02  0.51862931519E+02  0.10566000000E+00 0.  1.
         22    1    1    0    0    0 -0.11579075687E+02 -0.16683175752E+02  0.24023470470E+02  0.31456803404E+02  0.00000000000E+00 0.  1.
</event>
<event>
 5    1  0.6924836E-004  0.9118800E+02  0.7818608E-02  0.1130116E+00
         25   -1    0    0    0    0  0.00000000000E+00  0.00000000000E+00  0.99999998245E-14  0.12500000000E+03  0.12500000000E+03 0.  0.
        -13    1    3    3    0    0 -0.13684094670E+02  0.30379022113E+02 -0.39963341782E+01  0.33557730590E+02  0.10566000000E+00 0. -1.
         23    2    1    0    0    0  0.16751008782E+02 -0.23039935816E+02  0.61173260909E+01  0.95864855996E+02  0.91330246901E+02 0.  0.
         13    1    3    3    0    0  0.30435103452E+02 -0.53418957928E+02  0.10113660269E+02  0.62307125406E+02  0.10566000000E+00 0.  1.
         22    1    1    0    0    0 -0.16751008782E+02  0.23039935816E+02 -0.61173260909E+01  0.29135144004E+02  0.00000000000E+00 0.  1.
</event>
<event>
 5    1  0.6924836E-004  0.9118800E+02  0.7818608E-02  0.1130116E+00
         25   -1    0    0    0    0  0.00000000000E+00  0.00000000000E+00  0.99999998245E-14  0.12500000000E+03  0.12500000000E+03 0.  0.
        -13    1    3    3    0    0 -0.59976868180E+02  0.30601908824E+01  0.14169489781E+02  0.61703930909E+02  0.10566000000E+00 0.  1.
         23    2    1    0    0    0 -0.42510791983E+02 -0.33627481280E+01  0.13285365530E+02  0.80334840791E+02  0.66773574097E+02 0.  0.
         13    1    3    3    0    0  0.17466076198E+02 -0.64229390104E+01 -0.88412425180E+00  0.18630909881E+02  0.10566000000E+00 0. -1.
         22    1    1    0    0    0  0.42510791983E+02  0.33627481280E+01 -0.13285365530E+02  0.44665159209E+02  0.00000000000E+00 0.  1.
</event>
<event>
 5    1  0.6924836E-004  0.9118800E+02  0.7818608E-02  0.1130116E+00
         25   -1    0    0    0    0  0.00000000000E+00  0.00000000000E+00  0.99999998245E-14  0.12500000000E+03  0.12500000000E+03 0.  0.
        -13    1    3    3    0    0  0.12788070948E+02 -0.19313968723E+02 -0.34753830169E+02  0.41766063040E+02  0.10566000000E+00 0.  1.
         23    2    1    0    0    0 -0.12030834619E+01 -0.24882830832E+02  0.16455643676E+02  0.95143829970E+02  0.90338017980E+02 0.  0.
         13    1    3    3    0    0 -0.13991154410E+02 -0.55688621097E+01  0.51209473845E+02  0.53377766930E+02  0.10566000000E+00 0. -1.
         22    1    1    0    0    0  0.12030834619E+01  0.24882830832E+02 -0.16455643676E+02  0.29856170030E+02  0.00000000000E+00 0. -1.
</event>
<event>
 5    1  0.6924836E-004  0.9118800E+02  0.7818608E-02  0.1130116E+00
         25   -1    0    0    0    0  0.00000000000E+00  0.00000000000E+00  0.99999998245E-14  0.12500000000E+03  0.12500000000E+03 0.  0.
        -13    1    3    3    0    0 -0.28714149509E+02 -0.33659215405E+02  0.13350215167E+02  0.46213467439E+02  0.10566000000E+00 0. -1.
         23    2    1    0    0    0 -0.19613386413E+02  0.16095219393E+02 -0.31876241308E+01  0.99428493171E+02  0.96083938787E+02 0.  0.
         13    1    3    3    0    0  0.91007630961E+01  0.49754434798E+02 -0.16537839298E+02  0.53215025732E+02  0.10566000000E+00 0.  1.
         22    1    1    0    0    0  0.19613386413E+02 -0.16095219393E+02  0.31876241308E+01  0.25571506829E+02  0.00000000000E+00 0.  1.
</event>
<event>
 5    1  0.6924836E-004  0.9118800E+02  0.7818608E-02  0.1130116E+00
         25   -1    0    0    0    0  0.00000000000E+00  0.00000000000E+00  0.99999998245E-14  0.12500000000E+03  0.12500000000E+03 0.  0.
        -13    1    3    3    0    0 -0.20007433889E+02 -0.35738046588E+02 -0.36684120689E-01  0.40957513285E+02  0.10566000000E+00 0. -1.
         23    2    1    0    0    0 -0.28200355840E+01  0.72029250365E+01 -0.28635587730E+02  0.95338044326E+02  0.90606352324E+02 0.  0.
         13    1    3    3    0    0  0.17187398305E+02  0.42940971624E+02 -0.28598903609E+02  0.54380531040E+02  0.10566000000E+00 0.  1.
         22    1    1    0    0    0  0.28200355840E+01 -0.72029250365E+01  0.28635587730E+02  0.29661955674E+02  0.00000000000E+00 0.  1.
</event>
<event>
 5    1  0.6924836E-004  0.9118800E+02  0.7818608E-02  0.1130116E+00
         25   -1    0    0    0    0  0.00000000000E+00  0.00000000000E+00  0.99999998245E-14  0.12500000000E+03  0.12500000000E+03 0.  0.
        -13    1    3    3    0    0  0.12437395005E+02  0.40672809846E+02  0.10355834510E+02  0.43774658511E+02  0.10566000000E+00 0.  1.
         23    2    1    0    0    0  0.31373740429E+01  0.60201201146E+01 -0.27937071086E+02  0.96249958210E+02  0.91855808485E+02 0.  0.
         13    1    3    3    0    0 -0.93000209622E+01 -0.34652689731E+02 -0.38292905596E+02  0.52475299699E+02  0.10566000000E+00 0. -1.
         22    1    1    0    0    0 -0.31373740429E+01 -0.60201201146E+01  0.27937071086E+02  0.28750041790E+02  0.00000000000E+00 0. -1.
</event>
<event>
 5    1  0.6924836E-004  0.9118800E+02  0.7818608E-02  0.1130116E+00
         25   -1    0    0    0    0  0.00000000000E+00  0.00000000000E+00  0.99999998245E-14  0.12500000000E+03  0.12500000000E+03 0.  0.
        -13    1    3    3    0    0 -0.54550414069E+01  0.96210029200E+01  0.37547273958E+02  0.39142433747E+02  0.10566000000E+00 0.  1.
         23    2    1    0    0    0  0.21726138138E+02  0.19611514060E+02 -0.93621492117E+01  0.94270756599E+02  0.89121765859E+02 0.  0.
         13    1    3    3    0    0  0.27181179545E+02  0.99905111403E+01 -0.46909423170E+02  0.55128322852E+02  0.10566000000E+00 0. -1.
         22    1    1    0    0    0 -0.21726138138E+02 -0.19611514060E+02  0.93621492117E+01  0.30729243401E+02  0.00000000000E+00 0. -1.
</event>
<event>
 5    1  0.6924836E-004  0.9118800E+02  0.7818608E-02  0.1130116E+00
         25   -1    0    0    0    0  0.00000000000E+00  0.00000000000E+00  0.99999998245E-14  0.12500000000E+03  0.12500000000E+03 0.  0.
        -13    1    3    3    0    0  0.26510303385E+02 -0.40840570268E+02 -0.69992257692E+01  0.49190941145E+02  0.10566000000E+00 0.  1.
         23    2    1    0    0    0 -0.91213836962E+01 -0.20620922204E+02  0.17080799755E+02  0.96712621306E+02  0.92483270522E+02 0.  0.
         13    1    3    3    0    0 -0.35631687081E+02  0.20219648063E+02  0.24080025524E+02  0.47521680161E+02  0.10566000000E+00 0. -1.
         22    1    1    0    0    0  0.91213836962E+01  0.20620922204E+02 -0.17080799755E+02  0.28287378694E+02  0.00000000000E+00 0. -1.
</event>
<event>
 5    1  0.6924836E-004  0.9118800E+02  0.7818608E-02  0.1130116E+00
         25   -1    0    0    0    0  0.00000000000E+00  0.00000000000E+00  0.99999998245E-14  0.12500000000E+03  0.12500000000E+03 0.  0.
        -13    1    3    3    0    0  0.10891389222E+01 -0.22783008362E+01  0.61793438003E+02  0.61845105082E+02  0.10566000000E+00 0.  1.
         23    2    1    0    0    0  0.62964984107E+01  0.16425627674E+01  0.29294958742E+02  0.94991026136E+02  0.90126336517E+02 0.  0.
         13    1    3    3    0    0  0.52073594884E+01  0.39208636036E+01 -0.32498479261E+02  0.33145921054E+02  0.10566000000E+00 0. -1.
         22    1    1    0    0    0 -0.62964984107E+01 -0.16425627674E+01 -0.29294958742E+02  0.30008973864E+02  0.00000000000E+00 0.  1.
</event>
<event>
 5    1  0.6924836E-004  0.9118800E+02  0.7818608E-02  0.1130116E+00
         25   -1    0    0    0    0  0.00000000000E+00  0.00000000000E+00  0.99999998245E-14  0.12500000000E+03  0.12500000000E+03 0.  0.
        -13    1    3    3    0    0 -0.12130162862E+02 -0.27794289287E+02 -0.52067192115E+02  0.60255016611E+02  0.10566000000E+00 0. -1.
         23    2    1    0    0    0 -0.13639931808E+01 -0.21735110624E+02 -0.17191551691E+02  0.97254280316E+02  0.93212499586E+02 0.  0.
         13    1    3    3    0    0  0.10766169681E+02  0.60591786633E+01  0.34875640424E+02  0.36999263705E+02  0.10566000000E+00 0.  1.
         22    1    1    0    0    0  0.13639931808E+01  0.21735110624E+02  0.17191551691E+02  0.27745719684E+02  0.00000000000E+00 0. -1.
</event>
<event>
 5    1  0.6924836E-004  0.9118800E+02  0.7818608E-02  0.1130116E+00
         25   -1    0    0    0    0  0.00000000000E+00  0.00000000000E+00  0.99999998245E-14  0.12500000000E+03  0.12500000000E+03 0.  0.
        -13    1    3    3    0    0 -0.10441879849E+01  0.32123740098E+02 -0.40648231441E+01  0.32396897347E+02  0.10566000000E+00 0. -1.
         23    2    1    0    0    0 -0.78571194770E+01 -0.29488314155E+02 -0.19497988461E+01  0.94420648899E+02  0.89331753732E+02 0.  0.
         13    1    3    3    0    0 -0.68129314921E+01 -0.61612054254E+02  0.21150242980E+01  0.62023751553E+02  0.10566000000E+00 0.  1.
         22    1    1    0    0    0  0.78571194770E+01  0.29488314155E+02  0.19497988461E+01  0.30579351101E+02  0.00000000000E+00 0.  1.
</event>
<event>
 5    1  0.6924836E-004  0.9118800E+02  0.7818608E-02  0.1130116E+00
         25   -1    0    0    0    0  0.00000000000E+00  0.00000000000E+00  0.99999998245E-14  0.12500000000E+03  0.12500000000E+03 0.  0.
        -13    1    3    3    0    0 -0.47140767312E+02  0.32350236020E+02  0.17393202887E+01  0.57199878605E+02  0.10566000000E+00 0. -1.
         23    2    1    0    0    0 -0.25216583199E+02  0.62535872628E+01 -0.14816098762E+02  0.95091803725E+02  0.90266000971E+02 0.  0.
         13    1    3    3    0    0  0.21924184113E+02 -0.26096648757E+02 -0.16555419051E+02  0.37891925120E+02  0.10566000000E+00 0.  1.
         22    1    1    0    0    0  0.25216583199E+02 -0.62535872628E+01  0.14816098762E+02  0.29908196275E+02  0.00000000000E+00 0. -1.
</event>
<event>
 5    1  0.6924836E-004  0.9118800E+02  0.7818608E-02  0.1130116E+00
         25   -1    0    0    0    0  0.00000000000E+00  0.00000000000E+00  0.99999998245E-14  0.12500000000E+03  0.12500000000E+03 0.  0.
        -13    1    3    3    0    0  0.36924594554E+02 -0.44901527149E+01  0.30700484281E+02  0.48229846086E+02  0.10566000000E+00 0. -1.
         23    2    1    0    0    0 -0.11058675918E+02 -0.35586917392E+01  0.26086636563E+02  0.96443543513E+02  0.92118868198E+02 0.  0.
         13    1    3    3    0    0 -0.47983270472E+02  0.93146097569E+00 -0.46138477176E+01  0.48213697426E+02  0.10566000000E+00 0.  1.
         22    1    1    0    0    0  0.11058675918E+02  0.35586917392E+01 -0.26086636563E+02  0.28556456487E+02  0.00000000000E+00 0.  1.
</event>
<event>
 5    1  0.6924836E-004  0.9118800E+02  0.7818608E-02  0.1130116E+00
         25   -1    0    0    0    0  0.00000000000E+00  0.00000000000E+00  0.99999998245E-14  0.12500000000E+03  0.12500000000E+03 0.  0.
        -13    1    3    3    0    0  0.48345009458E+01  0.33037150564E+02  0.47323558366E+02  0.57916802892E+02  0.10566000000E+00 0. -1.
         23    2    1    0    0    0 -0.71675836868E+01 -0.42232945999E+01  0.98363346371E+01  0.11211730027E+03  0.11137470569E+03 0.  0.
         13    1    3    3    0    0 -0.12002084633E+02 -0.37260445164E+02 -0.37487223729E+02  0.54200497380E+02  0.10566000000E+00 0.  1.
         22    1    1    0    0    0  0.71675836868E+01  0.42232945999E+01 -0.98363346371E+01  0.12882699728E+02  0.00000000000E+00 0. -1.
</event>
<event>
 5    1  0.6924836E-004  0.9118800E+02  0.7818608E-02  0.1130116E+00
         25   -1    0    0    0    0  0.00000000000E+00  0.00000000000E+00  0.99999998245E-14  0.12500000000E+03  0.12500000000E+03 0.  0.
        -13    1    3    3    0    0  0.18973448030E+02 -0.51456904064E+02  0.93290784033E+01  0.55631354233E+02  0.10566000000E+00 0. -1.
         23    2    1    0    0    0  0.17608779365E+02 -0.11212751750E+02  0.18698555720E+02  0.96974459889E+02  0.92836495907E+02 0.  0.
         13    1    3    3    0    0 -0.13646686653E+01  0.40244152314E+02  0.93694773164E+01  0.41343105655E+02  0.10566000000E+00 0.  1.
         22    1    1    0    0    0 -0.17608779365E+02  0.11212751750E+02 -0.18698555720E+02  0.28025540111E+02  0.00000000000E+00 0. -1.
</event>
<event>
 5    1  0.6924836E-004  0.9118800E+02  0.7818608E-02  0.1130116E+00
         25   -1    0    0    0    0  0.00000000000E+00  0.00000000000E+00  0.99999998245E-14  0.12500000000E+03  0.12500000000E+03 0.  0.
        -13    1    3    3    0    0 -0.37395029033E+02 -0.38391354832E+02  0.15500382980E+02  0.55790298070E+02  0.10566000000E+00 0. -1.
         23    2    1    0    0    0 -0.23138954474E+02  0.63039078287E+00  0.15148387187E+02  0.97336264875E+02  0.93322377910E+02 0.  0.
         13    1    3    3    0    0  0.14256074559E+02  0.39021745615E+02 -0.35199579287E+00  0.41545966804E+02  0.10566000000E+00 0.  1.
         22    1    1    0    0    0  0.23138954474E+02 -0.63039078287E+00 -0.15148387187E+02  0.27663735125E+02  0.00000000000E+00 0. -1.
</event>
<event>
 5    1  0.6924836E-004  0.9118800E+02  0.7818608E-02  0.1130116E+00
         25   -1    0    0    0    0  0.00000000000E+00  0.00000000000E+00  0.99999998245E-14  0.12500000000E+03  0.12500000000E+03 0.  0.
        -13    1    3    3    0    0 -0.23891446823E+02 -0.17458139146E+02 -0.44070448007E+02  0.53082986025E+02  0.10566000000E+00 0.  1.
         23    2    1    0    0    0  0.89701050054E+01 -0.14398211637E+02 -0.33001878496E+02  0.87893460598E+02  0.79676628628E+02 0.  0.
         13    1    3    3    0    0  0.32861551829E+02  0.30599275090E+01  0.11068569512E+02  0.34810474573E+02  0.10566000000E+00 0. -1.
         22    1    1    0    0    0 -0.89701050054E+01  0.14398211637E+02  0.33001878496E+02  0.37106539402E+02  0.00000000000E+00 0.  1.
</event>
<event>
 5    1  0.6924836E-004  0.9118800E+02  0.7818608E-02  0.1130116E+00
         25   -1    0    0    0    0  0.00000000000E+00  0.00000000000E+00  0.99999998245E-14  0.12500000000E+03  0.12500000000E+03 0.  0.
        -13    1    3    3    0    0 -0.10769997145E+02 -0.30734034921E+02  0.87055543949E+01  0.33710110982E+02  0.10566000000E+00 0.  1.
         23    2    1    0    0    0  0.17642644912E+02  0.22138087668E+02 -0.71716203711E+01  0.95797431896E+02  0.91237919607E+02 0.  0.
         13    1    3    3    0    0  0.28412642057E+02  0.52872122590E+02 -0.15877174766E+02  0.62087320915E+02  0.10566000000E+00 0. -1.
         22    1    1    0    0    0 -0.17642644912E+02 -0.22138087668E+02  0.71716203711E+01  0.29202568104E+02  0.00000000000E+00 0. -1.
</event>
<event>
 5    1  0.6924836E-004  0.9118800E+02  0.7818608E-02  0.1130116E+00
         25   -1    0    0    0    0  0.00000000000E+00  0.00000000000E+00  0.99999998245E-14  0.12500000000E+03  0.12500000000E+03 0.  0.
        -13    1    3    3    0    0  0.30125369642E+02 -0.63505026293E+01  0.16311844555E+02  0.34841845768E+02  0.10566000000E+00 0.  1.
         23    2    1    0    0    0 -0.28175049147E+02  0.59505578258E+01  0.19195085912E+01  0.96139524500E+02  0.91705404012E+02 0.  0.
         13    1    3    3    0    0 -0.58300418789E+02  0.12301060455E+02 -0.14392335963E+02  0.61297678731E+02  0.10566000000E+00 0. -1.
         22    1    1    0    0    0  0.28175049147E+02 -0.59505578258E+01 -0.19195085912E+01  0.28860475500E+02  0.00000000000E+00 0. -1.
</event>
<event>
 5    1  0.6924836E-004  0.9118800E+02  0.7818608E-02  0.1130116E+00
         25   -1    0    0    0    0  0.00000000000E+00  0.00000000000E+00  0.99999998245E-14  0.12500000000E+03  0.12500000000E+03 0.  0.
        -13    1    3    3    0    0 -0.58703677905E+01 -0.45379442609E+02 -0.26355122261E+02  0.52804911352E+02  0.10566000000E+00 0. -1.
         23    2    1    0    0    0 -0.16144020952E+02 -0.21850151212E+02  0.88946321916E+01  0.96413762012E+02  0.92078447549E+02 0.  0.
         13    1    3    3    0    0 -0.10273653162E+02  0.23529291397E+02  0.35249754452E+02  0.43608850660E+02  0.10566000000E+00 0.  1.
         22    1    1    0    0    0  0.16144020952E+02  0.21850151212E+02 -0.88946321916E+01  0.28586237988E+02  0.00000000000E+00 0. -1.
</event>
<event>
 5    1  0.6924836E-004  0.9118800E+02  0.7818608E-02  0.1130116E+00
         25   -1    0    0    0    0  0.00000000000E+00  0.00000000000E+00  0.99999998245E-14  0.12500000000E+03  0.12500000000E+03 0.  0.
        -13    1    3    3    0    0  0.21281395126E+02 -0.43649285842E+02 -0.28230276738E+02  0.56170433697E+02  0.10566000000E+00 0.  1.
         23    2    1    0    0    0 -0.80567470124E+01 -0.28302117315E+02 -0.10305402606E+02  0.93821123500E+02  0.88488874301E+02 0.  0.
         13    1    3    3    0    0 -0.29338142138E+02  0.15347168527E+02  0.17924874132E+02  0.37650689803E+02  0.10566000000E+00 0. -1.
         22    1    1    0    0    0  0.80567470124E+01  0.28302117315E+02  0.10305402606E+02  0.31178876500E+02  0.00000000000E+00 0.  1.
</event>
<event>
 5    1  0.6924836E-004  0.9118800E+02  0.7818608E-02  0.1130116E+00
         25   -1    0    0    0    0  0.00000000000E+00  0.00000000000E+00  0.99999998245E-14  0.12500000000E+03  0.12500000000E+03 0.  0.
        -13    1    3    3    0    0  0.27590629135E+02  0.96308173730E+01 -0.47342158526E+02  0.55635299921E+02  0.10566000000E+00 0. -1.
         23    2    1    0    0    0 -0.69414613367E+01  0.97898535267E+01 -0.26344721668E+02  0.96050570346E+02  0.91584073869E+02 0.  0.
         13    1    3    3    0    0 -0.34532090472E+02  0.15903615369E+00  0.20997436858E+02  0.40415270425E+02  0.10566000000E+00 0.  1.
         22    1    1    0    0    0  0.69414613367E+01 -0.97898535267E+01  0.26344721668E+02  0.28949429654E+02  0.00000000000E+00 0.  1.
</event>
<event>
 5    1  0.6924836E-004  0.9118800E+02  0.7818608E-02  0.1130116E+00
         25   -1    0    0    0    0  0.00000000000E+00  0.00000000000E+00  0.99999998245E-14  0.12500000000E+03  0.12500000000E+03 0.  0.
        -13    1    3    3    0    0 -0.29714011069E+02 -0.62110092167E+01  0.12923816294E+02  0.32992958051E+02  0.10566000000E+00 0. -1.
         23    2    1    0    0    0  0.23060628299E+02 -0.43483933503E+01 -0.19091891633E+02  0.94747703750E+02  0.89788228279E+02 0.  0.
         13    1    3    3    0    0  0.52774639368E+02  0.18626158664E+01 -0.32015707926E+02  0.61754745699E+02  0.10566000000E+00 0.  1.
         22    1    1    0    0    0 -0.23060628299E+02  0.43483933503E+01  0.19091891633E+02  0.30252296250E+02  0.00000000000E+00 0.  1.
</event>
<event>
 5    1  0.6924836E-004  0.9118800E+02  0.7818608E-02  0.1130116E+00
         25   -1    0    0    0    0  0.00000000000E+00  0.00000000000E+00  0.99999998245E-14  0.12500000000E+03  0.12500000000E+03 0.  0.
        -13    1    3    3    0    0  0.28045339137E+02  0.29145935343E+02  0.60149660187E+01  0.40892756994E+02  0.10566000000E+00 0.  1.
         23    2    1    0    0    0  0.21934940161E+02 -0.15616824621E+02 -0.18535730111E+02  0.92310550604E+02  0.86328660657E+02 0.  0.
         13    1    3    3    0    0 -0.61103989763E+01 -0.44762759964E+02 -0.24550696129E+02  0.51417793610E+02  0.10566000000E+00 0. -1.
         22    1    1    0    0    0 -0.21934940161E+02  0.15616824621E+02  0.18535730111E+02  0.32689449396E+02  0.00000000000E+00 0.  1.
</event>
<event>
 5    1  0.6924836E-004  0.9118800E+02  0.7818608E-02  0.1130116E+00
         25   -1    0    0    0    0  0.00000000000E+00  0.00000000000E+00  0.99999998245E-14  0.12500000000E+03  0.12500000000E+03 0.  0.
        -13    1    3    3    0    0 -0.15869188041E+02  0.19742739137E+01  0.58443809683E+02  0.60592234988E+02  0.10566000000E+00 0.  1.
         23    2    1    0    0    0 -0.13840908609E+02 -0.74525896527E+01  0.24406703961E+02  0.95968998606E+02  0.91472671611E+02 0.  0.
         13    1    3    3    0    0  0.20282794318E+01 -0.94268635664E+01 -0.34037105722E+02  0.35376763618E+02  0.10566000000E+00 0. -1.
         22    1    1    0    0    0  0.13840908609E+02  0.74525896527E+01 -0.24406703961E+02  0.29031001394E+02  0.00000000000E+00 0.  1.
</event>
<event>
 5    1  0.6924836E-004  0.9118800E+02  0.7818608E-02  0.1130116E+00
         25   -1    0    0    0    0  0.00000000000E+00  0.00000000000E+00  0.99999998245E-14  0.12500000000E+03  0.12500000000E+03 0.  0.
        -13    1    3    3    0    0  0.22128277213E+02 -0.55373206868E+02 -0.92877432352E+01  0.60350029244E+02  0.10566000000E+00 0.  1.
         23    2    1    0    0    0  0.12721443093E+02 -0.21665330786E+02 -0.14895024720E+02  0.95792407942E+02  0.91231036306E+02 0.  0.
         13    1    3    3    0    0 -0.94068341201E+01  0.33707876082E+02 -0.56072814843E+01  0.35442378699E+02  0.10566000000E+00 0. -1.
         22    1    1    0    0    0 -0.12721443093E+02  0.21665330786E+02  0.14895024720E+02  0.29207592058E+02  0.00000000000E+00 0.  1.
</event>
<event>
 5    1  0.6924836E-004  0.9118800E+02  0.7818608E-02  0.1130116E+00
         25   -1    0    0    0    0  0.00000000000E+00  0.00000000000E+00  0.99999998245E-14  0.12500000000E+03  0.12500000000E+03 0.  0.
        -13    1    3    3    0    0  0.14004197335E+02 -0.12230446259E+02 -0.43202486009E+02  0.47033682825E+02  0.10566000000E+00 0. -1.
         23    2    1    0    0    0  0.12429618007E+02 -0.26391383933E+02  0.32736899985E+01  0.95644973243E+02  0.91028804841E+02 0.  0.
         13    1    3    3    0    0 -0.15745793283E+01 -0.14160937674E+02  0.46476176007E+02  0.48611290418E+02  0.10566000000E+00 0.  1.
         22    1    1    0    0    0 -0.12429618007E+02  0.26391383933E+02 -0.32736899985E+01  0.29355026757E+02  0.00000000000E+00 0. -1.
</event>
<event>
 5    1  0.6924836E-004  0.9118800E+02  0.7818608E-02  0.1130116E+00
         25   -1    0    0    0    0  0.00000000000E+00  0.00000000000E+00  0.99999998245E-14  0.12500000000E+03  0.12500000000E+03 0.  0.
        -13    1    3    3    0    0  0.24630625397E+02  0.19477158818E+02  0.24923318587E+02  0.40090028642E+02  0.10566000000E+00 0.  1.
         23    2    1    0    0    0 -0.60388108204E+01 -0.25622259114E+02  0.11598099211E+02  0.96233990483E+02  0.91834076577E+02 0.  0.
         13    1    3    3    0    0 -0.30669436218E+02 -0.45099417932E+02 -0.13325219376E+02  0.56143961841E+02  0.10566000000E+00 0. -1.
         22    1    1    0    0    0  0.60388108204E+01  0.25622259114E+02 -0.11598099211E+02  0.28766009517E+02  0.00000000000E+00 0. -1.
</event>
<event>
 5    1  0.6924836E-004  0.9118800E+02  0.7818608E-02  0.1130116E+00
         25   -1    0    0    0    0  0.00000000000E+00  0.00000000000E+00  0.99999998245E-14  0.12500000000E+03  0.12500000000E+03 0.  0.
        -13    1    3    3    0    0 -0.49741564408E+02 -0.11848975008E+02  0.94420150656E+01  0.51997925449E+02  0.10566000000E+00 0. -1.
         23    2    1    0    0    0 -0.21816722945E+02  0.40820801166E+00 -0.20733282676E+02  0.94900082320E+02  0.90000114333E+02 0.  0.
         13    1    3    3    0    0  0.27924841463E+02  0.12257183020E+02 -0.30175297741E+02  0.42902156870E+02  0.10566000000E+00 0.  1.
         22    1    1    0    0    0  0.21816722945E+02 -0.40820801166E+00  0.20733282676E+02  0.30099917680E+02  0.00000000000E+00 0. -1.
</event>
<event>
 5    1  0.6924836E-004  0.9118800E+02  0.7818608E-02  0.1130116E+00
         25   -1    0    0    0    0  0.00000000000E+00  0.00000000000E+00  0.99999998245E-14  0.12500000000E+03  0.12500000000E+03 0.  0.
        -13    1    3    3    0    0 -0.49210781158E+01  0.40720239119E+02  0.54965808553E+01  0.41383311236E+02  0.10566000000E+00 0.  1.
         23    2    1    0    0    0 -0.12572070904E+02 -0.27329467750E+01  0.30358662827E+02  0.92027672610E+02  0.85918089786E+02 0.  0.
         13    1    3    3    0    0 -0.76509927882E+01 -0.43453185894E+02  0.24862081971E+02  0.50644361374E+02  0.10566000000E+00 0. -1.
         22    1    1    0    0    0  0.12572070904E+02  0.27329467750E+01 -0.30358662827E+02  0.32972327390E+02  0.00000000000E+00 0.  1.
</event>
<event>
 5    1  0.6924836E-004  0.9118800E+02  0.7818608E-02  0.1130116E+00
         25   -1    0    0    0    0  0.00000000000E+00  0.00000000000E+00  0.99999998245E-14  0.12500000000E+03  0.12500000000E+03 0.  0.
        -13    1    3    3    0    0 -0.39601693706E+02 -0.29433134270E+02  0.38009518823E+02  0.62284333685E+02  0.10566000000E+00 0.  1.
         23    2    1    0    0    0 -0.16008766096E+02 -0.16057796761E+02  0.15439829768E+02  0.97567869715E+02  0.93632085466E+02 0.  0.
         13    1    3    3    0    0  0.23592927610E+02  0.13375337510E+02 -0.22569689055E+02  0.35283536030E+02  0.10566000000E+00 0. -1.
         22    1    1    0    0    0  0.16008766096E+02  0.16057796761E+02 -0.15439829768E+02  0.27432130285E+02  0.00000000000E+00 0.  1.
</event>
<event>
 5    1  0.6924836E-004  0.9118800E+02  0.7818608E-02  0.1130116E+00
         25   -1    0    0    0    0  0.00000000000E+00  0.00000000000E+00  0.99999998245E-14  0.12500000000E+03  0.12500000000E+03 0.  0.
        -13    1    3    3    0    0 -0.16720111134E+02 -0.33153588603E+02  0.33961283318E+02  0.50320000816E+02  0.10566000000E+00 0. -1.
         23    2    1    0    0    0 -0.12797160865E+02 -0.23173751200E+02 -0.10845402085E+02  0.96392084709E+02  0.92049015081E+02 0.  0.
         13    1    3    3    0    0  0.39229502689E+01  0.99798374024E+01 -0.44806685403E+02  0.46072083893E+02  0.10566000000E+00 0.  1.
         22    1    1    0    0    0  0.12797160865E+02  0.23173751200E+02  0.10845402085E+02  0.28607915291E+02  0.00000000000E+00 0.  1.
</event>
<event>
 5    1  0.6924836E-004  0.9118800E+02  0.7818608E-02  0.1130116E+00
         25   -1    0    0    0    0  0.00000000000E+00  0.00000000000E+00  0.99999998245E-14  0.12500000000E+03  0.12500000000E+03 0.  0.
        -13    1    3    3    0    0  0.18190381812E+02  0.13222659793E+01  0.27673930609E+02  0.33143566150E+02  0.10566000000E+00 0.  1.
         23    2    1    0    0    0 -0.47594443111E+01  0.20094078877E+00 -0.29685830570E+02  0.94934384690E+02  0.90047743849E+02 0.  0.
         13    1    3    3    0    0 -0.22949826123E+02 -0.11213251905E+01 -0.57359761179E+02  0.61790818539E+02  0.10566000000E+00 0. -1.
         22    1    1    0    0    0  0.47594443111E+01 -0.20094078877E+00  0.29685830570E+02  0.30065615310E+02  0.00000000000E+00 0. -1.
</event>
<event>
 5    1  0.6924836E-004  0.9118800E+02  0.7818608E-02  0.1130116E+00
         25   -1    0    0    0    0  0.00000000000E+00  0.00000000000E+00  0.99999998245E-14  0.12500000000E+03  0.12500000000E+03 0.  0.
        -13    1    3    3    0    0  0.11867072825E+02  0.38670871535E+02 -0.32235618392E+02  0.51724365437E+02  0.10566000000E+00 0.  1.
         23    2    1    0    0    0 -0.35694113248E+01 -0.10420535829E+02 -0.15786341624E+02  0.10575066635E+03  0.10398397274E+03 0.  0.
         13    1    3    3    0    0 -0.15436484150E+02 -0.49091407364E+02  0.16449276768E+02  0.54026300911E+02  0.10566000000E+00 0. -1.
         22    1    1    0    0    0  0.35694113248E+01  0.10420535829E+02  0.15786341624E+02  0.19249333652E+02  0.00000000000E+00 0.  1.
</event>
<event>
 5    1  0.6924836E-004  0.9118800E+02  0.7818608E-02  0.1130116E+00
         25   -1    0    0    0    0  0.00000000000E+00  0.00000000000E+00  0.99999998245E-14  0.12500000000E+03  0.12500000000E+03 0.  0.
        -13    1    3    3    0    0  0.44177395345E+01 -0.10164160467E+02 -0.18177950912E+02  0.21290271112E+02  0.10566000000E+00 0. -1.
         23    2    1    0    0    0 -0.34272996855E+01  0.14506108793E+01  0.41876370445E+02  0.82958579273E+02  0.71516745020E+02 0.  0.
         13    1    3    3    0    0 -0.78450392200E+01  0.11614771347E+02  0.60054321357E+02  0.61668308162E+02  0.10566000000E+00 0.  1.
         22    1    1    0    0    0  0.34272996855E+01 -0.14506108793E+01 -0.41876370445E+02  0.42041420727E+02  0.00000000000E+00 0.  1.
</event>
<event>
 5    1  0.6924836E-004  0.9118800E+02  0.7818608E-02  0.1130116E+00
         25   -1    0    0    0    0  0.00000000000E+00  0.00000000000E+00  0.99999998245E-14  0.12500000000E+03  0.12500000000E+03 0.  0.
        -13    1    3    3    0    0  0.51840633389E+02  0.12328203589E+02 -0.26982362896E+02  0.59728510323E+02  0.10566000000E+00 0.  1.
         23    2    1    0    0    0  0.12603202297E+02  0.11286096287E+02 -0.18584704402E+02  0.99868189177E+02  0.96654266819E+02 0.  0.
         13    1    3    3    0    0 -0.39237431092E+02 -0.10421073017E+01  0.83976584947E+01  0.40139678854E+02  0.10566000000E+00 0. -1.
         22    1    1    0    0    0 -0.12603202297E+02 -0.11286096287E+02  0.18584704402E+02  0.25131810823E+02  0.00000000000E+00 0.  1.
</event>
<event>
 5    1  0.6924836E-004  0.9118800E+02  0.7818608E-02  0.1130116E+00
         25   -1    0    0    0    0  0.00000000000E+00  0.00000000000E+00  0.99999998245E-14  0.12500000000E+03  0.12500000000E+03 0.  0.
        -13    1    3    3    0    0 -0.33318004302E+02  0.25126962568E+02 -0.14059341695E+02  0.44035552813E+02  0.10566000000E+00 0.  1.
         23    2    1    0    0    0  0.15676634806E+02  0.16253544938E+02 -0.20821028654E+02  0.94284371468E+02  0.89140859694E+02 0.  0.
         13    1    3    3    0    0  0.48994639107E+02 -0.88734176301E+01 -0.67616869587E+01  0.50248818655E+02  0.10566000000E+00 0. -1.
         22    1    1    0    0    0 -0.15676634806E+02 -0.16253544938E+02  0.20821028654E+02  0.30715628532E+02  0.00000000000E+00 0. -1.
</event>
<event>
 5    1  0.6924836E-004  0.9118800E+02  0.7818608E-02  0.1130116E+00
         25   -1    0    0    0    0  0.00000000000E+00  0.00000000000E+00  0.99999998245E-14  0.12500000000E+03  0.12500000000E+03 0.  0.
        -13    1    3    3    0    0 -0.37407099509E+01  0.81203493884E+01  0.39271176858E+02  0.40276165172E+02  0.10566000000E+00 0. -1.
         23    2    1    0    0    0 -0.19519533793E+02  0.14258375887E+02 -0.14610292603E+02  0.96755104313E+02  0.92540672562E+02 0.  0.
         13    1    3    3    0    0 -0.15778823842E+02  0.61380264986E+01 -0.53881469461E+02  0.56478939141E+02  0.10566000000E+00 0.  1.
         22    1    1    0    0    0  0.19519533793E+02 -0.14258375887E+02  0.14610292603E+02  0.28244895687E+02  0.00000000000E+00 0.  1.
</event>
<event>
 5    1  0.6924836E-004  0.9118800E+02  0.7818608E-02  0.1130116E+00
         25   -1    0    0    0    0  0.00000000000E+00  0.00000000000E+00  0.99999998245E-14  0.12500000000E+03  0.12500000000E+03 0.  0.
        -13    1    3    3    0    0  0.11294456047E+02  0.67913450638E+01  0.35504267283E+02  0.37871509932E+02  0.10566000000E+00 0. -1.
         23    2    1    0    0    0 -0.44113111660E+01  0.18290142219E+02 -0.20507540414E+02  0.97169294252E+02  0.93098461658E+02 0.  0.
         13    1    3    3    0    0 -0.15705767213E+02  0.11498797155E+02 -0.56011807697E+02  0.59297784320E+02  0.10566000000E+00 0.  1.
         22    1    1    0    0    0  0.44113111660E+01 -0.18290142219E+02  0.20507540414E+02  0.27830705748E+02  0.00000000000E+00 0.  1.
</event>
<event>
 5    1  0.6924836E-004  0.9118800E+02  0.7818608E-02  0.1130116E+00
         25   -1    0    0    0    0  0.00000000000E+00  0.00000000000E+00  0.99999998245E-14  0.12500000000E+03  0.12500000000E+03 0.  0.
        -13    1    3    3    0    0 -0.13857728153E+02  0.46007950097E+02 -0.20191375136E+02  0.52119774516E+02  0.10566000000E+00 0.  1.
         23    2    1    0    0    0  0.12918796541E+02  0.84114352554E+01 -0.21794129256E+02  0.98304839069E+02  0.94610833245E+02 0.  0.
         13    1    3    3    0    0  0.26776524694E+02 -0.37596514842E+02 -0.16027541195E+01  0.46185064553E+02  0.10566000000E+00 0. -1.
         22    1    1    0    0    0 -0.12918796541E+02 -0.84114352554E+01  0.21794129256E+02  0.26695160931E+02  0.00000000000E+00 0.  1.
</event>
<event>
 5    1  0.6924836E-004  0.9118800E+02  0.7818608E-02  0.1130116E+00
         25   -1    0    0    0    0  0.00000000000E+00  0.00000000000E+00  0.99999998245E-14  0.12500000000E+03  0.12500000000E+03 0.  0.
        -13    1    3    3    0    0  0.31651743896E+02  0.49582891629E+02  0.10117541805E+02  0.59688121517E+02  0.10566000000E+00 0. -1.
         23    2    1    0    0    0  0.56952958524E+01  0.23663153692E+02  0.14560291713E+02  0.96638347504E+02  0.92382827821E+02 0.  0.
         13    1    3    3    0    0 -0.25956448043E+02 -0.25919737937E+02  0.44427499078E+01  0.36950225988E+02  0.10566000000E+00 0.  1.
         22    1    1    0    0    0 -0.56952958524E+01 -0.23663153692E+02 -0.14560291713E+02  0.28361652496E+02  0.00000000000E+00 0. -1.
</event>
<event>
 5    1  0.6924836E-004  0.9118800E+02  0.7818608E-02  0.1130116E+00
         25   -1    0    0    0    0  0.00000000000E+00  0.00000000000E+00  0.99999998245E-14  0.12500000000E+03  0.12500000000E+03 0.  0.
        -13    1    3    3    0    0 -0.12181054331E+02 -0.30314009783E+02 -0.65693293604E+01  0.33323933232E+02  0.10566000000E+00 0.  1.
         23    2    1    0    0    0 -0.52347394275E+01  0.29863345060E+02 -0.69185012784E+01  0.93901968953E+02  0.88603003551E+02 0.  0.
         13    1    3    3    0    0  0.69463149036E+01  0.60177354844E+02 -0.34917191797E+00  0.60578035721E+02  0.10566000000E+00 0. -1.
         22    1    1    0    0    0  0.52347394275E+01 -0.29863345060E+02  0.69185012784E+01  0.31098031047E+02  0.00000000000E+00 0. -1.
</event>
<event>
 5    1  0.6924836E-004  0.9118800E+02  0.7818608E-02  0.1130116E+00
         25   -1    0    0    0    0  0.00000000000E+00  0.00000000000E+00  0.99999998245E-14  0.12500000000E+03  0.12500000000E+03 0.  0.
        -13    1    3    3    0    0  0.61502419326E+01  0.35695253815E+02  0.30009764778E+02  0.47038003431E+02  0.10566000000E+00 0.  1.
         23    2    1    0    0    0 -0.22582520486E+02  0.17963445085E+02 -0.50425677677E+01  0.95706944841E+02  0.91113863986E+02 0.  0.
         13    1    3    3    0    0 -0.28732762419E+02 -0.17731808730E+02 -0.35052332546E+02  0.48668941410E+02  0.10566000000E+00 0. -1.
         22    1    1    0    0    0  0.22582520486E+02 -0.17963445085E+02  0.50425677677E+01  0.29293055159E+02  0.00000000000E+00 0. -1.
</event>
<event>
 5    1  0.6924836E-004  0.9118800E+02  0.7818608E-02  0.1130116E+00
         25   -1    0    0    0    0  0.00000000000E+00  0.00000000000E+00  0.99999998245E-14  0.12500000000E+03  0.12500000000E+03 0.  0.
        -13    1    3    3    0    0  0.12239392903E+02  0.20638359616E+02  0.46548003163E+02  0.52368620268E+02  0.10566000000E+00 0. -1.
         23    2    1    0    0    0  0.19482009456E+02 -0.10991576833E+02  0.25658693251E+02  0.90959847341E+02  0.84350233166E+02 0.  0.
         13    1    3    3    0    0  0.72426165521E+01 -0.31629936450E+02 -0.20889309911E+02  0.38591227072E+02  0.10566000000E+00 0.  1.
         22    1    1    0    0    0 -0.19482009456E+02  0.10991576833E+02 -0.25658693251E+02  0.34040152659E+02  0.00000000000E+00 0. -1.
</event>
<event>
 5    1  0.6924836E-004  0.9118800E+02  0.7818608E-02  0.1130116E+00
         25   -1    0    0    0    0  0.00000000000E+00  0.00000000000E+00  0.99999998245E-14  0.12500000000E+03  0.12500000000E+03 0.  0.
        -13    1    3    3    0    0  0.29423028869E+02  0.21583905869E+02  0.19053739394E+02  0.41165954007E+02  0.10566000000E+00 0. -1.
         23    2    1    0    0    0  0.87793610005E+01 -0.27036751553E+02  0.10608285428E+02  0.94658628346E+02  0.89664134896E+02 0.  0.
         13    1    3    3    0    0 -0.20643667868E+02 -0.48620657422E+02 -0.84454539665E+01  0.53492674339E+02  0.10566000000E+00 0.  1.
         22    1    1    0    0    0 -0.87793610005E+01  0.27036751553E+02 -0.10608285428E+02  0.30341371654E+02  0.00000000000E+00 0.  1.
</event>
<event>
 5    1  0.6924836E-004  0.9118800E+02  0.7818608E-02  0.1130116E+00
         25   -1    0    0    0    0  0.00000000000E+00  0.00000000000E+00  0.99999998245E-14  0.12500000000E+03  0.12500000000E+03 0.  0.
        -13    1    3    3    0    0  0.18947921168E+02  0.31337194682E+02  0.65162827179E+01  0.37195652859E+02  0.10566000000E+00 0. -1.
         23    2    1    0    0    0 -0.19221247846E+02 -0.15446356083E+02  0.11523440215E+02  0.97781698080E+02  0.93917115160E+02 0.  0.
         13    1    3    3    0    0 -0.38169169014E+02 -0.46783550765E+02  0.50071574971E+01  0.60586045222E+02  0.10566000000E+00 0.  1.
         22    1    1    0    0    0  0.19221247846E+02  0.15446356083E+02 -0.11523440215E+02  0.27218301920E+02  0.00000000000E+00 0.  1.
</event>
<event>
 5    1  0.6924836E-004  0.9118800E+02  0.7818608E-02  0.1130116E+00
         25   -1    0    0    0    0  0.00000000000E+00  0.00000000000E+00  0.99999998245E-14  0.12500000000E+03  0.12500000000E+03 0.  0.
        -13    1    3    3    0    0  0.23718132512E+02 -0.16498858645E+02  0.52012047683E+02  0.59498121102E+02  0.10566000000E+00 0.  1.
         23    2    1    0    0    0  0.14288381541E+02 -0.19267455829E+02  0.17702236807E+02  0.95187890226E+02  0.90398963249E+02 0.  0.
         13    1    3    3    0    0 -0.94297509711E+01 -0.27685971844E+01 -0.34309810876E+02  0.35689769124E+02  0.10566000000E+00 0. -1.
         22    1    1    0    0    0 -0.14288381541E+02  0.19267455829E+02 -0.17702236807E+02  0.29812109774E+02  0.00000000000E+00 0.  1.
</event>
<event>
 5    1  0.6924836E-004  0.9118800E+02  0.7818608E-02  0.1130116E+00
         25   -1    0    0    0    0  0.00000000000E+00  0.00000000000E+00  0.99999998245E-14  0.12500000000E+03  0.12500000000E+03 0.  0.
        -13    1    3    3    0    0  0.36511094111E+02 -0.26390159898E+01 -0.23712491732E+02  0.43615568629E+02  0.10566000000E+00 0. -1.
         23    2    1    0    0    0 -0.48243435756E+01 -0.28565839283E+02 -0.69571794525E+01  0.95205976928E+02  0.90423969344E+02 0.  0.
         13    1    3    3    0    0 -0.41335437687E+02 -0.25926823293E+02  0.16755312280E+02  0.51590408299E+02  0.10566000000E+00 0.  1.
         22    1    1    0    0    0  0.48243435756E+01  0.28565839283E+02  0.69571794525E+01  0.29794023072E+02  0.00000000000E+00 0.  1.
</event>
<event>
 5    1  0.6924836E-004  0.9118800E+02  0.7818608E-02  0.1130116E+00
         25   -1    0    0    0    0  0.00000000000E+00  0.00000000000E+00  0.99999998245E-14  0.12500000000E+03  0.12500000000E+03 0.  0.
        -13    1    3    3    0    0  0.43724160260E+02  0.10325066538E+02 -0.24891437032E+02  0.51361503006E+02  0.10566000000E+00 0. -1.
         23    2    1    0    0    0  0.12387368366E+02  0.91827570625E+01  0.15925152345E+02  0.10283289826E+03  0.10041526062E+03 0.  0.
         13    1    3    3    0    0 -0.31336791894E+02 -0.11423094752E+01  0.40816589376E+02  0.51471395255E+02  0.10566000000E+00 0.  1.
         22    1    1    0    0    0 -0.12387368366E+02 -0.91827570625E+01 -0.15925152345E+02  0.22167101739E+02  0.00000000000E+00 0. -1.
</event>
<event>
 5    1  0.6924836E-004  0.9118800E+02  0.7818608E-02  0.1130116E+00
         25   -1    0    0    0    0  0.00000000000E+00  0.00000000000E+00  0.99999998245E-14  0.12500000000E+03  0.12500000000E+03 0.  0.
        -13    1    3    3    0    0 -0.17920095105E+02 -0.91356377932E+01  0.58217340675E+02  0.61594314720E+02  0.10566000000E+00 0. -1.
         23    2    1    0    0    0 -0.13046517027E+02 -0.95317202362E+01  0.24582216746E+02  0.95583156571E+02  0.90943879083E+02 0.  0.
         13    1    3    3    0    0  0.48735780776E+01 -0.39608244301E+00 -0.33635123930E+02  0.33988841851E+02  0.10566000000E+00 0.  1.
         22    1    1    0    0    0  0.13046517027E+02  0.95317202362E+01 -0.24582216746E+02  0.29416843429E+02  0.00000000000E+00 0. -1.
</event>
<event>
 5    1  0.6924836E-004  0.9118800E+02  0.7818608E-02  0.1130116E+00
         25   -1    0    0    0    0  0.00000000000E+00  0.00000000000E+00  0.99999998245E-14  0.12500000000E+03  0.12500000000E+03 0.  0.
        -13    1    3    3    0    0 -0.41962141171E+02 -0.83319963684E+01 -0.76049788369E+01  0.43452161308E+02  0.10566000000E+00 0. -1.
         23    2    1    0    0    0 -0.54048883158E+01 -0.16645843792E+00  0.28806008577E+02  0.95690843475E+02  0.91091771685E+02 0.  0.
         13    1    3    3    0    0  0.36557252856E+02  0.81655379304E+01  0.36410987414E+02  0.52238682167E+02  0.10566000000E+00 0.  1.
         22    1    1    0    0    0  0.54048883158E+01  0.16645843792E+00 -0.28806008577E+02  0.29309156525E+02  0.00000000000E+00 0.  1.
</event>
<event>
 5    1  0.6924836E-004  0.9118800E+02  0.7818608E-02  0.1130116E+00
         25   -1    0    0    0    0  0.00000000000E+00  0.00000000000E+00  0.99999998245E-14  0.12500000000E+03  0.12500000000E+03 0.  0.
        -13    1    3    3    0    0  0.30251582736E+02  0.18338312374E+02 -0.39073032638E+02  0.52708301076E+02  0.10566000000E+00 0. -1.
         23    2    1    0    0    0 -0.12548416714E+02  0.11834160991E+02 -0.14355386461E+02  0.10255925026E+03  0.10007403542E+03 0.  0.
         13    1    3    3    0    0 -0.42799999450E+02 -0.65041513824E+01  0.24717646177E+02  0.49850949186E+02  0.10566000000E+00 0.  1.
         22    1    1    0    0    0  0.12548416714E+02 -0.11834160991E+02  0.14355386461E+02  0.22440749738E+02  0.00000000000E+00 0. -1.
</event>
<event>
 5    1  0.6924836E-004  0.9118800E+02  0.7818608E-02  0.1130116E+00
         25   -1    0    0    0    0  0.00000000000E+00  0.00000000000E+00  0.99999998245E-14  0.12500000000E+03  0.12500000000E+03 0.  0.
        -13    1    3    3    0    0 -0.16019571967E+02 -0.38143801939E+02  0.23778288664E+02  0.47717863408E+02  0.10566000000E+00 0. -1.
         23    2    1    0    0    0 -0.17024077619E+02 -0.17553612197E+02 -0.18221764799E+02  0.94504406346E+02  0.89448876944E+02 0.  0.
         13    1    3    3    0    0 -0.10045056524E+01  0.20590189742E+02 -0.42000053462E+02  0.46786542938E+02  0.10566000000E+00 0.  1.
         22    1    1    0    0    0  0.17024077619E+02  0.17553612197E+02  0.18221764799E+02  0.30495593654E+02  0.00000000000E+00 0.  1.
</event>
<event>
 5    1  0.6924836E-004  0.9118800E+02  0.7818608E-02  0.1130116E+00
         25   -1    0    0    0    0  0.00000000000E+00  0.00000000000E+00  0.99999998245E-14  0.12500000000E+03  0.12500000000E+03 0.  0.
        -13    1    3    3    0    0 -0.25370512470E+02 -0.50210125567E+02  0.17774983664E+01  0.56284014400E+02  0.10566000000E+00 0.  1.
         23    2    1    0    0    0 -0.10809449428E+02 -0.24493541443E+02 -0.18791734706E+02  0.92290566153E+02  0.86299719224E+02 0.  0.
         13    1    3    3    0    0  0.14561063042E+02  0.25716584124E+02 -0.20569233072E+02  0.36006551753E+02  0.10566000000E+00 0. -1.
         22    1    1    0    0    0  0.10809449428E+02  0.24493541443E+02  0.18791734706E+02  0.32709433847E+02  0.00000000000E+00 0.  1.
</event>
<event>
 5    1  0.6924836E-004  0.9118800E+02  0.7818608E-02  0.1130116E+00
         25   -1    0    0    0    0  0.00000000000E+00  0.00000000000E+00  0.99999998245E-14  0.12500000000E+03  0.12500000000E+03 0.  0.
        -13    1    3    3    0    0  0.90399926838E+01 -0.13829498188E+00 -0.29976700805E+02  0.31310610795E+02  0.10566000000E+00 0.  1.
         23    2    1    0    0    0 -0.95001251648E+01  0.36730840919E+02  0.66423753998E+01  0.86483403529E+02  0.77432879852E+02 0.  0.
         13    1    3    3    0    0 -0.18540117849E+02  0.36869135901E+02  0.36619076204E+02  0.55172792733E+02  0.10566000000E+00 0. -1.
         22    1    1    0    0    0  0.95001251648E+01 -0.36730840919E+02 -0.66423753998E+01  0.38516596471E+02  0.00000000000E+00 0. -1.
</event>
<event>
 5    1  0.6924836E-004  0.9118800E+02  0.7818608E-02  0.1130116E+00
         25   -1    0    0    0    0  0.00000000000E+00  0.00000000000E+00  0.99999998245E-14  0.12500000000E+03  0.12500000000E+03 0.  0.
        -13    1    3    3    0    0  0.22935047718E+02  0.28243262706E+02 -0.37155450688E+02  0.52002278623E+02  0.10566000000E+00 0.  1.
         23    2    1    0    0    0  0.21616336827E+02  0.20200865090E+02  0.50486369013E+01  0.94986174806E+02  0.90119607753E+02 0.  0.
         13    1    3    3    0    0 -0.13187108915E+01 -0.80423976154E+01  0.42204087589E+02  0.42983896183E+02  0.10566000000E+00 0. -1.
         22    1    1    0    0    0 -0.21616336827E+02 -0.20200865090E+02 -0.50486369013E+01  0.30013825194E+02  0.00000000000E+00 0.  1.
</event>
<event>
 5    1  0.6924836E-004  0.9118800E+02  0.7818608E-02  0.1130116E+00
         25   -1    0    0    0    0  0.00000000000E+00  0.00000000000E+00  0.99999998245E-14  0.12500000000E+03  0.12500000000E+03 0.  0.
        -13    1    3    3    0    0 -0.18486669829E+02  0.30416922966E+02  0.68719089929E+01  0.36251627017E+02  0.10566000000E+00 0.  1.
         23    2    1    0    0    0  0.85085107477E+00 -0.18373909941E+02 -0.22137133147E+02  0.96218457685E+02  0.91812931667E+02 0.  0.
         13    1    3    3    0    0  0.19337520904E+02 -0.48790832908E+02 -0.29009042140E+02  0.59966830668E+02  0.10566000000E+00 0. -1.
         22    1    1    0    0    0 -0.85085107477E+00  0.18373909941E+02  0.22137133147E+02  0.28781542315E+02  0.00000000000E+00 0. -1.
</event>
<event>
 5    1  0.6924836E-004  0.9118800E+02  0.7818608E-02  0.1130116E+00
         25   -1    0    0    0    0  0.00000000000E+00  0.00000000000E+00  0.99999998245E-14  0.12500000000E+03  0.12500000000E+03 0.  0.
        -13    1    3    3    0    0  0.38322998704E+02 -0.62868407778E+01 -0.23553499687E+02  0.45419765611E+02  0.10566000000E+00 0. -1.
         23    2    1    0    0    0 -0.11347949768E+02 -0.14724314678E+02 -0.22500642036E+02  0.95813354104E+02  0.91259731130E+02 0.  0.
         13    1    3    3    0    0 -0.49670948472E+02 -0.84374738999E+01  0.10528576512E+01  0.50393588493E+02  0.10566000000E+00 0.  1.
         22    1    1    0    0    0  0.11347949768E+02  0.14724314678E+02  0.22500642036E+02  0.29186645896E+02  0.00000000000E+00 0.  1.
</event>
<event>
 5    1  0.6924836E-004  0.9118800E+02  0.7818608E-02  0.1130116E+00
         25   -1    0    0    0    0  0.00000000000E+00  0.00000000000E+00  0.99999998245E-14  0.12500000000E+03  0.12500000000E+03 0.  0.
        -13    1    3    3    0    0 -0.95870376727E+01  0.22272320509E+02 -0.38029864345E+02  0.45102652897E+02  0.10566000000E+00 0. -1.
         23    2    1    0    0    0 -0.61819923396E+01 -0.23182466891E+02 -0.18549046935E+02  0.94673263568E+02  0.89684535412E+02 0.  0.
         13    1    3    3    0    0  0.34050453332E+01 -0.45454787400E+02  0.19480817410E+02  0.49570610671E+02  0.10566000000E+00 0.  1.
         22    1    1    0    0    0  0.61819923396E+01  0.23182466891E+02  0.18549046935E+02  0.30326736432E+02  0.00000000000E+00 0.  1.
</event>
<event>
 5    1  0.6924836E-004  0.9118800E+02  0.7818608E-02  0.1130116E+00
         25   -1    0    0    0    0  0.00000000000E+00  0.00000000000E+00  0.99999998245E-14  0.12500000000E+03  0.12500000000E+03 0.  0.
        -13    1    3    3    0    0 -0.41237588713E+02 -0.37271157948E+02  0.10737976097E+02  0.56612659648E+02  0.10566000000E+00 0.  1.
         23    2    1    0    0    0 -0.12289195232E+02 -0.22508611708E+02 -0.12410365981E+02  0.96510017475E+02  0.92209025420E+02 0.  0.
         13    1    3    3    0    0  0.28948393481E+02  0.14762546240E+02 -0.23148342078E+02  0.39897357828E+02  0.10566000000E+00 0. -1.
         22    1    1    0    0    0  0.12289195232E+02  0.22508611708E+02  0.12410365981E+02  0.28489982525E+02  0.00000000000E+00 0.  1.
</event>
<event>
 5    1  0.6924836E-004  0.9118800E+02  0.7818608E-02  0.1130116E+00
         25   -1    0    0    0    0  0.00000000000E+00  0.00000000000E+00  0.99999998245E-14  0.12500000000E+03  0.12500000000E+03 0.  0.
        -13    1    3    3    0    0 -0.21694630860E+02  0.44298067922E+02 -0.18203516856E+02  0.52577134001E+02  0.10566000000E+00 0.  1.
         23    2    1    0    0    0  0.19083360515E+01  0.11708494093E+02 -0.28514382192E+02  0.94116338102E+02  0.88904918455E+02 0.  0.
         13    1    3    3    0    0  0.23602966911E+02 -0.32589573829E+02 -0.10310865336E+02  0.41539204101E+02  0.10566000000E+00 0. -1.
         22    1    1    0    0    0 -0.19083360515E+01 -0.11708494093E+02  0.28514382192E+02  0.30883661898E+02  0.00000000000E+00 0.  1.
</event>
<event>
 5    1  0.6924836E-004  0.9118800E+02  0.7818608E-02  0.1130116E+00
         25   -1    0    0    0    0  0.00000000000E+00  0.00000000000E+00  0.99999998245E-14  0.12500000000E+03  0.12500000000E+03 0.  0.
        -13    1    3    3    0    0 -0.36894153799E+02 -0.73028229378E+01  0.23235933106E+02  0.44208930758E+02  0.10566000000E+00 0. -1.
         23    2    1    0    0    0  0.11575329109E+02 -0.21775673936E+01  0.29391853320E+02  0.93335965428E+02  0.87800861938E+02 0.  0.
         13    1    3    3    0    0  0.48469482908E+02  0.51252555442E+01  0.61559202142E+01  0.49127034670E+02  0.10566000000E+00 0.  1.
         22    1    1    0    0    0 -0.11575329109E+02  0.21775673936E+01 -0.29391853320E+02  0.31664034572E+02  0.00000000000E+00 0. -1.
</event>
<event>
 5    1  0.6924836E-004  0.9118800E+02  0.7818608E-02  0.1130116E+00
         25   -1    0    0    0    0  0.00000000000E+00  0.00000000000E+00  0.99999998245E-14  0.12500000000E+03  0.12500000000E+03 0.  0.
        -13    1    3    3    0    0  0.16773619153E+02 -0.16636774756E+01  0.34942005845E+02  0.38795322640E+02  0.10566000000E+00 0.  1.
         23    2    1    0    0    0 -0.13142372521E+01  0.31403501953E+02 -0.43814686175E+01  0.93265091434E+02  0.87699902272E+02 0.  0.
         13    1    3    3    0    0 -0.18087856405E+02  0.33067179428E+02 -0.39323474462E+02  0.54469768794E+02  0.10566000000E+00 0. -1.
         22    1    1    0    0    0  0.13142372521E+01 -0.31403501953E+02  0.43814686175E+01  0.31734908566E+02  0.00000000000E+00 0. -1.
</event>
<event>
 5    1  0.6924836E-004  0.9118800E+02  0.7818608E-02  0.1130116E+00
         25   -1    0    0    0    0  0.00000000000E+00  0.00000000000E+00  0.99999998245E-14  0.12500000000E+03  0.12500000000E+03 0.  0.
        -13    1    3    3    0    0  0.23495400415E+02  0.54370530979E+02  0.16492478935E+02  0.61483343314E+02  0.10566000000E+00 0. -1.
         23    2    1    0    0    0  0.45084173106E+01  0.26383265184E+02  0.12235088993E+02  0.95570424552E+02  0.90926377569E+02 0.  0.
         13    1    3    3    0    0 -0.18986983104E+02 -0.27987265796E+02 -0.42573899419E+01  0.34087081237E+02  0.10566000000E+00 0.  1.
         22    1    1    0    0    0 -0.45084173106E+01 -0.26383265184E+02 -0.12235088993E+02  0.29429575448E+02  0.00000000000E+00 0. -1.
</event>
<event>
 5    1  0.6924836E-004  0.9118800E+02  0.7818608E-02  0.1130116E+00
         25   -1    0    0    0    0  0.00000000000E+00  0.00000000000E+00  0.99999998245E-14  0.12500000000E+03  0.12500000000E+03 0.  0.
        -13    1    3    3    0    0  0.22627481803E+02  0.25885357304E+02  0.35236868769E+01  0.34561281642E+02  0.10566000000E+00 0.  1.
         23    2    1    0    0    0  0.93713374620E+01 -0.27553846038E+02 -0.14485285364E+02  0.92490618440E+02  0.86588998205E+02 0.  0.
         13    1    3    3    0    0 -0.13256144341E+02 -0.53439203342E+02 -0.18008972241E+02  0.57929336798E+02  0.10566000000E+00 0. -1.
         22    1    1    0    0    0 -0.93713374620E+01  0.27553846038E+02  0.14485285364E+02  0.32509381560E+02  0.00000000000E+00 0. -1.
</event>
<event>
 5    1  0.6924836E-004  0.9118800E+02  0.7818608E-02  0.1130116E+00
         25   -1    0    0    0    0  0.00000000000E+00  0.00000000000E+00  0.99999998245E-14  0.12500000000E+03  0.12500000000E+03 0.  0.
        -13    1    3    3    0    0  0.34419203879E+02 -0.72686873494E+01  0.46415689303E+02  0.58240387954E+02  0.10566000000E+00 0.  1.
         23    2    1    0    0    0  0.26842412511E+02 -0.76562067440E+01  0.10138051644E+02  0.95302984960E+02  0.90557971709E+02 0.  0.
         13    1    3    3    0    0 -0.75767913680E+01 -0.38751939461E+00 -0.36277637659E+02  0.37062597007E+02  0.10566000000E+00 0. -1.
         22    1    1    0    0    0 -0.26842412511E+02  0.76562067440E+01 -0.10138051644E+02  0.29697015040E+02  0.00000000000E+00 0.  1.
</event>
<event>
 5    1  0.6924836E-004  0.9118800E+02  0.7818608E-02  0.1130116E+00
         25   -1    0    0    0    0  0.00000000000E+00  0.00000000000E+00  0.99999998245E-14  0.12500000000E+03  0.12500000000E+03 0.  0.
        -13    1    3    3    0    0 -0.28461087512E+02 -0.27778703934E+02 -0.13867939626E+02  0.42119126393E+02  0.10566000000E+00 0.  1.
         23    2    1    0    0    0 -0.21567653826E+02  0.11496791856E+02  0.19197880543E+02  0.93921091849E+02  0.88629977785E+02 0.  0.
         13    1    3    3    0    0  0.68934336859E+01  0.39275495790E+02  0.33065820169E+02  0.51801965455E+02  0.10566000000E+00 0. -1.
         22    1    1    0    0    0  0.21567653826E+02 -0.11496791856E+02 -0.19197880543E+02  0.31078908151E+02  0.00000000000E+00 0. -1.
</event>
<event>
 5    1  0.6924836E-004  0.9118800E+02  0.7818608E-02  0.1130116E+00
         25   -1    0    0    0    0  0.00000000000E+00  0.00000000000E+00  0.99999998245E-14  0.12500000000E+03  0.12500000000E+03 0.  0.
        -13    1    3    3    0    0  0.40588462762E+02  0.65000981827E+01  0.34416915070E+02  0.53611657247E+02  0.10566000000E+00 0. -1.
         23    2    1    0    0    0  0.22468685680E+02  0.27019894669E+02  0.20396667963E+02  0.84368231541E+02  0.73939555620E+02 0.  0.
         13    1    3    3    0    0 -0.18119777082E+02  0.20519796486E+02 -0.14020247106E+02  0.30756574294E+02  0.10566000000E+00 0.  1.
         22    1    1    0    0    0 -0.22468685680E+02 -0.27019894669E+02 -0.20396667963E+02  0.40631768459E+02  0.00000000000E+00 0. -1.
</event>
<event>
 5    1  0.6924836E-004  0.9118800E+02  0.7818608E-02  0.1130116E+00
         25   -1    0    0    0    0  0.00000000000E+00  0.00000000000E+00  0.99999998245E-14  0.12500000000E+03  0.12500000000E+03 0.  0.
        -13    1    3    3    0    0  0.16053867592E+02  0.46230757064E+02 -0.11727633930E+02  0.50324528065E+02  0.10566000000E+00 0.  1.
         23    2    1    0    0    0 -0.85743776299E+01  0.15956506066E+02 -0.27211397331E+02  0.92310702329E+02  0.86328880348E+02 0.  0.
         13    1    3    3    0    0 -0.24628245222E+02 -0.30274250998E+02 -0.15483763400E+02  0.41986174263E+02  0.10566000000E+00 0. -1.
         22    1    1    0    0    0  0.85743776299E+01 -0.15956506066E+02  0.27211397331E+02  0.32689297671E+02  0.00000000000E+00 0.  1.
</event>
<event>
 5    1  0.6924836E-004  0.9118800E+02  0.7818608E-02  0.1130116E+00
         25   -1    0    0    0    0  0.00000000000E+00  0.00000000000E+00  0.99999998245E-14  0.12500000000E+03  0.12500000000E+03 0.  0.
        -13    1    3    3    0    0  0.37006304777E+02  0.25445591043E+02 -0.34146465414E+02  0.56417523529E+02  0.10566000000E+00 0.  1.
         23    2    1    0    0    0  0.19456808654E+02 -0.75633821614E+01 -0.19064199107E+02  0.96729594267E+02  0.92506208260E+02 0.  0.
         13    1    3    3    0    0 -0.17549496123E+02 -0.33008973205E+02  0.15082266307E+02  0.40312070738E+02  0.10566000000E+00 0. -1.
         22    1    1    0    0    0 -0.19456808654E+02  0.75633821614E+01  0.19064199107E+02  0.28270405733E+02  0.00000000000E+00 0.  1.
</event>
<event>
 5    1  0.6924836E-004  0.9118800E+02  0.7818608E-02  0.1130116E+00
         25   -1    0    0    0    0  0.00000000000E+00  0.00000000000E+00  0.99999998245E-14  0.12500000000E+03  0.12500000000E+03 0.  0.
        -13    1    3    3    0    0  0.20137102576E+02 -0.54856603810E+02  0.10611134162E+02  0.59391558441E+02  0.10566000000E+00 0. -1.
         23    2    1    0    0    0 -0.29845353068E+01 -0.25206695441E+02 -0.31331482292E+01  0.99424590641E+02  0.96078861672E+02 0.  0.
         13    1    3    3    0    0 -0.23121637882E+02  0.29649908369E+02 -0.13744282391E+02  0.40033032201E+02  0.10566000000E+00 0.  1.
         22    1    1    0    0    0  0.29845353068E+01  0.25206695441E+02  0.31331482292E+01  0.25575409359E+02  0.00000000000E+00 0. -1.
</event>
<event>
 5    1  0.6924836E-004  0.9118800E+02  0.7818608E-02  0.1130116E+00
         25   -1    0    0    0    0  0.00000000000E+00  0.00000000000E+00  0.99999998245E-14  0.12500000000E+03  0.12500000000E+03 0.  0.
        -13    1    3    3    0    0 -0.17150959167E+02  0.15438367248E+02 -0.20448369122E+02  0.30832540398E+02  0.10566000000E+00 0.  1.
         23    2    1    0    0    0  0.35100961755E+02 -0.56884659114E+01 -0.78500143105E+01  0.88584908551E+02  0.80754115300E+02 0.  0.
         13    1    3    3    0    0  0.52251920921E+02 -0.21126833160E+02  0.12598354811E+02  0.57752368153E+02  0.10566000000E+00 0. -1.
         22    1    1    0    0    0 -0.35100961755E+02  0.56884659114E+01  0.78500143105E+01  0.36415091449E+02  0.00000000000E+00 0. -1.
</event>
<event>
 5    1  0.6924836E-004  0.9118800E+02  0.7818608E-02  0.1130116E+00
         25   -1    0    0    0    0  0.00000000000E+00  0.00000000000E+00  0.99999998245E-14  0.12500000000E+03  0.12500000000E+03 0.  0.
        -13    1    3    3    0    0 -0.57970789123E+00  0.34056478123E+02  0.75978674767E+01  0.34898689340E+02  0.10566000000E+00 0.  1.
         23    2    1    0    0    0 -0.21195510271E+01 -0.10717721836E+02 -0.29802048913E+02  0.93258478655E+02  0.87690476471E+02 0.  0.
         13    1    3    3    0    0 -0.15398431359E+01 -0.44774199959E+02 -0.37399916390E+02  0.58359789315E+02  0.10566000000E+00 0. -1.
         22    1    1    0    0    0  0.21195510271E+01  0.10717721836E+02  0.29802048913E+02  0.31741521345E+02  0.00000000000E+00 0. -1.
</event>
<event>
 5    1  0.6924836E-004  0.9118800E+02  0.7818608E-02  0.1130116E+00
         25   -1    0    0    0    0  0.00000000000E+00  0.00000000000E+00  0.99999998245E-14  0.12500000000E+03  0.12500000000E+03 0.  0.
        -13    1    3    3    0    0  0.38316583127E+01  0.26807352508E+02  0.32015861692E+02  0.41932592549E+02  0.10566000000E+00 0. -1.
         23    2    1    0    0    0 -0.71914980858E+00 -0.18929677430E+01 -0.21807096043E+02  0.10309908812E+03  0.10074607700E+03 0.  0.
         13    1    3    3    0    0 -0.45508081213E+01 -0.28700320251E+02 -0.53822957736E+02  0.61166495572E+02  0.10566000000E+00 0.  1.
         22    1    1    0    0    0  0.71914980858E+00  0.18929677430E+01  0.21807096043E+02  0.21900911880E+02  0.00000000000E+00 0.  1.
</event>
<event>
 5    1  0.6924836E-004  0.9118800E+02  0.7818608E-02  0.1130116E+00
         25   -1    0    0    0    0  0.00000000000E+00  0.00000000000E+00  0.99999998245E-14  0.12500000000E+03  0.12500000000E+03 0.  0.
        -13    1    3    3    0    0 -0.12697986777E+02  0.10850919421E+02 -0.31994322864E+02  0.36091954506E+02  0.10566000000E+00 0.  1.
         23    2    1    0    0    0  0.23302815414E+02 -0.41365493070E+01  0.14862581737E+02  0.97053111403E+02  0.92942336159E+02 0.  0.
         13    1    3    3    0    0  0.36000802191E+02 -0.14987468728E+02  0.46856904602E+02  0.60961156897E+02  0.10566000000E+00 0. -1.
         22    1    1    0    0    0 -0.23302815414E+02  0.41365493070E+01 -0.14862581737E+02  0.27946888597E+02  0.00000000000E+00 0. -1.
</event>
<event>
 5    1  0.6924836E-004  0.9118800E+02  0.7818608E-02  0.1130116E+00
         25   -1    0    0    0    0  0.00000000000E+00  0.00000000000E+00  0.99999998245E-14  0.12500000000E+03  0.12500000000E+03 0.  0.
        -13    1    3    3    0    0  0.45752729527E+02 -0.27164425582E+02 -0.96956963611E+01  0.54085450616E+02  0.10566000000E+00 0.  1.
         23    2    1    0    0    0  0.52432333915E+01 -0.29214012858E+02 -0.36259080063E+01  0.95098540964E+02  0.90275330190E+02 0.  0.
         13    1    3    3    0    0 -0.40509496136E+02 -0.20495872758E+01  0.60697883548E+01  0.41013090348E+02  0.10566000000E+00 0. -1.
         22    1    1    0    0    0 -0.52432333915E+01  0.29214012858E+02  0.36259080063E+01  0.29901459036E+02  0.00000000000E+00 0.  1.
</event>
<event>
 5    1  0.6924836E-004  0.9118800E+02  0.7818608E-02  0.1130116E+00
         25   -1    0    0    0    0  0.00000000000E+00  0.00000000000E+00  0.99999998245E-14  0.12500000000E+03  0.12500000000E+03 0.  0.
        -13    1    3    3    0    0  0.26358373020E+02 -0.30203849280E+02  0.31733419501E+02  0.51127853630E+02  0.10566000000E+00 0.  1.
         23    2    1    0    0    0  0.16742329081E+01  0.79233884645E+01  0.27020494832E+02  0.96792017414E+02  0.92590519782E+02 0.  0.
         13    1    3    3    0    0 -0.24684140112E+02  0.38127237745E+02 -0.47129246687E+01  0.45664163784E+02  0.10566000000E+00 0. -1.
         22    1    1    0    0    0 -0.16742329081E+01 -0.79233884645E+01 -0.27020494832E+02  0.28207982586E+02  0.00000000000E+00 0.  1.
</event>
<event>
 5    1  0.6924836E-004  0.9118800E+02  0.7818608E-02  0.1130116E+00
         25   -1    0    0    0    0  0.00000000000E+00  0.00000000000E+00  0.99999998245E-14  0.12500000000E+03  0.12500000000E+03 0.  0.
        -13    1    3    3    0    0  0.40216193030E+01  0.33455258122E+02  0.37544981736E+02  0.50448632642E+02  0.10566000000E+00 0. -1.
         23    2    1    0    0    0  0.20717508053E+02  0.21632658792E+02 -0.20084562474E+01  0.94979657517E+02  0.90110567522E+02 0.  0.
         13    1    3    3    0    0  0.16695888750E+02 -0.11822599330E+02 -0.39553437983E+02  0.44531024875E+02  0.10566000000E+00 0.  1.
         22    1    1    0    0    0 -0.20717508053E+02 -0.21632658792E+02  0.20084562474E+01  0.30020342483E+02  0.00000000000E+00 0. -1.
</event>
<event>
 5    1  0.6924836E-004  0.9118800E+02  0.7818608E-02  0.1130116E+00
         25   -1    0    0    0    0  0.00000000000E+00  0.00000000000E+00  0.99999998245E-14  0.12500000000E+03  0.12500000000E+03 0.  0.
        -13    1    3    3    0    0 -0.23131036810E+02  0.62241289094E+00  0.29484156134E+02  0.37480113243E+02  0.10566000000E+00 0. -1.
         23    2    1    0    0    0 -0.48272921648E+01  0.22999954419E+02 -0.19568655761E+02  0.94418421539E+02  0.89328636980E+02 0.  0.
         13    1    3    3    0    0  0.18303744645E+02  0.22377541528E+02 -0.49052811894E+02  0.56938308296E+02  0.10566000000E+00 0.  1.
         22    1    1    0    0    0  0.48272921648E+01 -0.22999954419E+02  0.19568655761E+02  0.30581578461E+02  0.00000000000E+00 0.  1.
</event>
<event>
 4    1  0.6924836E-004  0.9118800E+02  0.7818608E-02  0.1130116E+00
         25   -1    0    0    0    0  0.00000000000E+00  0.00000000000E+00  0.99999998245E-14  0.12500000000E+03  0.12500000000E+03 0.  0.
        -13    1    1    0    0    0 -0.27566366802E+02  0.46288272439E+02 -0.92799213254E+01  0.54668426426E+02  0.10566000000E+00 0.  1.
         13    1    1    0    0    0 -0.10803354239E+02 -0.13341623649E+02 -0.48156635538E+01  0.17830119571E+02  0.10566000000E+00 0. -1.
         22    1    1    0    0    0  0.38369721042E+02 -0.32946648791E+02  0.14095584879E+02  0.52501454003E+02  0.00000000000E+00 0.  1.
</event>
<event>
 5    1  0.6924836E-004  0.9118800E+02  0.7818608E-02  0.1130116E+00
         25   -1    0    0    0    0  0.00000000000E+00  0.00000000000E+00  0.99999998245E-14  0.12500000000E+03  0.12500000000E+03 0.  0.
        -13    1    3    3    0    0  0.54127694780E+02 -0.16544220277E+02  0.10714168300E+02  0.57604888101E+02  0.10566000000E+00 0.  1.
         23    2    1    0    0    0  0.17789933282E+02  0.38140520267E-02  0.19621107120E+02  0.98514728898E+02  0.94887734848E+02 0.  0.
         13    1    3    3    0    0 -0.36337761498E+02  0.16548034329E+02  0.89069388201E+01  0.40909840797E+02  0.10566000000E+00 0. -1.
         22    1    1    0    0    0 -0.17789933282E+02 -0.38140520267E-02 -0.19621107120E+02  0.26485271102E+02  0.00000000000E+00 0.  1.
</event>
<event>
 5    1  0.6924836E-004  0.9118800E+02  0.7818608E-02  0.1130116E+00
         25   -1    0    0    0    0  0.00000000000E+00  0.00000000000E+00  0.99999998245E-14  0.12500000000E+03  0.12500000000E+03 0.  0.
        -13    1    3    3    0    0  0.21186089300E+02 -0.28616591485E+02  0.13777374377E+02  0.38178356392E+02  0.10566000000E+00 0.  1.
         23    2    1    0    0    0  0.11925587808E+02  0.26668736807E+02  0.51400831083E+00  0.95781763024E+02  0.91216450030E+02 0.  0.
         13    1    3    3    0    0 -0.92605014921E+01  0.55285328292E+02 -0.13263366066E+02  0.57603406632E+02  0.10566000000E+00 0. -1.
         22    1    1    0    0    0 -0.11925587808E+02 -0.26668736807E+02 -0.51400831083E+00  0.29218236976E+02  0.00000000000E+00 0. -1.
</event>
<event>
 5    1  0.6924836E-004  0.9118800E+02  0.7818608E-02  0.1130116E+00
         25   -1    0    0    0    0  0.00000000000E+00  0.00000000000E+00  0.99999998245E-14  0.12500000000E+03  0.12500000000E+03 0.  0.
        -13    1    3    3    0    0 -0.15772015940E+02 -0.11768419375E+02 -0.43871340594E+02  0.48082823034E+02  0.10566000000E+00 0.  1.
         23    2    1    0    0    0 -0.17908057929E+02  0.20933052479E+02 -0.88041947402E+01  0.96079331440E+02  0.91623320504E+02 0.  0.
         13    1    3    3    0    0 -0.21360419896E+01  0.32701471854E+02  0.35067145854E+02  0.47996508406E+02  0.10566000000E+00 0. -1.
         22    1    1    0    0    0  0.17908057929E+02 -0.20933052479E+02  0.88041947402E+01  0.28920668560E+02  0.00000000000E+00 0.  1.
</event>
<event>
 5    1  0.6924836E-004  0.9118800E+02  0.7818608E-02  0.1130116E+00
         25   -1    0    0    0    0  0.00000000000E+00  0.00000000000E+00  0.99999998245E-14  0.12500000000E+03  0.12500000000E+03 0.  0.
        -13    1    3    3    0    0 -0.38621937110E+02  0.10870333115E+02 -0.46653093144E+02  0.61533246559E+02  0.10566000000E+00 0. -1.
         23    2    1    0    0    0 -0.24952180535E+02  0.13941724501E+02 -0.26909390931E+02  0.85743174914E+02  0.76228562420E+02 0.  0.
         13    1    3    3    0    0  0.13669756575E+02  0.30713913866E+01  0.19743702213E+02  0.24209928355E+02  0.10566000000E+00 0.  1.
         22    1    1    0    0    0  0.24952180535E+02 -0.13941724501E+02  0.26909390931E+02  0.39256825086E+02  0.00000000000E+00 0. -1.
</event>
<event>
 5    1  0.6924836E-004  0.9118800E+02  0.7818608E-02  0.1130116E+00
         25   -1    0    0    0    0  0.00000000000E+00  0.00000000000E+00  0.99999998245E-14  0.12500000000E+03  0.12500000000E+03 0.  0.
        -13    1    3    3    0    0  0.26163831303E+02 -0.87921452134E+01 -0.55402206962E+02  0.61897201764E+02  0.10566000000E+00 0.  1.
         23    2    1    0    0    0  0.96032386611E+01 -0.95890950905E+01 -0.23011657492E+02  0.98284661373E+02  0.94584170680E+02 0.  0.
         13    1    3    3    0    0 -0.16560592642E+02 -0.79694987707E+00  0.32390549471E+02  0.36387459609E+02  0.10566000000E+00 0. -1.
         22    1    1    0    0    0 -0.96032386611E+01  0.95890950905E+01  0.23011657492E+02  0.26715338627E+02  0.00000000000E+00 0.  1.
</event>
<event>
 5    1  0.6924836E-004  0.9118800E+02  0.7818608E-02  0.1130116E+00
         25   -1    0    0    0    0  0.00000000000E+00  0.00000000000E+00  0.99999998245E-14  0.12500000000E+03  0.12500000000E+03 0.  0.
        -13    1    3    3    0    0  0.36749629723E+02  0.22209898501E+02  0.88120724901E+00  0.42948836614E+02  0.10566000000E+00 0.  1.
         23    2    1    0    0    0  0.13969003872E+02 -0.25389230112E+02  0.36584491253E+01  0.95791605233E+02  0.91229936470E+02 0.  0.
         13    1    3    3    0    0 -0.22780625851E+02 -0.47599128613E+02  0.27772418763E+01  0.52842768620E+02  0.10566000000E+00 0. -1.
         22    1    1    0    0    0 -0.13969003872E+02  0.25389230112E+02 -0.36584491253E+01  0.29208394767E+02  0.00000000000E+00 0. -1.
</event>
<event>
 5    1  0.6924836E-004  0.9118800E+02  0.7818608E-02  0.1130116E+00
         25   -1    0    0    0    0  0.00000000000E+00  0.00000000000E+00  0.99999998245E-14  0.12500000000E+03  0.12500000000E+03 0.  0.
        -13    1    3    3    0    0 -0.32280203071E+02 -0.33094108956E+02 -0.67430543698E+01  0.46719498116E+02  0.10566000000E+00 0. -1.
         23    2    1    0    0    0 -0.32834447303E+01  0.83050984667E+01 -0.23412892683E+02  0.99941683743E+02  0.96749268399E+02 0.  0.
         13    1    3    3    0    0  0.28996758341E+02  0.41399207423E+02 -0.16669838313E+02  0.53222185627E+02  0.10566000000E+00 0.  1.
         22    1    1    0    0    0  0.32834447303E+01 -0.83050984667E+01  0.23412892683E+02  0.25058316257E+02  0.00000000000E+00 0.  1.
</event>
<event>
 5    1  0.6924836E-004  0.9118800E+02  0.7818608E-02  0.1130116E+00
         25   -1    0    0    0    0  0.00000000000E+00  0.00000000000E+00  0.99999998245E-14  0.12500000000E+03  0.12500000000E+03 0.  0.
        -13    1    3    3    0    0  0.11157793790E+02 -0.47603444965E+02 -0.24019503062E+02  0.54475058754E+02  0.10566000000E+00 0.  1.
         23    2    1    0    0    0 -0.14139364683E+02 -0.24687030867E+02  0.57203581754E+00  0.96544800973E+02  0.92256166424E+02 0.  0.
         13    1    3    3    0    0 -0.25297158473E+02  0.22916414098E+02  0.24591538879E+02  0.42069742220E+02  0.10566000000E+00 0. -1.
         22    1    1    0    0    0  0.14139364683E+02  0.24687030867E+02 -0.57203581754E+00  0.28455199027E+02  0.00000000000E+00 0.  1.
</event>
<event>
 5    1  0.6924836E-004  0.9118800E+02  0.7818608E-02  0.1130116E+00
         25   -1    0    0    0    0  0.00000000000E+00  0.00000000000E+00  0.99999998245E-14  0.12500000000E+03  0.12500000000E+03 0.  0.
        -13    1    3    3    0    0  0.52255884830E+02 -0.32448378653E+02 -0.13640815761E+01  0.61525983610E+02  0.10566000000E+00 0.  1.
         23    2    1    0    0    0  0.27218419373E+02 -0.11921196335E+02 -0.72026558992E+01  0.94424919833E+02  0.89337729757E+02 0.  0.
         13    1    3    3    0    0 -0.25037465457E+02  0.20527182318E+02 -0.58385743231E+01  0.32898936223E+02  0.10566000000E+00 0. -1.
         22    1    1    0    0    0 -0.27218419373E+02  0.11921196335E+02  0.72026558992E+01  0.30575080167E+02  0.00000000000E+00 0.  1.
</event>
<event>
 5    1  0.6924836E-004  0.9118800E+02  0.7818608E-02  0.1130116E+00
         25   -1    0    0    0    0  0.00000000000E+00  0.00000000000E+00  0.99999998245E-14  0.12500000000E+03  0.12500000000E+03 0.  0.
        -13    1    3    3    0    0 -0.10312543612E+02  0.32269906123E+02  0.10186170015E+02  0.35376045858E+02  0.10566000000E+00 0. -1.
         23    2    1    0    0    0  0.17770125678E+02 -0.77840852368E+01 -0.23317388657E+02  0.94667344934E+02  0.89676285792E+02 0.  0.
         13    1    3    3    0    0  0.28082669290E+02 -0.40053991360E+02 -0.33503558672E+02  0.59291299075E+02  0.10566000000E+00 0.  1.
         22    1    1    0    0    0 -0.17770125678E+02  0.77840852368E+01  0.23317388657E+02  0.30332655066E+02  0.00000000000E+00 0.  1.
</event>
<event>
 5    1  0.6924836E-004  0.9118800E+02  0.7818608E-02  0.1130116E+00
         25   -1    0    0    0    0  0.00000000000E+00  0.00000000000E+00  0.99999998245E-14  0.12500000000E+03  0.12500000000E+03 0.  0.
        -13    1    3    3    0    0 -0.31345337666E+02  0.46553767513E+02 -0.14562713727E+01  0.56141921532E+02  0.10566000000E+00 0.  1.
         23    2    1    0    0    0 -0.28762810287E+02  0.75327439127E+01 -0.29454259496E+00  0.95265705964E+02  0.90506499717E+02 0.  0.
         13    1    3    3    0    0  0.25825273785E+01 -0.39021023600E+02  0.11617287777E+01  0.39123784431E+02  0.10566000000E+00 0. -1.
         22    1    1    0    0    0  0.28762810287E+02 -0.75327439127E+01  0.29454259496E+00  0.29734294036E+02  0.00000000000E+00 0.  1.
</event>
<event>
 5    1  0.6924836E-004  0.9118800E+02  0.7818608E-02  0.1130116E+00
         25   -1    0    0    0    0  0.00000000000E+00  0.00000000000E+00  0.99999998245E-14  0.12500000000E+03  0.12500000000E+03 0.  0.
        -13    1    3    3    0    0 -0.18186932110E+02  0.10115329702E+02  0.32662656358E+02  0.38729119264E+02  0.10566000000E+00 0. -1.
         23    2    1    0    0    0  0.20148015086E+02 -0.15868435245E+02 -0.55375283960E+01  0.98762355865E+02  0.95213386486E+02 0.  0.
         13    1    3    3    0    0  0.38334947197E+02 -0.25983764947E+02 -0.38200184754E+02  0.60033236600E+02  0.10566000000E+00 0.  1.
         22    1    1    0    0    0 -0.20148015086E+02  0.15868435245E+02  0.55375283960E+01  0.26237644135E+02  0.00000000000E+00 0.  1.
</event>
<event>
 5    1  0.6924836E-004  0.9118800E+02  0.7818608E-02  0.1130116E+00
         25   -1    0    0    0    0  0.00000000000E+00  0.00000000000E+00  0.99999998245E-14  0.12500000000E+03  0.12500000000E+03 0.  0.
        -13    1    3    3    0    0  0.23342010740E+01 -0.67378550874E+01 -0.40152577515E+02  0.40780973884E+02  0.10566000000E+00 0. -1.
         23    2    1    0    0    0 -0.10464490696E+01 -0.33556632168E+02  0.25612026802E+01  0.91329502865E+02  0.84896264442E+02 0.  0.
         13    1    3    3    0    0 -0.33806501436E+01 -0.26818777081E+02  0.42713780195E+02  0.50548528981E+02  0.10566000000E+00 0.  1.
         22    1    1    0    0    0  0.10464490696E+01  0.33556632168E+02 -0.25612026802E+01  0.33670497135E+02  0.00000000000E+00 0. -1.
</event>
<event>
 5    1  0.6924836E-004  0.9118800E+02  0.7818608E-02  0.1130116E+00
         25   -1    0    0    0    0  0.00000000000E+00  0.00000000000E+00  0.99999998245E-14  0.12500000000E+03  0.12500000000E+03 0.  0.
        -13    1    3    3    0    0  0.33450770077E+02 -0.21038760539E+02 -0.37767499871E+02  0.54662406408E+02  0.10566000000E+00 0. -1.
         23    2    1    0    0    0 -0.93470397245E+00  0.16819138947E+01 -0.27890125972E+02  0.97043576184E+02  0.92929511169E+02 0.  0.
         13    1    3    3    0    0 -0.34385474050E+02  0.22720674434E+02  0.98773738995E+01  0.42381169776E+02  0.10566000000E+00 0.  1.
         22    1    1    0    0    0  0.93470397245E+00 -0.16819138947E+01  0.27890125972E+02  0.27956423816E+02  0.00000000000E+00 0. -1.
</event>
<event>
 5    1  0.6924836E-004  0.9118800E+02  0.7818608E-02  0.1130116E+00
         25   -1    0    0    0    0  0.00000000000E+00  0.00000000000E+00  0.99999998245E-14  0.12500000000E+03  0.12500000000E+03 0.  0.
        -13    1    3    3    0    0 -0.32591848361E+02  0.28174934408E+01  0.10402864248E+02  0.34327796280E+02  0.10566000000E+00 0. -1.
         23    2    1    0    0    0  0.20154195230E+02 -0.18242239910E+02 -0.11874570356E+02  0.95335605123E+02  0.90602987151E+02 0.  0.
         13    1    3    3    0    0  0.52746043590E+02 -0.21059733350E+02 -0.22277434605E+02  0.61007808843E+02  0.10566000000E+00 0.  1.
         22    1    1    0    0    0 -0.20154195230E+02  0.18242239910E+02  0.11874570356E+02  0.29664394877E+02  0.00000000000E+00 0.  1.
</event>
<event>
 5    1  0.6924836E-004  0.9118800E+02  0.7818608E-02  0.1130116E+00
         25   -1    0    0    0    0  0.00000000000E+00  0.00000000000E+00  0.99999998245E-14  0.12500000000E+03  0.12500000000E+03 0.  0.
        -13    1    3    3    0    0 -0.12505759904E+02 -0.56561200431E+02 -0.34558982966E+01  0.58030318128E+02  0.10566000000E+00 0. -1.
         23    2    1    0    0    0  0.10685438967E+02 -0.27686268189E+02  0.82301492930E+00  0.95311864226E+02  0.90570227208E+02 0.  0.
         13    1    3    3    0    0  0.23191198871E+02  0.28874932242E+02  0.42789132259E+01  0.37281546098E+02  0.10566000000E+00 0.  1.
         22    1    1    0    0    0 -0.10685438967E+02  0.27686268189E+02 -0.82301492930E+00  0.29688135774E+02  0.00000000000E+00 0. -1.
</event>
<event>
 5    1  0.6924836E-004  0.9118800E+02  0.7818608E-02  0.1130116E+00
         25   -1    0    0    0    0  0.00000000000E+00  0.00000000000E+00  0.99999998245E-14  0.12500000000E+03  0.12500000000E+03 0.  0.
        -13    1    3    3    0    0  0.43130868833E+02  0.18412890781E+02  0.15832688537E+02  0.49497389664E+02  0.10566000000E+00 0. -1.
         23    2    1    0    0    0  0.19059582145E+02 -0.20448138240E+02  0.36188617251E+01  0.96813297653E+02  0.92619244292E+02 0.  0.
         13    1    3    3    0    0 -0.24071286688E+02 -0.38861029021E+02 -0.12213826812E+02  0.47315907989E+02  0.10566000000E+00 0.  1.
         22    1    1    0    0    0 -0.19059582145E+02  0.20448138240E+02 -0.36188617251E+01  0.28186702347E+02  0.00000000000E+00 0. -1.
</event>
<event>
 5    1  0.6924836E-004  0.9118800E+02  0.7818608E-02  0.1130116E+00
         25   -1    0    0    0    0  0.00000000000E+00  0.00000000000E+00  0.99999998245E-14  0.12500000000E+03  0.12500000000E+03 0.  0.
        -13    1    3    3    0    0 -0.23306710882E+02 -0.27131966544E+02 -0.23898005595E+02  0.43017115386E+02  0.10566000000E+00 0.  1.
         23    2    1    0    0    0 -0.18413402854E+02 -0.47651897701E+01  0.22969240246E+02  0.95178087994E+02  0.90385408106E+02 0.  0.
         13    1    3    3    0    0  0.48933080284E+01  0.22366776773E+02  0.46867245841E+02  0.52160972608E+02  0.10566000000E+00 0. -1.
         22    1    1    0    0    0  0.18413402854E+02  0.47651897701E+01 -0.22969240246E+02  0.29821912006E+02  0.00000000000E+00 0. -1.
</event>
<event>
 5    1  0.6924836E-004  0.9118800E+02  0.7818608E-02  0.1130116E+00
         25   -1    0    0    0    0  0.00000000000E+00  0.00000000000E+00  0.99999998245E-14  0.12500000000E+03  0.12500000000E+03 0.  0.
        -13    1    3    3    0    0  0.11097066923E+02 -0.54631459752E+02 -0.18351910110E+02  0.58690246699E+02  0.10566000000E+00 0.  1.
         23    2    1    0    0    0  0.16347905198E+02 -0.18327074831E+02 -0.16487815187E+02  0.95419876169E+02  0.90719176817E+02 0.  0.
         13    1    3    3    0    0  0.52508382749E+01  0.36304384921E+02  0.18640949228E+01  0.36729629470E+02  0.10566000000E+00 0. -1.
         22    1    1    0    0    0 -0.16347905198E+02  0.18327074831E+02  0.16487815187E+02  0.29580123831E+02  0.00000000000E+00 0.  1.
</event>
<event>
 5    1  0.6924836E-004  0.9118800E+02  0.7818608E-02  0.1130116E+00
         25   -1    0    0    0    0  0.00000000000E+00  0.00000000000E+00  0.99999998245E-14  0.12500000000E+03  0.12500000000E+03 0.  0.
        -13    1    3    3    0    0  0.34207688238E+02 -0.53936055261E+01 -0.24710978105E+02  0.42542925594E+02  0.10566000000E+00 0.  1.
         23    2    1    0    0    0  0.34060674220E+01 -0.27769158522E+02  0.11186440763E+02  0.94869219770E+02  0.89957239523E+02 0.  0.
         13    1    3    3    0    0 -0.30801620816E+02 -0.22375552996E+02  0.35897418868E+02  0.52326294176E+02  0.10566000000E+00 0. -1.
         22    1    1    0    0    0 -0.34060674220E+01  0.27769158522E+02 -0.11186440763E+02  0.30130780230E+02  0.00000000000E+00 0. -1.
</event>
<event>
 5    1  0.6924836E-004  0.9118800E+02  0.7818608E-02  0.1130116E+00
         25   -1    0    0    0    0  0.00000000000E+00  0.00000000000E+00  0.99999998245E-14  0.12500000000E+03  0.12500000000E+03 0.  0.
        -13    1    3    3    0    0  0.22951630017E+02  0.32844148249E+02 -0.25056202742E+02  0.47258225258E+02  0.10566000000E+00 0. -1.
         23    2    1    0    0    0  0.27184135588E+01 -0.17096832477E+02 -0.15044859403E+02  0.10206445450E+03  0.99454077968E+02 0.  0.
         13    1    3    3    0    0 -0.20233216458E+02 -0.49940980726E+02  0.10011343339E+02  0.54806229240E+02  0.10566000000E+00 0.  1.
         22    1    1    0    0    0 -0.27184135588E+01  0.17096832477E+02  0.15044859403E+02  0.22935545502E+02  0.00000000000E+00 0. -1.
</event>
<event>
 5    1  0.6924836E-004  0.9118800E+02  0.7818608E-02  0.1130116E+00
         25   -1    0    0    0    0  0.00000000000E+00  0.00000000000E+00  0.99999998245E-14  0.12500000000E+03  0.12500000000E+03 0.  0.
        -13    1    3    3    0    0  0.79414057514E+01 -0.32813069206E+02 -0.49105563040E+02  0.59591366166E+02  0.10566000000E+00 0. -1.
         23    2    1    0    0    0 -0.66073876964E+01 -0.94161968091E+01 -0.29299643702E+02  0.93523160013E+02  0.88066963177E+02 0.  0.
         13    1    3    3    0    0 -0.14548793448E+02  0.23396872397E+02  0.19805919339E+02  0.33931793846E+02  0.10566000000E+00 0.  1.
         22    1    1    0    0    0  0.66073876964E+01  0.94161968091E+01  0.29299643702E+02  0.31476839987E+02  0.00000000000E+00 0. -1.
</event>
<event>
 5    1  0.6924836E-004  0.9118800E+02  0.7818608E-02  0.1130116E+00
         25   -1    0    0    0    0  0.00000000000E+00  0.00000000000E+00  0.99999998245E-14  0.12500000000E+03  0.12500000000E+03 0.  0.
        -13    1    3    3    0    0  0.13476946817E+02  0.50511808191E+02 -0.30829228466E+02  0.60692036990E+02  0.10566000000E+00 0.  1.
         23    2    1    0    0    0  0.87819320884E+01  0.28269196789E+02 -0.52098439388E+01  0.94943182268E+02  0.90059955402E+02 0.  0.
         13    1    3    3    0    0 -0.46950147291E+01 -0.22242611402E+02  0.25619384527E+02  0.34251145278E+02  0.10566000000E+00 0. -1.
         22    1    1    0    0    0 -0.87819320884E+01 -0.28269196789E+02  0.52098439388E+01  0.30056817732E+02  0.00000000000E+00 0.  1.
</event>
<event>
 5    1  0.6924836E-004  0.9118800E+02  0.7818608E-02  0.1130116E+00
         25   -1    0    0    0    0  0.00000000000E+00  0.00000000000E+00  0.99999998245E-14  0.12500000000E+03  0.12500000000E+03 0.  0.
        -13    1    3    3    0    0 -0.18583602304E+01  0.37666421045E+02 -0.32479988092E+01  0.37851993836E+02  0.10566000000E+00 0.  1.
         23    2    1    0    0    0  0.96466336971E+01 -0.12743944612E+02 -0.26109136534E+02  0.94387050509E+02  0.89284727851E+02 0.  0.
         13    1    3    3    0    0  0.11504993927E+02 -0.50410365657E+02 -0.22861137725E+02  0.56535056673E+02  0.10566000000E+00 0. -1.
         22    1    1    0    0    0 -0.96466336971E+01  0.12743944612E+02  0.26109136534E+02  0.30612949491E+02  0.00000000000E+00 0. -1.
</event>
<event>
 5    1  0.6924836E-004  0.9118800E+02  0.7818608E-02  0.1130116E+00
         25   -1    0    0    0    0  0.00000000000E+00  0.00000000000E+00  0.99999998245E-14  0.12500000000E+03  0.12500000000E+03 0.  0.
        -13    1    3    3    0    0  0.41493770340E+02  0.11089916869E+02 -0.26077201538E+02  0.50246898782E+02  0.10566000000E+00 0.  1.
         23    2    1    0    0    0  0.49102994621E+02 -0.33546792697E+01 -0.71124373947E+01  0.75271288781E+02  0.56505063449E+02 0.  0.
         13    1    3    3    0    0  0.76092242815E+01 -0.14444596139E+02  0.18964764143E+02  0.25024389999E+02  0.10566000000E+00 0. -1.
         22    1    1    0    0    0 -0.49102994621E+02  0.33546792697E+01  0.71124373947E+01  0.49728711219E+02  0.00000000000E+00 0.  1.
</event>
<event>
 5    1  0.6924836E-004  0.9118800E+02  0.7818608E-02  0.1130116E+00
         25   -1    0    0    0    0  0.00000000000E+00  0.00000000000E+00  0.99999998245E-14  0.12500000000E+03  0.12500000000E+03 0.  0.
        -13    1    3    3    0    0 -0.18570390874E+02 -0.31040656626E+01 -0.29181055434E+02  0.34728083752E+02  0.10566000000E+00 0. -1.
         23    2    1    0    0    0  0.93146822861E+01 -0.11946767334E+02  0.24692004472E+02  0.96031333467E+02  0.91557814341E+02 0.  0.
         13    1    3    3    0    0  0.27885073160E+02 -0.88427016713E+01  0.53873059906E+02  0.61303249715E+02  0.10566000000E+00 0.  1.
         22    1    1    0    0    0 -0.93146822861E+01  0.11946767334E+02 -0.24692004472E+02  0.28968666533E+02  0.00000000000E+00 0.  1.
</event>
<event>
 5    1  0.6924836E-004  0.9118800E+02  0.7818608E-02  0.1130116E+00
         25   -1    0    0    0    0  0.00000000000E+00  0.00000000000E+00  0.99999998245E-14  0.12500000000E+03  0.12500000000E+03 0.  0.
        -13    1    3    3    0    0 -0.40833760924E+02  0.44745728970E+01 -0.43509959295E+02  0.59837660012E+02  0.10566000000E+00 0.  1.
         23    2    1    0    0    0 -0.21301760654E+02  0.14358519386E+02 -0.17102755297E+02  0.94138432887E+02  0.88935978219E+02 0.  0.
         13    1    3    3    0    0  0.19532000270E+02  0.98839464888E+01  0.26407203999E+02  0.34300772875E+02  0.10566000000E+00 0. -1.
         22    1    1    0    0    0  0.21301760654E+02 -0.14358519386E+02  0.17102755297E+02  0.30861567113E+02  0.00000000000E+00 0.  1.
</event>
<event>
 5    1  0.6924836E-004  0.9118800E+02  0.7818608E-02  0.1130116E+00
         25   -1    0    0    0    0  0.00000000000E+00  0.00000000000E+00  0.99999998245E-14  0.12500000000E+03  0.12500000000E+03 0.  0.
        -13    1    3    3    0    0 -0.11187926535E+02  0.37552119403E+02 -0.19021772563E+02  0.43556519228E+02  0.10566000000E+00 0. -1.
         23    2    1    0    0    0 -0.29215198362E+02 -0.51060507202E+01  0.36480031210E+01  0.95118442208E+02  0.90302882302E+02 0.  0.
         13    1    3    3    0    0 -0.18027271827E+02 -0.42658170123E+02  0.22669775684E+02  0.51561922980E+02  0.10566000000E+00 0.  1.
         22    1    1    0    0    0  0.29215198362E+02  0.51060507202E+01 -0.36480031210E+01  0.29881557792E+02  0.00000000000E+00 0.  1.
</event>
<event>
 5    1  0.6924836E-004  0.9118800E+02  0.7818608E-02  0.1130116E+00
         25   -1    0    0    0    0  0.00000000000E+00  0.00000000000E+00  0.99999998245E-14  0.12500000000E+03  0.12500000000E+03 0.  0.
        -13    1    3    3    0    0  0.45476033742E+01 -0.47923420694E+01  0.57558378871E+02  0.57936390820E+02  0.10566000000E+00 0.  1.
         23    2    1    0    0    0 -0.64680574377E+01 -0.16380357310E+02  0.22846165520E+02  0.96153871116E+02  0.91724957231E+02 0.  0.
         13    1    3    3    0    0 -0.11015660812E+02 -0.11588015241E+02 -0.34712213351E+02  0.38217480295E+02  0.10566000000E+00 0. -1.
         22    1    1    0    0    0  0.64680574377E+01  0.16380357310E+02 -0.22846165520E+02  0.28846128884E+02  0.00000000000E+00 0. -1.
</event>
<event>
 5    1  0.6924836E-004  0.9118800E+02  0.7818608E-02  0.1130116E+00
         25   -1    0    0    0    0  0.00000000000E+00  0.00000000000E+00  0.99999998245E-14  0.12500000000E+03  0.12500000000E+03 0.  0.
        -13    1    3    3    0    0 -0.39179622701E+02  0.28033087768E+02 -0.23442626560E+02  0.53576718347E+02  0.10566000000E+00 0.  1.
         23    2    1    0    0    0 -0.29440015501E+02 -0.96963557110E+00  0.47299723879E+01  0.95166673926E+02  0.90369621453E+02 0.  0.
         13    1    3    3    0    0  0.97396072000E+01 -0.29002723339E+02  0.28172598948E+02  0.41589955579E+02  0.10566000000E+00 0. -1.
         22    1    1    0    0    0  0.29440015501E+02  0.96963557110E+00 -0.47299723879E+01  0.29833326074E+02  0.00000000000E+00 0.  1.
</event>
<event>
 5    1  0.6924836E-004  0.9118800E+02  0.7818608E-02  0.1130116E+00
         25   -1    0    0    0    0  0.00000000000E+00  0.00000000000E+00  0.99999998245E-14  0.12500000000E+03  0.12500000000E+03 0.  0.
        -13    1    3    3    0    0 -0.15728989724E+02  0.18324602056E+02 -0.25419803663E+02  0.35062369295E+02  0.10566000000E+00 0.  1.
         23    2    1    0    0    0  0.17524397601E+02  0.20935693399E+01  0.23003870676E+02  0.96005765919E+02  0.91522901395E+02 0.  0.
         13    1    3    3    0    0  0.33253387325E+02 -0.16231032716E+02  0.48423674339E+02  0.60943396625E+02  0.10566000000E+00 0. -1.
         22    1    1    0    0    0 -0.17524397601E+02 -0.20935693399E+01 -0.23003870676E+02  0.28994234081E+02  0.00000000000E+00 0. -1.
</event>
<event>
 5    1  0.6924836E-004  0.9118800E+02  0.7818608E-02  0.1130116E+00
         25   -1    0    0    0    0  0.00000000000E+00  0.00000000000E+00  0.99999998245E-14  0.12500000000E+03  0.12500000000E+03 0.  0.
        -13    1    3    3    0    0 -0.12692056974E+02 -0.18582832228E+01  0.48686903317E+02  0.50348458223E+02  0.10566000000E+00 0.  1.
         23    2    1    0    0    0  0.19805334173E+02 -0.10400030779E+02  0.24960132065E+02  0.91482540451E+02  0.85121296470E+02 0.  0.
         13    1    3    3    0    0  0.32497391147E+02 -0.85417475567E+01 -0.23726771252E+02  0.41134082228E+02  0.10566000000E+00 0. -1.
         22    1    1    0    0    0 -0.19805334173E+02  0.10400030779E+02 -0.24960132065E+02  0.33517459549E+02  0.00000000000E+00 0.  1.
</event>
<event>
 5    1  0.6924836E-004  0.9118800E+02  0.7818608E-02  0.1130116E+00
         25   -1    0    0    0    0  0.00000000000E+00  0.00000000000E+00  0.99999998245E-14  0.12500000000E+03  0.12500000000E+03 0.  0.
        -13    1    3    3    0    0 -0.46600433433E+02  0.62524899172E+01  0.16068844591E+02  0.49688157108E+02  0.10566000000E+00 0.  1.
         23    2    1    0    0    0 -0.15772480886E+02 -0.22437473497E+02  0.18574831243E+02  0.91875451310E+02  0.85696340806E+02 0.  0.
         13    1    3    3    0    0  0.30827952547E+02 -0.28689963414E+02  0.25059866515E+01  0.42187294202E+02  0.10566000000E+00 0. -1.
         22    1    1    0    0    0  0.15772480886E+02  0.22437473497E+02 -0.18574831243E+02  0.33124548690E+02  0.00000000000E+00 0.  1.
</event>
<event>
 5    1  0.6924836E-004  0.9118800E+02  0.7818608E-02  0.1130116E+00
         25   -1    0    0    0    0  0.00000000000E+00  0.00000000000E+00  0.99999998245E-14  0.12500000000E+03  0.12500000000E+03 0.  0.
        -13    1    3    3    0    0 -0.24057867328E+02  0.83365631856E+01 -0.20588375985E+02  0.32744032370E+02  0.10566000000E+00 0. -1.
         23    2    1    0    0    0  0.29210318875E+02 -0.80785513328E+01  0.53512025484E+01  0.94224342588E+02  0.89056642913E+02 0.  0.
         13    1    3    3    0    0  0.53268186203E+02 -0.16415114518E+02  0.25939578533E+02  0.61480310218E+02  0.10566000000E+00 0.  1.
         22    1    1    0    0    0 -0.29210318875E+02  0.80785513328E+01 -0.53512025484E+01  0.30775657412E+02  0.00000000000E+00 0.  1.
</event>
<event>
 5    1  0.6924836E-004  0.9118800E+02  0.7818608E-02  0.1130116E+00
         25   -1    0    0    0    0  0.00000000000E+00  0.00000000000E+00  0.99999998245E-14  0.12500000000E+03  0.12500000000E+03 0.  0.
        -13    1    3    3    0    0  0.14162627698E+02 -0.15521434044E+02 -0.42245273132E+02  0.47182297572E+02  0.10566000000E+00 0.  1.
         23    2    1    0    0    0  0.10585706484E+02  0.22907111492E+02 -0.87310247108E+01  0.98297495788E+02  0.94601130791E+02 0.  0.
         13    1    3    3    0    0 -0.35769212136E+01  0.38428545537E+02  0.33514248421E+02  0.51115198216E+02  0.10566000000E+00 0. -1.
         22    1    1    0    0    0 -0.10585706484E+02 -0.22907111492E+02  0.87310247108E+01  0.26702504212E+02  0.00000000000E+00 0.  1.
</event>
<event>
 5    1  0.6924836E-004  0.9118800E+02  0.7818608E-02  0.1130116E+00
         25   -1    0    0    0    0  0.00000000000E+00  0.00000000000E+00  0.99999998245E-14  0.12500000000E+03  0.12500000000E+03 0.  0.
        -13    1    3    3    0    0  0.47815659841E+02  0.24207644787E+01 -0.11854305794E+02  0.49322744820E+02  0.10566000000E+00 0. -1.
         23    2    1    0    0    0  0.69149478197E+01  0.24298907241E+02 -0.14657875798E+02  0.95792009323E+02  0.91230490138E+02 0.  0.
         13    1    3    3    0    0 -0.40900712022E+02  0.21878142762E+02 -0.28035700047E+01  0.46469264503E+02  0.10566000000E+00 0.  1.
         22    1    1    0    0    0 -0.69149478197E+01 -0.24298907241E+02  0.14657875798E+02  0.29207990677E+02  0.00000000000E+00 0. -1.
</event>
<event>
 5    1  0.6924836E-004  0.9118800E+02  0.7818608E-02  0.1130116E+00
         25   -1    0    0    0    0  0.00000000000E+00  0.00000000000E+00  0.99999998245E-14  0.12500000000E+03  0.12500000000E+03 0.  0.
        -13    1    3    3    0    0 -0.38692845316E+01  0.50846685437E+02 -0.13324812337E+02  0.52705963330E+02  0.10566000000E+00 0. -1.
         23    2    1    0    0    0 -0.74466649531E+01  0.21748021235E+02  0.18143282368E+02  0.95715056058E+02  0.91124991164E+02 0.  0.
         13    1    3    3    0    0 -0.35773804215E+01 -0.29098664201E+02  0.31468094704E+02  0.43009092729E+02  0.10566000000E+00 0.  1.
         22    1    1    0    0    0  0.74466649531E+01 -0.21748021235E+02 -0.18143282368E+02  0.29284943942E+02  0.00000000000E+00 0. -1.
</event>
<event>
 5    1  0.6924836E-004  0.9118800E+02  0.7818608E-02  0.1130116E+00
         25   -1    0    0    0    0  0.00000000000E+00  0.00000000000E+00  0.99999998245E-14  0.12500000000E+03  0.12500000000E+03 0.  0.
        -13    1    3    3    0    0  0.28097545019E+02  0.21867899157E+02 -0.12599445408E+02  0.37768164348E+02  0.10566000000E+00 0.  1.
         23    2    1    0    0    0 -0.12371486729E+02  0.83471181982E+01  0.25815326466E+02  0.95181228284E+02  0.90389750918E+02 0.  0.
         13    1    3    3    0    0 -0.40469031748E+02 -0.13520780958E+02  0.38414771874E+02  0.57413063936E+02  0.10566000000E+00 0. -1.
         22    1    1    0    0    0  0.12371486729E+02 -0.83471181982E+01 -0.25815326466E+02  0.29818771716E+02  0.00000000000E+00 0. -1.
</event>
<event>
 5    1  0.6924836E-004  0.9118800E+02  0.7818608E-02  0.1130116E+00
         25   -1    0    0    0    0  0.00000000000E+00  0.00000000000E+00  0.99999998245E-14  0.12500000000E+03  0.12500000000E+03 0.  0.
        -13    1    3    3    0    0 -0.63203576982E+01  0.40666634116E+02 -0.22139083609E+02  0.46731918844E+02  0.10566000000E+00 0. -1.
         23    2    1    0    0    0  0.12001873089E+02  0.15585241065E+02  0.18577287572E+02  0.97943386941E+02  0.94132070705E+02 0.  0.
         13    1    3    3    0    0  0.18322230788E+02 -0.25081393051E+02  0.40716371181E+02  0.51211468096E+02  0.10566000000E+00 0.  1.
         22    1    1    0    0    0 -0.12001873089E+02 -0.15585241065E+02 -0.18577287572E+02  0.27056613059E+02  0.00000000000E+00 0.  1.
</event>
<event>
 5    1  0.6924836E-004  0.9118800E+02  0.7818608E-02  0.1130116E+00
         25   -1    0    0    0    0  0.00000000000E+00  0.00000000000E+00  0.99999998245E-14  0.12500000000E+03  0.12500000000E+03 0.  0.
        -13    1    3    3    0    0  0.72428286253E+01  0.45887065183E+02 -0.39600102221E+02  0.61043104259E+02  0.10566000000E+00 0. -1.
         23    2    1    0    0    0  0.10216364417E+02  0.16118621423E+02 -0.22480138373E+02  0.95512024828E+02  0.90846057741E+02 0.  0.
         13    1    3    3    0    0  0.29735357921E+01 -0.29768443760E+02  0.17119963848E+02  0.34468920569E+02  0.10566000000E+00 0.  1.
         22    1    1    0    0    0 -0.10216364417E+02 -0.16118621423E+02  0.22480138373E+02  0.29487975172E+02  0.00000000000E+00 0. -1.
</event>
<event>
 5    1  0.6924836E-004  0.9118800E+02  0.7818608E-02  0.1130116E+00
         25   -1    0    0    0    0  0.00000000000E+00  0.00000000000E+00  0.99999998245E-14  0.12500000000E+03  0.12500000000E+03 0.  0.
        -13    1    3    3    0    0 -0.29415369381E+02  0.61692665991E+01  0.16782459107E+02  0.34423624212E+02  0.10566000000E+00 0. -1.
         23    2    1    0    0    0  0.22267658286E+02 -0.19906667149E+02 -0.13945219334E+01  0.95099018512E+02  0.90275991426E+02 0.  0.
         13    1    3    3    0    0  0.51683027667E+02 -0.26075933748E+02 -0.18176981040E+02  0.60675394300E+02  0.10566000000E+00 0.  1.
         22    1    1    0    0    0 -0.22267658286E+02  0.19906667149E+02  0.13945219334E+01  0.29900981488E+02  0.00000000000E+00 0.  1.
</event>
<event>
 5    1  0.6924836E-004  0.9118800E+02  0.7818608E-02  0.1130116E+00
         25   -1    0    0    0    0  0.00000000000E+00  0.00000000000E+00  0.99999998245E-14  0.12500000000E+03  0.12500000000E+03 0.  0.
        -13    1    3    3    0    0 -0.74012199001E+01  0.39576450381E+02 -0.31942810974E+02  0.51394822869E+02  0.10566000000E+00 0.  1.
         23    2    1    0    0    0 -0.15503755783E+01  0.27499343165E+02  0.10204720851E+02  0.95627327896E+02  0.91004571170E+02 0.  0.
         13    1    3    3    0    0  0.58508443219E+01 -0.12077107217E+02  0.42147531824E+02  0.44232505026E+02  0.10566000000E+00 0. -1.
         22    1    1    0    0    0  0.15503755783E+01 -0.27499343165E+02 -0.10204720851E+02  0.29372672104E+02  0.00000000000E+00 0.  1.
</event>
<event>
 5    1  0.6924836E-004  0.9118800E+02  0.7818608E-02  0.1130116E+00
         25   -1    0    0    0    0  0.00000000000E+00  0.00000000000E+00  0.99999998245E-14  0.12500000000E+03  0.12500000000E+03 0.  0.
        -13    1    3    3    0    0 -0.21157037347E+02 -0.27857752164E+02 -0.21582279445E+02  0.41103291048E+02  0.10566000000E+00 0.  1.
         23    2    1    0    0    0 -0.17871247007E+02  0.12299470366E+02  0.17417854325E+02  0.97178424018E+02  0.93110719063E+02 0.  0.
         13    1    3    3    0    0  0.32857903398E+01  0.40157222530E+02  0.39000133770E+02  0.56075132970E+02  0.10566000000E+00 0. -1.
         22    1    1    0    0    0  0.17871247007E+02 -0.12299470366E+02 -0.17417854325E+02  0.27821575982E+02  0.00000000000E+00 0. -1.
</event>
<event>
 5    1  0.6924836E-004  0.9118800E+02  0.7818608E-02  0.1130116E+00
         25   -1    0    0    0    0  0.00000000000E+00  0.00000000000E+00  0.99999998245E-14  0.12500000000E+03  0.12500000000E+03 0.  0.
        -13    1    3    3    0    0 -0.56316584233E+02  0.18970136898E+02 -0.29668804677E+01  0.59499893254E+02  0.10566000000E+00 0.  1.
         23    2    1    0    0    0 -0.20573877790E+02  0.20861555300E+02  0.19809515667E+01  0.95633129108E+02  0.91012539120E+02 0.  0.
         13    1    3    3    0    0  0.35742706442E+02  0.18914184023E+01  0.49478320343E+01  0.36133235854E+02  0.10566000000E+00 0. -1.
         22    1    1    0    0    0  0.20573877790E+02 -0.20861555300E+02 -0.19809515667E+01  0.29366870892E+02  0.00000000000E+00 0.  1.
</event>
<event>
 5    1  0.6924836E-004  0.9118800E+02  0.7818608E-02  0.1130116E+00
         25   -1    0    0    0    0  0.00000000000E+00  0.00000000000E+00  0.99999998245E-14  0.12500000000E+03  0.12500000000E+03 0.  0.
        -13    1    3    3    0    0  0.14150906995E+02 -0.48213263851E+01 -0.42349100485E+02  0.44910475758E+02  0.10566000000E+00 0. -1.
         23    2    1    0    0    0 -0.23634879287E+02 -0.53914858169E+01 -0.12747568764E+01  0.10072448469E+03  0.97755415061E+02 0.  0.
         13    1    3    3    0    0 -0.37785786282E+02 -0.57015943179E+00  0.41074343609E+02  0.55814008937E+02  0.10566000000E+00 0.  1.
         22    1    1    0    0    0  0.23634879287E+02  0.53914858169E+01  0.12747568764E+01  0.24275515305E+02  0.00000000000E+00 0.  1.
</event>
<event>
 5    1  0.6924836E-004  0.9118800E+02  0.7818608E-02  0.1130116E+00
         25   -1    0    0    0    0  0.00000000000E+00  0.00000000000E+00  0.99999998245E-14  0.12500000000E+03  0.12500000000E+03 0.  0.
        -13    1    3    3    0    0 -0.66252160234E+01 -0.37410826032E+02  0.42191187878E+02  0.56776499455E+02  0.10566000000E+00 0. -1.
         23    2    1    0    0    0 -0.21344238352E+02 -0.13038136266E+02  0.17377171118E+02  0.94544531129E+02  0.89504931608E+02 0.  0.
         13    1    3    3    0    0 -0.14719022328E+02  0.24372689767E+02 -0.24814016759E+02  0.37768031674E+02  0.10566000000E+00 0.  1.
         22    1    1    0    0    0  0.21344238352E+02  0.13038136266E+02 -0.17377171118E+02  0.30455468871E+02  0.00000000000E+00 0. -1.
</event>
<event>
 5    1  0.6924836E-004  0.9118800E+02  0.7818608E-02  0.1130116E+00
         25   -1    0    0    0    0  0.00000000000E+00  0.00000000000E+00  0.99999998245E-14  0.12500000000E+03  0.12500000000E+03 0.  0.
        -13    1    3    3    0    0  0.49009793906E+01  0.36655330294E+02  0.36976607339E+01  0.37166069161E+02  0.10566000000E+00 0. -1.
         23    2    1    0    0    0  0.15315788322E+02 -0.20814313439E+02 -0.10225424537E+02  0.97208484697E+02  0.93151066415E+02 0.  0.
         13    1    3    3    0    0  0.10414808931E+02 -0.57469643733E+02 -0.13923085271E+02  0.60042415536E+02  0.10566000000E+00 0.  1.
         22    1    1    0    0    0 -0.15315788322E+02  0.20814313439E+02  0.10225424537E+02  0.27791515303E+02  0.00000000000E+00 0.  1.
</event>
<event>
 5    1  0.6924836E-004  0.9118800E+02  0.7818608E-02  0.1130116E+00
         25   -1    0    0    0    0  0.00000000000E+00  0.00000000000E+00  0.99999998245E-14  0.12500000000E+03  0.12500000000E+03 0.  0.
        -13    1    3    3    0    0 -0.38960612153E+02 -0.12912743265E+02 -0.13116301640E+02  0.43089636465E+02  0.10566000000E+00 0. -1.
         23    2    1    0    0    0 -0.71355567490E+01  0.27310820509E+02  0.23845135602E+01  0.96671869248E+02  0.92428173800E+02 0.  0.
         13    1    3    3    0    0  0.31825055404E+02  0.40223563774E+02  0.15500815200E+02  0.53582232783E+02  0.10566000000E+00 0.  1.
         22    1    1    0    0    0  0.71355567490E+01 -0.27310820509E+02 -0.23845135602E+01  0.28328130752E+02  0.00000000000E+00 0.  1.
</event>
<event>
 5    1  0.6924836E-004  0.9118800E+02  0.7818608E-02  0.1130116E+00
         25   -1    0    0    0    0  0.00000000000E+00  0.00000000000E+00  0.99999998245E-14  0.12500000000E+03  0.12500000000E+03 0.  0.
        -13    1    3    3    0    0 -0.41492267340E+01 -0.27004262107E+02 -0.22970554676E+02  0.35694590635E+02  0.10566000000E+00 0.  1.
         23    2    1    0    0    0 -0.18639048013E+02  0.14047259171E+02  0.18038500916E+02  0.95502082847E+02  0.90832377001E+02 0.  0.
         13    1    3    3    0    0 -0.14489821279E+02  0.41051521279E+02  0.41009055592E+02  0.59807492211E+02  0.10566000000E+00 0. -1.
         22    1    1    0    0    0  0.18639048013E+02 -0.14047259171E+02 -0.18038500916E+02  0.29497917153E+02  0.00000000000E+00 0. -1.
</event>
<event>
 5    1  0.6924836E-004  0.9118800E+02  0.7818608E-02  0.1130116E+00
         25   -1    0    0    0    0  0.00000000000E+00  0.00000000000E+00  0.99999998245E-14  0.12500000000E+03  0.12500000000E+03 0.  0.
        -13    1    3    3    0    0 -0.38199920296E+02 -0.27974545646E+02  0.18819149972E+01  0.47385249633E+02  0.10566000000E+00 0.  1.
         23    2    1    0    0    0  0.86645333018E+00 -0.22445933161E+02 -0.22043233349E+02  0.93528190498E+02  0.88074103030E+02 0.  0.
         13    1    3    3    0    0  0.39066373626E+02  0.55286124847E+01 -0.23925148346E+02  0.46142940865E+02  0.10566000000E+00 0. -1.
         22    1    1    0    0    0 -0.86645333018E+00  0.22445933161E+02  0.22043233349E+02  0.31471809502E+02  0.00000000000E+00 0. -1.
</event>
<event>
 5    1  0.6924836E-004  0.9118800E+02  0.7818608E-02  0.1130116E+00
         25   -1    0    0    0    0  0.00000000000E+00  0.00000000000E+00  0.99999998245E-14  0.12500000000E+03  0.12500000000E+03 0.  0.
        -13    1    3    3    0    0 -0.97361247230E+01 -0.39884588315E+02 -0.30258760123E+02  0.51001727793E+02  0.10566000000E+00 0. -1.
         23    2    1    0    0    0  0.48988985597E+01  0.16498482880E+00 -0.30966927971E+02  0.93647535104E+02  0.88243321425E+02 0.  0.
         13    1    3    3    0    0  0.14635023283E+02  0.40049573144E+02 -0.70816784788E+00  0.42645807311E+02  0.10566000000E+00 0.  1.
         22    1    1    0    0    0 -0.48988985597E+01 -0.16498482880E+00  0.30966927971E+02  0.31352464896E+02  0.00000000000E+00 0. -1.
</event>
<event>
 5    1  0.6924836E-004  0.9118800E+02  0.7818608E-02  0.1130116E+00
         25   -1    0    0    0    0  0.00000000000E+00  0.00000000000E+00  0.99999998245E-14  0.12500000000E+03  0.12500000000E+03 0.  0.
        -13    1    3    3    0    0  0.29013411272E+02 -0.50210979301E+01 -0.21055960229E+02  0.36198813285E+02  0.10566000000E+00 0.  1.
         23    2    1    0    0    0 -0.21062313661E+02 -0.19413544548E+02  0.71916657966E+01  0.95466513487E+02  0.90783414630E+02 0.  0.
         13    1    3    3    0    0 -0.50075724933E+02 -0.14392446618E+02  0.28247626025E+02  0.59267700202E+02  0.10566000000E+00 0. -1.
         22    1    1    0    0    0  0.21062313661E+02  0.19413544548E+02 -0.71916657966E+01  0.29533486513E+02  0.00000000000E+00 0. -1.
</event>
<event>
 5    1  0.6924836E-004  0.9118800E+02  0.7818608E-02  0.1130116E+00
         25   -1    0    0    0    0  0.00000000000E+00  0.00000000000E+00  0.99999998245E-14  0.12500000000E+03  0.12500000000E+03 0.  0.
        -13    1    3    3    0    0 -0.30831894544E+02  0.26115656662E+02 -0.35761884802E+02  0.53958843693E+02  0.10566000000E+00 0.  1.
         23    2    1    0    0    0 -0.33768702104E+02  0.17888140012E+01 -0.31411696690E+02  0.78845695908E+02  0.63925143543E+02 0.  0.
         13    1    3    3    0    0 -0.29368075594E+01 -0.24326842661E+02  0.43501881124E+01  0.24886852215E+02  0.10566000000E+00 0. -1.
         22    1    1    0    0    0  0.33768702104E+02 -0.17888140012E+01  0.31411696690E+02  0.46154304092E+02  0.00000000000E+00 0.  1.
</event>
<event>
 5    1  0.6924836E-004  0.9118800E+02  0.7818608E-02  0.1130116E+00
         25   -1    0    0    0    0  0.00000000000E+00  0.00000000000E+00  0.99999998245E-14  0.12500000000E+03  0.12500000000E+03 0.  0.
        -13    1    3    3    0    0 -0.64801369997E+01  0.66001925538E+01 -0.37231981859E+02  0.38363867824E+02  0.10566000000E+00 0.  1.
         23    2    1    0    0    0 -0.51975437169E+01  0.21858274535E+02  0.18334059399E+02  0.96001097255E+02  0.91516524812E+02 0.  0.
         13    1    3    3    0    0  0.12825932828E+01  0.15258081982E+02  0.55566041258E+02  0.57637229431E+02  0.10566000000E+00 0. -1.
         22    1    1    0    0    0  0.51975437169E+01 -0.21858274535E+02 -0.18334059399E+02  0.28998902745E+02  0.00000000000E+00 0. -1.
</event>
<event>
 5    1  0.6924836E-004  0.9118800E+02  0.7818608E-02  0.1130116E+00
         25   -1    0    0    0    0  0.00000000000E+00  0.00000000000E+00  0.99999998245E-14  0.12500000000E+03  0.12500000000E+03 0.  0.
        -13    1    3    3    0    0  0.22268545417E+02  0.20169088290E+02 -0.53544622238E+02  0.61398029057E+02  0.10566000000E+00 0. -1.
         23    2    1    0    0    0  0.17775121052E+02  0.63533041031E+01 -0.22819249873E+02  0.95385179957E+02  0.90671357049E+02 0.  0.
         13    1    3    3    0    0 -0.44934243651E+01 -0.13815784187E+02  0.30725372365E+02  0.33987150899E+02  0.10566000000E+00 0.  1.
         22    1    1    0    0    0 -0.17775121052E+02 -0.63533041031E+01  0.22819249873E+02  0.29614820043E+02  0.00000000000E+00 0. -1.
</event>
<event>
 5    1  0.6924836E-004  0.9118800E+02  0.7818608E-02  0.1130116E+00
         25   -1    0    0    0    0  0.00000000000E+00  0.00000000000E+00  0.99999998245E-14  0.12500000000E+03  0.12500000000E+03 0.  0.
        -13    1    3    3    0    0  0.46623924865E+02 -0.32448400852E+02  0.11971885183E+01  0.56816665795E+02  0.10566000000E+00 0.  1.
         23    2    1    0    0    0  0.26839541288E+02  0.35697034732E+01  0.77193408819E+00  0.97913109413E+02  0.94091855935E+02 0.  0.
         13    1    3    3    0    0 -0.19784383577E+02  0.36018104325E+02 -0.42525443013E+00  0.41096443618E+02  0.10566000000E+00 0. -1.
         22    1    1    0    0    0 -0.26839541288E+02 -0.35697034732E+01 -0.77193408819E+00  0.27086890587E+02  0.00000000000E+00 0.  1.
</event>
<event>
 5    1  0.6924836E-004  0.9118800E+02  0.7818608E-02  0.1130116E+00
         25   -1    0    0    0    0  0.00000000000E+00  0.00000000000E+00  0.99999998245E-14  0.12500000000E+03  0.12500000000E+03 0.  0.
        -13    1    3    3    0    0  0.60501224845E+02 -0.55113376735E+01  0.75810123565E+01  0.61223001912E+02  0.10566000000E+00 0.  1.
         23    2    1    0    0    0  0.24622028186E+02 -0.56811438907E+01 -0.49934600978E+01  0.99242393130E+02  0.95841526921E+02 0.  0.
         13    1    3    3    0    0 -0.35879196659E+02 -0.16980621723E+00 -0.12574472454E+02  0.38019391218E+02  0.10566000000E+00 0. -1.
         22    1    1    0    0    0 -0.24622028186E+02  0.56811438907E+01  0.49934600978E+01  0.25757606870E+02  0.00000000000E+00 0.  1.
</event>
<event>
 5    1  0.6924836E-004  0.9118800E+02  0.7818608E-02  0.1130116E+00
         25   -1    0    0    0    0  0.00000000000E+00  0.00000000000E+00  0.99999998245E-14  0.12500000000E+03  0.12500000000E+03 0.  0.
        -13    1    3    3    0    0  0.17094788425E+02 -0.27853705329E+02 -0.30101775900E+02  0.44431844079E+02  0.10566000000E+00 0. -1.
         23    2    1    0    0    0 -0.81096299323E+00 -0.17873407172E+02  0.19760147411E+02  0.98343297829E+02  0.94661631390E+02 0.  0.
         13    1    3    3    0    0 -0.17905751418E+02  0.99802981576E+01  0.49861923311E+02  0.53911453751E+02  0.10566000000E+00 0.  1.
         22    1    1    0    0    0  0.81096299323E+00  0.17873407172E+02 -0.19760147411E+02  0.26656702171E+02  0.00000000000E+00 0.  1.
</event>
<event>
 5    1  0.6924836E-004  0.9118800E+02  0.7818608E-02  0.1130116E+00
         25   -1    0    0    0    0  0.00000000000E+00  0.00000000000E+00  0.99999998245E-14  0.12500000000E+03  0.12500000000E+03 0.  0.
        -13    1    3    3    0    0  0.35970687034E+01  0.23364376687E+02  0.50990458864E+02  0.56203834926E+02  0.10566000000E+00 0.  1.
         23    2    1    0    0    0 -0.16753493853E+02  0.30876427999E+01  0.23573911714E+02  0.95914910902E+02  0.91398729343E+02 0.  0.
         13    1    3    3    0    0 -0.20350562557E+02 -0.20276733887E+02 -0.27416547150E+02  0.39711075976E+02  0.10566000000E+00 0. -1.
         22    1    1    0    0    0  0.16753493853E+02 -0.30876427999E+01 -0.23573911714E+02  0.29085089098E+02  0.00000000000E+00 0. -1.
</event>
<event>
 5    1  0.6924836E-004  0.9118800E+02  0.7818608E-02  0.1130116E+00
         25   -1    0    0    0    0  0.00000000000E+00  0.00000000000E+00  0.99999998245E-14  0.12500000000E+03  0.12500000000E+03 0.  0.
        -13    1    3    3    0    0  0.24261847353E+02  0.78064033392E+01 -0.56410497635E+02  0.61900990117E+02  0.10566000000E+00 0.  1.
         23    2    1    0    0    0  0.72031236681E+01  0.75372589132E+01 -0.28949523743E+02  0.94230369072E+02  0.89065101291E+02 0.  0.
         13    1    3    3    0    0 -0.17058723685E+02 -0.26914442603E+00  0.27460973892E+02  0.32329378955E+02  0.10566000000E+00 0. -1.
         22    1    1    0    0    0 -0.72031236681E+01 -0.75372589132E+01  0.28949523743E+02  0.30769630928E+02  0.00000000000E+00 0.  1.
</event>
<event>
 5    1  0.6924836E-004  0.9118800E+02  0.7818608E-02  0.1130116E+00
         25   -1    0    0    0    0  0.00000000000E+00  0.00000000000E+00  0.99999998245E-14  0.12500000000E+03  0.12500000000E+03 0.  0.
        -13    1    3    3    0    0  0.38716076242E+02 -0.31297370526E+02 -0.79075599632E+01  0.50408338893E+02  0.10566000000E+00 0. -1.
         23    2    1    0    0    0  0.29914498016E+01 -0.22198042524E+02 -0.25333229070E+02  0.91184702294E+02  0.84682793846E+02 0.  0.
         13    1    3    3    0    0 -0.35724626440E+02  0.90993280020E+01 -0.17425669107E+02  0.40776363401E+02  0.10566000000E+00 0.  1.
         22    1    1    0    0    0 -0.29914498016E+01  0.22198042524E+02  0.25333229070E+02  0.33815297706E+02  0.00000000000E+00 0. -1.
</event>
<event>
 5    1  0.6924836E-004  0.9118800E+02  0.7818608E-02  0.1130116E+00
         25   -1    0    0    0    0  0.00000000000E+00  0.00000000000E+00  0.99999998245E-14  0.12500000000E+03  0.12500000000E+03 0.  0.
        -13    1    3    3    0    0  0.19201520247E+02  0.38910874830E+02 -0.16646066713E+02  0.46474264501E+02  0.10566000000E+00 0.  1.
         23    2    1    0    0    0 -0.17145972563E+02  0.20491679589E+02  0.11409817806E+02  0.95946992413E+02  0.91442594578E+02 0.  0.
         13    1    3    3    0    0 -0.36347492809E+02 -0.18419195241E+02  0.28055884519E+02  0.49472727912E+02  0.10566000000E+00 0. -1.
         22    1    1    0    0    0  0.17145972563E+02 -0.20491679589E+02 -0.11409817806E+02  0.29053007587E+02  0.00000000000E+00 0.  1.
</event>
<event>
 5    1  0.6924836E-004  0.9118800E+02  0.7818608E-02  0.1130116E+00
         25   -1    0    0    0    0  0.00000000000E+00  0.00000000000E+00  0.99999998245E-14  0.12500000000E+03  0.12500000000E+03 0.  0.
        -13    1    3    3    0    0  0.26850218645E+02  0.30192381039E+02 -0.42526617966E+02  0.58660365782E+02  0.10566000000E+00 0. -1.
         23    2    1    0    0    0  0.23955334370E+02  0.45156777056E+01 -0.15185371739E+02  0.96279886756E+02  0.91896527078E+02 0.  0.
         13    1    3    3    0    0 -0.28948842753E+01 -0.25676703333E+02  0.27341246226E+02  0.37619520974E+02  0.10566000000E+00 0.  1.
         22    1    1    0    0    0 -0.23955334370E+02 -0.45156777056E+01  0.15185371739E+02  0.28720113244E+02  0.00000000000E+00 0. -1.
</event>
<event>
 5    1  0.6924836E-004  0.9118800E+02  0.7818608E-02  0.1130116E+00
         25   -1    0    0    0    0  0.00000000000E+00  0.00000000000E+00  0.99999998245E-14  0.12500000000E+03  0.12500000000E+03 0.  0.
        -13    1    3    3    0    0 -0.30039037641E+02 -0.28550862232E+01  0.48704039499E+02  0.57293890838E+02  0.10566000000E+00 0.  1.
         23    2    1    0    0    0 -0.70838502753E+01  0.14909008535E+02  0.26251266341E+02  0.93990510247E+02  0.88727828565E+02 0.  0.
         13    1    3    3    0    0  0.22955187366E+02  0.17764094758E+02 -0.22452773158E+02  0.36696619410E+02  0.10566000000E+00 0. -1.
         22    1    1    0    0    0  0.70838502753E+01 -0.14909008535E+02 -0.26251266341E+02  0.31009489753E+02  0.00000000000E+00 0.  1.
</event>
<event>
 5    1  0.6924836E-004  0.9118800E+02  0.7818608E-02  0.1130116E+00
         25   -1    0    0    0    0  0.00000000000E+00  0.00000000000E+00  0.99999998245E-14  0.12500000000E+03  0.12500000000E+03 0.  0.
        -13    1    3    3    0    0 -0.32829710143E+02  0.13603214379E+02  0.30014330270E+02  0.46515680100E+02  0.10566000000E+00 0.  1.
         23    2    1    0    0    0  0.65837659112E+01 -0.15645553431E+02  0.23476146367E+02  0.96030036865E+02  0.91556044128E+02 0.  0.
         13    1    3    3    0    0  0.39413476055E+02 -0.29248767811E+02 -0.65381839023E+01  0.49514356766E+02  0.10566000000E+00 0. -1.
         22    1    1    0    0    0 -0.65837659112E+01  0.15645553431E+02 -0.23476146367E+02  0.28969963135E+02  0.00000000000E+00 0. -1.
</event>
<event>
 5    1  0.6924836E-004  0.9118800E+02  0.7818608E-02  0.1130116E+00
         25   -1    0    0    0    0  0.00000000000E+00  0.00000000000E+00  0.99999998245E-14  0.12500000000E+03  0.12500000000E+03 0.  0.
        -13    1    3    3    0    0 -0.36397736190E+02 -0.10720274004E+02 -0.24152298826E+02  0.44978485714E+02  0.10566000000E+00 0. -1.
         23    2    1    0    0    0 -0.41658108502E+01 -0.19610992859E+02  0.17498151903E+02  0.98389281465E+02  0.94722332985E+02 0.  0.
         13    1    3    3    0    0  0.32231925340E+02 -0.88907188545E+01  0.41650450728E+02  0.53410795751E+02  0.10566000000E+00 0.  1.
         22    1    1    0    0    0  0.41658108502E+01  0.19610992859E+02 -0.17498151903E+02  0.26610718535E+02  0.00000000000E+00 0. -1.
</event>
<event>
 5    1  0.6924836E-004  0.9118800E+02  0.7818608E-02  0.1130116E+00
         25   -1    0    0    0    0  0.00000000000E+00  0.00000000000E+00  0.99999998245E-14  0.12500000000E+03  0.12500000000E+03 0.  0.
        -13    1    3    3    0    0 -0.40436864062E+02 -0.10886158206E+02 -0.43732372119E+02  0.60548988025E+02  0.10566000000E+00 0.  1.
         23    2    1    0    0    0 -0.17875111120E+02 -0.14451603813E+02 -0.13842908065E+02  0.98167285750E+02  0.94428922675E+02 0.  0.
         13    1    3    3    0    0  0.22561752943E+02 -0.35654456073E+01  0.29889464054E+02  0.37618297725E+02  0.10566000000E+00 0. -1.
         22    1    1    0    0    0  0.17875111120E+02  0.14451603813E+02  0.13842908065E+02  0.26832714250E+02  0.00000000000E+00 0.  1.
</event>
<event>
 5    1  0.6924836E-004  0.9118800E+02  0.7818608E-02  0.1130116E+00
         25   -1    0    0    0    0  0.00000000000E+00  0.00000000000E+00  0.99999998245E-14  0.12500000000E+03  0.12500000000E+03 0.  0.
        -13    1    3    3    0    0 -0.19442225407E+00 -0.39838365515E+02  0.72596582945E+01  0.40495024009E+02  0.10566000000E+00 0.  1.
         23    2    1    0    0    0 -0.49431541363E+01  0.22762465914E+01 -0.28523209411E+02  0.95962273738E+02  0.91463481426E+02 0.  0.
         13    1    3    3    0    0 -0.47487318822E+01  0.42114612106E+02 -0.35782867705E+02  0.55467249730E+02  0.10566000000E+00 0. -1.
         22    1    1    0    0    0  0.49431541363E+01 -0.22762465914E+01  0.28523209411E+02  0.29037726262E+02  0.00000000000E+00 0. -1.
</event>
<event>
 5    1  0.6924836E-004  0.9118800E+02  0.7818608E-02  0.1130116E+00
         25   -1    0    0    0    0  0.00000000000E+00  0.00000000000E+00  0.99999998245E-14  0.12500000000E+03  0.12500000000E+03 0.  0.
        -13    1    3    3    0    0  0.16977286011E+02 -0.16229132838E+02  0.22571046827E+02  0.32574166326E+02  0.10566000000E+00 0.  1.
         23    2    1    0    0    0 -0.24568800194E+02  0.18355389737E+02  0.23053051237E+02  0.86633485346E+02  0.77674779283E+02 0.  0.
         13    1    3    3    0    0 -0.41546086205E+02  0.34584522575E+02  0.48200440977E+00  0.54059319020E+02  0.10566000000E+00 0. -1.
         22    1    1    0    0    0  0.24568800194E+02 -0.18355389737E+02 -0.23053051237E+02  0.38366514654E+02  0.00000000000E+00 0. -1.
</event>
<event>
 5    1  0.6924836E-004  0.9118800E+02  0.7818608E-02  0.1130116E+00
         25   -1    0    0    0    0  0.00000000000E+00  0.00000000000E+00  0.99999998245E-14  0.12500000000E+03  0.12500000000E+03 0.  0.
        -13    1    3    3    0    0  0.12279828951E+02 -0.54648899159E+01  0.43182575524E+02  0.45226156302E+02  0.10566000000E+00 0.  1.
         23    2    1    0    0    0  0.71401183736E+01  0.24921058872E+02 -0.95587289005E+00  0.99058639999E+02  0.95601569024E+02 0.  0.
         13    1    3    3    0    0 -0.51397105776E+01  0.30385948788E+02 -0.44138448414E+02  0.53832483698E+02  0.10566000000E+00 0. -1.
         22    1    1    0    0    0 -0.71401183736E+01 -0.24921058872E+02  0.95587289005E+00  0.25941360001E+02  0.00000000000E+00 0.  1.
</event>
<event>
 5    1  0.6924836E-004  0.9118800E+02  0.7818608E-02  0.1130116E+00
         25   -1    0    0    0    0  0.00000000000E+00  0.00000000000E+00  0.99999998245E-14  0.12500000000E+03  0.12500000000E+03 0.  0.
        -13    1    3    3    0    0 -0.31271271133E+02  0.20480028100E+02 -0.13874445507E+02  0.39872739453E+02  0.10566000000E+00 0.  1.
         23    2    1    0    0    0  0.21035789527E+02  0.23653087607E+01 -0.20388416264E+02  0.95609752565E+02  0.90980427243E+02 0.  0.
         13    1    3    3    0    0  0.52307060660E+02 -0.18114719340E+02 -0.65139707566E+01  0.55737013113E+02  0.10566000000E+00 0. -1.
         22    1    1    0    0    0 -0.21035789527E+02 -0.23653087607E+01  0.20388416264E+02  0.29390247435E+02  0.00000000000E+00 0.  1.
</event>
<event>
 5    1  0.6924836E-004  0.9118800E+02  0.7818608E-02  0.1130116E+00
         25   -1    0    0    0    0  0.00000000000E+00  0.00000000000E+00  0.99999998245E-14  0.12500000000E+03  0.12500000000E+03 0.  0.
        -13    1    3    3    0    0  0.15819857118E+02 -0.17008408296E+01 -0.38213722771E+02  0.41393967083E+02  0.10566000000E+00 0. -1.
         23    2    1    0    0    0  0.19838198421E+02  0.17435236396E+02  0.12524608729E+02  0.95769751821E+02  0.91199988790E+02 0.  0.
         13    1    3    3    0    0  0.40183413030E+01  0.19136077226E+02  0.50738331500E+02  0.54375784738E+02  0.10566000000E+00 0.  1.
         22    1    1    0    0    0 -0.19838198421E+02 -0.17435236396E+02 -0.12524608729E+02  0.29230248179E+02  0.00000000000E+00 0.  1.
</event>
<event>
 5    1  0.6924836E-004  0.9118800E+02  0.7818608E-02  0.1130116E+00
         25   -1    0    0    0    0  0.00000000000E+00  0.00000000000E+00  0.99999998245E-14  0.12500000000E+03  0.12500000000E+03 0.  0.
        -13    1    3    3    0    0  0.31823069432E+02 -0.24158787299E+02  0.27789182332E+02  0.48668311770E+02  0.10566000000E+00 0.  1.
         23    2    1    0    0    0 -0.14100290870E+02 -0.13968012922E+02  0.20842759211E+02  0.96219030608E+02  0.91813711678E+02 0.  0.
         13    1    3    3    0    0 -0.45923360302E+02  0.10190774377E+02 -0.69464231216E+01  0.47550718838E+02  0.10566000000E+00 0. -1.
         22    1    1    0    0    0  0.14100290870E+02  0.13968012922E+02 -0.20842759211E+02  0.28780969392E+02  0.00000000000E+00 0. -1.
</event>
<event>
 5    1  0.6924836E-004  0.9118800E+02  0.7818608E-02  0.1130116E+00
         25   -1    0    0    0    0  0.00000000000E+00  0.00000000000E+00  0.99999998245E-14  0.12500000000E+03  0.12500000000E+03 0.  0.
        -13    1    3    3    0    0 -0.14016056730E+02  0.32761746217E+02 -0.71859036020E+01  0.36351481896E+02  0.10566000000E+00 0.  1.
         23    2    1    0    0    0  0.29556328532E+02 -0.20664795605E+01 -0.13408074251E+02  0.92478878414E+02  0.86572048627E+02 0.  0.
         13    1    3    3    0    0  0.43572385262E+02 -0.34828225777E+02 -0.62221706488E+01  0.56127396518E+02  0.10566000000E+00 0. -1.
         22    1    1    0    0    0 -0.29556328532E+02  0.20664795605E+01  0.13408074251E+02  0.32521121586E+02  0.00000000000E+00 0. -1.
</event>
<event>
 5    1  0.6924836E-004  0.9118800E+02  0.7818608E-02  0.1130116E+00
         25   -1    0    0    0    0  0.00000000000E+00  0.00000000000E+00  0.99999998245E-14  0.12500000000E+03  0.12500000000E+03 0.  0.
        -13    1    3    3    0    0  0.51869160170E+02  0.67381608298E+00  0.30032138042E+02  0.59940005708E+02  0.10566000000E+00 0. -1.
         23    2    1    0    0    0  0.29517716696E+02 -0.57916487699E+01  0.43307809475E+01  0.94609303101E+02  0.89595344607E+02 0.  0.
         13    1    3    3    0    0 -0.22351443474E+02 -0.64654648529E+01 -0.25701357095E+02  0.34669297393E+02  0.10566000000E+00 0.  1.
         22    1    1    0    0    0 -0.29517716696E+02  0.57916487699E+01 -0.43307809475E+01  0.30390696899E+02  0.00000000000E+00 0. -1.
</event>
<event>
 5    1  0.6924836E-004  0.9118800E+02  0.7818608E-02  0.1130116E+00
         25   -1    0    0    0    0  0.00000000000E+00  0.00000000000E+00  0.99999998245E-14  0.12500000000E+03  0.12500000000E+03 0.  0.
        -13    1    3    3    0    0  0.22484624094E+02  0.35962670709E+02 -0.42306290742E+02  0.59905804439E+02  0.10566000000E+00 0.  1.
         23    2    1    0    0    0  0.68690136101E+01  0.24669711108E+02 -0.10030026628E+02  0.97497646860E+02  0.93538290100E+02 0.  0.
         13    1    3    3    0    0 -0.15615610484E+02 -0.11292959601E+02  0.32276264114E+02  0.37591842420E+02  0.10566000000E+00 0. -1.
         22    1    1    0    0    0 -0.68690136101E+01 -0.24669711108E+02  0.10030026628E+02  0.27502353140E+02  0.00000000000E+00 0.  1.
</event>
<event>
 5    1  0.6924836E-004  0.9118800E+02  0.7818608E-02  0.1130116E+00
         25   -1    0    0    0    0  0.00000000000E+00  0.00000000000E+00  0.99999998245E-14  0.12500000000E+03  0.12500000000E+03 0.  0.
        -13    1    3    3    0    0  0.24927803400E+02  0.17700344921E+02 -0.16424557889E+02  0.34705545070E+02  0.10566000000E+00 0.  1.
         23    2    1    0    0    0 -0.16239249349E+02 -0.24731175916E+02 -0.36550033039E+01  0.95188872367E+02  0.90400321303E+02 0.  0.
         13    1    3    3    0    0 -0.41167052749E+02 -0.42431520837E+02  0.12769554585E+02  0.60483327297E+02  0.10566000000E+00 0. -1.
         22    1    1    0    0    0  0.16239249349E+02  0.24731175916E+02  0.36550033039E+01  0.29811127633E+02  0.00000000000E+00 0. -1.
</event>
<event>
 5    1  0.6924836E-004  0.9118800E+02  0.7818608E-02  0.1130116E+00
         25   -1    0    0    0    0  0.00000000000E+00  0.00000000000E+00  0.99999998245E-14  0.12500000000E+03  0.12500000000E+03 0.  0.
        -13    1    3    3    0    0 -0.36344405363E+02 -0.11428864573E+02  0.96116189879E+01  0.39292863604E+02  0.10566000000E+00 0.  1.
         23    2    1    0    0    0  0.18819675211E+02 -0.15750632884E+02  0.17041006528E+02  0.95122608635E+02  0.90308649412E+02 0.  0.
         13    1    3    3    0    0  0.55164080574E+02 -0.43217683116E+01  0.74293875405E+01  0.55829745030E+02  0.10566000000E+00 0. -1.
         22    1    1    0    0    0 -0.18819675211E+02  0.15750632884E+02 -0.17041006528E+02  0.29877391365E+02  0.00000000000E+00 0. -1.
</event>
<event>
 5    1  0.6924836E-004  0.9118800E+02  0.7818608E-02  0.1130116E+00
         25   -1    0    0    0    0  0.00000000000E+00  0.00000000000E+00  0.99999998245E-14  0.12500000000E+03  0.12500000000E+03 0.  0.
        -13    1    3    3    0    0  0.13025214684E+02  0.38689955017E+02  0.18625652440E+02  0.44871983794E+02  0.10566000000E+00 0. -1.
         23    2    1    0    0    0  0.20094419228E+00 -0.98830967011E+01  0.27401195870E+02  0.95870264092E+02  0.91337648442E+02 0.  0.
         13    1    3    3    0    0 -0.12824270492E+02 -0.48573051718E+02  0.87755434304E+01  0.50998280298E+02  0.10566000000E+00 0.  1.
         22    1    1    0    0    0 -0.20094419228E+00  0.98830967011E+01 -0.27401195870E+02  0.29129735908E+02  0.00000000000E+00 0. -1.
</event>
<event>
 5    1  0.6924836E-004  0.9118800E+02  0.7818608E-02  0.1130116E+00
         25   -1    0    0    0    0  0.00000000000E+00  0.00000000000E+00  0.99999998245E-14  0.12500000000E+03  0.12500000000E+03 0.  0.
        -13    1    3    3    0    0  0.23603057586E+02 -0.38057469710E+02  0.19386344643E+02  0.48798738209E+02  0.10566000000E+00 0.  1.
         23    2    1    0    0    0 -0.90797573546E+01 -0.25607222987E+02 -0.11536468493E+02  0.95482852983E+02  0.90805909752E+02 0.  0.
         13    1    3    3    0    0 -0.32682814940E+02  0.12450246724E+02 -0.30922813137E+02  0.46684114774E+02  0.10566000000E+00 0. -1.
         22    1    1    0    0    0  0.90797573546E+01  0.25607222987E+02  0.11536468493E+02  0.29517147017E+02  0.00000000000E+00 0. -1.
</event>
<event>
 5    1  0.6924836E-004  0.9118800E+02  0.7818608E-02  0.1130116E+00
         25   -1    0    0    0    0  0.00000000000E+00  0.00000000000E+00  0.99999998245E-14  0.12500000000E+03  0.12500000000E+03 0.  0.
        -13    1    3    3    0    0  0.59925758084E+01  0.21742309843E+02 -0.55593902940E+02  0.59994434827E+02  0.10566000000E+00 0.  1.
         23    2    1    0    0    0 -0.92334789100E+01  0.13558609101E+02 -0.27059565344E+02  0.93356468431E+02  0.87830046726E+02 0.  0.
         13    1    3    3    0    0 -0.15226054718E+02 -0.81837007424E+01  0.28534337596E+02  0.33362033604E+02  0.10566000000E+00 0. -1.
         22    1    1    0    0    0  0.92334789100E+01 -0.13558609101E+02  0.27059565344E+02  0.31643531569E+02  0.00000000000E+00 0.  1.
</event>
<event>
 5    1  0.6924836E-004  0.9118800E+02  0.7818608E-02  0.1130116E+00
         25   -1    0    0    0    0  0.00000000000E+00  0.00000000000E+00  0.99999998245E-14  0.12500000000E+03  0.12500000000E+03 0.  0.
        -13    1    3    3    0    0 -0.15610994978E+02  0.12280131595E+02  0.53299064515E+02  0.56879752447E+02  0.10566000000E+00 0.  1.
         23    2    1    0    0    0 -0.18187410906E+02  0.18010814459E+02  0.15760555566E+02  0.94940617693E+02  0.90056395793E+02 0.  0.
         13    1    3    3    0    0 -0.25764159283E+01  0.57306828636E+01 -0.37538508949E+02  0.38060865246E+02  0.10566000000E+00 0. -1.
         22    1    1    0    0    0  0.18187410906E+02 -0.18010814459E+02 -0.15760555566E+02  0.30059382307E+02  0.00000000000E+00 0.  1.
</event>
<event>
 5    1  0.6924836E-004  0.9118800E+02  0.7818608E-02  0.1130116E+00
         25   -1    0    0    0    0  0.00000000000E+00  0.00000000000E+00  0.99999998245E-14  0.12500000000E+03  0.12500000000E+03 0.  0.
        -13    1    3    3    0    0  0.85596645509E+01  0.21655362595E+02 -0.29051074874E+02  0.37231689482E+02  0.10566000000E+00 0.  1.
         23    2    1    0    0    0  0.21031041777E+02 -0.34552355742E+01  0.21303472960E+02  0.94865612148E+02  0.89952226415E+02 0.  0.
         13    1    3    3    0    0  0.12471377226E+02 -0.25110598169E+02  0.50354547833E+02  0.57633922666E+02  0.10566000000E+00 0. -1.
         22    1    1    0    0    0 -0.21031041777E+02  0.34552355742E+01 -0.21303472960E+02  0.30134387852E+02  0.00000000000E+00 0. -1.
</event>
<event>
 5    1  0.6924836E-004  0.9118800E+02  0.7818608E-02  0.1130116E+00
         25   -1    0    0    0    0  0.00000000000E+00  0.00000000000E+00  0.99999998245E-14  0.12500000000E+03  0.12500000000E+03 0.  0.
        -13    1    3    3    0    0  0.27969452671E+02 -0.59828339587E+01 -0.25711127197E+02  0.38459820731E+02  0.10566000000E+00 0.  1.
         23    2    1    0    0    0 -0.12322069892E+02  0.27042561532E+02 -0.35619130427E+01  0.95069734964E+02  0.90235435063E+02 0.  0.
         13    1    3    3    0    0 -0.40291522563E+02  0.33025395490E+02  0.22149214154E+02  0.56609914233E+02  0.10566000000E+00 0. -1.
         22    1    1    0    0    0  0.12322069892E+02 -0.27042561532E+02  0.35619130427E+01  0.29930265036E+02  0.00000000000E+00 0. -1.
</event>
<event>
 5    1  0.6924836E-004  0.9118800E+02  0.7818608E-02  0.1130116E+00
         25   -1    0    0    0    0  0.00000000000E+00  0.00000000000E+00  0.99999998245E-14  0.12500000000E+03  0.12500000000E+03 0.  0.
        -13    1    3    3    0    0  0.23294398489E+02 -0.28695142035E+02  0.19753807716E+01  0.37012882495E+02  0.10566000000E+00 0.  1.
         23    2    1    0    0    0  0.17361185195E+01  0.22309107371E+02 -0.18414174807E+02  0.96020831396E+02  0.91543475185E+02 0.  0.
         13    1    3    3    0    0 -0.21558279970E+02  0.51004249406E+02 -0.20389555578E+02  0.59007948900E+02  0.10566000000E+00 0. -1.
         22    1    1    0    0    0 -0.17361185195E+01 -0.22309107371E+02  0.18414174807E+02  0.28979168604E+02  0.00000000000E+00 0. -1.
</event>
<event>
 5    1  0.6924836E-004  0.9118800E+02  0.7818608E-02  0.1130116E+00
         25   -1    0    0    0    0  0.00000000000E+00  0.00000000000E+00  0.99999998245E-14  0.12500000000E+03  0.12500000000E+03 0.  0.
        -13    1    3    3    0    0  0.27478494266E+02 -0.38843552458E+02  0.18879400802E+02  0.51189180042E+02  0.10566000000E+00 0.  1.
         23    2    1    0    0    0  0.27916950797E+02  0.42302522852E+01  0.87405668532E+01  0.95442451301E+02  0.90750277273E+02 0.  0.
         13    1    3    3    0    0  0.43845653076E+00  0.43073804743E+02 -0.10138833949E+02  0.44253271258E+02  0.10566000000E+00 0. -1.
         22    1    1    0    0    0 -0.27916950797E+02 -0.42302522852E+01 -0.87405668532E+01  0.29557548699E+02  0.00000000000E+00 0.  1.
</event>
<event>
 5    1  0.6924836E-004  0.9118800E+02  0.7818608E-02  0.1130116E+00
         25   -1    0    0    0    0  0.00000000000E+00  0.00000000000E+00  0.99999998245E-14  0.12500000000E+03  0.12500000000E+03 0.  0.
        -13    1    3    3    0    0  0.25393058326E+02  0.58410609630E+00 -0.26279311564E+02  0.36548077534E+02  0.10566000000E+00 0.  1.
         23    2    1    0    0    0 -0.25692275486E+02 -0.13930912789E+02 -0.63193071930E-01  0.95773858549E+02  0.91205617355E+02 0.  0.
         13    1    3    3    0    0 -0.51085333812E+02 -0.14515018885E+02  0.26216118492E+02  0.59225781015E+02  0.10566000000E+00 0. -1.
         22    1    1    0    0    0  0.25692275486E+02  0.13930912789E+02  0.63193071930E-01  0.29226141451E+02  0.00000000000E+00 0. -1.
</event>
<event>
 5    1  0.6924836E-004  0.9118800E+02  0.7818608E-02  0.1130116E+00
         25   -1    0    0    0    0  0.00000000000E+00  0.00000000000E+00  0.99999998245E-14  0.12500000000E+03  0.12500000000E+03 0.  0.
        -13    1    3    3    0    0 -0.35570418084E+02 -0.32541659467E+02 -0.87461136253E+01  0.48997141867E+02  0.10566000000E+00 0. -1.
         23    2    1    0    0    0 -0.17640979054E+02 -0.48267627954E+01  0.23553085577E+02  0.95179711248E+02  0.90387652984E+02 0.  0.
         13    1    3    3    0    0  0.17929439030E+02  0.27714896672E+02  0.32299199202E+02  0.46182569381E+02  0.10566000000E+00 0.  1.
         22    1    1    0    0    0  0.17640979054E+02  0.48267627954E+01 -0.23553085577E+02  0.29820288752E+02  0.00000000000E+00 0. -1.
</event>
<event>
 5    1  0.6924836E-004  0.9118800E+02  0.7818608E-02  0.1130116E+00
         25   -1    0    0    0    0  0.00000000000E+00  0.00000000000E+00  0.99999998245E-14  0.12500000000E+03  0.12500000000E+03 0.  0.
        -13    1    3    3    0    0  0.48707414062E+02  0.25170746529E+02 -0.26613874321E+02  0.60944959889E+02  0.10566000000E+00 0. -1.
         23    2    1    0    0    0  0.15285763791E+02  0.12750427083E+02 -0.19161430935E+02  0.97370515731E+02  0.93368243706E+02 0.  0.
         13    1    3    3    0    0 -0.33421650271E+02 -0.12420319446E+02  0.74524433855E+01  0.36425555843E+02  0.10566000000E+00 0.  1.
         22    1    1    0    0    0 -0.15285763791E+02 -0.12750427083E+02  0.19161430935E+02  0.27629484269E+02  0.00000000000E+00 0. -1.
</event>
<event>
 5    1  0.6924836E-004  0.9118800E+02  0.7818608E-02  0.1130116E+00
         25   -1    0    0    0    0  0.00000000000E+00  0.00000000000E+00  0.99999998245E-14  0.12500000000E+03  0.12500000000E+03 0.  0.
        -13    1    3    3    0    0  0.47703993898E+02  0.10362291729E+02  0.32586207246E+02  0.58693442483E+02  0.10566000000E+00 0.  1.
         23    2    1    0    0    0  0.22388663367E+02 -0.10696090974E+02  0.13563763481E+02  0.96722194405E+02  0.92496208578E+02 0.  0.
         13    1    3    3    0    0 -0.25315330531E+02 -0.21058382703E+02 -0.19022443765E+02  0.38028751923E+02  0.10566000000E+00 0. -1.
         22    1    1    0    0    0 -0.22388663367E+02  0.10696090974E+02 -0.13563763481E+02  0.28277805595E+02  0.00000000000E+00 0.  1.
</event>
<event>
 5    1  0.6924836E-004  0.9118800E+02  0.7818608E-02  0.1130116E+00
         25   -1    0    0    0    0  0.00000000000E+00  0.00000000000E+00  0.99999998245E-14  0.12500000000E+03  0.12500000000E+03 0.  0.
        -13    1    3    3    0    0 -0.39641375471E+02  0.38388099476E+02 -0.25138136508E+02  0.60638452336E+02  0.10566000000E+00 0.  1.
         23    2    1    0    0    0 -0.16184797746E+02  0.24117648418E+02 -0.32074615523E+01  0.95778493316E+02  0.91211969220E+02 0.  0.
         13    1    3    3    0    0  0.23456577725E+02 -0.14270451058E+02  0.21930674956E+02  0.35140040980E+02  0.10566000000E+00 0. -1.
         22    1    1    0    0    0  0.16184797746E+02 -0.24117648418E+02  0.32074615523E+01  0.29221506684E+02  0.00000000000E+00 0.  1.
</event>
<event>
 5    1  0.6924836E-004  0.9118800E+02  0.7818608E-02  0.1130116E+00
         25   -1    0    0    0    0  0.00000000000E+00  0.00000000000E+00  0.99999998245E-14  0.12500000000E+03  0.12500000000E+03 0.  0.
        -13    1    3    3    0    0 -0.21523956813E+01  0.35908247138E+02 -0.45456232381E+02  0.57968226176E+02  0.10566000000E+00 0.  1.
         23    2    1    0    0    0  0.11044875930E+02  0.59177015995E+01 -0.26159833587E+02  0.95994045959E+02  0.91506893127E+02 0.  0.
         13    1    3    3    0    0  0.13197271611E+02 -0.29990545538E+02  0.19296398794E+02  0.38025819783E+02  0.10566000000E+00 0. -1.
         22    1    1    0    0    0 -0.11044875930E+02 -0.59177015995E+01  0.26159833587E+02  0.29005954041E+02  0.00000000000E+00 0.  1.
</event>
<event>
 5    1  0.6924836E-004  0.9118800E+02  0.7818608E-02  0.1130116E+00
         25   -1    0    0    0    0  0.00000000000E+00  0.00000000000E+00  0.99999998245E-14  0.12500000000E+03  0.12500000000E+03 0.  0.
        -13    1    3    3    0    0  0.11122247685E+02 -0.11603328748E+02  0.58376133127E+02  0.60548540152E+02  0.10566000000E+00 0.  1.
         23    2    1    0    0    0 -0.18640024595E+01  0.31480227511E+01  0.28221185039E+02  0.96542666369E+02  0.92253274154E+02 0.  0.
         13    1    3    3    0    0 -0.12986250144E+02  0.14751351499E+02 -0.30154948089E+02  0.35994126217E+02  0.10566000000E+00 0. -1.
         22    1    1    0    0    0  0.18640024595E+01 -0.31480227511E+01 -0.28221185039E+02  0.28457333631E+02  0.00000000000E+00 0.  1.
</event>
<event>
 5    1  0.6924836E-004  0.9118800E+02  0.7818608E-02  0.1130116E+00
         25   -1    0    0    0    0  0.00000000000E+00  0.00000000000E+00  0.99999998245E-14  0.12500000000E+03  0.12500000000E+03 0.  0.
        -13    1    3    3    0    0  0.11137473602E+02  0.94473627944E+00  0.38487054489E+02  0.40077429710E+02  0.10566000000E+00 0. -1.
         23    2    1    0    0    0 -0.69980767797E+01 -0.29054237043E+02 -0.36535284958E+01  0.94892359122E+02  0.89989387044E+02 0.  0.
         13    1    3    3    0    0 -0.18135550382E+02 -0.29998973323E+02 -0.42140582985E+02  0.54814929412E+02  0.10566000000E+00 0.  1.
         22    1    1    0    0    0  0.69980767797E+01  0.29054237043E+02  0.36535284958E+01  0.30107640878E+02  0.00000000000E+00 0.  1.
</event>
<event>
 5    1  0.6924836E-004  0.9118800E+02  0.7818608E-02  0.1130116E+00
         25   -1    0    0    0    0  0.00000000000E+00  0.00000000000E+00  0.99999998245E-14  0.12500000000E+03  0.12500000000E+03 0.  0.
        -13    1    3    3    0    0 -0.48149053664E+02 -0.30719823177E+02 -0.11711355657E+02  0.58302709372E+02  0.10566000000E+00 0.  1.
         23    2    1    0    0    0 -0.19491223129E+02 -0.96626197888E+01 -0.20686153084E+02  0.94980157735E+02  0.90111261414E+02 0.  0.
         13    1    3    3    0    0  0.28657830535E+02  0.21057203388E+02 -0.89747974266E+01  0.36677448363E+02  0.10566000000E+00 0. -1.
         22    1    1    0    0    0  0.19491223129E+02  0.96626197888E+01  0.20686153084E+02  0.30019842265E+02  0.00000000000E+00 0.  1.
</event>
<event>
 5    1  0.6924836E-004  0.9118800E+02  0.7818608E-02  0.1130116E+00
         25   -1    0    0    0    0  0.00000000000E+00  0.00000000000E+00  0.99999998245E-14  0.12500000000E+03  0.12500000000E+03 0.  0.
        -13    1    3    3    0    0  0.32088324514E+02  0.42557668365E+02  0.10216728004E+02  0.54269774294E+02  0.10566000000E+00 0. -1.
         23    2    1    0    0    0  0.56212940434E+01  0.11123175278E+02  0.24284543251E+02  0.97704157534E+02  0.93813854966E+02 0.  0.
         13    1    3    3    0    0 -0.26467030471E+02 -0.31434493087E+02  0.14067815247E+02  0.43434383240E+02  0.10566000000E+00 0.  1.
         22    1    1    0    0    0 -0.56212940434E+01 -0.11123175278E+02 -0.24284543251E+02  0.27295842466E+02  0.00000000000E+00 0. -1.
</event>
<event>
 5    1  0.6924836E-004  0.9118800E+02  0.7818608E-02  0.1130116E+00
         25   -1    0    0    0    0  0.00000000000E+00  0.00000000000E+00  0.99999998245E-14  0.12500000000E+03  0.12500000000E+03 0.  0.
        -13    1    3    3    0    0 -0.52447457529E+02  0.21742238392E+02 -0.13907210886E+02  0.58454105161E+02  0.10566000000E+00 0.  1.
         23    2    1    0    0    0 -0.27512412538E+02 -0.55529281861E+01 -0.71450172723E+01  0.96037625669E+02  0.91566404413E+02 0.  0.
         13    1    3    3    0    0  0.24935044991E+02 -0.27295166578E+02  0.67621936138E+01  0.37583520507E+02  0.10566000000E+00 0. -1.
         22    1    1    0    0    0  0.27512412538E+02  0.55529281861E+01  0.71450172723E+01  0.28962374331E+02  0.00000000000E+00 0.  1.
</event>
<event>
 5    1  0.6924836E-004  0.9118800E+02  0.7818608E-02  0.1130116E+00
         25   -1    0    0    0    0  0.00000000000E+00  0.00000000000E+00  0.99999998245E-14  0.12500000000E+03  0.12500000000E+03 0.  0.
        -13    1    3    3    0    0 -0.50728381512E+02 -0.75499869298E+00 -0.90697092827E+00  0.50742215897E+02  0.10566000000E+00 0.  1.
         23    2    1    0    0    0 -0.94370815910E+01 -0.36150922390E+01  0.23937618250E+02  0.99016602063E+02  0.95546588196E+02 0.  0.
         13    1    3    3    0    0  0.41291299921E+02 -0.28600935460E+01  0.24844589178E+02  0.48274386166E+02  0.10566000000E+00 0. -1.
         22    1    1    0    0    0  0.94370815910E+01  0.36150922390E+01 -0.23937618250E+02  0.25983397937E+02  0.00000000000E+00 0.  1.
</event>
<event>
 5    1  0.6924836E-004  0.9118800E+02  0.7818608E-02  0.1130116E+00
         25   -1    0    0    0    0  0.00000000000E+00  0.00000000000E+00  0.99999998245E-14  0.12500000000E+03  0.12500000000E+03 0.  0.
        -13    1    3    3    0    0  0.26662650782E+02  0.23759447051E+02 -0.79794266285E+00  0.35721928103E+02  0.10566000000E+00 0. -1.
         23    2    1    0    0    0 -0.10197432420E+02  0.44971096685E+02  0.48912599717E+01  0.78628547692E+02  0.63499109624E+02 0.  0.
         13    1    3    3    0    0 -0.36860083202E+02  0.21211649634E+02  0.56892026346E+01  0.42906619589E+02  0.10566000000E+00 0.  1.
         22    1    1    0    0    0  0.10197432420E+02 -0.44971096685E+02 -0.48912599717E+01  0.46371452308E+02  0.00000000000E+00 0.  1.
</event>
<event>
 5    1  0.6924836E-004  0.9118800E+02  0.7818608E-02  0.1130116E+00
         25   -1    0    0    0    0  0.00000000000E+00  0.00000000000E+00  0.99999998245E-14  0.12500000000E+03  0.12500000000E+03 0.  0.
        -13    1    3    3    0    0  0.51109924468E+01 -0.31981688111E+02 -0.21392214780E+02  0.38814799181E+02  0.10566000000E+00 0. -1.
         23    2    1    0    0    0 -0.24827464391E+02  0.14053645239E+02 -0.59787238436E+01  0.95851190909E+02  0.91311542137E+02 0.  0.
         13    1    3    3    0    0 -0.29938456838E+02  0.46035333350E+02  0.15413490936E+02  0.57036391728E+02  0.10566000000E+00 0.  1.
         22    1    1    0    0    0  0.24827464391E+02 -0.14053645239E+02  0.59787238436E+01  0.29148809091E+02  0.00000000000E+00 0.  1.
</event>
<event>
 5    1  0.6924836E-004  0.9118800E+02  0.7818608E-02  0.1130116E+00
         25   -1    0    0    0    0  0.00000000000E+00  0.00000000000E+00  0.99999998245E-14  0.12500000000E+03  0.12500000000E+03 0.  0.
        -13    1    3    3    0    0  0.31134814165E+02 -0.45722104841E+02 -0.14745242772E+02  0.57247889679E+02  0.10566000000E+00 0. -1.
         23    2    1    0    0    0  0.22705495749E+02 -0.70870198167E+01 -0.15159327447E+02  0.96794138982E+02  0.92593383919E+02 0.  0.
         13    1    3    3    0    0 -0.84293184161E+01  0.38635085025E+02 -0.41408467451E+00  0.39546249304E+02  0.10566000000E+00 0.  1.
         22    1    1    0    0    0 -0.22705495749E+02  0.70870198167E+01  0.15159327447E+02  0.28205861018E+02  0.00000000000E+00 0. -1.
</event>
<event>
 5    1  0.6924836E-004  0.9118800E+02  0.7818608E-02  0.1130116E+00
         25   -1    0    0    0    0  0.00000000000E+00  0.00000000000E+00  0.99999998245E-14  0.12500000000E+03  0.12500000000E+03 0.  0.
        -13    1    3    3    0    0  0.80820442649E+00 -0.14431934229E+02 -0.32078678280E+02  0.35185034947E+02  0.10566000000E+00 0. -1.
         23    2    1    0    0    0  0.84621704099E+01  0.20361309881E+02  0.17926356432E+02  0.96582654539E+02  0.92307440842E+02 0.  0.
         13    1    3    3    0    0  0.76539659834E+01  0.34793244110E+02  0.50005034712E+02  0.61397619592E+02  0.10566000000E+00 0.  1.
         22    1    1    0    0    0 -0.84621704099E+01 -0.20361309881E+02 -0.17926356432E+02  0.28417345461E+02  0.00000000000E+00 0.  1.
</event>
<event>
 5    1  0.6924836E-004  0.9118800E+02  0.7818608E-02  0.1130116E+00
         25   -1    0    0    0    0  0.00000000000E+00  0.00000000000E+00  0.99999998245E-14  0.12500000000E+03  0.12500000000E+03 0.  0.
        -13    1    3    3    0    0 -0.22166938324E+02 -0.40805379058E+02 -0.14378762418E+02  0.48612879851E+02  0.10566000000E+00 0.  1.
         23    2    1    0    0    0 -0.28521220860E+02  0.45199835507E+01 -0.18590468858E+01  0.96063062603E+02  0.91601122540E+02 0.  0.
         13    1    3    3    0    0 -0.63542825353E+01  0.45325362608E+02  0.12519715532E+02  0.47450182752E+02  0.10566000000E+00 0. -1.
         22    1    1    0    0    0  0.28521220860E+02 -0.45199835507E+01  0.18590468858E+01  0.28936937397E+02  0.00000000000E+00 0. -1.
</event>
<event>
 5    1  0.6924836E-004  0.9118800E+02  0.7818608E-02  0.1130116E+00
         25   -1    0    0    0    0  0.00000000000E+00  0.00000000000E+00  0.99999998245E-14  0.12500000000E+03  0.12500000000E+03 0.  0.
        -13    1    3    3    0    0 -0.29698647596E+02 -0.63142253927E+01  0.26423786542E+02  0.40250549942E+02  0.10566000000E+00 0.  1.
         23    2    1    0    0    0  0.16766231592E+02 -0.17108914938E+02  0.28216426866E+02  0.87986647852E+02  0.79822690777E+02 0.  0.
         13    1    3    3    0    0  0.46464879188E+02 -0.10794689546E+02  0.17926403239E+01  0.47736097910E+02  0.10566000000E+00 0. -1.
         22    1    1    0    0    0 -0.16766231592E+02  0.17108914938E+02 -0.28216426866E+02  0.37013352148E+02  0.00000000000E+00 0. -1.
</event>
<event>
 5    1  0.6924836E-004  0.9118800E+02  0.7818608E-02  0.1130116E+00
         25   -1    0    0    0    0  0.00000000000E+00  0.00000000000E+00  0.99999998245E-14  0.12500000000E+03  0.12500000000E+03 0.  0.
        -13    1    3    3    0    0 -0.58969454789E+01 -0.29928831451E+02 -0.18203385970E+02  0.35522997379E+02  0.10566000000E+00 0.  1.
         23    2    1    0    0    0 -0.19730759194E+02  0.11113755826E+02  0.21128629883E+02  0.94028441633E+02  0.88781250320E+02 0.  0.
         13    1    3    3    0    0 -0.13833813715E+02  0.41042587277E+02  0.39332015853E+02  0.58505444254E+02  0.10566000000E+00 0. -1.
         22    1    1    0    0    0  0.19730759194E+02 -0.11113755826E+02 -0.21128629883E+02  0.30971558367E+02  0.00000000000E+00 0. -1.
</event>
<event>
 5    1  0.6924836E-004  0.9118800E+02  0.7818608E-02  0.1130116E+00
         25   -1    0    0    0    0  0.00000000000E+00  0.00000000000E+00  0.99999998245E-14  0.12500000000E+03  0.12500000000E+03 0.  0.
        -13    1    3    3    0    0  0.13771772299E+01  0.95310202752E+01 -0.37480530940E+02  0.38698040366E+02  0.10566000000E+00 0. -1.
         23    2    1    0    0    0 -0.19149411681E+02  0.14243993516E+02  0.16060990716E+02  0.96232887845E+02  0.91832575708E+02 0.  0.
         13    1    3    3    0    0 -0.20526588911E+02  0.47129732406E+01  0.53541521656E+02  0.57534847478E+02  0.10566000000E+00 0.  1.
         22    1    1    0    0    0  0.19149411681E+02 -0.14243993516E+02 -0.16060990716E+02  0.28767112155E+02  0.00000000000E+00 0.  1.
</event>
<event>
 5    1  0.6924836E-004  0.9118800E+02  0.7818608E-02  0.1130116E+00
         25   -1    0    0    0    0  0.00000000000E+00  0.00000000000E+00  0.99999998245E-14  0.12500000000E+03  0.12500000000E+03 0.  0.
        -13    1    3    3    0    0 -0.16886115443E+02 -0.11338127740E+02 -0.57175795700E+02  0.60685886443E+02  0.10566000000E+00 0.  1.
         23    2    1    0    0    0 -0.21508615392E+01  0.25014293136E+01 -0.31321009910E+02  0.93505730430E+02  0.88042220596E+02 0.  0.
         13    1    3    3    0    0  0.14735253903E+02  0.13839557054E+02  0.25854785790E+02  0.32819843987E+02  0.10566000000E+00 0. -1.
         22    1    1    0    0    0  0.21508615392E+01 -0.25014293136E+01  0.31321009910E+02  0.31494269570E+02  0.00000000000E+00 0.  1.
</event>
<event>
 5    1  0.6924836E-004  0.9118800E+02  0.7818608E-02  0.1130116E+00
         25   -1    0    0    0    0  0.00000000000E+00  0.00000000000E+00  0.99999998245E-14  0.12500000000E+03  0.12500000000E+03 0.  0.
        -13    1    3    3    0    0  0.33925551490E+02  0.12641770491E+02  0.34910308252E+02  0.50294116865E+02  0.10566000000E+00 0. -1.
         23    2    1    0    0    0 -0.75458356363E+01 -0.48513196283E+01  0.27707145787E+02  0.95876798506E+02  0.91346590668E+02 0.  0.
         13    1    3    3    0    0 -0.41471387126E+02 -0.17493090119E+02 -0.72031624650E+01  0.45582681641E+02  0.10566000000E+00 0.  1.
         22    1    1    0    0    0  0.75458356363E+01  0.48513196283E+01 -0.27707145787E+02  0.29123201494E+02  0.00000000000E+00 0. -1.
</event>
<event>
 5    1  0.6924836E-004  0.9118800E+02  0.7818608E-02  0.1130116E+00
         25   -1    0    0    0    0  0.00000000000E+00  0.00000000000E+00  0.99999998245E-14  0.12500000000E+03  0.12500000000E+03 0.  0.
        -13    1    3    3    0    0  0.56617817555E+01 -0.54049968959E+02  0.21145739417E+02  0.58314735502E+02  0.10566000000E+00 0.  1.
         23    2    1    0    0    0 -0.70407525064E+01 -0.40510750227E+02  0.24435182911E+02  0.77169348283E+02  0.60558542508E+02 0.  0.
         13    1    3    3    0    0 -0.12702534262E+02  0.13539218732E+02  0.32894434942E+01  0.18854612780E+02  0.10566000000E+00 0. -1.
         22    1    1    0    0    0  0.70407525064E+01  0.40510750227E+02 -0.24435182911E+02  0.47830651717E+02  0.00000000000E+00 0.  1.
</event>
<event>
 5    1  0.6924836E-004  0.9118800E+02  0.7818608E-02  0.1130116E+00
         25   -1    0    0    0    0  0.00000000000E+00  0.00000000000E+00  0.99999998245E-14  0.12500000000E+03  0.12500000000E+03 0.  0.
        -13    1    3    3    0    0 -0.31050635494E+02  0.28812452490E+02  0.23649569310E+02  0.48514046168E+02  0.10566000000E+00 0. -1.
         23    2    1    0    0    0 -0.28544667815E+02 -0.12590828499E+02  0.86109547981E+01  0.92635272819E+02  0.86797570269E+02 0.  0.
         13    1    3    3    0    0  0.25059676788E+01 -0.41403280989E+02 -0.15038614512E+02  0.44121226650E+02  0.10566000000E+00 0.  1.
         22    1    1    0    0    0  0.28544667815E+02  0.12590828499E+02 -0.86109547981E+01  0.32364727181E+02  0.00000000000E+00 0. -1.
</event>
<event>
 5    1  0.6924836E-004  0.9118800E+02  0.7818608E-02  0.1130116E+00
         25   -1    0    0    0    0  0.00000000000E+00  0.00000000000E+00  0.99999998245E-14  0.12500000000E+03  0.12500000000E+03 0.  0.
        -13    1    3    3    0    0  0.82060455219E+01  0.65681169618E+01 -0.40154797630E+02  0.41507809871E+02  0.10566000000E+00 0. -1.
         23    2    1    0    0    0  0.26175400672E+02  0.45447219951E+01  0.11361364834E+02  0.96105593807E+02  0.91659142761E+02 0.  0.
         13    1    3    3    0    0  0.17969355150E+02 -0.20233949667E+01  0.51516162464E+02  0.54597783936E+02  0.10566000000E+00 0.  1.
         22    1    1    0    0    0 -0.26175400672E+02 -0.45447219951E+01 -0.11361364834E+02  0.28894406193E+02  0.00000000000E+00 0.  1.
</event>
<event>
 5    1  0.6924836E-004  0.9118800E+02  0.7818608E-02  0.1130116E+00
         25   -1    0    0    0    0  0.00000000000E+00  0.00000000000E+00  0.99999998245E-14  0.12500000000E+03  0.12500000000E+03 0.  0.
        -13    1    3    3    0    0  0.15736132359E+02 -0.29268570402E+02 -0.24151908389E-01  0.33230811340E+02  0.10566000000E+00 0.  1.
         23    2    1    0    0    0 -0.23815462217E+02  0.18156027413E+02  0.16642083510E+01  0.95006881431E+02  0.90148324209E+02 0.  0.
         13    1    3    3    0    0 -0.39551594576E+02  0.47424597815E+02  0.16883602594E+01  0.61776070091E+02  0.10566000000E+00 0. -1.
         22    1    1    0    0    0  0.23815462217E+02 -0.18156027413E+02 -0.16642083510E+01  0.29993118569E+02  0.00000000000E+00 0. -1.
</event>
<event>
 5    1  0.6924836E-004  0.9118800E+02  0.7818608E-02  0.1130116E+00
         25   -1    0    0    0    0  0.00000000000E+00  0.00000000000E+00  0.99999998245E-14  0.12500000000E+03  0.12500000000E+03 0.  0.
        -13    1    3    3    0    0 -0.97604331477E+00 -0.29486650704E+02 -0.19828734443E+02  0.35547223576E+02  0.10566000000E+00 0. -1.
         23    2    1    0    0    0 -0.10797141230E+02  0.61535615706E+01  0.27039814916E+02  0.95241032118E+02  0.90472415848E+02 0.  0.
         13    1    3    3    0    0 -0.98210979155E+01  0.35640212275E+02  0.46868549358E+02  0.59693808542E+02  0.10566000000E+00 0.  1.
         22    1    1    0    0    0  0.10797141230E+02 -0.61535615706E+01 -0.27039814916E+02  0.29758967882E+02  0.00000000000E+00 0.  1.
</event>
<event>
 5    1  0.6924836E-004  0.9118800E+02  0.7818608E-02  0.1130116E+00
         25   -1    0    0    0    0  0.00000000000E+00  0.00000000000E+00  0.99999998245E-14  0.12500000000E+03  0.12500000000E+03 0.  0.
        -13    1    3    3    0    0 -0.26486270162E+02 -0.28551244487E+02  0.18206453816E+02  0.42990489570E+02  0.10566000000E+00 0. -1.
         23    2    1    0    0    0  0.85636060445E+01  0.78526391420E+01  0.28196781050E+02  0.94503151777E+02  0.89447123734E+02 0.  0.
         13    1    3    3    0    0  0.35049876207E+02  0.36403883629E+02  0.99903272333E+01  0.51512662207E+02  0.10566000000E+00 0.  1.
         22    1    1    0    0    0 -0.85636060445E+01 -0.78526391420E+01 -0.28196781050E+02  0.30496848223E+02  0.00000000000E+00 0.  1.
</event>
<event>
 5    1  0.6924836E-004  0.9118800E+02  0.7818608E-02  0.1130116E+00
         25   -1    0    0    0    0  0.00000000000E+00  0.00000000000E+00  0.99999998245E-14  0.12500000000E+03  0.12500000000E+03 0.  0.
        -13    1    3    3    0    0 -0.15532608808E+02  0.26781619525E+02  0.48121467685E+02  0.57220659704E+02  0.10566000000E+00 0. -1.
         23    2    1    0    0    0  0.64675237772E+00 -0.24143573566E+01  0.29404195109E+02  0.95489762792E+02  0.90815421036E+02 0.  0.
         13    1    3    3    0    0  0.16179361185E+02 -0.29195976881E+02 -0.18717272576E+02  0.38269103088E+02  0.10566000000E+00 0.  1.
         22    1    1    0    0    0 -0.64675237772E+00  0.24143573566E+01 -0.29404195109E+02  0.29510237208E+02  0.00000000000E+00 0. -1.
</event>
<event>
 5    1  0.6924836E-004  0.9118800E+02  0.7818608E-02  0.1130116E+00
         25   -1    0    0    0    0  0.00000000000E+00  0.00000000000E+00  0.99999998245E-14  0.12500000000E+03  0.12500000000E+03 0.  0.
        -13    1    3    3    0    0 -0.24862694607E+02  0.16840471037E+02 -0.18547754332E+02  0.35295685327E+02  0.10566000000E+00 0.  1.
         23    2    1    0    0    0 -0.66731022296E+00 -0.49739323363E+01  0.30452267637E+02  0.94136981514E+02  0.88933938283E+02 0.  0.
         13    1    3    3    0    0  0.24195384384E+02 -0.21814403373E+02  0.49000021969E+02  0.58841296188E+02  0.10566000000E+00 0. -1.
         22    1    1    0    0    0  0.66731022296E+00  0.49739323363E+01 -0.30452267637E+02  0.30863018486E+02  0.00000000000E+00 0. -1.
</event>
<event>
 5    1  0.6924836E-004  0.9118800E+02  0.7818608E-02  0.1130116E+00
         25   -1    0    0    0    0  0.00000000000E+00  0.00000000000E+00  0.99999998245E-14  0.12500000000E+03  0.12500000000E+03 0.  0.
        -13    1    3    3    0    0  0.35116238695E+02  0.16942311834E+02  0.23415905291E+02  0.45480852399E+02  0.10566000000E+00 0. -1.
         23    2    1    0    0    0  0.28496723796E+02 -0.13231076245E+02 -0.10985457850E+02  0.91716296332E+02  0.85463875895E+02 0.  0.
         13    1    3    3    0    0 -0.66195148990E+01 -0.30173388079E+02 -0.34401363141E+02  0.46235443933E+02  0.10566000000E+00 0.  1.
         22    1    1    0    0    0 -0.28496723796E+02  0.13231076245E+02  0.10985457850E+02  0.33283703668E+02  0.00000000000E+00 0.  1.
</event>
<event>
 5    1  0.6924836E-004  0.9118800E+02  0.7818608E-02  0.1130116E+00
         25   -1    0    0    0    0  0.00000000000E+00  0.00000000000E+00  0.99999998245E-14  0.12500000000E+03  0.12500000000E+03 0.  0.
        -13    1    3    3    0    0  0.29651480529E+02 -0.25153728527E+02 -0.56291464199E+01  0.39288914592E+02  0.10566000000E+00 0.  1.
         23    2    1    0    0    0  0.10997228190E+02  0.25099223033E+02  0.11088207549E+02  0.95438904429E+02  0.90745391658E+02 0.  0.
         13    1    3    3    0    0 -0.18654252339E+02  0.50252951560E+02  0.16717353969E+02  0.56149989836E+02  0.10566000000E+00 0. -1.
         22    1    1    0    0    0 -0.10997228190E+02 -0.25099223033E+02 -0.11088207549E+02  0.29561095571E+02  0.00000000000E+00 0. -1.
</event>
<event>
 5    1  0.6924836E-004  0.9118800E+02  0.7818608E-02  0.1130116E+00
         25   -1    0    0    0    0  0.00000000000E+00  0.00000000000E+00  0.99999998245E-14  0.12500000000E+03  0.12500000000E+03 0.  0.
        -13    1    3    3    0    0  0.34014562936E+01 -0.45229162020E+02 -0.37844986390E+02  0.59071999804E+02  0.10566000000E+00 0. -1.
         23    2    1    0    0    0  0.11061699377E+02 -0.10797636464E+02 -0.22877440300E+02  0.97389722548E+02  0.93393953964E+02 0.  0.
         13    1    3    3    0    0  0.76602430830E+01  0.34431525557E+02  0.14967546091E+02  0.38317722744E+02  0.10566000000E+00 0.  1.
         22    1    1    0    0    0 -0.11061699377E+02  0.10797636464E+02  0.22877440300E+02  0.27610277452E+02  0.00000000000E+00 0. -1.
</event>
<event>
 5    1  0.6924836E-004  0.9118800E+02  0.7818608E-02  0.1130116E+00
         25   -1    0    0    0    0  0.00000000000E+00  0.00000000000E+00  0.99999998245E-14  0.12500000000E+03  0.12500000000E+03 0.  0.
        -13    1    3    3    0    0 -0.52343685200E+02 -0.81748926596E+01 -0.82923330254E+01  0.53623354999E+02  0.10566000000E+00 0.  1.
         23    2    1    0    0    0 -0.18329902246E+02 -0.14256948390E+02  0.16810092272E+02  0.96332508029E+02  0.91968076022E+02 0.  0.
         13    1    3    3    0    0  0.34013782954E+02 -0.60820557303E+01  0.25102425297E+02  0.42709153030E+02  0.10566000000E+00 0. -1.
         22    1    1    0    0    0  0.18329902246E+02  0.14256948390E+02 -0.16810092272E+02  0.28667491971E+02  0.00000000000E+00 0.  1.
</event>
<event>
 5    1  0.6924836E-004  0.9118800E+02  0.7818608E-02  0.1130116E+00
         25   -1    0    0    0    0  0.00000000000E+00  0.00000000000E+00  0.99999998245E-14  0.12500000000E+03  0.12500000000E+03 0.  0.
        -13    1    3    3    0    0 -0.62299631533E+01 -0.47825989636E+02  0.39299977064E+02  0.62214444358E+02  0.10566000000E+00 0.  1.
         23    2    1    0    0    0 -0.56854286602E+01 -0.17159940783E+02  0.17466789067E+02  0.99862848470E+02  0.96647359599E+02 0.  0.
         13    1    3    3    0    0  0.54453449308E+00  0.30666048853E+02 -0.21833187997E+02  0.37648404112E+02  0.10566000000E+00 0. -1.
         22    1    1    0    0    0  0.56854286602E+01  0.17159940783E+02 -0.17466789067E+02  0.25137151530E+02  0.00000000000E+00 0.  1.
</event>
<event>
 5    1  0.6924836E-004  0.9118800E+02  0.7818608E-02  0.1130116E+00
         25   -1    0    0    0    0  0.00000000000E+00  0.00000000000E+00  0.99999998245E-14  0.12500000000E+03  0.12500000000E+03 0.  0.
        -13    1    3    3    0    0 -0.21604337395E+02 -0.38548408904E+00  0.24558215857E+02  0.32711055049E+02  0.10566000000E+00 0. -1.
         23    2    1    0    0    0  0.19274414164E+02 -0.29808319642E+01 -0.22582216117E+02  0.95161352489E+02  0.90362260497E+02 0.  0.
         13    1    3    3    0    0  0.40878751559E+02 -0.25953478751E+01 -0.47140431974E+02  0.62450297440E+02  0.10566000000E+00 0.  1.
         22    1    1    0    0    0 -0.19274414164E+02  0.29808319642E+01  0.22582216117E+02  0.29838647511E+02  0.00000000000E+00 0.  1.
</event>
<event>
 5    1  0.6924836E-004  0.9118800E+02  0.7818608E-02  0.1130116E+00
         25   -1    0    0    0    0  0.00000000000E+00  0.00000000000E+00  0.99999998245E-14  0.12500000000E+03  0.12500000000E+03 0.  0.
        -13    1    3    3    0    0  0.10500300443E+02 -0.27820594770E+02 -0.33798597673E+02  0.45017753958E+02  0.10566000000E+00 0.  1.
         23    2    1    0    0    0 -0.27726621706E+02 -0.86873212725E+01 -0.83460871424E+01  0.94769348788E+02  0.89818356681E+02 0.  0.
         13    1    3    3    0    0 -0.38226922150E+02  0.19133273497E+02  0.25452510531E+02  0.49751594830E+02  0.10566000000E+00 0. -1.
         22    1    1    0    0    0  0.27726621706E+02  0.86873212725E+01  0.83460871424E+01  0.30230651212E+02  0.00000000000E+00 0. -1.
</event>
<event>
 5    1  0.6924836E-004  0.9118800E+02  0.7818608E-02  0.1130116E+00
         25   -1    0    0    0    0  0.00000000000E+00  0.00000000000E+00  0.99999998245E-14  0.12500000000E+03  0.12500000000E+03 0.  0.
        -13    1    3    3    0    0 -0.16330167677E+02  0.19064238114E+02 -0.28983816448E+02  0.38343087136E+02  0.10566000000E+00 0. -1.
         23    2    1    0    0    0 -0.31556190921E+02  0.28676702513E+02  0.99283600350E+01  0.81219652977E+02  0.68409891421E+02 0.  0.
         13    1    3    3    0    0 -0.15226023244E+02  0.96124643995E+01  0.38912176483E+02  0.42876565841E+02  0.10566000000E+00 0.  1.
         22    1    1    0    0    0  0.31556190921E+02 -0.28676702513E+02 -0.99283600350E+01  0.43780347023E+02  0.00000000000E+00 0. -1.
</event>
<event>
 5    1  0.6924836E-004  0.9118800E+02  0.7818608E-02  0.1130116E+00
         25   -1    0    0    0    0  0.00000000000E+00  0.00000000000E+00  0.99999998245E-14  0.12500000000E+03  0.12500000000E+03 0.  0.
        -13    1    3    3    0    0  0.47259183001E+02 -0.10882775175E+02 -0.28646571626E+01  0.48580681327E+02  0.10566000000E+00 0. -1.
         23    2    1    0    0    0  0.34142374934E+01 -0.20227535588E+02 -0.19787364286E+02  0.96498245686E+02  0.92193066016E+02 0.  0.
         13    1    3    3    0    0 -0.43844945508E+02 -0.93447604121E+01 -0.16922707123E+02  0.47917564359E+02  0.10566000000E+00 0.  1.
         22    1    1    0    0    0 -0.34142374934E+01  0.20227535588E+02  0.19787364286E+02  0.28501754314E+02  0.00000000000E+00 0.  1.
</event>
<event>
 5    1  0.6924836E-004  0.9118800E+02  0.7818608E-02  0.1130116E+00
         25   -1    0    0    0    0  0.00000000000E+00  0.00000000000E+00  0.99999998245E-14  0.12500000000E+03  0.12500000000E+03 0.  0.
        -13    1    3    3    0    0 -0.33987735805E+02 -0.31548191871E+02 -0.33438789966E+01  0.46493518756E+02  0.10566000000E+00 0. -1.
         23    2    1    0    0    0 -0.38456410627E+02  0.58875740854E+01  0.67296101101E+01  0.85517767298E+02  0.75858037310E+02 0.  0.
         13    1    3    3    0    0 -0.44686748214E+01  0.37435765957E+02  0.10073489107E+02  0.39024248542E+02  0.10566000000E+00 0.  1.
         22    1    1    0    0    0  0.38456410627E+02 -0.58875740854E+01 -0.67296101101E+01  0.39482232702E+02  0.00000000000E+00 0.  1.
</event>
<event>
 5    1  0.6924836E-004  0.9118800E+02  0.7818608E-02  0.1130116E+00
         25   -1    0    0    0    0  0.00000000000E+00  0.00000000000E+00  0.99999998245E-14  0.12500000000E+03  0.12500000000E+03 0.  0.
        -13    1    3    3    0    0  0.39330150569E+02 -0.36648318623E+01  0.16864442374E+01  0.39536653810E+02  0.10566000000E+00 0.  1.
         23    2    1    0    0    0 -0.64653614775E+01  0.82541301164E+01  0.28991651104E+02  0.94170673105E+02  0.88981280483E+02 0.  0.
         13    1    3    3    0    0 -0.45795512046E+02  0.11918961979E+02  0.27305206867E+02  0.54634019295E+02  0.10566000000E+00 0. -1.
         22    1    1    0    0    0  0.64653614775E+01 -0.82541301164E+01 -0.28991651104E+02  0.30829326895E+02  0.00000000000E+00 0. -1.
</event>
<event>
 5    1  0.6924836E-004  0.9118800E+02  0.7818608E-02  0.1130116E+00
         25   -1    0    0    0    0  0.00000000000E+00  0.00000000000E+00  0.99999998245E-14  0.12500000000E+03  0.12500000000E+03 0.  0.
        -13    1    3    3    0    0 -0.41430542802E+02  0.91837528981E+01  0.18201314016E+02  0.46174995290E+02  0.10566000000E+00 0.  1.
         23    2    1    0    0    0 -0.23620236651E+02 -0.55963804415E+01 -0.21789735479E+02  0.92380563682E+02  0.86429976979E+02 0.  0.
         13    1    3    3    0    0  0.17810306151E+02 -0.14780133340E+02 -0.39991049494E+02  0.46205568392E+02  0.10566000000E+00 0. -1.
         22    1    1    0    0    0  0.23620236651E+02  0.55963804415E+01  0.21789735479E+02  0.32619436318E+02  0.00000000000E+00 0.  1.
</event>
<event>
 5    1  0.6924836E-004  0.9118800E+02  0.7818608E-02  0.1130116E+00
         25   -1    0    0    0    0  0.00000000000E+00  0.00000000000E+00  0.99999998245E-14  0.12500000000E+03  0.12500000000E+03 0.  0.
        -13    1    3    3    0    0  0.22911628757E+02 -0.25877278211E+02  0.12886806626E+02  0.36887087293E+02  0.10566000000E+00 0. -1.
         23    2    1    0    0    0  0.62151906885E+01  0.28602061429E+02 -0.16212188461E+01  0.95685586074E+02  0.91084556970E+02 0.  0.
         13    1    3    3    0    0 -0.16696438068E+02  0.54479339640E+02 -0.14508025472E+02  0.58798498781E+02  0.10566000000E+00 0.  1.
         22    1    1    0    0    0 -0.62151906885E+01 -0.28602061429E+02  0.16212188461E+01  0.29314413926E+02  0.00000000000E+00 0.  1.
</event>
<event>
 5    1  0.6924836E-004  0.9118800E+02  0.7818608E-02  0.1130116E+00
         25   -1    0    0    0    0  0.00000000000E+00  0.00000000000E+00  0.99999998245E-14  0.12500000000E+03  0.12500000000E+03 0.  0.
        -13    1    3    3    0    0 -0.35275440538E+01 -0.23401613908E+02 -0.30880107441E+02  0.38905928856E+02  0.10566000000E+00 0.  1.
         23    2    1    0    0    0 -0.22529815382E+02  0.78365171151E+01  0.14423978796E+02  0.97124298288E+02  0.93038027558E+02 0.  0.
         13    1    3    3    0    0 -0.19002271329E+02  0.31238131023E+02  0.45304086237E+02  0.58218369431E+02  0.10566000000E+00 0. -1.
         22    1    1    0    0    0  0.22529815382E+02 -0.78365171151E+01 -0.14423978796E+02  0.27875701712E+02  0.00000000000E+00 0. -1.
</event>
<event>
 5    1  0.6924836E-004  0.9118800E+02  0.7818608E-02  0.1130116E+00
         25   -1    0    0    0    0  0.00000000000E+00  0.00000000000E+00  0.99999998245E-14  0.12500000000E+03  0.12500000000E+03 0.  0.
        -13    1    3    3    0    0  0.28696175684E+02  0.22758530041E+02  0.33179550973E+02  0.49419783036E+02  0.10566000000E+00 0.  1.
         23    2    1    0    0    0 -0.14653288357E+02  0.16818208464E+02  0.19797928015E+02  0.95175028092E+02  0.90381176264E+02 0.  0.
         13    1    3    3    0    0 -0.43349464041E+02 -0.59403215773E+01 -0.13381622958E+02  0.45755245056E+02  0.10566000000E+00 0. -1.
         22    1    1    0    0    0  0.14653288357E+02 -0.16818208464E+02 -0.19797928015E+02  0.29824971908E+02  0.00000000000E+00 0.  1.
</event>
<event>
 5    1  0.6924836E-004  0.9118800E+02  0.7818608E-02  0.1130116E+00
         25   -1    0    0    0    0  0.00000000000E+00  0.00000000000E+00  0.99999998245E-14  0.12500000000E+03  0.12500000000E+03 0.  0.
        -13    1    3    3    0    0  0.40215535297E+02 -0.30272271800E+01  0.40030993051E+02  0.56823806211E+02  0.10566000000E+00 0. -1.
         23    2    1    0    0    0  0.15105989969E+02  0.16748955811E+02  0.11430794731E+02  0.99714005420E+02  0.96454659582E+02 0.  0.
         13    1    3    3    0    0 -0.25109545328E+02  0.19776182991E+02 -0.28600198320E+02  0.42890199210E+02  0.10566000000E+00 0.  1.
         22    1    1    0    0    0 -0.15105989969E+02 -0.16748955811E+02 -0.11430794731E+02  0.25285994580E+02  0.00000000000E+00 0. -1.
</event>
<event>
 5    1  0.6924836E-004  0.9118800E+02  0.7818608E-02  0.1130116E+00
         25   -1    0    0    0    0  0.00000000000E+00  0.00000000000E+00  0.99999998245E-14  0.12500000000E+03  0.12500000000E+03 0.  0.
        -13    1    3    3    0    0  0.55454704726E+02  0.25611862649E+02 -0.10114958618E+02  0.61915388527E+02  0.10566000000E+00 0. -1.
         23    2    1    0    0    0  0.15006348827E+02  0.11899023444E+02 -0.64904035884E+01  0.10477865972E+03  0.10280887573E+03 0.  0.
         13    1    3    3    0    0 -0.40448355899E+02 -0.13712839205E+02  0.36245550299E+01  0.42863271191E+02  0.10566000000E+00 0.  1.
         22    1    1    0    0    0 -0.15006348827E+02 -0.11899023444E+02  0.64904035884E+01  0.20221340282E+02  0.00000000000E+00 0. -1.
</event>
<event>
 5    1  0.6924836E-004  0.9118800E+02  0.7818608E-02  0.1130116E+00
         25   -1    0    0    0    0  0.00000000000E+00  0.00000000000E+00  0.99999998245E-14  0.12500000000E+03  0.12500000000E+03 0.  0.
        -13    1    3    3    0    0  0.13933218406E+02 -0.52130434540E+02  0.21068035729E+02  0.57927455270E+02  0.10566000000E+00 0.  1.
         23    2    1    0    0    0  0.68441714385E+01 -0.13989562960E+02  0.23511111273E+02  0.96798530042E+02  0.92599311609E+02 0.  0.
         13    1    3    3    0    0 -0.70890469676E+01  0.38140871580E+02  0.24430755449E+01  0.38871074772E+02  0.10566000000E+00 0. -1.
         22    1    1    0    0    0 -0.68441714385E+01  0.13989562960E+02 -0.23511111273E+02  0.28201469958E+02  0.00000000000E+00 0.  1.
</event>
<event>
 5    1  0.6924836E-004  0.9118800E+02  0.7818608E-02  0.1130116E+00
         25   -1    0    0    0    0  0.00000000000E+00  0.00000000000E+00  0.99999998245E-14  0.12500000000E+03  0.12500000000E+03 0.  0.
        -13    1    3    3    0    0 -0.35535375949E+02 -0.26418161290E+02  0.17518945323E+02  0.47619395198E+02  0.10566000000E+00 0. -1.
         23    2    1    0    0    0 -0.11709692817E+02  0.18298393167E+02  0.15472932494E+02  0.98328671980E+02  0.94642316091E+02 0.  0.
         13    1    3    3    0    0  0.23825683132E+02  0.44716554457E+02 -0.20460128295E+01  0.50709276782E+02  0.10566000000E+00 0.  1.
         22    1    1    0    0    0  0.11709692817E+02 -0.18298393167E+02 -0.15472932494E+02  0.26671328020E+02  0.00000000000E+00 0.  1.
</event>
<event>
 5    1  0.6924836E-004  0.9118800E+02  0.7818608E-02  0.1130116E+00
         25   -1    0    0    0    0  0.00000000000E+00  0.00000000000E+00  0.99999998245E-14  0.12500000000E+03  0.12500000000E+03 0.  0.
        -13    1    3    3    0    0  0.56764719985E+02  0.86623026261E+01 -0.29644578048E+01  0.57498418204E+02  0.10566000000E+00 0. -1.
         23    2    1    0    0    0  0.22669320129E+02  0.72408650358E+01 -0.18367222155E+02  0.94938678484E+02  0.90053704094E+02 0.  0.
         13    1    3    3    0    0 -0.34095399857E+02 -0.14214375903E+01 -0.15402764351E+02  0.37440260281E+02  0.10566000000E+00 0.  1.
         22    1    1    0    0    0 -0.22669320129E+02 -0.72408650358E+01  0.18367222155E+02  0.30061321516E+02  0.00000000000E+00 0. -1.
</event>
<event>
 5    1  0.6924836E-004  0.9118800E+02  0.7818608E-02  0.1130116E+00
         25   -1    0    0    0    0  0.00000000000E+00  0.00000000000E+00  0.99999998245E-14  0.12500000000E+03  0.12500000000E+03 0.  0.
        -13    1    3    3    0    0 -0.28663627520E+02 -0.59360083932E+01 -0.24659348680E+02  0.38274461193E+02  0.10566000000E+00 0.  1.
         23    2    1    0    0    0  0.17943761822E+02 -0.22730816190E+02 -0.23294027098E+02  0.87834420609E+02  0.79583950344E+02 0.  0.
         13    1    3    3    0    0  0.46607389342E+02 -0.16794807797E+02  0.13653215824E+01  0.49559959416E+02  0.10566000000E+00 0. -1.
         22    1    1    0    0    0 -0.17943761822E+02  0.22730816190E+02  0.23294027098E+02  0.37165579391E+02  0.00000000000E+00 0. -1.
</event>
<event>
 5    1  0.6924836E-004  0.9118800E+02  0.7818608E-02  0.1130116E+00
         25   -1    0    0    0    0  0.00000000000E+00  0.00000000000E+00  0.99999998245E-14  0.12500000000E+03  0.12500000000E+03 0.  0.
        -13    1    3    3    0    0 -0.46415925229E+02 -0.98161458521E+01  0.23415163139E+02  0.52906293228E+02  0.10566000000E+00 0. -1.
         23    2    1    0    0    0 -0.73819140774E+01 -0.24948648729E+02  0.56988381097E+01  0.98365351802E+02  0.94690749023E+02 0.  0.
         13    1    3    3    0    0  0.39034011152E+02 -0.15132502876E+02 -0.17716325029E+02  0.45459058574E+02  0.10566000000E+00 0.  1.
         22    1    1    0    0    0  0.73819140774E+01  0.24948648729E+02 -0.56988381097E+01  0.26634648198E+02  0.00000000000E+00 0. -1.
</event>
<event>
 5    1  0.6924836E-004  0.9118800E+02  0.7818608E-02  0.1130116E+00
         25   -1    0    0    0    0  0.00000000000E+00  0.00000000000E+00  0.99999998245E-14  0.12500000000E+03  0.12500000000E+03 0.  0.
        -13    1    3    3    0    0  0.34732064616E+02 -0.21609572375E+02  0.17506681736E+02  0.44494774976E+02  0.10566000000E+00 0.  1.
         23    2    1    0    0    0  0.15550546535E+02  0.52580847985E+01 -0.22995522730E+02  0.96746486609E+02  0.92529031402E+02 0.  0.
         13    1    3    3    0    0 -0.19181518081E+02  0.26867657174E+02 -0.40502204466E+02  0.52251711633E+02  0.10566000000E+00 0. -1.
         22    1    1    0    0    0 -0.15550546535E+02 -0.52580847985E+01  0.22995522730E+02  0.28253513391E+02  0.00000000000E+00 0. -1.
</event>
<event>
 5    1  0.6924836E-004  0.9118800E+02  0.7818608E-02  0.1130116E+00
         25   -1    0    0    0    0  0.00000000000E+00  0.00000000000E+00  0.99999998245E-14  0.12500000000E+03  0.12500000000E+03 0.  0.
        -13    1    3    3    0    0  0.29768038088E+02  0.46642630104E+02  0.41903781021E+01  0.55490913377E+02  0.10566000000E+00 0.  1.
         23    2    1    0    0    0  0.16255262027E+02  0.11613614441E+01  0.13495204384E+02  0.10384101029E+03  0.10166244426E+03 0.  0.
         13    1    3    3    0    0 -0.13512776061E+02 -0.45481268660E+02  0.93048262819E+01  0.48350096918E+02  0.10566000000E+00 0. -1.
         22    1    1    0    0    0 -0.16255262027E+02 -0.11613614441E+01 -0.13495204384E+02  0.21158989705E+02  0.00000000000E+00 0.  1.
</event>
<event>
 5    1  0.6924836E-004  0.9118800E+02  0.7818608E-02  0.1130116E+00
         25   -1    0    0    0    0  0.00000000000E+00  0.00000000000E+00  0.99999998245E-14  0.12500000000E+03  0.12500000000E+03 0.  0.
        -13    1    3    3    0    0  0.25767047450E+02  0.28660312166E+02 -0.19968863708E+02  0.43406461610E+02  0.10566000000E+00 0. -1.
         23    2    1    0    0    0  0.21343782618E+02 -0.19526767601E+02  0.78956168506E+00  0.96060837658E+02  0.91598086304E+02 0.  0.
         13    1    3    3    0    0 -0.44232648317E+01 -0.48187079766E+02  0.20758425393E+02  0.52654376048E+02  0.10566000000E+00 0.  1.
         22    1    1    0    0    0 -0.21343782618E+02  0.19526767601E+02 -0.78956168506E+00  0.28939162342E+02  0.00000000000E+00 0. -1.
</event>
<event>
 5    1  0.6924836E-004  0.9118800E+02  0.7818608E-02  0.1130116E+00
         25   -1    0    0    0    0  0.00000000000E+00  0.00000000000E+00  0.99999998245E-14  0.12500000000E+03  0.12500000000E+03 0.  0.
        -13    1    3    3    0    0  0.44716916231E+02 -0.20865041544E+02  0.23943274689E+02  0.54847462318E+02  0.10566000000E+00 0. -1.
         23    2    1    0    0    0  0.14393901963E+02 -0.24489745550E+02 -0.40878883147E+01  0.96300820888E+02  0.91924997809E+02 0.  0.
         13    1    3    3    0    0 -0.30323014268E+02 -0.36247040056E+01 -0.28031163003E+02  0.41453358571E+02  0.10566000000E+00 0.  1.
         22    1    1    0    0    0 -0.14393901963E+02  0.24489745550E+02  0.40878883147E+01  0.28699179112E+02  0.00000000000E+00 0. -1.
</event>
<event>
 5    1  0.6924836E-004  0.9118800E+02  0.7818608E-02  0.1130116E+00
         25   -1    0    0    0    0  0.00000000000E+00  0.00000000000E+00  0.99999998245E-14  0.12500000000E+03  0.12500000000E+03 0.  0.
        -13    1    3    3    0    0  0.23318608287E+02  0.29900344964E+02  0.25570906193E+02  0.45734784672E+02  0.10566000000E+00 0.  1.
         23    2    1    0    0    0  0.53161145394E+01  0.20375781958E+02 -0.20192122390E+02  0.95825432809E+02  0.91276274037E+02 0.  0.
         13    1    3    3    0    0 -0.18002493747E+02 -0.95245630068E+01 -0.45763028583E+02  0.50090648137E+02  0.10566000000E+00 0. -1.
         22    1    1    0    0    0 -0.53161145394E+01 -0.20375781958E+02  0.20192122390E+02  0.29174567191E+02  0.00000000000E+00 0. -1.
</event>
<event>
 5    1  0.6924836E-004  0.9118800E+02  0.7818608E-02  0.1130116E+00
         25   -1    0    0    0    0  0.00000000000E+00  0.00000000000E+00  0.99999998245E-14  0.12500000000E+03  0.12500000000E+03 0.  0.
        -13    1    3    3    0    0 -0.96308141278E+01 -0.50500737359E+02 -0.10281756622E+02  0.52429025719E+02  0.10566000000E+00 0.  1.
         23    2    1    0    0    0 -0.26472913068E+02 -0.12445988521E+02 -0.10125173213E+02  0.94044598385E+02  0.88803995384E+02 0.  0.
         13    1    3    3    0    0 -0.16842098940E+02  0.38054748838E+02  0.15658340914E+00  0.41615572665E+02  0.10566000000E+00 0. -1.
         22    1    1    0    0    0  0.26472913068E+02  0.12445988521E+02  0.10125173213E+02  0.30955401615E+02  0.00000000000E+00 0.  1.
</event>
<event>
 5    1  0.6924836E-004  0.9118800E+02  0.7818608E-02  0.1130116E+00
         25   -1    0    0    0    0  0.00000000000E+00  0.00000000000E+00  0.99999998245E-14  0.12500000000E+03  0.12500000000E+03 0.  0.
        -13    1    3    3    0    0  0.57095328002E+02 -0.86987577581E+01  0.23476554851E+02  0.62343441178E+02  0.10566000000E+00 0.  1.
         23    2    1    0    0    0  0.25478187993E+02 -0.19862378848E+01  0.13048236316E+02  0.96306103867E+02  0.91932181345E+02 0.  0.
         13    1    3    3    0    0 -0.31617140009E+02  0.67125198733E+01 -0.10428318536E+02  0.33962662689E+02  0.10566000000E+00 0. -1.
         22    1    1    0    0    0 -0.25478187993E+02  0.19862378848E+01 -0.13048236316E+02  0.28693896133E+02  0.00000000000E+00 0.  1.
</event>
<event>
 5    1  0.6924836E-004  0.9118800E+02  0.7818608E-02  0.1130116E+00
         25   -1    0    0    0    0  0.00000000000E+00  0.00000000000E+00  0.99999998245E-14  0.12500000000E+03  0.12500000000E+03 0.  0.
        -13    1    3    3    0    0  0.82776790542E+01 -0.35265950256E+02  0.13780486504E+02  0.38757195336E+02  0.10566000000E+00 0.  1.
         23    2    1    0    0    0 -0.30778615936E+02  0.20451873075E+01  0.16942951224E+01  0.94107013320E+02  0.88891806877E+02 0.  0.
         13    1    3    3    0    0 -0.39056294990E+02  0.37311137563E+02 -0.12086191382E+02  0.55349817984E+02  0.10566000000E+00 0. -1.
         22    1    1    0    0    0  0.30778615936E+02 -0.20451873075E+01 -0.16942951224E+01  0.30892986680E+02  0.00000000000E+00 0. -1.
</event>
<event>
 5    1  0.6924836E-004  0.9118800E+02  0.7818608E-02  0.1130116E+00
         25   -1    0    0    0    0  0.00000000000E+00  0.00000000000E+00  0.99999998245E-14  0.12500000000E+03  0.12500000000E+03 0.  0.
        -13    1    3    3    0    0  0.71439250451E+01  0.29428870340E+02 -0.39632513876E+02  0.49878265755E+02  0.10566000000E+00 0. -1.
         23    2    1    0    0    0 -0.14087974118E+02 -0.83070195420E+01 -0.24091204825E+02  0.95881900159E+02  0.91353571576E+02 0.  0.
         13    1    3    3    0    0 -0.21231899163E+02 -0.37735889882E+02  0.15541309051E+02  0.46003634404E+02  0.10566000000E+00 0.  1.
         22    1    1    0    0    0  0.14087974118E+02  0.83070195420E+01  0.24091204825E+02  0.29118099841E+02  0.00000000000E+00 0.  1.
</event>
<event>
 5    1  0.6924836E-004  0.9118800E+02  0.7818608E-02  0.1130116E+00
         25   -1    0    0    0    0  0.00000000000E+00  0.00000000000E+00  0.99999998245E-14  0.12500000000E+03  0.12500000000E+03 0.  0.
        -13    1    3    3    0    0 -0.21731413593E+01  0.18669907913E+02 -0.22249136299E+02  0.29125988995E+02  0.10566000000E+00 0.  1.
         23    2    1    0    0    0 -0.40668281612E+02 -0.17830929939E+01  0.96769295154E+01  0.83158256313E+02  0.71864901574E+02 0.  0.
         13    1    3    3    0    0 -0.38495140253E+02 -0.20453000907E+02  0.31926065814E+02  0.54032267319E+02  0.10566000000E+00 0. -1.
         22    1    1    0    0    0  0.40668281612E+02  0.17830929939E+01 -0.96769295154E+01  0.41841743687E+02  0.00000000000E+00 0. -1.
</event>
<event>
 5    1  0.6924836E-004  0.9118800E+02  0.7818608E-02  0.1130116E+00
         25   -1    0    0    0    0  0.00000000000E+00  0.00000000000E+00  0.99999998245E-14  0.12500000000E+03  0.12500000000E+03 0.  0.
        -13    1    3    3    0    0 -0.85089549798E+00  0.23621699336E+02 -0.51100275102E+02  0.56302379898E+02  0.10566000000E+00 0. -1.
         23    2    1    0    0    0  0.10731710771E+02 -0.52712528614E+01 -0.26326372490E+02  0.96085754181E+02  0.91632082511E+02 0.  0.
         13    1    3    3    0    0  0.11582606269E+02 -0.28892952197E+02  0.24773902612E+02  0.39783374283E+02  0.10566000000E+00 0.  1.
         22    1    1    0    0    0 -0.10731710771E+02  0.52712528614E+01  0.26326372490E+02  0.28914245819E+02  0.00000000000E+00 0. -1.
</event>
<event>
 5    1  0.6924836E-004  0.9118800E+02  0.7818608E-02  0.1130116E+00
         25   -1    0    0    0    0  0.00000000000E+00  0.00000000000E+00  0.99999998245E-14  0.12500000000E+03  0.12500000000E+03 0.  0.
        -13    1    3    3    0    0 -0.30024757396E+02 -0.15519134385E+02 -0.23958326599E+02  0.41428760134E+02  0.10566000000E+00 0.  1.
         23    2    1    0    0    0  0.11101230669E+02  0.17601725467E+02 -0.22638456842E+02  0.94250076587E+02  0.89092755859E+02 0.  0.
         13    1    3    3    0    0  0.41125988065E+02  0.33120859851E+02  0.13198697570E+01  0.52821316453E+02  0.10566000000E+00 0. -1.
         22    1    1    0    0    0 -0.11101230669E+02 -0.17601725467E+02  0.22638456842E+02  0.30749923413E+02  0.00000000000E+00 0.  1.
</event>
<event>
 5    1  0.6924836E-004  0.9118800E+02  0.7818608E-02  0.1130116E+00
         25   -1    0    0    0    0  0.00000000000E+00  0.00000000000E+00  0.99999998245E-14  0.12500000000E+03  0.12500000000E+03 0.  0.
        -13    1    3    3    0    0 -0.54583718054E+02  0.79249500022E+01 -0.20228210728E+02  0.58748436426E+02  0.10566000000E+00 0.  1.
         23    2    1    0    0    0 -0.29213388299E+02 -0.54275168360E+01  0.22819132320E+01  0.95199209357E+02  0.90414613528E+02 0.  0.
         13    1    3    3    0    0  0.25370329755E+02 -0.13352466838E+02  0.22510123960E+02  0.36450772931E+02  0.10566000000E+00 0. -1.
         22    1    1    0    0    0  0.29213388299E+02  0.54275168360E+01 -0.22819132320E+01  0.29800790643E+02  0.00000000000E+00 0.  1.
</event>
<event>
 5    1  0.6924836E-004  0.9118800E+02  0.7818608E-02  0.1130116E+00
         25   -1    0    0    0    0  0.00000000000E+00  0.00000000000E+00  0.99999998245E-14  0.12500000000E+03  0.12500000000E+03 0.  0.
        -13    1    3    3    0    0 -0.39580234585E+02 -0.13407419298E+02  0.19293264204E+02  0.46028198637E+02  0.10566000000E+00 0. -1.
         23    2    1    0    0    0 -0.44691913916E+01  0.21382173978E+02  0.19886273533E+02  0.95459605440E+02  0.90773902418E+02 0.  0.
         13    1    3    3    0    0  0.35111043194E+02  0.34789593276E+02  0.59300932844E+00  0.49431406803E+02  0.10566000000E+00 0.  1.
         22    1    1    0    0    0  0.44691913916E+01 -0.21382173978E+02 -0.19886273533E+02  0.29540394560E+02  0.00000000000E+00 0.  1.
</event>
<event>
 5    1  0.6924836E-004  0.9118800E+02  0.7818608E-02  0.1130116E+00
         25   -1    0    0    0    0  0.00000000000E+00  0.00000000000E+00  0.99999998245E-14  0.12500000000E+03  0.12500000000E+03 0.  0.
        -13    1    3    3    0    0  0.31023154384E+02 -0.12260870506E+02 -0.10931037313E+02  0.35103615117E+02  0.10566000000E+00 0. -1.
         23    2    1    0    0    0 -0.20346864992E+02  0.20026839317E+02 -0.39626293257E+01  0.96176890535E+02  0.91756322038E+02 0.  0.
         13    1    3    3    0    0 -0.51370019376E+02  0.32287709824E+02  0.69684079877E+01  0.61073275418E+02  0.10566000000E+00 0.  1.
         22    1    1    0    0    0  0.20346864992E+02 -0.20026839317E+02  0.39626293257E+01  0.28823109465E+02  0.00000000000E+00 0.  1.
</event>
<event>
 5    1  0.6924836E-004  0.9118800E+02  0.7818608E-02  0.1130116E+00
         25   -1    0    0    0    0  0.00000000000E+00  0.00000000000E+00  0.99999998245E-14  0.12500000000E+03  0.12500000000E+03 0.  0.
        -13    1    3    3    0    0  0.14617143474E+02 -0.30934743725E+02 -0.37811211896E+02  0.50993314873E+02  0.10566000000E+00 0. -1.
         23    2    1    0    0    0  0.19661027729E+02  0.93849027817E+01 -0.20237231029E+02  0.95264870417E+02  0.90505345723E+02 0.  0.
         13    1    3    3    0    0  0.50438842555E+01  0.40319646507E+02  0.17573980867E+02  0.44271555545E+02  0.10566000000E+00 0.  1.
         22    1    1    0    0    0 -0.19661027729E+02 -0.93849027817E+01  0.20237231029E+02  0.29735129583E+02  0.00000000000E+00 0. -1.
</event>
<event>
 5    1  0.6924836E-004  0.9118800E+02  0.7818608E-02  0.1130116E+00
         25   -1    0    0    0    0  0.00000000000E+00  0.00000000000E+00  0.99999998245E-14  0.12500000000E+03  0.12500000000E+03 0.  0.
        -13    1    3    3    0    0 -0.26020769442E+02 -0.30194283580E+02  0.33149068474E+02  0.51842522200E+02  0.10566000000E+00 0. -1.
         23    2    1    0    0    0 -0.51198201608E+01  0.88922672512E+01  0.26398256765E+02  0.96677695440E+02  0.92436052815E+02 0.  0.
         13    1    3    3    0    0  0.20900949282E+02  0.39086550831E+02 -0.67508117088E+01  0.44835173240E+02  0.10566000000E+00 0.  1.
         22    1    1    0    0    0  0.51198201608E+01 -0.88922672512E+01 -0.26398256765E+02  0.28322304560E+02  0.00000000000E+00 0. -1.
</event>
<event>
 5    1  0.6924836E-004  0.9118800E+02  0.7818608E-02  0.1130116E+00
         25   -1    0    0    0    0  0.00000000000E+00  0.00000000000E+00  0.99999998245E-14  0.12500000000E+03  0.12500000000E+03 0.  0.
        -13    1    3    3    0    0 -0.31407597355E+02  0.40536573422E+01 -0.21721675733E+02  0.38401974821E+02  0.10566000000E+00 0.  1.
         23    2    1    0    0    0  0.75115805244E+01  0.29343770137E+02  0.81931395425E+01  0.93621532488E+02  0.88206480045E+02 0.  0.
         13    1    3    3    0    0  0.38919177879E+02  0.25290112795E+02  0.29914815275E+02  0.55219557667E+02  0.10566000000E+00 0. -1.
         22    1    1    0    0    0 -0.75115805244E+01 -0.29343770137E+02 -0.81931395425E+01  0.31378467512E+02  0.00000000000E+00 0. -1.
</event>
<event>
 5    1  0.6924836E-004  0.9118800E+02  0.7818608E-02  0.1130116E+00
         25   -1    0    0    0    0  0.00000000000E+00  0.00000000000E+00  0.99999998245E-14  0.12500000000E+03  0.12500000000E+03 0.  0.
        -13    1    3    3    0    0 -0.26725501493E+02 -0.18599227997E+02  0.15791757521E+02  0.36188043354E+02  0.10566000000E+00 0. -1.
         23    2    1    0    0    0  0.12762745577E+02  0.25227155134E+02  0.28352987553E+01  0.96586342195E+02  0.92312434421E+02 0.  0.
         13    1    3    3    0    0  0.39488247070E+02  0.43826383132E+02 -0.12956458766E+02  0.60398298841E+02  0.10566000000E+00 0.  1.
         22    1    1    0    0    0 -0.12762745577E+02 -0.25227155134E+02 -0.28352987553E+01  0.28413657805E+02  0.00000000000E+00 0.  1.
</event>
<event>
 5    1  0.6924836E-004  0.9118800E+02  0.7818608E-02  0.1130116E+00
         25   -1    0    0    0    0  0.00000000000E+00  0.00000000000E+00  0.99999998245E-14  0.12500000000E+03  0.12500000000E+03 0.  0.
        -13    1    3    3    0    0 -0.32367216546E+02 -0.94433538736E+01 -0.47896027316E+02  0.58573494313E+02  0.10566000000E+00 0.  1.
         23    2    1    0    0    0 -0.95380647628E+01 -0.18820349421E+02 -0.18667643566E+02  0.96828007737E+02  0.92639095064E+02 0.  0.
         13    1    3    3    0    0  0.22829151783E+02 -0.93769955477E+01  0.29228383750E+02  0.38254513424E+02  0.10566000000E+00 0. -1.
         22    1    1    0    0    0  0.95380647628E+01  0.18820349421E+02  0.18667643566E+02  0.28171992263E+02  0.00000000000E+00 0.  1.
</event>
<event>
 5    1  0.6924836E-004  0.9118800E+02  0.7818608E-02  0.1130116E+00
         25   -1    0    0    0    0  0.00000000000E+00  0.00000000000E+00  0.99999998245E-14  0.12500000000E+03  0.12500000000E+03 0.  0.
        -13    1    3    3    0    0 -0.75896424634E+01 -0.32510758661E+02  0.34607613465E+02  0.48085862529E+02  0.10566000000E+00 0. -1.
         23    2    1    0    0    0 -0.19588952610E+02  0.94068277185E+01  0.23320082994E+02  0.93124590309E+02  0.87499414726E+02 0.  0.
         13    1    3    3    0    0 -0.11999310147E+02  0.41917586380E+02 -0.11287530470E+02  0.45038727780E+02  0.10566000000E+00 0.  1.
         22    1    1    0    0    0  0.19588952610E+02 -0.94068277185E+01 -0.23320082994E+02  0.31875409691E+02  0.00000000000E+00 0.  1.
</event>
<event>
 5    1  0.6924836E-004  0.9118800E+02  0.7818608E-02  0.1130116E+00
         25   -1    0    0    0    0  0.00000000000E+00  0.00000000000E+00  0.99999998245E-14  0.12500000000E+03  0.12500000000E+03 0.  0.
        -13    1    3    3    0    0 -0.46197139454E+02 -0.15386180712E+02  0.12929749894E+02  0.50379557828E+02  0.10566000000E+00 0. -1.
         23    2    1    0    0    0 -0.91265145488E+01 -0.16929352874E+02 -0.17980779302E+02  0.98671219534E+02  0.95093663740E+02 0.  0.
         13    1    3    3    0    0  0.37070624905E+02 -0.15431721617E+01 -0.30910529195E+02  0.48291661706E+02  0.10566000000E+00 0.  1.
         22    1    1    0    0    0  0.91265145488E+01  0.16929352874E+02  0.17980779302E+02  0.26328780466E+02  0.00000000000E+00 0. -1.
</event>
<event>
 5    1  0.6924836E-004  0.9118800E+02  0.7818608E-02  0.1130116E+00
         25   -1    0    0    0    0  0.00000000000E+00  0.00000000000E+00  0.99999998245E-14  0.12500000000E+03  0.12500000000E+03 0.  0.
        -13    1    3    3    0    0  0.33754936087E+02 -0.46919217446E+01 -0.33434040280E+01  0.34243238083E+02  0.10566000000E+00 0.  1.
         23    2    1    0    0    0 -0.18209662414E+02 -0.20974358808E+02  0.17068062957E+02  0.92398860361E+02  0.86456434638E+02 0.  0.
         13    1    3    3    0    0 -0.51964598500E+02 -0.16282437064E+02  0.20411466985E+02  0.58155622278E+02  0.10566000000E+00 0. -1.
         22    1    1    0    0    0  0.18209662414E+02  0.20974358808E+02 -0.17068062957E+02  0.32601139639E+02  0.00000000000E+00 0. -1.
</event>
<event>
 5    1  0.6924836E-004  0.9118800E+02  0.7818608E-02  0.1130116E+00
         25   -1    0    0    0    0  0.00000000000E+00  0.00000000000E+00  0.99999998245E-14  0.12500000000E+03  0.12500000000E+03 0.  0.
        -13    1    3    3    0    0  0.73205320849E+00 -0.46456671624E+02  0.30151525249E+02  0.55388481467E+02  0.10566000000E+00 0.  1.
         23    2    1    0    0    0  0.86324126589E+01 -0.80291395328E+01  0.27931275719E+02  0.94682648644E+02  0.89697615135E+02 0.  0.
         13    1    3    3    0    0  0.79003594504E+01  0.38427532092E+02 -0.22202495303E+01  0.39294167177E+02  0.10566000000E+00 0. -1.
         22    1    1    0    0    0 -0.86324126589E+01  0.80291395328E+01 -0.27931275719E+02  0.30317351356E+02  0.00000000000E+00 0.  1.
</event>
<event>
 5    1  0.6924836E-004  0.9118800E+02  0.7818608E-02  0.1130116E+00
         25   -1    0    0    0    0  0.00000000000E+00  0.00000000000E+00  0.99999998245E-14  0.12500000000E+03  0.12500000000E+03 0.  0.
        -13    1    3    3    0    0 -0.11427824770E+01 -0.31556527158E+02  0.31941034243E+01  0.31738522631E+02  0.10566000000E+00 0. -1.
         23    2    1    0    0    0  0.71503102975E+01  0.30126081082E+02  0.15622587000E+01  0.93997607335E+02  0.88737826398E+02 0.  0.
         13    1    3    3    0    0  0.82930927745E+01  0.61682608240E+02 -0.16318447243E+01  0.62259084705E+02  0.10566000000E+00 0.  1.
         22    1    1    0    0    0 -0.71503102975E+01 -0.30126081082E+02 -0.15622587000E+01  0.31002392665E+02  0.00000000000E+00 0.  1.
</event>
<event>
 5    1  0.6924836E-004  0.9118800E+02  0.7818608E-02  0.1130116E+00
         25   -1    0    0    0    0  0.00000000000E+00  0.00000000000E+00  0.99999998245E-14  0.12500000000E+03  0.12500000000E+03 0.  0.
        -13    1    3    3    0    0 -0.26171524901E+02  0.12382044240E+02  0.43449853240E+02  0.52212686636E+02  0.10566000000E+00 0.  1.
         23    2    1    0    0    0  0.20165236483E+01  0.26466065104E+02  0.15966384152E+02  0.94025100604E+02  0.88776546177E+02 0.  0.
         13    1    3    3    0    0  0.28188048549E+02  0.14084020864E+02 -0.27483469088E+02  0.41812413968E+02  0.10566000000E+00 0. -1.
         22    1    1    0    0    0 -0.20165236483E+01 -0.26466065104E+02 -0.15966384152E+02  0.30974899396E+02  0.00000000000E+00 0. -1.
</event>
<event>
 5    1  0.6924836E-004  0.9118800E+02  0.7818608E-02  0.1130116E+00
         25   -1    0    0    0    0  0.00000000000E+00  0.00000000000E+00  0.99999998245E-14  0.12500000000E+03  0.12500000000E+03 0.  0.
        -13    1    3    3    0    0 -0.42791607127E+02 -0.14314311281E+02  0.35477622091E+02  0.57399424920E+02  0.10566000000E+00 0.  1.
         23    2    1    0    0    0 -0.25483711536E+02  0.87021661335E+01  0.87603294565E+01  0.96682326698E+02  0.92442315389E+02 0.  0.
         13    1    3    3    0    0  0.17307895591E+02  0.23016477414E+02 -0.26717292634E+02  0.39282901778E+02  0.10566000000E+00 0. -1.
         22    1    1    0    0    0  0.25483711536E+02 -0.87021661335E+01 -0.87603294565E+01  0.28317673302E+02  0.00000000000E+00 0.  1.
</event>
<event>
 5    1  0.6924836E-004  0.9118800E+02  0.7818608E-02  0.1130116E+00
         25   -1    0    0    0    0  0.00000000000E+00  0.00000000000E+00  0.99999998245E-14  0.12500000000E+03  0.12500000000E+03 0.  0.
        -13    1    3    3    0    0  0.11064136093E+02 -0.45230579656E+02  0.97429703763E+00  0.46574465775E+02  0.10566000000E+00 0.  1.
         23    2    1    0    0    0  0.23927743264E+02 -0.10945805329E+01 -0.16670827798E+02  0.95816931215E+02  0.91264630628E+02 0.  0.
         13    1    3    3    0    0  0.12863607171E+02  0.44135999123E+02 -0.17645124836E+02  0.49242465440E+02  0.10566000000E+00 0. -1.
         22    1    1    0    0    0 -0.23927743264E+02  0.10945805329E+01  0.16670827798E+02  0.29183068785E+02  0.00000000000E+00 0.  1.
</event>
<event>
 5    1  0.6924836E-004  0.9118800E+02  0.7818608E-02  0.1130116E+00
         25   -1    0    0    0    0  0.00000000000E+00  0.00000000000E+00  0.99999998245E-14  0.12500000000E+03  0.12500000000E+03 0.  0.
        -13    1    3    3    0    0  0.14649168061E+02  0.56094998145E+02 -0.16485353965E+02  0.60274580058E+02  0.10566000000E+00 0.  1.
         23    2    1    0    0    0  0.17601036182E+02  0.21127665580E+02 -0.71365761109E+01  0.96590398698E+02  0.92317927157E+02 0.  0.
         13    1    3    3    0    0  0.29518681205E+01 -0.34967332565E+02  0.93487778542E+01  0.36315818640E+02  0.10566000000E+00 0. -1.
         22    1    1    0    0    0 -0.17601036182E+02 -0.21127665580E+02  0.71365761109E+01  0.28409601302E+02  0.00000000000E+00 0.  1.
</event>
<event>
 5    1  0.6924836E-004  0.9118800E+02  0.7818608E-02  0.1130116E+00
         25   -1    0    0    0    0  0.00000000000E+00  0.00000000000E+00  0.99999998245E-14  0.12500000000E+03  0.12500000000E+03 0.  0.
        -13    1    3    3    0    0  0.18471990697E+02  0.35131805946E+01 -0.47503860585E+02  0.51089967829E+02  0.10566000000E+00 0.  1.
         23    2    1    0    0    0  0.19907002115E+01  0.25994568210E+02 -0.11810120654E+02  0.96379038912E+02  0.92031297545E+02 0.  0.
         13    1    3    3    0    0 -0.16481290486E+02  0.22481387615E+02  0.35693739931E+02  0.45289071083E+02  0.10566000000E+00 0. -1.
         22    1    1    0    0    0 -0.19907002115E+01 -0.25994568210E+02  0.11810120654E+02  0.28620961088E+02  0.00000000000E+00 0.  1.
</event>
<event>
 5    1  0.6924836E-004  0.9118800E+02  0.7818608E-02  0.1130116E+00
         25   -1    0    0    0    0  0.00000000000E+00  0.00000000000E+00  0.99999998245E-14  0.12500000000E+03  0.12500000000E+03 0.  0.
        -13    1    3    3    0    0  0.22737359685E+02 -0.39201180410E+02 -0.29318374839E+02  0.53974978816E+02  0.10566000000E+00 0.  1.
         23    2    1    0    0    0 -0.72790922944E+01 -0.28302149065E+02 -0.25115035250E+01  0.95669052585E+02  0.91061864390E+02 0.  0.
         13    1    3    3    0    0 -0.30016451980E+02  0.10899031345E+02  0.26806871315E+02  0.41694073769E+02  0.10566000000E+00 0. -1.
         22    1    1    0    0    0  0.72790922944E+01  0.28302149065E+02  0.25115035250E+01  0.29330947415E+02  0.00000000000E+00 0.  1.
</event>
<event>
 5    1  0.6924836E-004  0.9118800E+02  0.7818608E-02  0.1130116E+00
         25   -1    0    0    0    0  0.00000000000E+00  0.00000000000E+00  0.99999998245E-14  0.12500000000E+03  0.12500000000E+03 0.  0.
        -13    1    3    3    0    0  0.48096626498E+02 -0.34073961085E+02  0.19417254318E+02  0.62059336395E+02  0.10566000000E+00 0. -1.
         23    2    1    0    0    0  0.18980535622E+02 -0.18685439643E+02  0.11838451668E+02  0.95852867636E+02  0.91313837446E+02 0.  0.
         13    1    3    3    0    0 -0.29116090876E+02  0.15388521442E+02 -0.75788026499E+01  0.33793531241E+02  0.10566000000E+00 0.  1.
         22    1    1    0    0    0 -0.18980535622E+02  0.18685439643E+02 -0.11838451668E+02  0.29147132364E+02  0.00000000000E+00 0. -1.
</event>
<event>
 5    1  0.6924836E-004  0.9118800E+02  0.7818608E-02  0.1130116E+00
         25   -1    0    0    0    0  0.00000000000E+00  0.00000000000E+00  0.99999998245E-14  0.12500000000E+03  0.12500000000E+03 0.  0.
        -13    1    3    3    0    0  0.19382107647E+02 -0.38919602276E+02 -0.37968577437E+02  0.57723700287E+02  0.10566000000E+00 0. -1.
         23    2    1    0    0    0 -0.29353343548E+01 -0.27759646754E+02 -0.96558268501E+01  0.95462749488E+02  0.90778231817E+02 0.  0.
         13    1    3    3    0    0 -0.22317442002E+02  0.11159955522E+02  0.28312750587E+02  0.37739049201E+02  0.10566000000E+00 0.  1.
         22    1    1    0    0    0  0.29353343548E+01  0.27759646754E+02  0.96558268501E+01  0.29537250512E+02  0.00000000000E+00 0. -1.
</event>
<event>
 4    1  0.6924836E-004  0.9118800E+02  0.7818608E-02  0.1130116E+00
         25   -1    0    0    0    0  0.00000000000E+00  0.00000000000E+00  0.99999998245E-14  0.12500000000E+03  0.12500000000E+03 0.  0.
        -13    1    1    0    0    0  0.37060757265E+02 -0.32247967701E+01 -0.29362475062E+02  0.47392669782E+02  0.10566000000E+00 0.  1.
         13    1    1    0    0    0  0.15053165917E+02 -0.32496684182E+01  0.18340137581E+02  0.23948485537E+02  0.10566000000E+00 0. -1.
         22    1    1    0    0    0 -0.52113923183E+02  0.64744651883E+01  0.11022337481E+02  0.53658844681E+02  0.00000000000E+00 0.  1.
</event>
<event>
 5    1  0.6924836E-004  0.9118800E+02  0.7818608E-02  0.1130116E+00
         25   -1    0    0    0    0  0.00000000000E+00  0.00000000000E+00  0.99999998245E-14  0.12500000000E+03  0.12500000000E+03 0.  0.
        -13    1    3    3    0    0  0.17313244620E+02  0.24977874870E+02 -0.36615726677E+02  0.47585347287E+02  0.10566000000E+00 0.  1.
         23    2    1    0    0    0  0.28511798620E+02 -0.79153189950E+01 -0.41855208901E+01  0.95115329675E+02  0.90298573735E+02 0.  0.
         13    1    3    3    0    0  0.11198554000E+02 -0.32893193865E+02  0.32430205787E+02  0.47529982387E+02  0.10566000000E+00 0. -1.
         22    1    1    0    0    0 -0.28511798620E+02  0.79153189950E+01  0.41855208901E+01  0.29884670325E+02  0.00000000000E+00 0. -1.
</event>
<event>
 5    1  0.6924836E-004  0.9118800E+02  0.7818608E-02  0.1130116E+00
         25   -1    0    0    0    0  0.00000000000E+00  0.00000000000E+00  0.99999998245E-14  0.12500000000E+03  0.12500000000E+03 0.  0.
        -13    1    3    3    0    0 -0.19529602876E+02  0.26240344771E+02  0.17769341338E+01  0.32758659026E+02  0.10566000000E+00 0. -1.
         23    2    1    0    0    0  0.17203196197E+02 -0.18239469919E+02  0.19643483860E+02  0.93148866889E+02  0.87534088915E+02 0.  0.
         13    1    3    3    0    0  0.36732799073E+02 -0.44479814690E+02  0.17866549726E+02  0.60390207863E+02  0.10566000000E+00 0.  1.
         22    1    1    0    0    0 -0.17203196197E+02  0.18239469919E+02 -0.19643483860E+02  0.31851133111E+02  0.00000000000E+00 0.  1.
</event>
<event>
 5    1  0.6924836E-004  0.9118800E+02  0.7818608E-02  0.1130116E+00
         25   -1    0    0    0    0  0.00000000000E+00  0.00000000000E+00  0.99999998245E-14  0.12500000000E+03  0.12500000000E+03 0.  0.
        -13    1    3    3    0    0 -0.20996460074E+02  0.38151180942E+02 -0.29917823865E+02  0.52834186772E+02  0.10566000000E+00 0. -1.
         23    2    1    0    0    0  0.15544322611E+02  0.12828526733E+02 -0.15511463864E+02  0.99567686405E+02  0.96264851328E+02 0.  0.
         13    1    3    3    0    0  0.36540782685E+02 -0.25322654209E+02  0.14406360001E+02  0.46733499633E+02  0.10566000000E+00 0.  1.
         22    1    1    0    0    0 -0.15544322611E+02 -0.12828526733E+02  0.15511463864E+02  0.25432313595E+02  0.00000000000E+00 0.  1.
</event>
<event>
 5    1  0.6924836E-004  0.9118800E+02  0.7818608E-02  0.1130116E+00
         25   -1    0    0    0    0  0.00000000000E+00  0.00000000000E+00  0.99999998245E-14  0.12500000000E+03  0.12500000000E+03 0.  0.
        -13    1    3    3    0    0 -0.27077790813E+02 -0.30230521493E+02  0.59266867219E+01  0.41014972444E+02  0.10566000000E+00 0.  1.
         23    2    1    0    0    0  0.17888435218E+02 -0.53733712011E+01  0.23195733568E+02  0.95218944136E+02  0.90441893136E+02 0.  0.
         13    1    3    3    0    0  0.44966226031E+02  0.24857150292E+02  0.17269046846E+02  0.54203971692E+02  0.10566000000E+00 0. -1.
         22    1    1    0    0    0 -0.17888435218E+02  0.53733712011E+01 -0.23195733568E+02  0.29781055864E+02  0.00000000000E+00 0. -1.
</event>
<event>
 5    1  0.6924836E-004  0.9118800E+02  0.7818608E-02  0.1130116E+00
         25   -1    0    0    0    0  0.00000000000E+00  0.00000000000E+00  0.99999998245E-14  0.12500000000E+03  0.12500000000E+03 0.  0.
        -13    1    3    3    0    0 -0.21427758542E+02  0.31545834078E+02 -0.24553528156E+02  0.45356095432E+02  0.10566000000E+00 0. -1.
         23    2    1    0    0    0  0.95297161145E+01  0.24306160806E+02  0.14038462965E+02  0.95357405904E+02  0.90633059509E+02 0.  0.
         13    1    3    3    0    0  0.30957474657E+02 -0.72396732725E+01  0.38591991121E+02  0.50001310472E+02  0.10566000000E+00 0.  1.
         22    1    1    0    0    0 -0.95297161145E+01 -0.24306160806E+02 -0.14038462965E+02  0.29642594096E+02  0.00000000000E+00 0.  1.
</event>
<event>
 5    1  0.6924836E-004  0.9118800E+02  0.7818608E-02  0.1130116E+00
         25   -1    0    0    0    0  0.00000000000E+00  0.00000000000E+00  0.99999998245E-14  0.12500000000E+03  0.12500000000E+03 0.  0.
        -13    1    3    3    0    0 -0.49284059473E+02  0.53924769491E+01  0.44947834280E+01  0.49781638863E+02  0.10566000000E+00 0.  1.
         23    2    1    0    0    0 -0.68866532971E+01  0.26659375690E+02 -0.37144347335E+00  0.97463001687E+02  0.93491980521E+02 0.  0.
         13    1    3    3    0    0  0.42397406176E+02  0.21266898741E+02 -0.48662269014E+01  0.47681362824E+02  0.10566000000E+00 0. -1.
         22    1    1    0    0    0  0.68866532971E+01 -0.26659375690E+02  0.37144347335E+00  0.27536998313E+02  0.00000000000E+00 0. -1.
</event>
<event>
 5    1  0.6924836E-004  0.9118800E+02  0.7818608E-02  0.1130116E+00
         25   -1    0    0    0    0  0.00000000000E+00  0.00000000000E+00  0.99999998245E-14  0.12500000000E+03  0.12500000000E+03 0.  0.
        -13    1    3    3    0    0  0.26188121000E+01  0.22076085059E+01  0.46851209260E+02  0.46976363049E+02  0.10566000000E+00 0.  1.
         23    2    1    0    0    0  0.14219273377E+02  0.25233736275E+02  0.57881687553E+01  0.95463038759E+02  0.90778630138E+02 0.  0.
         13    1    3    3    0    0  0.11600461277E+02  0.23026127770E+02 -0.41063040505E+02  0.48486675710E+02  0.10566000000E+00 0. -1.
         22    1    1    0    0    0 -0.14219273377E+02 -0.25233736275E+02 -0.57881687553E+01  0.29536961241E+02  0.00000000000E+00 0.  1.
</event>
<event>
 5    1  0.6924836E-004  0.9118800E+02  0.7818608E-02  0.1130116E+00
         25   -1    0    0    0    0  0.00000000000E+00  0.00000000000E+00  0.99999998245E-14  0.12500000000E+03  0.12500000000E+03 0.  0.
        -13    1    3    3    0    0 -0.18766952008E+02 -0.27550991374E+02  0.14927535843E+02  0.36525307716E+02  0.10566000000E+00 0. -1.
         23    2    1    0    0    0 -0.12561842235E+02  0.12976676266E+02 -0.25267230090E+02  0.93941556323E+02  0.88658835322E+02 0.  0.
         13    1    3    3    0    0  0.62051097731E+01  0.40527667640E+02 -0.40194765932E+02  0.57416248607E+02  0.10566000000E+00 0.  1.
         22    1    1    0    0    0  0.12561842235E+02 -0.12976676266E+02  0.25267230090E+02  0.31058443677E+02  0.00000000000E+00 0.  1.
</event>
<event>
 5    1  0.6924836E-004  0.9118800E+02  0.7818608E-02  0.1130116E+00
         25   -1    0    0    0    0  0.00000000000E+00  0.00000000000E+00  0.99999998245E-14  0.12500000000E+03  0.12500000000E+03 0.  0.
        -13    1    3    3    0    0 -0.77037573393E+01 -0.34705414876E+02  0.39512179771E+02  0.53151079135E+02  0.10566000000E+00 0. -1.
         23    2    1    0    0    0 -0.11914022972E+02  0.48809735595E+01  0.27339848287E+02  0.94780219216E+02  0.89833483757E+02 0.  0.
         13    1    3    3    0    0 -0.42102656330E+01  0.39586388436E+02 -0.12172331484E+02  0.41629140081E+02  0.10566000000E+00 0.  1.
         22    1    1    0    0    0  0.11914022972E+02 -0.48809735595E+01 -0.27339848287E+02  0.30219780784E+02  0.00000000000E+00 0. -1.
</event>
<event>
 5    1  0.6924836E-004  0.9118800E+02  0.7818608E-02  0.1130116E+00
         25   -1    0    0    0    0  0.00000000000E+00  0.00000000000E+00  0.99999998245E-14  0.12500000000E+03  0.12500000000E+03 0.  0.
        -13    1    3    3    0    0  0.29593404552E+02  0.22523003064E+02  0.14269824226E+02  0.39833331614E+02  0.10566000000E+00 0.  1.
         23    2    1    0    0    0 -0.20014758331E+02 -0.57037615888E+01  0.18618915564E+02  0.97075325175E+02  0.92972207104E+02 0.  0.
         13    1    3    3    0    0 -0.49608162882E+02 -0.28226764653E+02  0.43490913375E+01  0.57241993561E+02  0.10566000000E+00 0. -1.
         22    1    1    0    0    0  0.20014758331E+02  0.57037615888E+01 -0.18618915564E+02  0.27924674825E+02  0.00000000000E+00 0. -1.
</event>
<event>
 5    1  0.6924836E-004  0.9118800E+02  0.7818608E-02  0.1130116E+00
         25   -1    0    0    0    0  0.00000000000E+00  0.00000000000E+00  0.99999998245E-14  0.12500000000E+03  0.12500000000E+03 0.  0.
        -13    1    3    3    0    0  0.27260300841E+02  0.28153752388E+02 -0.18733249925E+02  0.43436201402E+02  0.10566000000E+00 0.  1.
         23    2    1    0    0    0  0.29847935562E+02 -0.42222520584E+01  0.15901854987E+02  0.90917810197E+02  0.84287914609E+02 0.  0.
         13    1    3    3    0    0  0.25876347207E+01 -0.32376004446E+02  0.34635104913E+02  0.47481608794E+02  0.10566000000E+00 0. -1.
         22    1    1    0    0    0 -0.29847935562E+02  0.42222520584E+01 -0.15901854987E+02  0.34082189803E+02  0.00000000000E+00 0. -1.
</event>
<event>
 5    1  0.6924836E-004  0.9118800E+02  0.7818608E-02  0.1130116E+00
         25   -1    0    0    0    0  0.00000000000E+00  0.00000000000E+00  0.99999998245E-14  0.12500000000E+03  0.12500000000E+03 0.  0.
        -13    1    3    3    0    0  0.31554252230E+01 -0.13539067094E+02  0.32269117053E+02  0.35136450099E+02  0.10566000000E+00 0. -1.
         23    2    1    0    0    0  0.18033159975E+02  0.80909666917E+01 -0.22002020633E+02  0.95423869208E+02  0.90724678572E+02 0.  0.
         13    1    3    3    0    0  0.14877734752E+02  0.21630033786E+02 -0.54271137687E+02  0.60287419109E+02  0.10566000000E+00 0.  1.
         22    1    1    0    0    0 -0.18033159975E+02 -0.80909666917E+01  0.22002020633E+02  0.29576130792E+02  0.00000000000E+00 0.  1.
</event>
<event>
 5    1  0.6924836E-004  0.9118800E+02  0.7818608E-02  0.1130116E+00
         25   -1    0    0    0    0  0.00000000000E+00  0.00000000000E+00  0.99999998245E-14  0.12500000000E+03  0.12500000000E+03 0.  0.
        -13    1    3    3    0    0 -0.29551431420E+02 -0.19562536822E+02 -0.29289988450E+02  0.45977108796E+02  0.10566000000E+00 0.  1.
         23    2    1    0    0    0  0.17173604599E+02 -0.20230217319E+02 -0.12862075907E+02  0.95510554696E+02  0.90844034884E+02 0.  0.
         13    1    3    3    0    0  0.46725036018E+02 -0.66768049723E+00  0.16427912543E+02  0.49533445900E+02  0.10566000000E+00 0. -1.
         22    1    1    0    0    0 -0.17173604599E+02  0.20230217319E+02  0.12862075907E+02  0.29489445304E+02  0.00000000000E+00 0.  1.
</event>
<event>
 5    1  0.6924836E-004  0.9118800E+02  0.7818608E-02  0.1130116E+00
         25   -1    0    0    0    0  0.00000000000E+00  0.00000000000E+00  0.99999998245E-14  0.12500000000E+03  0.12500000000E+03 0.  0.
        -13    1    3    3    0    0  0.14276636950E+02  0.20770492358E+02  0.57177590288E+02  0.62486188158E+02  0.10566000000E+00 0. -1.
         23    2    1    0    0    0  0.81047369384E+01  0.13368309613E+02  0.35642329192E+02  0.86079901169E+02  0.76778742451E+02 0.  0.
         13    1    3    3    0    0 -0.61719000115E+01 -0.74021827444E+01 -0.21535261096E+02  0.23593713011E+02  0.10566000000E+00 0.  1.
         22    1    1    0    0    0 -0.81047369384E+01 -0.13368309613E+02 -0.35642329192E+02  0.38920098831E+02  0.00000000000E+00 0. -1.
</event>
<event>
 5    1  0.6924836E-004  0.9118800E+02  0.7818608E-02  0.1130116E+00
         25   -1    0    0    0    0  0.00000000000E+00  0.00000000000E+00  0.99999998245E-14  0.12500000000E+03  0.12500000000E+03 0.  0.
        -13    1    3    3    0    0 -0.26780196928E+02 -0.45189269752E+02  0.31847891163E+02  0.61429214416E+02  0.10566000000E+00 0. -1.
         23    2    1    0    0    0 -0.52389761316E+01 -0.24832575705E+02  0.14593634525E+02  0.95724107944E+02  0.91137407171E+02 0.  0.
         13    1    3    3    0    0  0.21541220797E+02  0.20356694047E+02 -0.17254256638E+02  0.34294893528E+02  0.10566000000E+00 0.  1.
         22    1    1    0    0    0  0.52389761316E+01  0.24832575705E+02 -0.14593634525E+02  0.29275892056E+02  0.00000000000E+00 0. -1.
</event>
<event>
 5    1  0.6924836E-004  0.9118800E+02  0.7818608E-02  0.1130116E+00
         25   -1    0    0    0    0  0.00000000000E+00  0.00000000000E+00  0.99999998245E-14  0.12500000000E+03  0.12500000000E+03 0.  0.
        -13    1    3    3    0    0 -0.13498623388E+02  0.30500988544E+02  0.46466653501E+02  0.57198637983E+02  0.10566000000E+00 0. -1.
         23    2    1    0    0    0  0.70202249877E+01  0.30339796984E+01  0.27658062576E+02  0.96304059222E+02  0.91929401203E+02 0.  0.
         13    1    3    3    0    0  0.20518848376E+02 -0.27467008846E+02 -0.18808590925E+02  0.39105421238E+02  0.10566000000E+00 0.  1.
         22    1    1    0    0    0 -0.70202249877E+01 -0.30339796984E+01 -0.27658062576E+02  0.28695940778E+02  0.00000000000E+00 0. -1.
</event>
<event>
 5    1  0.6924836E-004  0.9118800E+02  0.7818608E-02  0.1130116E+00
         25   -1    0    0    0    0  0.00000000000E+00  0.00000000000E+00  0.99999998245E-14  0.12500000000E+03  0.12500000000E+03 0.  0.
        -13    1    3    3    0    0 -0.21378591574E+02 -0.13030159727E+02  0.56464835186E+02  0.61766641618E+02  0.10566000000E+00 0. -1.
         23    2    1    0    0    0 -0.14413633922E+02 -0.10479434969E+01  0.25552471188E+02  0.95643913540E+02  0.91027349654E+02 0.  0.
         13    1    3    3    0    0  0.69649576516E+01  0.11982216230E+02 -0.30912363998E+02  0.33877271922E+02  0.10566000000E+00 0.  1.
         22    1    1    0    0    0  0.14413633922E+02  0.10479434969E+01 -0.25552471188E+02  0.29356086460E+02  0.00000000000E+00 0. -1.
</event>
<event>
 5    1  0.6924836E-004  0.9118800E+02  0.7818608E-02  0.1130116E+00
         25   -1    0    0    0    0  0.00000000000E+00  0.00000000000E+00  0.99999998245E-14  0.12500000000E+03  0.12500000000E+03 0.  0.
        -13    1    3    3    0    0 -0.90843999618E+00 -0.60563379266E+02  0.69246501137E+01  0.60964826864E+02  0.10566000000E+00 0.  1.
         23    2    1    0    0    0 -0.10223829119E+02 -0.30306470876E+02  0.42097140848E+01  0.92739644275E+02  0.86947749073E+02 0.  0.
         13    1    3    3    0    0 -0.93153891225E+01  0.30256908390E+02 -0.27149360289E+01  0.31774817411E+02  0.10566000000E+00 0. -1.
         22    1    1    0    0    0  0.10223829119E+02  0.30306470876E+02 -0.42097140848E+01  0.32260355725E+02  0.00000000000E+00 0.  1.
</event>
<event>
 5    1  0.6924836E-004  0.9118800E+02  0.7818608E-02  0.1130116E+00
         25   -1    0    0    0    0  0.00000000000E+00  0.00000000000E+00  0.99999998245E-14  0.12500000000E+03  0.12500000000E+03 0.  0.
        -13    1    3    3    0    0  0.20495148918E+02 -0.23643081889E+02 -0.13921911075E+02  0.34247295111E+02  0.10566000000E+00 0. -1.
         23    2    1    0    0    0 -0.27282613133E+02  0.12055251360E+02 -0.17268099791E+01  0.95122718708E+02  0.90308801769E+02 0.  0.
         13    1    3    3    0    0 -0.47777762051E+02  0.35698333249E+02  0.12195101096E+02  0.60875423597E+02  0.10566000000E+00 0.  1.
         22    1    1    0    0    0  0.27282613133E+02 -0.12055251360E+02  0.17268099791E+01  0.29877281292E+02  0.00000000000E+00 0.  1.
</event>
<event>
 5    1  0.6924836E-004  0.9118800E+02  0.7818608E-02  0.1130116E+00
         25   -1    0    0    0    0  0.00000000000E+00  0.00000000000E+00  0.99999998245E-14  0.12500000000E+03  0.12500000000E+03 0.  0.
        -13    1    3    3    0    0  0.21531875437E+02 -0.32291631516E+02  0.12534666440E+02  0.40786028890E+02  0.10566000000E+00 0. -1.
         23    2    1    0    0    0 -0.67215013561E+00  0.16554527200E+02  0.24177075088E+02  0.95690699148E+02  0.91091573634E+02 0.  0.
         13    1    3    3    0    0 -0.22204025573E+02  0.48846158716E+02  0.11642408647E+02  0.54904670258E+02  0.10566000000E+00 0.  1.
         22    1    1    0    0    0  0.67215013561E+00 -0.16554527200E+02 -0.24177075088E+02  0.29309300852E+02  0.00000000000E+00 0.  1.
</event>
<event>
 5    1  0.6924836E-004  0.9118800E+02  0.7818608E-02  0.1130116E+00
         25   -1    0    0    0    0  0.00000000000E+00  0.00000000000E+00  0.99999998245E-14  0.12500000000E+03  0.12500000000E+03 0.  0.
        -13    1    3    3    0    0  0.33251758767E+02  0.32668335990E+02  0.38354149782E+02  0.60365152257E+02  0.10566000000E+00 0.  1.
         23    2    1    0    0    0  0.23572795986E+02  0.11829784512E+02  0.10160015530E+02  0.96736128578E+02  0.92515037397E+02 0.  0.
         13    1    3    3    0    0 -0.96789627808E+01 -0.20838551479E+02 -0.28194134253E+02  0.36370976321E+02  0.10566000000E+00 0. -1.
         22    1    1    0    0    0 -0.23572795986E+02 -0.11829784512E+02 -0.10160015530E+02  0.28263871422E+02  0.00000000000E+00 0.  1.
</event>
<event>
 5    1  0.6924836E-004  0.9118800E+02  0.7818608E-02  0.1130116E+00
         25   -1    0    0    0    0  0.00000000000E+00  0.00000000000E+00  0.99999998245E-14  0.12500000000E+03  0.12500000000E+03 0.  0.
        -13    1    3    3    0    0  0.88533483738E+01  0.20654915233E+02 -0.48292127577E+02  0.53264885719E+02  0.10566000000E+00 0. -1.
         23    2    1    0    0    0 -0.83565026697E+00  0.28687301338E+02 -0.83983181519E+01  0.95096968093E+02  0.90273152284E+02 0.  0.
         13    1    3    3    0    0 -0.96889986408E+01  0.80323861051E+01  0.39893809425E+02  0.41832082374E+02  0.10566000000E+00 0.  1.
         22    1    1    0    0    0  0.83565026697E+00 -0.28687301338E+02  0.83983181519E+01  0.29903031907E+02  0.00000000000E+00 0.  1.
</event>
<event>
 5    1  0.6924836E-004  0.9118800E+02  0.7818608E-02  0.1130116E+00
         25   -1    0    0    0    0  0.00000000000E+00  0.00000000000E+00  0.99999998245E-14  0.12500000000E+03  0.12500000000E+03 0.  0.
        -13    1    3    3    0    0  0.15294028250E+02  0.45563720998E+02 -0.35790879261E+02  0.59924604075E+02  0.10566000000E+00 0. -1.
         23    2    1    0    0    0  0.11121341101E+02  0.29920379339E+02 -0.79926320997E+01  0.92094141926E+02  0.86014739908E+02 0.  0.
         13    1    3    3    0    0 -0.41726871491E+01 -0.15643341658E+02  0.27798247161E+02  0.32169537851E+02  0.10566000000E+00 0.  1.
         22    1    1    0    0    0 -0.11121341101E+02 -0.29920379339E+02  0.79926320997E+01  0.32905858074E+02  0.00000000000E+00 0. -1.
</event>
<event>
 5    1  0.6924836E-004  0.9118800E+02  0.7818608E-02  0.1130116E+00
         25   -1    0    0    0    0  0.00000000000E+00  0.00000000000E+00  0.99999998245E-14  0.12500000000E+03  0.12500000000E+03 0.  0.
        -13    1    3    3    0    0 -0.62465306375E+01 -0.39795119104E+02 -0.21018407262E+02  0.45436276888E+02  0.10566000000E+00 0.  1.
         23    2    1    0    0    0  0.17913556693E+02 -0.17408623768E+02  0.16270599411E+02  0.95189127821E+02  0.90400674528E+02 0.  0.
         13    1    3    3    0    0  0.24160087330E+02  0.22386495336E+02  0.37289006673E+02  0.49752850933E+02  0.10566000000E+00 0. -1.
         22    1    1    0    0    0 -0.17913556693E+02  0.17408623768E+02 -0.16270599411E+02  0.29810872179E+02  0.00000000000E+00 0. -1.
</event>
<event>
 5    1  0.6924836E-004  0.9118800E+02  0.7818608E-02  0.1130116E+00
         25   -1    0    0    0    0  0.00000000000E+00  0.00000000000E+00  0.99999998245E-14  0.12500000000E+03  0.12500000000E+03 0.  0.
        -13    1    3    3    0    0  0.39413102005E+02 -0.36017790962E+02 -0.21635677850E+02  0.57608919409E+02  0.10566000000E+00 0.  1.
         23    2    1    0    0    0  0.66200131851E+01 -0.22736085691E+02 -0.21538217850E+02  0.92989861055E+02  0.87306730919E+02 0.  0.
         13    1    3    3    0    0 -0.32793088820E+02  0.13281705272E+02  0.97459999659E-01  0.35380941646E+02  0.10566000000E+00 0. -1.
         22    1    1    0    0    0 -0.66200131851E+01  0.22736085691E+02  0.21538217850E+02  0.32010138945E+02  0.00000000000E+00 0.  1.
</event>
<event>
 5    1  0.6924836E-004  0.9118800E+02  0.7818608E-02  0.1130116E+00
         25   -1    0    0    0    0  0.00000000000E+00  0.00000000000E+00  0.99999998245E-14  0.12500000000E+03  0.12500000000E+03 0.  0.
        -13    1    3    3    0    0 -0.11660632799E+02 -0.13691889036E+02 -0.58094472056E+02  0.60814611979E+02  0.10566000000E+00 0.  1.
         23    2    1    0    0    0  0.29679619481E+00 -0.70213382784E+01 -0.34072373664E+01  0.11718997147E+03  0.11692943542E+03 0.  0.
         13    1    3    3    0    0  0.11957428994E+02  0.66705507575E+01  0.54687234689E+02  0.56375359489E+02  0.10566000000E+00 0. -1.
         22    1    1    0    0    0 -0.29679619481E+00  0.70213382784E+01  0.34072373664E+01  0.78100285321E+01  0.00000000000E+00 0. -1.
</event>
<event>
 5    1  0.6924836E-004  0.9118800E+02  0.7818608E-02  0.1130116E+00
         25   -1    0    0    0    0  0.00000000000E+00  0.00000000000E+00  0.99999998245E-14  0.12500000000E+03  0.12500000000E+03 0.  0.
        -13    1    3    3    0    0 -0.20361267449E+01 -0.38700134789E+02 -0.50757608769E+01  0.39084789335E+02  0.10566000000E+00 0. -1.
         23    2    1    0    0    0 -0.22569705721E+02  0.10117202305E+02  0.15398463829E+02  0.95864762106E+02  0.91330118398E+02 0.  0.
         13    1    3    3    0    0 -0.20533578976E+02  0.48817337095E+02  0.20474224706E+02  0.56779972771E+02  0.10566000000E+00 0.  1.
         22    1    1    0    0    0  0.22569705721E+02 -0.10117202305E+02 -0.15398463829E+02  0.29135237894E+02  0.00000000000E+00 0. -1.
</event>
<event>
 5    1  0.6924836E-004  0.9118800E+02  0.7818608E-02  0.1130116E+00
         25   -1    0    0    0    0  0.00000000000E+00  0.00000000000E+00  0.99999998245E-14  0.12500000000E+03  0.12500000000E+03 0.  0.
        -13    1    3    3    0    0  0.37195589107E+02 -0.14693263786E+02 -0.18130121376E+02  0.43910321279E+02  0.10566000000E+00 0. -1.
         23    2    1    0    0    0  0.10760634442E+02 -0.20925950760E+02  0.22276982216E+02  0.92597058691E+02  0.86742519405E+02 0.  0.
         13    1    3    3    0    0 -0.26434954666E+02 -0.62326869734E+01  0.40407103592E+02  0.48686737412E+02  0.10566000000E+00 0.  1.
         22    1    1    0    0    0 -0.10760634442E+02  0.20925950760E+02 -0.22276982216E+02  0.32402941309E+02  0.00000000000E+00 0.  1.
</event>
<event>
 5    1  0.6924836E-004  0.9118800E+02  0.7818608E-02  0.1130116E+00
         25   -1    0    0    0    0  0.00000000000E+00  0.00000000000E+00  0.99999998245E-14  0.12500000000E+03  0.12500000000E+03 0.  0.
        -13    1    3    3    0    0 -0.26324967498E+02 -0.21806874028E+02  0.10721786039E+02  0.35826129132E+02  0.10566000000E+00 0. -1.
         23    2    1    0    0    0  0.38216008010E+01  0.22641101864E+02 -0.17155821565E+02  0.96337370326E+02  0.91974684459E+02 0.  0.
         13    1    3    3    0    0  0.30146568299E+02  0.44447975892E+02 -0.27877607604E+02  0.60511241194E+02  0.10566000000E+00 0.  1.
         22    1    1    0    0    0 -0.38216008010E+01 -0.22641101864E+02  0.17155821565E+02  0.28662629674E+02  0.00000000000E+00 0.  1.
</event>
<event>
 5    1  0.6924836E-004  0.9118800E+02  0.7818608E-02  0.1130116E+00
         25   -1    0    0    0    0  0.00000000000E+00  0.00000000000E+00  0.99999998245E-14  0.12500000000E+03  0.12500000000E+03 0.  0.
        -13    1    3    3    0    0 -0.34696914429E+02 -0.79365402009E+01 -0.12007546177E+02  0.37564036930E+02  0.10566000000E+00 0.  1.
         23    2    1    0    0    0  0.22832962228E+02  0.40690417752E+01  0.92091119460E+01  0.10004586191E+03  0.96883773033E+02 0.  0.
         13    1    3    3    0    0  0.57529876657E+02  0.12005581976E+02  0.21216658123E+02  0.62481824979E+02  0.10566000000E+00 0. -1.
         22    1    1    0    0    0 -0.22832962228E+02 -0.40690417752E+01 -0.92091119460E+01  0.24954138092E+02  0.00000000000E+00 0. -1.
</event>
<event>
 5    1  0.6924836E-004  0.9118800E+02  0.7818608E-02  0.1130116E+00
         25   -1    0    0    0    0  0.00000000000E+00  0.00000000000E+00  0.99999998245E-14  0.12500000000E+03  0.12500000000E+03 0.  0.
        -13    1    3    3    0    0  0.62861173051E+01  0.86450152946E+01  0.33820911343E+02  0.35469941758E+02  0.10566000000E+00 0. -1.
         23    2    1    0    0    0  0.53952018029E+01 -0.65657728013E+01 -0.26232024065E+02  0.97425797173E+02  0.93442224360E+02 0.  0.
         13    1    3    3    0    0 -0.89091550218E+00 -0.15210788096E+02 -0.60052935409E+02  0.61955855415E+02  0.10566000000E+00 0.  1.
         22    1    1    0    0    0 -0.53952018029E+01  0.65657728013E+01  0.26232024065E+02  0.27574202827E+02  0.00000000000E+00 0.  1.
</event>
<event>
 5    1  0.6924836E-004  0.9118800E+02  0.7818608E-02  0.1130116E+00
         25   -1    0    0    0    0  0.00000000000E+00  0.00000000000E+00  0.99999998245E-14  0.12500000000E+03  0.12500000000E+03 0.  0.
        -13    1    3    3    0    0  0.29309468863E+02  0.92227052369E+01  0.52259355347E+02  0.60623053719E+02  0.10566000000E+00 0.  1.
         23    2    1    0    0    0  0.20153008756E+02  0.98850408987E+01  0.17605057949E+02  0.96472892525E+02  0.92158684514E+02 0.  0.
         13    1    3    3    0    0 -0.91564601066E+01  0.66233566180E+00 -0.34654297398E+02  0.35849838806E+02  0.10566000000E+00 0. -1.
         22    1    1    0    0    0 -0.20153008756E+02 -0.98850408987E+01 -0.17605057949E+02  0.28527107475E+02  0.00000000000E+00 0.  1.
</event>
<event>
 5    1  0.6924836E-004  0.9118800E+02  0.7818608E-02  0.1130116E+00
         25   -1    0    0    0    0  0.00000000000E+00  0.00000000000E+00  0.99999998245E-14  0.12500000000E+03  0.12500000000E+03 0.  0.
        -13    1    3    3    0    0  0.15602254368E+02 -0.44758067224E+02  0.36922763716E+02  0.60083413414E+02  0.10566000000E+00 0. -1.
         23    2    1    0    0    0  0.16214808604E+02 -0.11066162991E+02  0.12061115644E+02  0.10195980703E+03  0.99322463513E+02 0.  0.
         13    1    3    3    0    0  0.61255423614E+00  0.33691904234E+02 -0.24861648073E+02  0.41876393619E+02  0.10566000000E+00 0.  1.
         22    1    1    0    0    0 -0.16214808604E+02  0.11066162991E+02 -0.12061115644E+02  0.23040192967E+02  0.00000000000E+00 0. -1.
</event>
<event>
 5    1  0.6924836E-004  0.9118800E+02  0.7818608E-02  0.1130116E+00
         25   -1    0    0    0    0  0.00000000000E+00  0.00000000000E+00  0.99999998245E-14  0.12500000000E+03  0.12500000000E+03 0.  0.
        -13    1    3    3    0    0 -0.60879040362E+01 -0.12754866947E+02 -0.32640035546E+02  0.35568698189E+02  0.10566000000E+00 0. -1.
         23    2    1    0    0    0 -0.11701485840E+02  0.38109461016E+00  0.26298172205E+02  0.96213477714E+02  0.91806151366E+02 0.  0.
         13    1    3    3    0    0 -0.56135818042E+01  0.13135961558E+02  0.58938207751E+02  0.60644779525E+02  0.10566000000E+00 0.  1.
         22    1    1    0    0    0  0.11701485840E+02 -0.38109461016E+00 -0.26298172205E+02  0.28786522286E+02  0.00000000000E+00 0.  1.
</event>
<event>
 5    1  0.6924836E-004  0.9118800E+02  0.7818608E-02  0.1130116E+00
         25   -1    0    0    0    0  0.00000000000E+00  0.00000000000E+00  0.99999998245E-14  0.12500000000E+03  0.12500000000E+03 0.  0.
        -13    1    3    3    0    0 -0.40858781824E+02  0.21835526014E+02 -0.25194101096E+01  0.46396000256E+02  0.10566000000E+00 0.  1.
         23    2    1    0    0    0 -0.19001327203E+02 -0.17161150477E+02  0.16025510366E+02  0.94794495474E+02  0.89853346452E+02 0.  0.
         13    1    3    3    0    0  0.21857454621E+02 -0.38996676491E+02  0.18544920475E+02  0.48398495218E+02  0.10566000000E+00 0. -1.
         22    1    1    0    0    0  0.19001327203E+02  0.17161150477E+02 -0.16025510366E+02  0.30205504526E+02  0.00000000000E+00 0. -1.
</event>
<event>
 5    1  0.6924836E-004  0.9118800E+02  0.7818608E-02  0.1130116E+00
         25   -1    0    0    0    0  0.00000000000E+00  0.00000000000E+00  0.99999998245E-14  0.12500000000E+03  0.12500000000E+03 0.  0.
        -13    1    3    3    0    0  0.46886750421E+02  0.81214599943E+01 -0.30402823236E+02  0.56468294664E+02  0.10566000000E+00 0.  1.
         23    2    1    0    0    0  0.29742750299E+02  0.28934465391E+01  0.35948654614E+01  0.94901390631E+02  0.90001931412E+02 0.  0.
         13    1    3    3    0    0 -0.17144000122E+02 -0.52280134553E+01  0.33997688697E+02  0.38433095968E+02  0.10566000000E+00 0. -1.
         22    1    1    0    0    0 -0.29742750299E+02 -0.28934465391E+01 -0.35948654614E+01  0.30098609369E+02  0.00000000000E+00 0.  1.
</event>
<event>
 5    1  0.6924836E-004  0.9118800E+02  0.7818608E-02  0.1130116E+00
         25   -1    0    0    0    0  0.00000000000E+00  0.00000000000E+00  0.99999998245E-14  0.12500000000E+03  0.12500000000E+03 0.  0.
        -13    1    3    3    0    0  0.48570409771E+02  0.67114357095E+01  0.18567227771E+02  0.52429773848E+02  0.10566000000E+00 0.  1.
         23    2    1    0    0    0  0.23491275074E+02  0.42987740631E+01 -0.16762351050E+02  0.95823024903E+02  0.91272976427E+02 0.  0.
         13    1    3    3    0    0 -0.25079134697E+02 -0.24126616463E+01 -0.35329578822E+02  0.43393251055E+02  0.10566000000E+00 0. -1.
         22    1    1    0    0    0 -0.23491275074E+02 -0.42987740631E+01  0.16762351050E+02  0.29176975097E+02  0.00000000000E+00 0.  1.
</event>
<event>
 5    1  0.6924836E-004  0.9118800E+02  0.7818608E-02  0.1130116E+00
         25   -1    0    0    0    0  0.00000000000E+00  0.00000000000E+00  0.99999998245E-14  0.12500000000E+03  0.12500000000E+03 0.  0.
        -13    1    3    3    0    0  0.40946255460E+02 -0.18903471661E+02 -0.20159022329E+01  0.45144347408E+02  0.10566000000E+00 0.  1.
         23    2    1    0    0    0 -0.89773589602E+01 -0.26294987600E+02  0.68444599749E+01  0.96384165588E+02  0.92038260506E+02 0.  0.
         13    1    3    3    0    0 -0.49923614420E+02 -0.73915159389E+01  0.88603622078E+01  0.51239818180E+02  0.10566000000E+00 0. -1.
         22    1    1    0    0    0  0.89773589602E+01  0.26294987600E+02 -0.68444599749E+01  0.28615834412E+02  0.00000000000E+00 0. -1.
</event>
<event>
 5    1  0.6924836E-004  0.9118800E+02  0.7818608E-02  0.1130116E+00
         25   -1    0    0    0    0  0.00000000000E+00  0.00000000000E+00  0.99999998245E-14  0.12500000000E+03  0.12500000000E+03 0.  0.
        -13    1    3    3    0    0 -0.15198024060E+02 -0.11480938934E+02  0.16850847960E+02  0.25431361252E+02  0.10566000000E+00 0.  1.
         23    2    1    0    0    0  0.18849349542E+02 -0.41157136667E+02 -0.10896076549E+02  0.78438939435E+02  0.63124756306E+02 0.  0.
         13    1    3    3    0    0  0.34047373602E+02 -0.29676197734E+02 -0.27746924509E+02  0.53007578183E+02  0.10566000000E+00 0. -1.
         22    1    1    0    0    0 -0.18849349542E+02  0.41157136667E+02  0.10896076549E+02  0.46561060565E+02  0.00000000000E+00 0.  1.
</event>
<event>
 5    1  0.6924836E-004  0.9118800E+02  0.7818608E-02  0.1130116E+00
         25   -1    0    0    0    0  0.00000000000E+00  0.00000000000E+00  0.99999998245E-14  0.12500000000E+03  0.12500000000E+03 0.  0.
        -13    1    3    3    0    0 -0.13325294270E+02  0.34611873043E+01  0.57369456789E+02  0.58998381514E+02  0.10566000000E+00 0.  1.
         23    2    1    0    0    0  0.43044358088E+01 -0.91374361990E+01  0.25839883192E+02  0.97256163364E+02  0.93215024760E+02 0.  0.
         13    1    3    3    0    0  0.17629730079E+02 -0.12598623503E+02 -0.31529573597E+02  0.38257781850E+02  0.10566000000E+00 0. -1.
         22    1    1    0    0    0 -0.43044358088E+01  0.91374361990E+01 -0.25839883192E+02  0.27743836636E+02  0.00000000000E+00 0.  1.
</event>
<event>
 5    1  0.6924836E-004  0.9118800E+02  0.7818608E-02  0.1130116E+00
         25   -1    0    0    0    0  0.00000000000E+00  0.00000000000E+00  0.99999998245E-14  0.12500000000E+03  0.12500000000E+03 0.  0.
        -13    1    3    3    0    0 -0.23165955249E+02  0.51012747822E+02  0.17939360569E+01  0.56055252150E+02  0.10566000000E+00 0.  1.
         23    2    1    0    0    0  0.45812374429E-01  0.23969927407E+02 -0.16289088857E+02  0.96019076370E+02  0.91541078716E+02 0.  0.
         13    1    3    3    0    0  0.23211767623E+02 -0.27042820415E+02 -0.18083024914E+02  0.39963824220E+02  0.10566000000E+00 0. -1.
         22    1    1    0    0    0 -0.45812374429E-01 -0.23969927407E+02  0.16289088857E+02  0.28980923630E+02  0.00000000000E+00 0.  1.
</event>
<event>
 5    1  0.6924836E-004  0.9118800E+02  0.7818608E-02  0.1130116E+00
         25   -1    0    0    0    0  0.00000000000E+00  0.00000000000E+00  0.99999998245E-14  0.12500000000E+03  0.12500000000E+03 0.  0.
        -13    1    3    3    0    0 -0.15643596547E+02 -0.43553828421E+01 -0.50174827889E+02  0.52737235331E+02  0.10566000000E+00 0. -1.
         23    2    1    0    0    0  0.15221832024E+02  0.93298539711E+01 -0.21656717201E+02  0.96932870735E+02  0.92780481157E+02 0.  0.
         13    1    3    3    0    0  0.30865428571E+02  0.13685236813E+02  0.28518110688E+02  0.44195635404E+02  0.10566000000E+00 0.  1.
         22    1    1    0    0    0 -0.15221832024E+02 -0.93298539711E+01  0.21656717201E+02  0.28067129265E+02  0.00000000000E+00 0. -1.
</event>
<event>
 5    1  0.6924836E-004  0.9118800E+02  0.7818608E-02  0.1130116E+00
         25   -1    0    0    0    0  0.00000000000E+00  0.00000000000E+00  0.99999998245E-14  0.12500000000E+03  0.12500000000E+03 0.  0.
        -13    1    3    3    0    0  0.46393826030E+02  0.10338493630E+01 -0.32576912651E+02  0.56698521499E+02  0.10566000000E+00 0. -1.
         23    2    1    0    0    0  0.28661153379E+02 -0.66026093956E+01  0.11553575785E+01  0.95565479195E+02  0.90919578743E+02 0.  0.
         13    1    3    3    0    0 -0.17732672651E+02 -0.76364587586E+01  0.33732270229E+02  0.38866957697E+02  0.10566000000E+00 0.  1.
         22    1    1    0    0    0 -0.28661153379E+02  0.66026093956E+01 -0.11553575785E+01  0.29434520805E+02  0.00000000000E+00 0. -1.
</event>
<event>
 5    1  0.6924836E-004  0.9118800E+02  0.7818608E-02  0.1130116E+00
         25   -1    0    0    0    0  0.00000000000E+00  0.00000000000E+00  0.99999998245E-14  0.12500000000E+03  0.12500000000E+03 0.  0.
        -13    1    3    3    0    0 -0.14619118179E+02  0.17793559465E+02 -0.32627500995E+01  0.23259107399E+02  0.10566000000E+00 0.  1.
         23    2    1    0    0    0  0.40525558407E+02  0.26544773697E+01 -0.15126755998E+02  0.81661958035E+02  0.69213362213E+02 0.  0.
         13    1    3    3    0    0  0.55144676586E+02 -0.15139082095E+02 -0.11864005899E+02  0.58402850636E+02  0.10566000000E+00 0. -1.
         22    1    1    0    0    0 -0.40525558407E+02 -0.26544773697E+01  0.15126755998E+02  0.43338041965E+02  0.00000000000E+00 0. -1.
</event>
<event>
 5    1  0.6924836E-004  0.9118800E+02  0.7818608E-02  0.1130116E+00
         25   -1    0    0    0    0  0.00000000000E+00  0.00000000000E+00  0.99999998245E-14  0.12500000000E+03  0.12500000000E+03 0.  0.
        -13    1    3    3    0    0 -0.23557926822E+02  0.19261146919E+00  0.30359268665E+02  0.38427976440E+02  0.10566000000E+00 0.  1.
         23    2    1    0    0    0 -0.85553530815E+01  0.21896632197E+02 -0.19248844545E+02  0.94616211818E+02  0.89604982867E+02 0.  0.
         13    1    3    3    0    0  0.15002573741E+02  0.21704020728E+02 -0.49608113210E+02  0.56188235379E+02  0.10566000000E+00 0. -1.
         22    1    1    0    0    0  0.85553530815E+01 -0.21896632197E+02  0.19248844545E+02  0.30383788182E+02  0.00000000000E+00 0. -1.
</event>
<event>
 5    1  0.6924836E-004  0.9118800E+02  0.7818608E-02  0.1130116E+00
         25   -1    0    0    0    0  0.00000000000E+00  0.00000000000E+00  0.99999998245E-14  0.12500000000E+03  0.12500000000E+03 0.  0.
        -13    1    3    3    0    0  0.17259251963E+02 -0.23825827618E+02  0.50069582423E+02  0.58073454246E+02  0.10566000000E+00 0. -1.
         23    2    1    0    0    0 -0.85092142181E+01 -0.11959538806E+02  0.25376598816E+02  0.95684320535E+02  0.91082820190E+02 0.  0.
         13    1    3    3    0    0 -0.25768466181E+02  0.11866288812E+02 -0.24692983607E+02  0.37610866289E+02  0.10566000000E+00 0.  1.
         22    1    1    0    0    0  0.85092142181E+01  0.11959538806E+02 -0.25376598816E+02  0.29315679465E+02  0.00000000000E+00 0. -1.
</event>
<event>
 5    1  0.6924836E-004  0.9118800E+02  0.7818608E-02  0.1130116E+00
         25   -1    0    0    0    0  0.00000000000E+00  0.00000000000E+00  0.99999998245E-14  0.12500000000E+03  0.12500000000E+03 0.  0.
        -13    1    3    3    0    0  0.46569516930E+02  0.12283326355E+02 -0.17022516948E+02  0.51082063983E+02  0.10566000000E+00 0.  1.
         23    2    1    0    0    0  0.11542902376E+02 -0.17525991123E+02 -0.18390181661E+02  0.97096635658E+02  0.93000854375E+02 0.  0.
         13    1    3    3    0    0 -0.35026614554E+02 -0.29809317477E+02 -0.13676647131E+01  0.46014571675E+02  0.10566000000E+00 0. -1.
         22    1    1    0    0    0 -0.11542902376E+02  0.17525991123E+02  0.18390181661E+02  0.27903364342E+02  0.00000000000E+00 0. -1.
</event>
<event>
 5    1  0.6924836E-004  0.9118800E+02  0.7818608E-02  0.1130116E+00
         25   -1    0    0    0    0  0.00000000000E+00  0.00000000000E+00  0.99999998245E-14  0.12500000000E+03  0.12500000000E+03 0.  0.
        -13    1    3    3    0    0 -0.27984411029E+02 -0.18150071481E+02 -0.74486430707E+01  0.34176685080E+02  0.10566000000E+00 0. -1.
         23    2    1    0    0    0  0.22957917485E+02  0.82668247167E+01  0.15623621230E+02  0.96025806198E+02  0.91550267883E+02 0.  0.
         13    1    3    3    0    0  0.50942328514E+02  0.26416896197E+02  0.23072264300E+02  0.61849121118E+02  0.10566000000E+00 0.  1.
         22    1    1    0    0    0 -0.22957917485E+02 -0.82668247167E+01 -0.15623621230E+02  0.28974193802E+02  0.00000000000E+00 0.  1.
</event>
<event>
 5    1  0.6924836E-004  0.9118800E+02  0.7818608E-02  0.1130116E+00
         25   -1    0    0    0    0  0.00000000000E+00  0.00000000000E+00  0.99999998245E-14  0.12500000000E+03  0.12500000000E+03 0.  0.
        -13    1    3    3    0    0 -0.40308069646E+01 -0.41552361813E+01 -0.47034641387E+02  0.47389682916E+02  0.10566000000E+00 0. -1.
         23    2    1    0    0    0  0.16484982515E+02  0.21043115099E+02 -0.10509296875E+02  0.96276966344E+02  0.91892554574E+02 0.  0.
         13    1    3    3    0    0  0.20515789480E+02  0.25198351280E+02  0.36525344512E+02  0.48887283428E+02  0.10566000000E+00 0.  1.
         22    1    1    0    0    0 -0.16484982515E+02 -0.21043115099E+02  0.10509296875E+02  0.28723033656E+02  0.00000000000E+00 0.  1.
</event>
<event>
 5    1  0.6924836E-004  0.9118800E+02  0.7818608E-02  0.1130116E+00
         25   -1    0    0    0    0  0.00000000000E+00  0.00000000000E+00  0.99999998245E-14  0.12500000000E+03  0.12500000000E+03 0.  0.
        -13    1    3    3    0    0  0.18157899385E+02  0.60679119510E+01  0.32273755950E+02  0.37525129615E+02  0.10566000000E+00 0.  1.
         23    2    1    0    0    0 -0.22731644491E+02 -0.14092967019E+02 -0.66151960551E+01  0.97448226926E+02  0.93472224385E+02 0.  0.
         13    1    3    3    0    0 -0.40889543876E+02 -0.20160878970E+02 -0.38888952005E+02  0.59923097311E+02  0.10566000000E+00 0. -1.
         22    1    1    0    0    0  0.22731644491E+02  0.14092967019E+02  0.66151960551E+01  0.27551773074E+02  0.00000000000E+00 0. -1.
</event>
<event>
 5    1  0.6924836E-004  0.9118800E+02  0.7818608E-02  0.1130116E+00
         25   -1    0    0    0    0  0.00000000000E+00  0.00000000000E+00  0.99999998245E-14  0.12500000000E+03  0.12500000000E+03 0.  0.
        -13    1    3    3    0    0  0.44884054326E+02 -0.42832183856E+02  0.57948432982E+01  0.62311842209E+02  0.10566000000E+00 0. -1.
         23    2    1    0    0    0  0.21890936275E+02 -0.17719753303E+02  0.51641883301E+01  0.96366600110E+02  0.92014401197E+02 0.  0.
         13    1    3    3    0    0 -0.22993118051E+02  0.25112430552E+02 -0.63065496815E+00  0.34054757901E+02  0.10566000000E+00 0.  1.
         22    1    1    0    0    0 -0.21890936275E+02  0.17719753303E+02 -0.51641883301E+01  0.28633399890E+02  0.00000000000E+00 0. -1.
</event>
<event>
 5    1  0.6924836E-004  0.9118800E+02  0.7818608E-02  0.1130116E+00
         25   -1    0    0    0    0  0.00000000000E+00  0.00000000000E+00  0.99999998245E-14  0.12500000000E+03  0.12500000000E+03 0.  0.
        -13    1    3    3    0    0 -0.29071662553E+01 -0.38712883317E+02  0.43825826771E+02  0.58547871068E+02  0.10566000000E+00 0.  1.
         23    2    1    0    0    0 -0.10499691763E+02 -0.67877903666E+01  0.26596017430E+02  0.95611809033E+02  0.90983252625E+02 0.  0.
         13    1    3    3    0    0 -0.75925255078E+01  0.31925092951E+02 -0.17229809341E+02  0.37063937965E+02  0.10566000000E+00 0. -1.
         22    1    1    0    0    0  0.10499691763E+02  0.67877903666E+01 -0.26596017430E+02  0.29388190967E+02  0.00000000000E+00 0.  1.
</event>
<event>
 5    1  0.6924836E-004  0.9118800E+02  0.7818608E-02  0.1130116E+00
         25   -1    0    0    0    0  0.00000000000E+00  0.00000000000E+00  0.99999998245E-14  0.12500000000E+03  0.12500000000E+03 0.  0.
        -13    1    3    3    0    0  0.19230710899E+02 -0.22518726396E+02 -0.36018425124E+02  0.46628868661E+02  0.10566000000E+00 0.  1.
         23    2    1    0    0    0 -0.16886070422E+01 -0.30565681962E+02  0.55817000723E+01  0.93883000092E+02  0.88576238479E+02 0.  0.
         13    1    3    3    0    0 -0.20919317941E+02 -0.80469555666E+01  0.41600125196E+02  0.47254131432E+02  0.10566000000E+00 0. -1.
         22    1    1    0    0    0  0.16886070422E+01  0.30565681962E+02 -0.55817000723E+01  0.31116999908E+02  0.00000000000E+00 0. -1.
</event>
<event>
 5    1  0.6924836E-004  0.9118800E+02  0.7818608E-02  0.1130116E+00
         25   -1    0    0    0    0  0.00000000000E+00  0.00000000000E+00  0.99999998245E-14  0.12500000000E+03  0.12500000000E+03 0.  0.
        -13    1    3    3    0    0  0.36858774028E+02  0.18632330149E+02 -0.21835676306E+00  0.41301232346E+02  0.10566000000E+00 0. -1.
         23    2    1    0    0    0  0.55296242980E+01 -0.16318486005E+02  0.25041401468E+02  0.94603593669E+02  0.89587378671E+02 0.  0.
         13    1    3    3    0    0 -0.31329149730E+02 -0.34950816153E+02  0.25259758231E+02  0.53302361322E+02  0.10566000000E+00 0.  1.
         22    1    1    0    0    0 -0.55296242980E+01  0.16318486005E+02 -0.25041401468E+02  0.30396406331E+02  0.00000000000E+00 0.  1.
</event>
<event>
 5    1  0.6924836E-004  0.9118800E+02  0.7818608E-02  0.1130116E+00
         25   -1    0    0    0    0  0.00000000000E+00  0.00000000000E+00  0.99999998245E-14  0.12500000000E+03  0.12500000000E+03 0.  0.
        -13    1    3    3    0    0 -0.23071381641E+02 -0.14275046484E+01 -0.46873451904E+02  0.52263353105E+02  0.10566000000E+00 0. -1.
         23    2    1    0    0    0 -0.34284284378E+01 -0.24507515220E+02 -0.15969736763E+02  0.95548261238E+02  0.90895903700E+02 0.  0.
         13    1    3    3    0    0  0.19642953204E+02 -0.23080010572E+02  0.30903715140E+02  0.43284908133E+02  0.10566000000E+00 0.  1.
         22    1    1    0    0    0  0.34284284378E+01  0.24507515220E+02  0.15969736763E+02  0.29451738762E+02  0.00000000000E+00 0.  1.
</event>
<event>
 5    1  0.6924836E-004  0.9118800E+02  0.7818608E-02  0.1130116E+00
         25   -1    0    0    0    0  0.00000000000E+00  0.00000000000E+00  0.99999998245E-14  0.12500000000E+03  0.12500000000E+03 0.  0.
        -13    1    3    3    0    0  0.32344602091E+02 -0.44256275623E+02 -0.16333232001E+02  0.57197699675E+02  0.10566000000E+00 0.  1.
         23    2    1    0    0    0  0.20525567139E+02 -0.64038856453E+01 -0.18103859178E+02  0.96892022932E+02  0.92725431965E+02 0.  0.
         13    1    3    3    0    0 -0.11819034952E+02  0.37852389978E+02 -0.17706271770E+01  0.39694323257E+02  0.10566000000E+00 0. -1.
         22    1    1    0    0    0 -0.20525567139E+02  0.64038856453E+01  0.18103859178E+02  0.28107977068E+02  0.00000000000E+00 0.  1.
</event>
<event>
 5    1  0.6924836E-004  0.9118800E+02  0.7818608E-02  0.1130116E+00
         25   -1    0    0    0    0  0.00000000000E+00  0.00000000000E+00  0.99999998245E-14  0.12500000000E+03  0.12500000000E+03 0.  0.
        -13    1    3    3    0    0 -0.10222373923E+02  0.38209092866E+02 -0.28150027255E+02  0.48547573623E+02  0.10566000000E+00 0.  1.
         23    2    1    0    0    0 -0.63577700161E+01 -0.97988963346E+01 -0.25696285150E+02  0.96773440176E+02  0.92565436552E+02 0.  0.
         13    1    3    3    0    0  0.38646039071E+01 -0.48007989200E+02  0.24537421043E+01  0.48225866553E+02  0.10566000000E+00 0. -1.
         22    1    1    0    0    0  0.63577700161E+01  0.97988963346E+01  0.25696285150E+02  0.28226559824E+02  0.00000000000E+00 0. -1.
</event>
<event>
 5    1  0.6924836E-004  0.9118800E+02  0.7818608E-02  0.1130116E+00
         25   -1    0    0    0    0  0.00000000000E+00  0.00000000000E+00  0.99999998245E-14  0.12500000000E+03  0.12500000000E+03 0.  0.
        -13    1    3    3    0    0  0.10084896164E+02 -0.23593061579E+02  0.36693308000E+02  0.44774409000E+02  0.10566000000E+00 0.  1.
         23    2    1    0    0    0 -0.26517088475E+02  0.21234111225E+01  0.13127455322E+02  0.95335291351E+02  0.90602554257E+02 0.  0.
         13    1    3    3    0    0 -0.36601984638E+02  0.25716472702E+02 -0.23565852677E+02  0.50560882351E+02  0.10566000000E+00 0. -1.
         22    1    1    0    0    0  0.26517088475E+02 -0.21234111225E+01 -0.13127455322E+02  0.29664708649E+02  0.00000000000E+00 0.  1.
</event>
<event>
 5    1  0.6924836E-004  0.9118800E+02  0.7818608E-02  0.1130116E+00
         25   -1    0    0    0    0  0.00000000000E+00  0.00000000000E+00  0.99999998245E-14  0.12500000000E+03  0.12500000000E+03 0.  0.
        -13    1    3    3    0    0 -0.14519013933E+02  0.22170083881E+02  0.55799078490E+02  0.61772669598E+02  0.10566000000E+00 0.  1.
         23    2    1    0    0    0 -0.59737782000E+01  0.13746693719E+02  0.17241385232E+02  0.10215436631E+03  0.99567020526E+02 0.  0.
         13    1    3    3    0    0  0.85452357335E+01 -0.84233901621E+01 -0.38557693258E+02  0.40381696708E+02  0.10566000000E+00 0. -1.
         22    1    1    0    0    0  0.59737782000E+01 -0.13746693719E+02 -0.17241385232E+02  0.22845633694E+02  0.00000000000E+00 0.  1.
</event>
<event>
 5    1  0.6924836E-004  0.9118800E+02  0.7818608E-02  0.1130116E+00
         25   -1    0    0    0    0  0.00000000000E+00  0.00000000000E+00  0.99999998245E-14  0.12500000000E+03  0.12500000000E+03 0.  0.
        -13    1    3    3    0    0 -0.64562068516E+01  0.32994840149E+02 -0.13160385012E+02  0.36104694724E+02  0.10566000000E+00 0.  1.
         23    2    1    0    0    0  0.49893205541E+01 -0.19766600817E+01  0.30972863017E+02  0.93565643825E+02  0.88127242986E+02 0.  0.
         13    1    3    3    0    0  0.11445527406E+02 -0.34971500231E+02  0.44133248029E+02  0.57460949101E+02  0.10566000000E+00 0. -1.
         22    1    1    0    0    0 -0.49893205541E+01  0.19766600817E+01 -0.30972863017E+02  0.31434356175E+02  0.00000000000E+00 0. -1.
</event>
<event>
 5    1  0.6924836E-004  0.9118800E+02  0.7818608E-02  0.1130116E+00
         25   -1    0    0    0    0  0.00000000000E+00  0.00000000000E+00  0.99999998245E-14  0.12500000000E+03  0.12500000000E+03 0.  0.
        -13    1    3    3    0    0 -0.88591677169E+01 -0.23125954306E+01 -0.36646585978E+02  0.37773223031E+02  0.10566000000E+00 0.  1.
         23    2    1    0    0    0  0.18572595378E+02 -0.16735164399E+02  0.13397030175E+02  0.96636512132E+02  0.92380344408E+02 0.  0.
         13    1    3    3    0    0  0.27431763095E+02 -0.14422568968E+02  0.50043616153E+02  0.58863289101E+02  0.10566000000E+00 0. -1.
         22    1    1    0    0    0 -0.18572595378E+02  0.16735164399E+02 -0.13397030175E+02  0.28363487868E+02  0.00000000000E+00 0. -1.
</event>
<event>
 5    1  0.6924836E-004  0.9118800E+02  0.7818608E-02  0.1130116E+00
         25   -1    0    0    0    0  0.00000000000E+00  0.00000000000E+00  0.99999998245E-14  0.12500000000E+03  0.12500000000E+03 0.  0.
        -13    1    3    3    0    0  0.11368986222E+02  0.30853438151E+02  0.33234319008E+02  0.46751680370E+02  0.10566000000E+00 0. -1.
         23    2    1    0    0    0  0.29075463047E+02  0.33670043030E+01 -0.30235298762E+01  0.95574483823E+02  0.90931957835E+02 0.  0.
         13    1    3    3    0    0  0.17706476825E+02 -0.27486433848E+02 -0.36257848884E+02  0.48822803453E+02  0.10566000000E+00 0.  1.
         22    1    1    0    0    0 -0.29075463047E+02 -0.33670043030E+01  0.30235298762E+01  0.29425516177E+02  0.00000000000E+00 0. -1.
</event>
<event>
 5    1  0.6924836E-004  0.9118800E+02  0.7818608E-02  0.1130116E+00
         25   -1    0    0    0    0  0.00000000000E+00  0.00000000000E+00  0.99999998245E-14  0.12500000000E+03  0.12500000000E+03 0.  0.
        -13    1    3    3    0    0 -0.26650366593E+02  0.29612848480E+02  0.24905536877E+02  0.46983611673E+02  0.10566000000E+00 0.  1.
         23    2    1    0    0    0 -0.22627072829E+02 -0.16269869571E+02  0.89026471619E+01  0.95743373278E+02  0.91163826814E+02 0.  0.
         13    1    3    3    0    0  0.40232937634E+01 -0.45882718051E+02 -0.16002889715E+02  0.48759761605E+02  0.10566000000E+00 0. -1.
         22    1    1    0    0    0  0.22627072829E+02  0.16269869571E+02 -0.89026471619E+01  0.29256626722E+02  0.00000000000E+00 0.  1.
</event>
<event>
 5    1  0.6924836E-004  0.9118800E+02  0.7818608E-02  0.1130116E+00
         25   -1    0    0    0    0  0.00000000000E+00  0.00000000000E+00  0.99999998245E-14  0.12500000000E+03  0.12500000000E+03 0.  0.
        -13    1    3    3    0    0  0.32437732957E+02  0.42890874213E+02 -0.25347998750E+02  0.59450532503E+02  0.10566000000E+00 0.  1.
         23    2    1    0    0    0  0.19877516111E+02  0.79931202181E+01 -0.17442488903E+02  0.97373092162E+02  0.93371692929E+02 0.  0.
         13    1    3    3    0    0 -0.12560216846E+02 -0.34897753995E+02  0.79055098467E+01  0.37922559659E+02  0.10566000000E+00 0. -1.
         22    1    1    0    0    0 -0.19877516111E+02 -0.79931202181E+01  0.17442488903E+02  0.27626907838E+02  0.00000000000E+00 0.  1.
</event>
<event>
 5    1  0.6924836E-004  0.9118800E+02  0.7818608E-02  0.1130116E+00
         25   -1    0    0    0    0  0.00000000000E+00  0.00000000000E+00  0.99999998245E-14  0.12500000000E+03  0.12500000000E+03 0.  0.
        -13    1    3    3    0    0 -0.39250620458E+02 -0.70738634767E+01 -0.57787171005E+00  0.39887289336E+02  0.10566000000E+00 0.  1.
         23    2    1    0    0    0  0.15073876650E+02 -0.43882170524E+01 -0.21683551523E+02  0.98229594459E+02  0.94511367649E+02 0.  0.
         13    1    3    3    0    0  0.54324497108E+02  0.26856464244E+01 -0.21105679813E+02  0.58342305124E+02  0.10566000000E+00 0. -1.
         22    1    1    0    0    0 -0.15073876650E+02  0.43882170524E+01  0.21683551523E+02  0.26770405541E+02  0.00000000000E+00 0. -1.
</event>
<event>
 5    1  0.6924836E-004  0.9118800E+02  0.7818608E-02  0.1130116E+00
         25   -1    0    0    0    0  0.00000000000E+00  0.00000000000E+00  0.99999998245E-14  0.12500000000E+03  0.12500000000E+03 0.  0.
        -13    1    3    3    0    0  0.38031724493E+02  0.40630717528E+02 -0.13816586297E+02  0.57342623725E+02  0.10566000000E+00 0.  1.
         23    2    1    0    0    0  0.39763041791E+02  0.18200006645E+02 -0.94569275606E+01  0.80258819716E+02  0.66631110819E+02 0.  0.
         13    1    3    3    0    0  0.17313172982E+01 -0.22430710884E+02  0.43596587367E+01  0.22916195990E+02  0.10566000000E+00 0. -1.
         22    1    1    0    0    0 -0.39763041791E+02 -0.18200006645E+02  0.94569275606E+01  0.44741180284E+02  0.00000000000E+00 0.  1.
</event>
<event>
 5    1  0.6924836E-004  0.9118800E+02  0.7818608E-02  0.1130116E+00
         25   -1    0    0    0    0  0.00000000000E+00  0.00000000000E+00  0.99999998245E-14  0.12500000000E+03  0.12500000000E+03 0.  0.
        -13    1    3    3    0    0  0.23997147014E+02  0.12118483393E+02  0.23531694280E+02  0.35727755377E+02  0.10566000000E+00 0.  1.
         23    2    1    0    0    0  0.51838049789E+01 -0.17615312953E+02 -0.23947062813E+02  0.94823305319E+02  0.89893416498E+02 0.  0.
         13    1    3    3    0    0 -0.18813342035E+02 -0.29733796346E+02 -0.47478757094E+02  0.59095549942E+02  0.10566000000E+00 0. -1.
         22    1    1    0    0    0 -0.51838049789E+01  0.17615312953E+02  0.23947062813E+02  0.30176694681E+02  0.00000000000E+00 0. -1.
</event>
<event>
 5    1  0.6924836E-004  0.9118800E+02  0.7818608E-02  0.1130116E+00
         25   -1    0    0    0    0  0.00000000000E+00  0.00000000000E+00  0.99999998245E-14  0.12500000000E+03  0.12500000000E+03 0.  0.
        -13    1    3    3    0    0 -0.53830839516E+02 -0.23148654718E+02  0.53381366552E+01  0.58839836549E+02  0.10566000000E+00 0.  1.
         23    2    1    0    0    0 -0.29032300080E+02  0.38474537282E+01  0.22009369144E+01  0.95631284137E+02  0.91010005133E+02 0.  0.
         13    1    3    3    0    0  0.24798539436E+02  0.26996108446E+02 -0.31371997408E+01  0.36791447588E+02  0.10566000000E+00 0. -1.
         22    1    1    0    0    0  0.29032300080E+02 -0.38474537282E+01 -0.22009369144E+01  0.29368715863E+02  0.00000000000E+00 0.  1.
</event>
<event>
 5    1  0.6924836E-004  0.9118800E+02  0.7818608E-02  0.1130116E+00
         25   -1    0    0    0    0  0.00000000000E+00  0.00000000000E+00  0.99999998245E-14  0.12500000000E+03  0.12500000000E+03 0.  0.
        -13    1    3    3    0    0 -0.19606268254E+02  0.66493737787E+01 -0.12663632624E+01  0.20742101302E+02  0.10566000000E+00 0.  1.
         23    2    1    0    0    0 -0.10849014084E+01 -0.27002954975E+02  0.39747641518E+02  0.76935339441E+02  0.60073578720E+02 0.  0.
         13    1    3    3    0    0  0.18521366845E+02 -0.33652328753E+02  0.41014004780E+02  0.56193238139E+02  0.10566000000E+00 0. -1.
         22    1    1    0    0    0  0.10849014084E+01  0.27002954975E+02 -0.39747641518E+02  0.48064660559E+02  0.00000000000E+00 0. -1.
</event>
<event>
 5    1  0.6924836E-004  0.9118800E+02  0.7818608E-02  0.1130116E+00
         25   -1    0    0    0    0  0.00000000000E+00  0.00000000000E+00  0.99999998245E-14  0.12500000000E+03  0.12500000000E+03 0.  0.
        -13    1    3    3    0    0 -0.25242414766E+02  0.28807308033E+02 -0.14457893243E+02  0.40939984616E+02  0.10566000000E+00 0.  1.
         23    2    1    0    0    0  0.87710637116E+01 -0.14861369527E+02 -0.22254560888E+02  0.96838726180E+02  0.92653556569E+02 0.  0.
         13    1    3    3    0    0  0.34013478477E+02 -0.43668677560E+02 -0.77966676456E+01  0.55898741564E+02  0.10566000000E+00 0. -1.
         22    1    1    0    0    0 -0.87710637116E+01  0.14861369527E+02  0.22254560888E+02  0.28161273820E+02  0.00000000000E+00 0. -1.
</event>
<event>
 5    1  0.6924836E-004  0.9118800E+02  0.7818608E-02  0.1130116E+00
         25   -1    0    0    0    0  0.00000000000E+00  0.00000000000E+00  0.99999998245E-14  0.12500000000E+03  0.12500000000E+03 0.  0.
        -13    1    3    3    0    0 -0.36256077561E+02 -0.26972246486E+02  0.59674192945E+01  0.45580988336E+02  0.10566000000E+00 0. -1.
         23    2    1    0    0    0 -0.13255658884E+02  0.16286192525E+02  0.19430924074E+02  0.96390327339E+02  0.92046628590E+02 0.  0.
         13    1    3    3    0    0  0.23000418677E+02  0.43258439011E+02  0.13463504780E+02  0.50809339003E+02  0.10566000000E+00 0.  1.
         22    1    1    0    0    0  0.13255658884E+02 -0.16286192525E+02 -0.19430924074E+02  0.28609672661E+02  0.00000000000E+00 0. -1.
</event>
<event>
 5    1  0.6924836E-004  0.9118800E+02  0.7818608E-02  0.1130116E+00
         25   -1    0    0    0    0  0.00000000000E+00  0.00000000000E+00  0.99999998245E-14  0.12500000000E+03  0.12500000000E+03 0.  0.
        -13    1    3    3    0    0 -0.34154417131E+02  0.19976532274E+02  0.10358338421E+02  0.40901007202E+02  0.10566000000E+00 0.  1.
         23    2    1    0    0    0  0.18884264466E+02  0.97947914586E+01  0.20045682429E+02  0.95770173312E+02  0.91200566489E+02 0.  0.
         13    1    3    3    0    0  0.53038681597E+02 -0.10181740815E+02  0.96873440089E+01  0.54869166110E+02  0.10566000000E+00 0. -1.
         22    1    1    0    0    0 -0.18884264466E+02 -0.97947914586E+01 -0.20045682429E+02  0.29229826688E+02  0.00000000000E+00 0. -1.
</event>
<event>
 5    1  0.6924836E-004  0.9118800E+02  0.7818608E-02  0.1130116E+00
         25   -1    0    0    0    0  0.00000000000E+00  0.00000000000E+00  0.99999998245E-14  0.12500000000E+03  0.12500000000E+03 0.  0.
        -13    1    3    3    0    0  0.98203098618E+01 -0.26763088912E+01 -0.54173570052E+02  0.55121574463E+02  0.10566000000E+00 0.  1.
         23    2    1    0    0    0 -0.13925625091E+02  0.96711046139E+01 -0.25810198308E+02  0.94119267571E+02  0.88909037183E+02 0.  0.
         13    1    3    3    0    0 -0.23745934953E+02  0.12347413505E+02  0.28363371744E+02  0.38997693108E+02  0.10566000000E+00 0. -1.
         22    1    1    0    0    0  0.13925625091E+02 -0.96711046139E+01  0.25810198308E+02  0.30880732429E+02  0.00000000000E+00 0. -1.
</event>
<event>
 5    1  0.6924836E-004  0.9118800E+02  0.7818608E-02  0.1130116E+00
         25   -1    0    0    0    0  0.00000000000E+00  0.00000000000E+00  0.99999998245E-14  0.12500000000E+03  0.12500000000E+03 0.  0.
        -13    1    3    3    0    0  0.47374086795E+02 -0.14719529533E+01 -0.18095646155E+02  0.50733956272E+02  0.10566000000E+00 0.  1.
         23    2    1    0    0    0  0.20441692186E+02 -0.34748602989E+01  0.19172975994E+02  0.96759241477E+02  0.92546260698E+02 0.  0.
         13    1    3    3    0    0 -0.26932394610E+02 -0.20029073457E+01  0.37268622149E+02  0.46025285205E+02  0.10566000000E+00 0. -1.
         22    1    1    0    0    0 -0.20441692186E+02  0.34748602989E+01 -0.19172975994E+02  0.28240758523E+02  0.00000000000E+00 0. -1.
</event>
<event>
 5    1  0.6924836E-004  0.9118800E+02  0.7818608E-02  0.1130116E+00
         25   -1    0    0    0    0  0.00000000000E+00  0.00000000000E+00  0.99999998245E-14  0.12500000000E+03  0.12500000000E+03 0.  0.
        -13    1    3    3    0    0  0.43399867453E+02  0.21199967735E+02 -0.30012943002E+02  0.56866290881E+02  0.10566000000E+00 0.  1.
         23    2    1    0    0    0  0.70275409632E+01  0.47414378339E+01 -0.26768889114E+02  0.96920808610E+02  0.92764228841E+02 0.  0.
         13    1    3    3    0    0 -0.36372326490E+02 -0.16458529901E+02  0.32440538877E+01  0.40054517729E+02  0.10566000000E+00 0. -1.
         22    1    1    0    0    0 -0.70275409632E+01 -0.47414378339E+01  0.26768889114E+02  0.28079191390E+02  0.00000000000E+00 0.  1.
</event>
<event>
 5    1  0.6924836E-004  0.9118800E+02  0.7818608E-02  0.1130116E+00
         25   -1    0    0    0    0  0.00000000000E+00  0.00000000000E+00  0.99999998245E-14  0.12500000000E+03  0.12500000000E+03 0.  0.
        -13    1    3    3    0    0  0.97043740540E+01 -0.72770373047E+00  0.28156120401E+02  0.29790648006E+02  0.10566000000E+00 0. -1.
         23    2    1    0    0    0  0.46791968032E+01  0.23486974989E+01 -0.33180130203E+02  0.91409342029E+02  0.85013737168E+02 0.  0.
         13    1    3    3    0    0 -0.50251772509E+01  0.30764012294E+01 -0.61336250604E+02  0.61618694023E+02  0.10566000000E+00 0.  1.
         22    1    1    0    0    0 -0.46791968032E+01 -0.23486974989E+01  0.33180130203E+02  0.33590657971E+02  0.00000000000E+00 0.  1.
</event>
<event>
 5    1  0.6924836E-004  0.9118800E+02  0.7818608E-02  0.1130116E+00
         25   -1    0    0    0    0  0.00000000000E+00  0.00000000000E+00  0.99999998245E-14  0.12500000000E+03  0.12500000000E+03 0.  0.
        -13    1    3    3    0    0  0.17926961622E+02 -0.52752748600E+01  0.28284769173E+02  0.33900498655E+02  0.10566000000E+00 0.  1.
         23    2    1    0    0    0 -0.79251942936E+01 -0.94695359989E+01 -0.27129607847E+02  0.95192342619E+02  0.90405119626E+02 0.  0.
         13    1    3    3    0    0 -0.25852155915E+02 -0.41942611389E+01 -0.55414377020E+02  0.61291843964E+02  0.10566000000E+00 0. -1.
         22    1    1    0    0    0  0.79251942936E+01  0.94695359989E+01  0.27129607847E+02  0.29807657381E+02  0.00000000000E+00 0. -1.
</event>
<event>
 5    1  0.6924836E-004  0.9118800E+02  0.7818608E-02  0.1130116E+00
         25   -1    0    0    0    0  0.00000000000E+00  0.00000000000E+00  0.99999998245E-14  0.12500000000E+03  0.12500000000E+03 0.  0.
        -13    1    3    3    0    0  0.61295509665E+01 -0.31599567979E+02 -0.12140169559E+02  0.34402019889E+02  0.10566000000E+00 0. -1.
         23    2    1    0    0    0 -0.26773294717E+02  0.15254874174E+02 -0.12733354489E+02  0.91658452156E+02  0.85379230724E+02 0.  0.
         13    1    3    3    0    0 -0.32902845683E+02  0.46854442154E+02 -0.59318493067E+00  0.57256432267E+02  0.10566000000E+00 0.  1.
         22    1    1    0    0    0  0.26773294717E+02 -0.15254874174E+02  0.12733354489E+02  0.33341547844E+02  0.00000000000E+00 0.  1.
</event>
<event>
 5    1  0.6924836E-004  0.9118800E+02  0.7818608E-02  0.1130116E+00
         25   -1    0    0    0    0  0.00000000000E+00  0.00000000000E+00  0.99999998245E-14  0.12500000000E+03  0.12500000000E+03 0.  0.
        -13    1    3    3    0    0  0.78871300580E+01  0.59013097052E+02  0.12614596633E+02  0.60859606115E+02  0.10566000000E+00 0.  1.
         23    2    1    0    0    0  0.11896486941E+02  0.25005028826E+02  0.11192251253E+02  0.95132888385E+02  0.90322876926E+02 0.  0.
         13    1    3    3    0    0  0.40093568830E+01 -0.34008068226E+02 -0.14223453797E+01  0.34273282269E+02  0.10566000000E+00 0. -1.
         22    1    1    0    0    0 -0.11896486941E+02 -0.25005028826E+02 -0.11192251253E+02  0.29867111615E+02  0.00000000000E+00 0.  1.
</event>
<event>
 5    1  0.6924836E-004  0.9118800E+02  0.7818608E-02  0.1130116E+00
         25   -1    0    0    0    0  0.00000000000E+00  0.00000000000E+00  0.99999998245E-14  0.12500000000E+03  0.12500000000E+03 0.  0.
        -13    1    3    3    0    0  0.23434831688E+02  0.78360211818E+01 -0.33012128543E+02  0.41235983791E+02  0.10566000000E+00 0.  1.
         23    2    1    0    0    0  0.14680427883E+02  0.12269752314E+02  0.21265896501E+02  0.96394054138E+02  0.92051689471E+02 0.  0.
         13    1    3    3    0    0 -0.87544038049E+01  0.44337311318E+01  0.54278025044E+02  0.55158070347E+02  0.10566000000E+00 0. -1.
         22    1    1    0    0    0 -0.14680427883E+02 -0.12269752314E+02 -0.21265896501E+02  0.28605945862E+02  0.00000000000E+00 0. -1.
</event>
<event>
 5    1  0.6924836E-004  0.9118800E+02  0.7818608E-02  0.1130116E+00
         25   -1    0    0    0    0  0.00000000000E+00  0.00000000000E+00  0.99999998245E-14  0.12500000000E+03  0.12500000000E+03 0.  0.
        -13    1    3    3    0    0  0.13603176517E+02  0.35482162137E+02  0.29677654259E+02  0.48216227223E+02  0.10566000000E+00 0. -1.
         23    2    1    0    0    0 -0.23107020278E+02  0.15793759402E+02  0.52002535922E+01  0.96532125833E+02  0.92238990987E+02 0.  0.
         13    1    3    3    0    0 -0.36710196795E+02 -0.19688402736E+02 -0.24477400667E+02  0.48315898610E+02  0.10566000000E+00 0.  1.
         22    1    1    0    0    0  0.23107020278E+02 -0.15793759402E+02 -0.52002535922E+01  0.28467874167E+02  0.00000000000E+00 0. -1.
</event>
<event>
 5    1  0.6924836E-004  0.9118800E+02  0.7818608E-02  0.1130116E+00
         25   -1    0    0    0    0  0.00000000000E+00  0.00000000000E+00  0.99999998245E-14  0.12500000000E+03  0.12500000000E+03 0.  0.
        -13    1    3    3    0    0  0.20638812633E+02 -0.34720990847E+02  0.17555861692E+00  0.40392447031E+02  0.10566000000E+00 0. -1.
         23    2    1    0    0    0 -0.24373333153E+02 -0.37799435767E+01  0.13868544403E+02  0.96703642172E+02  0.92471133567E+02 0.  0.
         13    1    3    3    0    0 -0.45012145786E+02  0.30941047270E+02  0.13692985786E+02  0.56311195141E+02  0.10566000000E+00 0.  1.
         22    1    1    0    0    0  0.24373333153E+02  0.37799435767E+01 -0.13868544403E+02  0.28296357828E+02  0.00000000000E+00 0. -1.
</event>
<event>
 5    1  0.6924836E-004  0.9118800E+02  0.7818608E-02  0.1130116E+00
         25   -1    0    0    0    0  0.00000000000E+00  0.00000000000E+00  0.99999998245E-14  0.12500000000E+03  0.12500000000E+03 0.  0.
        -13    1    3    3    0    0  0.32940603836E+02  0.95061723584E+01  0.14607466601E+02  0.37267142881E+02  0.10566000000E+00 0. -1.
         23    2    1    0    0    0  0.17382658421E+02 -0.46885515788E+01 -0.31927560537E+02  0.88346099096E+02  0.80383610107E+02 0.  0.
         13    1    3    3    0    0 -0.15557945416E+02 -0.14194723937E+02 -0.46535027138E+02  0.51078956214E+02  0.10566000000E+00 0.  1.
         22    1    1    0    0    0 -0.17382658421E+02  0.46885515788E+01  0.31927560537E+02  0.36653900904E+02  0.00000000000E+00 0.  1.
</event>
<event>
 5    1  0.6924836E-004  0.9118800E+02  0.7818608E-02  0.1130116E+00
         25   -1    0    0    0    0  0.00000000000E+00  0.00000000000E+00  0.99999998245E-14  0.12500000000E+03  0.12500000000E+03 0.  0.
        -13    1    3    3    0    0  0.41508741447E+01  0.37454076357E+02 -0.19423533842E+02  0.42394839579E+02  0.10566000000E+00 0. -1.
         23    2    1    0    0    0  0.18924239198E+02  0.34053850930E+01  0.20491478282E+02  0.96899748061E+02  0.92735845363E+02 0.  0.
         13    1    3    3    0    0  0.14773365053E+02 -0.34048691264E+02  0.39915012124E+02  0.54504908483E+02  0.10566000000E+00 0.  1.
         22    1    1    0    0    0 -0.18924239198E+02 -0.34053850930E+01 -0.20491478282E+02  0.28100251939E+02  0.00000000000E+00 0.  1.
</event>
<event>
 5    1  0.6924836E-004  0.9118800E+02  0.7818608E-02  0.1130116E+00
         25   -1    0    0    0    0  0.00000000000E+00  0.00000000000E+00  0.99999998245E-14  0.12500000000E+03  0.12500000000E+03 0.  0.
        -13    1    3    3    0    0  0.21784257885E+02 -0.19481447722E+02  0.17778363020E+02  0.34207631497E+02  0.10566000000E+00 0.  1.
         23    2    1    0    0    0 -0.27743427183E+02  0.83111165068E+01 -0.53841346815E+01  0.95542211289E+02  0.90887583433E+02 0.  0.
         13    1    3    3    0    0 -0.49527685068E+02  0.27792564229E+02 -0.23162497701E+02  0.61334579793E+02  0.10566000000E+00 0. -1.
         22    1    1    0    0    0  0.27743427183E+02 -0.83111165068E+01  0.53841346815E+01  0.29457788711E+02  0.00000000000E+00 0. -1.
</event>
<event>
 5    1  0.6924836E-004  0.9118800E+02  0.7818608E-02  0.1130116E+00
         25   -1    0    0    0    0  0.00000000000E+00  0.00000000000E+00  0.99999998245E-14  0.12500000000E+03  0.12500000000E+03 0.  0.
        -13    1    3    3    0    0 -0.20886556138E+02  0.31510315505E+02  0.15781089806E+02  0.40965865914E+02  0.10566000000E+00 0. -1.
         23    2    1    0    0    0  0.26498445872E+02  0.61521082073E+01  0.13178858889E+02  0.94772555671E+02  0.89822819583E+02 0.  0.
         13    1    3    3    0    0  0.47385002010E+02 -0.25358207298E+02 -0.26022309174E+01  0.53806689758E+02  0.10566000000E+00 0.  1.
         22    1    1    0    0    0 -0.26498445872E+02 -0.61521082073E+01 -0.13178858889E+02  0.30227444329E+02  0.00000000000E+00 0.  1.
</event>
<event>
 5    1  0.6924836E-004  0.9118800E+02  0.7818608E-02  0.1130116E+00
         25   -1    0    0    0    0  0.00000000000E+00  0.00000000000E+00  0.99999998245E-14  0.12500000000E+03  0.12500000000E+03 0.  0.
        -13    1    3    3    0    0 -0.22776951006E+02  0.14386757143E+02 -0.13303068103E+02  0.30045816068E+02  0.10566000000E+00 0. -1.
         23    2    1    0    0    0  0.16499499698E+02 -0.30269136879E+02 -0.30845793710E+01  0.90388314581E+02  0.83498973917E+02 0.  0.
         13    1    3    3    0    0  0.39276450704E+02 -0.44655894022E+02  0.10218488732E+02  0.60342498513E+02  0.10566000000E+00 0.  1.
         22    1    1    0    0    0 -0.16499499698E+02  0.30269136879E+02  0.30845793710E+01  0.34611685419E+02  0.00000000000E+00 0.  1.
</event>
<event>
 5    1  0.6924836E-004  0.9118800E+02  0.7818608E-02  0.1130116E+00
         25   -1    0    0    0    0  0.00000000000E+00  0.00000000000E+00  0.99999998245E-14  0.12500000000E+03  0.12500000000E+03 0.  0.
        -13    1    3    3    0    0  0.47596254147E+02 -0.85985203419E+01  0.25190576911E+00  0.48367474417E+02  0.10566000000E+00 0.  1.
         23    2    1    0    0    0  0.14020916031E+02  0.23070631417E+02  0.11149614207E+02  0.95791199660E+02  0.91229380767E+02 0.  0.
         13    1    3    3    0    0 -0.33575338116E+02  0.31669151759E+02  0.10897708438E+02  0.47423725243E+02  0.10566000000E+00 0. -1.
         22    1    1    0    0    0 -0.14020916031E+02 -0.23070631417E+02 -0.11149614207E+02  0.29208800340E+02  0.00000000000E+00 0. -1.
</event>
<event>
 5    1  0.6924836E-004  0.9118800E+02  0.7818608E-02  0.1130116E+00
         25   -1    0    0    0    0  0.00000000000E+00  0.00000000000E+00  0.99999998245E-14  0.12500000000E+03  0.12500000000E+03 0.  0.
        -13    1    3    3    0    0 -0.41054060062E+02  0.15120685617E+01 -0.49957715361E+01  0.41384672237E+02  0.10566000000E+00 0.  1.
         23    2    1    0    0    0  0.16540799094E+00 -0.10529628596E+01  0.29673856222E+02  0.95307006994E+02  0.90563523278E+02 0.  0.
         13    1    3    3    0    0  0.41219468053E+02 -0.25650314213E+01  0.34669627758E+02  0.53922334757E+02  0.10566000000E+00 0. -1.
         22    1    1    0    0    0 -0.16540799094E+00  0.10529628596E+01 -0.29673856222E+02  0.29692993006E+02  0.00000000000E+00 0. -1.
</event>
<event>
 5    1  0.6924836E-004  0.9118800E+02  0.7818608E-02  0.1130116E+00
         25   -1    0    0    0    0  0.00000000000E+00  0.00000000000E+00  0.99999998245E-14  0.12500000000E+03  0.12500000000E+03 0.  0.
        -13    1    3    3    0    0 -0.25849086873E+01 -0.11585989381E+02  0.53225818981E+02  0.54533621492E+02  0.10566000000E+00 0. -1.
         23    2    1    0    0    0  0.40250367712E+01 -0.24975705705E+02  0.14960399069E+02  0.95609519623E+02  0.90980107198E+02 0.  0.
         13    1    3    3    0    0  0.66099454586E+01 -0.13389716325E+02 -0.38265419911E+02  0.41075898131E+02  0.10566000000E+00 0.  1.
         22    1    1    0    0    0 -0.40250367712E+01  0.24975705705E+02 -0.14960399069E+02  0.29390480377E+02  0.00000000000E+00 0. -1.
</event>
<event>
 5    1  0.6924836E-004  0.9118800E+02  0.7818608E-02  0.1130116E+00
         25   -1    0    0    0    0  0.00000000000E+00  0.00000000000E+00  0.99999998245E-14  0.12500000000E+03  0.12500000000E+03 0.  0.
        -13    1    3    3    0    0  0.12197006926E+02 -0.13029174129E+02  0.28823713980E+02  0.33901976463E+02  0.10566000000E+00 0.  1.
         23    2    1    0    0    0 -0.21733625160E+01  0.20262733057E+02 -0.21139669895E+02  0.95636970544E+02  0.91017814938E+02 0.  0.
         13    1    3    3    0    0 -0.14370369442E+02  0.33291907185E+02 -0.49963383875E+02  0.61734994081E+02  0.10566000000E+00 0. -1.
         22    1    1    0    0    0  0.21733625160E+01 -0.20262733057E+02  0.21139669895E+02  0.29363029456E+02  0.00000000000E+00 0. -1.
</event>
<event>
 5    1  0.6924836E-004  0.9118800E+02  0.7818608E-02  0.1130116E+00
         25   -1    0    0    0    0  0.00000000000E+00  0.00000000000E+00  0.99999998245E-14  0.12500000000E+03  0.12500000000E+03 0.  0.
        -13    1    3    3    0    0 -0.10225395395E+02 -0.77883653525E+01  0.20473870599E+02  0.24174529720E+02  0.10566000000E+00 0. -1.
         23    2    1    0    0    0  0.13632431668E+02  0.36379361809E+02 -0.12445857639E+02  0.84205386003E+02  0.73663739388E+02 0.  0.
         13    1    3    3    0    0  0.23857827063E+02  0.44167727162E+02 -0.32919728238E+02  0.60030856283E+02  0.10566000000E+00 0.  1.
         22    1    1    0    0    0 -0.13632431668E+02 -0.36379361809E+02  0.12445857639E+02  0.40794613997E+02  0.00000000000E+00 0.  1.
</event>
<event>
 5    1  0.6924836E-004  0.9118800E+02  0.7818608E-02  0.1130116E+00
         25   -1    0    0    0    0  0.00000000000E+00  0.00000000000E+00  0.99999998245E-14  0.12500000000E+03  0.12500000000E+03 0.  0.
        -13    1    3    3    0    0  0.41338905396E+00  0.24927741398E+02  0.46511364791E+02  0.52771975522E+02  0.10566000000E+00 0.  1.
         23    2    1    0    0    0  0.21591728318E+02  0.16379801118E+02  0.94638210996E+01  0.96293475894E+02  0.91915009512E+02 0.  0.
         13    1    3    3    0    0  0.21178339264E+02 -0.85479402797E+01 -0.37047543692E+02  0.43521500372E+02  0.10566000000E+00 0. -1.
         22    1    1    0    0    0 -0.21591728318E+02 -0.16379801118E+02 -0.94638210996E+01  0.28706524106E+02  0.00000000000E+00 0.  1.
</event>
<event>
 5    1  0.6924836E-004  0.9118800E+02  0.7818608E-02  0.1130116E+00
         25   -1    0    0    0    0  0.00000000000E+00  0.00000000000E+00  0.99999998245E-14  0.12500000000E+03  0.12500000000E+03 0.  0.
        -13    1    3    3    0    0  0.15207544627E+02 -0.51594170554E+02 -0.28841797089E+02  0.61033501227E+02  0.10566000000E+00 0.  1.
         23    2    1    0    0    0 -0.94139169369E+00 -0.22948756176E+02 -0.18507753731E+02  0.95503075135E+02  0.90833742539E+02 0.  0.
         13    1    3    3    0    0 -0.16148936321E+02  0.28645414378E+02  0.10334043358E+02  0.34469573907E+02  0.10566000000E+00 0. -1.
         22    1    1    0    0    0  0.94139169369E+00  0.22948756176E+02  0.18507753731E+02  0.29496924865E+02  0.00000000000E+00 0.  1.
</event>
<event>
 5    1  0.6924836E-004  0.9118800E+02  0.7818608E-02  0.1130116E+00
         25   -1    0    0    0    0  0.00000000000E+00  0.00000000000E+00  0.99999998245E-14  0.12500000000E+03  0.12500000000E+03 0.  0.
        -13    1    3    3    0    0  0.82482767892E+01  0.24313661162E+01  0.33057336610E+02  0.34157638662E+02  0.10566000000E+00 0.  1.
         23    2    1    0    0    0  0.14176898263E-01  0.29696871621E+02 -0.16285549525E+02  0.91130788193E+02  0.84603173985E+02 0.  0.
         13    1    3    3    0    0 -0.82340998910E+01  0.27265505505E+02 -0.49342886134E+02  0.56973149532E+02  0.10566000000E+00 0. -1.
         22    1    1    0    0    0 -0.14176898263E-01 -0.29696871621E+02  0.16285549525E+02  0.33869211807E+02  0.00000000000E+00 0. -1.
</event>
<event>
 5    1  0.6924836E-004  0.9118800E+02  0.7818608E-02  0.1130116E+00
         25   -1    0    0    0    0  0.00000000000E+00  0.00000000000E+00  0.99999998245E-14  0.12500000000E+03  0.12500000000E+03 0.  0.
        -13    1    3    3    0    0 -0.47547398458E+01 -0.45921453667E+02  0.30349099360E+02  0.55249130798E+02  0.10566000000E+00 0.  1.
         23    2    1    0    0    0 -0.35872518780E-01 -0.37287991323E+02 -0.58190478794E+00  0.87707451187E+02  0.79384272982E+02 0.  0.
         13    1    3    3    0    0  0.47188673270E+01  0.86334623436E+01 -0.30931004148E+02  0.32458320390E+02  0.10566000000E+00 0. -1.
         22    1    1    0    0    0  0.35872518780E-01  0.37287991323E+02  0.58190478794E+00  0.37292548813E+02  0.00000000000E+00 0.  1.
</event>
<event>
 5    1  0.6924836E-004  0.9118800E+02  0.7818608E-02  0.1130116E+00
         25   -1    0    0    0    0  0.00000000000E+00  0.00000000000E+00  0.99999998245E-14  0.12500000000E+03  0.12500000000E+03 0.  0.
        -13    1    3    3    0    0  0.34078253316E+02 -0.52309966884E+01 -0.40103325997E+02  0.52886468926E+02  0.10566000000E+00 0.  1.
         23    2    1    0    0    0  0.32847977897E+02 -0.10227275201E+02 -0.28662627983E+01  0.90477510629E+02  0.83632395979E+02 0.  0.
         13    1    3    3    0    0 -0.12302754186E+01 -0.49962785125E+01  0.37237063199E+02  0.37591041703E+02  0.10566000000E+00 0. -1.
         22    1    1    0    0    0 -0.32847977897E+02  0.10227275201E+02  0.28662627983E+01  0.34522489371E+02  0.00000000000E+00 0.  1.
</event>
<event>
 5    1  0.6924836E-004  0.9118800E+02  0.7818608E-02  0.1130116E+00
         25   -1    0    0    0    0  0.00000000000E+00  0.00000000000E+00  0.99999998245E-14  0.12500000000E+03  0.12500000000E+03 0.  0.
        -13    1    3    3    0    0 -0.21078385558E+01 -0.28915135823E+02 -0.35588045175E+02  0.45902594550E+02  0.10566000000E+00 0.  1.
         23    2    1    0    0    0 -0.21160846046E+02  0.12519627878E+02 -0.16771711089E+02  0.95237392916E+02  0.90467387655E+02 0.  0.
         13    1    3    3    0    0 -0.19053007490E+02  0.41434763701E+02  0.18816334086E+02  0.49334798366E+02  0.10566000000E+00 0. -1.
         22    1    1    0    0    0  0.21160846046E+02 -0.12519627878E+02  0.16771711089E+02  0.29762607084E+02  0.00000000000E+00 0.  1.
</event>
<event>
 5    1  0.6924836E-004  0.9118800E+02  0.7818608E-02  0.1130116E+00
         25   -1    0    0    0    0  0.00000000000E+00  0.00000000000E+00  0.99999998245E-14  0.12500000000E+03  0.12500000000E+03 0.  0.
        -13    1    3    3    0    0  0.37378352844E+01  0.37815228644E+02  0.24334208562E+02  0.45123472832E+02  0.10566000000E+00 0. -1.
         23    2    1    0    0    0  0.24139722172E+02 -0.71480362242E+01  0.15925874244E+02  0.95209832514E+02  0.90429299060E+02 0.  0.
         13    1    3    3    0    0  0.20401886888E+02 -0.44963264868E+02 -0.84083343183E+01  0.50086359682E+02  0.10566000000E+00 0.  1.
         22    1    1    0    0    0 -0.24139722172E+02  0.71480362242E+01 -0.15925874244E+02  0.29790167486E+02  0.00000000000E+00 0.  1.
</event>
<event>
 5    1  0.6924836E-004  0.9118800E+02  0.7818608E-02  0.1130116E+00
         25   -1    0    0    0    0  0.00000000000E+00  0.00000000000E+00  0.99999998245E-14  0.12500000000E+03  0.12500000000E+03 0.  0.
        -13    1    3    3    0    0 -0.14672945124E+02  0.36914971391E+02  0.86627695153E+01  0.40657904166E+02  0.10566000000E+00 0. -1.
         23    2    1    0    0    0 -0.22559304844E+02 -0.16984443890E+02  0.97031569105E+01  0.95141252147E+02  0.90334450996E+02 0.  0.
         13    1    3    3    0    0 -0.78863597201E+01 -0.53899415281E+02  0.10403873952E+01  0.54483347982E+02  0.10566000000E+00 0.  1.
         22    1    1    0    0    0  0.22559304844E+02  0.16984443890E+02 -0.97031569105E+01  0.29858747853E+02  0.00000000000E+00 0.  1.
</event>
<event>
 5    1  0.6924836E-004  0.9118800E+02  0.7818608E-02  0.1130116E+00
         25   -1    0    0    0    0  0.00000000000E+00  0.00000000000E+00  0.99999998245E-14  0.12500000000E+03  0.12500000000E+03 0.  0.
        -13    1    3    3    0    0  0.40422576056E+02 -0.16079998417E+02  0.10950486349E+02  0.44860621032E+02  0.10566000000E+00 0.  1.
         23    2    1    0    0    0 -0.36966498514E+01 -0.13432772406E+02 -0.21281484995E+02  0.99563683478E+02  0.96259653383E+02 0.  0.
         13    1    3    3    0    0 -0.44119225907E+02  0.26472260103E+01 -0.32231971344E+02  0.54703062446E+02  0.10566000000E+00 0. -1.
         22    1    1    0    0    0  0.36966498514E+01  0.13432772406E+02  0.21281484995E+02  0.25436316522E+02  0.00000000000E+00 0.  1.
</event>
<event>
 5    1  0.6924836E-004  0.9118800E+02  0.7818608E-02  0.1130116E+00
         25   -1    0    0    0    0  0.00000000000E+00  0.00000000000E+00  0.99999998245E-14  0.12500000000E+03  0.12500000000E+03 0.  0.
        -13    1    3    3    0    0 -0.44812929402E+02  0.46677413336E+01  0.85937645623E+01  0.45867749063E+02  0.10566000000E+00 0. -1.
         23    2    1    0    0    0 -0.68234931284E+01  0.16652732411E+02 -0.22346892391E+02  0.96307541849E+02  0.91934136544E+02 0.  0.
         13    1    3    3    0    0  0.37989436273E+02  0.11984991077E+02 -0.30940656954E+02  0.50439792786E+02  0.10566000000E+00 0.  1.
         22    1    1    0    0    0  0.68234931284E+01 -0.16652732411E+02  0.22346892391E+02  0.28692458151E+02  0.00000000000E+00 0.  1.
</event>
<event>
 5    1  0.6924836E-004  0.9118800E+02  0.7818608E-02  0.1130116E+00
         25   -1    0    0    0    0  0.00000000000E+00  0.00000000000E+00  0.99999998245E-14  0.12500000000E+03  0.12500000000E+03 0.  0.
        -13    1    3    3    0    0 -0.52051196015E+02 -0.29864923510E+02 -0.55498165508E+01  0.60266510523E+02  0.10566000000E+00 0.  1.
         23    2    1    0    0    0 -0.21760120350E+02 -0.15394645254E+02  0.90172653270E+01  0.96860898840E+02  0.92683465138E+02 0.  0.
         13    1    3    3    0    0  0.30291075666E+02  0.14470278256E+02  0.14567081878E+02  0.36594388316E+02  0.10566000000E+00 0. -1.
         22    1    1    0    0    0  0.21760120350E+02  0.15394645254E+02 -0.90172653270E+01  0.28139101160E+02  0.00000000000E+00 0.  1.
</event>
<event>
 5    1  0.6924836E-004  0.9118800E+02  0.7818608E-02  0.1130116E+00
         25   -1    0    0    0    0  0.00000000000E+00  0.00000000000E+00  0.99999998245E-14  0.12500000000E+03  0.12500000000E+03 0.  0.
        -13    1    3    3    0    0 -0.33842743762E+02  0.24229517898E+02  0.14486827783E+02  0.44071307970E+02  0.10566000000E+00 0.  1.
         23    2    1    0    0    0 -0.13407106656E+02 -0.23617893442E+02  0.98197854878E+00  0.97824281401E+02  0.93973774801E+02 0.  0.
         13    1    3    3    0    0  0.20435637106E+02 -0.47847411340E+02 -0.13504849234E+02  0.53752973432E+02  0.10566000000E+00 0. -1.
         22    1    1    0    0    0  0.13407106656E+02  0.23617893442E+02 -0.98197854878E+00  0.27175718599E+02  0.00000000000E+00 0. -1.
</event>
<event>
 5    1  0.6924836E-004  0.9118800E+02  0.7818608E-02  0.1130116E+00
         25   -1    0    0    0    0  0.00000000000E+00  0.00000000000E+00  0.99999998245E-14  0.12500000000E+03  0.12500000000E+03 0.  0.
        -13    1    3    3    0    0  0.48127607595E+02  0.13470489603E+02  0.15817026016E+02  0.52420512960E+02  0.10566000000E+00 0. -1.
         23    2    1    0    0    0  0.14202545612E+02 -0.85024890109E+01  0.26068784736E+02  0.94119809605E+02  0.88909799241E+02 0.  0.
         13    1    3    3    0    0 -0.33925061983E+02 -0.21972978614E+02  0.10251758720E+02  0.41699296644E+02  0.10566000000E+00 0.  1.
         22    1    1    0    0    0 -0.14202545612E+02  0.85024890109E+01 -0.26068784736E+02  0.30880190395E+02  0.00000000000E+00 0.  1.
</event>
<event>
 5    1  0.6924836E-004  0.9118800E+02  0.7818608E-02  0.1130116E+00
         25   -1    0    0    0    0  0.00000000000E+00  0.00000000000E+00  0.99999998245E-14  0.12500000000E+03  0.12500000000E+03 0.  0.
        -13    1    3    3    0    0  0.45368326317E+02 -0.47437900211E+01 -0.20935811967E+02  0.50190715908E+02  0.10566000000E+00 0. -1.
         23    2    1    0    0    0  0.13059553034E+01  0.17925274654E+02 -0.17584333257E+02  0.99855820420E+02  0.96638269360E+02 0.  0.
         13    1    3    3    0    0 -0.44062371014E+02  0.22669064675E+02  0.33514787096E+01  0.49665104512E+02  0.10566000000E+00 0.  1.
         22    1    1    0    0    0 -0.13059553034E+01 -0.17925274654E+02  0.17584333257E+02  0.25144179580E+02  0.00000000000E+00 0.  1.
</event>
<event>
 5    1  0.6924836E-004  0.9118800E+02  0.7818608E-02  0.1130116E+00
         25   -1    0    0    0    0  0.00000000000E+00  0.00000000000E+00  0.99999998245E-14  0.12500000000E+03  0.12500000000E+03 0.  0.
        -13    1    3    3    0    0 -0.15365807608E+02  0.16222099347E+02  0.36314139409E+02  0.42637922507E+02  0.10566000000E+00 0. -1.
         23    2    1    0    0    0  0.25060872650E+02 -0.80672436911E+01  0.87923046083E+01  0.97243336312E+02  0.93197822281E+02 0.  0.
         13    1    3    3    0    0  0.40426680258E+02 -0.24289343039E+02 -0.27521834801E+02  0.54605413805E+02  0.10566000000E+00 0.  1.
         22    1    1    0    0    0 -0.25060872650E+02  0.80672436911E+01 -0.87923046083E+01  0.27756663688E+02  0.00000000000E+00 0.  1.
</event>
<event>
 5    1  0.6924836E-004  0.9118800E+02  0.7818608E-02  0.1130116E+00
         25   -1    0    0    0    0  0.00000000000E+00  0.00000000000E+00  0.99999998245E-14  0.12500000000E+03  0.12500000000E+03 0.  0.
        -13    1    3    3    0    0 -0.34737197831E+02  0.44557749107E+02  0.19453479032E+01  0.56531950798E+02  0.10566000000E+00 0.  1.
         23    2    1    0    0    0 -0.31367697004E+02  0.91428942830E+01  0.34948186429E+01  0.92140622518E+02  0.86082260829E+02 0.  0.
         13    1    3    3    0    0  0.33695008271E+01 -0.35414854824E+02  0.15494707397E+01  0.35608671719E+02  0.10566000000E+00 0. -1.
         22    1    1    0    0    0  0.31367697004E+02 -0.91428942830E+01 -0.34948186429E+01  0.32859377482E+02  0.00000000000E+00 0. -1.
</event>
<event>
 5    1  0.6924836E-004  0.9118800E+02  0.7818608E-02  0.1130116E+00
         25   -1    0    0    0    0  0.00000000000E+00  0.00000000000E+00  0.99999998245E-14  0.12500000000E+03  0.12500000000E+03 0.  0.
        -13    1    3    3    0    0 -0.18972954216E+02  0.48548768888E+02 -0.31706994411E+02  0.61010659813E+02  0.10566000000E+00 0. -1.
         23    2    1    0    0    0 -0.35997596487E+01  0.28393224200E+02 -0.91241106894E+01  0.94960312154E+02  0.90083727934E+02 0.  0.
         13    1    3    3    0    0  0.15373194567E+02 -0.20155544688E+02  0.22582883721E+02  0.33949652341E+02  0.10566000000E+00 0.  1.
         22    1    1    0    0    0  0.35997596487E+01 -0.28393224200E+02  0.91241106894E+01  0.30039687846E+02  0.00000000000E+00 0. -1.
</event>
<event>
 5    1  0.6924836E-004  0.9118800E+02  0.7818608E-02  0.1130116E+00
         25   -1    0    0    0    0  0.00000000000E+00  0.00000000000E+00  0.99999998245E-14  0.12500000000E+03  0.12500000000E+03 0.  0.
        -13    1    3    3    0    0 -0.28371796142E+02 -0.25228878961E+02  0.45878901738E+02  0.59551153966E+02  0.10566000000E+00 0.  1.
         23    2    1    0    0    0 -0.23820505329E+02 -0.56157621821E+01  0.15385808306E+02  0.96091932679E+02  0.91640510527E+02 0.  0.
         13    1    3    3    0    0  0.45512908130E+01  0.19613116779E+02 -0.30493093432E+02  0.36540778713E+02  0.10566000000E+00 0. -1.
         22    1    1    0    0    0  0.23820505329E+02  0.56157621821E+01 -0.15385808306E+02  0.28908067321E+02  0.00000000000E+00 0.  1.
</event>
<event>
 5    1  0.6924836E-004  0.9118800E+02  0.7818608E-02  0.1130116E+00
         25   -1    0    0    0    0  0.00000000000E+00  0.00000000000E+00  0.99999998245E-14  0.12500000000E+03  0.12500000000E+03 0.  0.
        -13    1    3    3    0    0  0.18912268778E+02 -0.21523993006E+02  0.18407941988E+02  0.34056125404E+02  0.10566000000E+00 0.  1.
         23    2    1    0    0    0  0.73508818150E+01 -0.14410641666E+02 -0.33547506488E+02  0.87755708514E+02  0.79460223563E+02 0.  0.
         13    1    3    3    0    0 -0.11561386963E+02  0.71133513394E+01 -0.51955448477E+02  0.53699583110E+02  0.10566000000E+00 0. -1.
         22    1    1    0    0    0 -0.73508818150E+01  0.14410641666E+02  0.33547506488E+02  0.37244291486E+02  0.00000000000E+00 0. -1.
</event>
<event>
 5    1  0.6924836E-004  0.9118800E+02  0.7818608E-02  0.1130116E+00
         25   -1    0    0    0    0  0.00000000000E+00  0.00000000000E+00  0.99999998245E-14  0.12500000000E+03  0.12500000000E+03 0.  0.
        -13    1    3    3    0    0 -0.43054093074E+02  0.63164849449E+01  0.14769566565E+02  0.45953282505E+02  0.10566000000E+00 0.  1.
         23    2    1    0    0    0  0.49867270783E+01  0.13218564539E+01  0.28396520871E+02  0.96138656493E+02  0.91704220859E+02 0.  0.
         13    1    3    3    0    0  0.48040820152E+02 -0.49946284910E+01  0.13626954306E+02  0.50185373988E+02  0.10566000000E+00 0. -1.
         22    1    1    0    0    0 -0.49867270783E+01 -0.13218564539E+01 -0.28396520871E+02  0.28861343507E+02  0.00000000000E+00 0. -1.
</event>
<event>
 5    1  0.6924836E-004  0.9118800E+02  0.7818608E-02  0.1130116E+00
         25   -1    0    0    0    0  0.00000000000E+00  0.00000000000E+00  0.99999998245E-14  0.12500000000E+03  0.12500000000E+03 0.  0.
        -13    1    3    3    0    0  0.42478839794E+02 -0.20342111368E+02  0.12747120781E+02  0.48792966474E+02  0.10566000000E+00 0.  1.
         23    2    1    0    0    0  0.17404814431E+02  0.17481233914E+02 -0.85105635344E+01  0.98904966063E+02  0.95400427230E+02 0.  0.
         13    1    3    3    0    0 -0.25074025363E+02  0.37823345283E+02 -0.21257684315E+02  0.50111999588E+02  0.10566000000E+00 0. -1.
         22    1    1    0    0    0 -0.17404814431E+02 -0.17481233914E+02  0.85105635344E+01  0.26095033937E+02  0.00000000000E+00 0.  1.
</event>
<event>
 5    1  0.6924836E-004  0.9118800E+02  0.7818608E-02  0.1130116E+00
         25   -1    0    0    0    0  0.00000000000E+00  0.00000000000E+00  0.99999998245E-14  0.12500000000E+03  0.12500000000E+03 0.  0.
        -13    1    3    3    0    0 -0.19989431596E+01  0.30647102750E+02 -0.54154485074E+02  0.62257209209E+02  0.10566000000E+00 0. -1.
         23    2    1    0    0    0  0.12325548675E+00  0.20612793929E+02 -0.29017821532E+02  0.89405949487E+02  0.82015165499E+02 0.  0.
         13    1    3    3    0    0  0.21221986463E+01 -0.10034308821E+02  0.25136663543E+02  0.27148740278E+02  0.10566000000E+00 0.  1.
         22    1    1    0    0    0 -0.12325548675E+00 -0.20612793929E+02  0.29017821532E+02  0.35594050513E+02  0.00000000000E+00 0. -1.
</event>
<event>
 5    1  0.6924836E-004  0.9118800E+02  0.7818608E-02  0.1130116E+00
         25   -1    0    0    0    0  0.00000000000E+00  0.00000000000E+00  0.99999998245E-14  0.12500000000E+03  0.12500000000E+03 0.  0.
        -13    1    3    3    0    0  0.39898532885E+02 -0.87972044327E+01  0.34042855056E+02  0.53180925872E+02  0.10566000000E+00 0. -1.
         23    2    1    0    0    0  0.16214185516E+02  0.20087904801E+02  0.15569454163E+02  0.94853165437E+02  0.89934928472E+02 0.  0.
         13    1    3    3    0    0 -0.23684347369E+02  0.28885109233E+02 -0.18473400894E+02  0.41672239565E+02  0.10566000000E+00 0.  1.
         22    1    1    0    0    0 -0.16214185516E+02 -0.20087904801E+02 -0.15569454163E+02  0.30146834563E+02  0.00000000000E+00 0. -1.
</event>
<event>
 5    1  0.6924836E-004  0.9118800E+02  0.7818608E-02  0.1130116E+00
         25   -1    0    0    0    0  0.00000000000E+00  0.00000000000E+00  0.99999998245E-14  0.12500000000E+03  0.12500000000E+03 0.  0.
        -13    1    3    3    0    0 -0.55618132735E+02  0.19233447019E+02 -0.30975352920E+01  0.58931384356E+02  0.10566000000E+00 0. -1.
         23    2    1    0    0    0 -0.19218039944E+02  0.22138118304E+02 -0.36936212454E+01  0.95452205171E+02  0.90763711321E+02 0.  0.
         13    1    3    3    0    0  0.36400092791E+02  0.29046712854E+01 -0.59608595345E+00  0.36520820815E+02  0.10566000000E+00 0.  1.
         22    1    1    0    0    0  0.19218039944E+02 -0.22138118304E+02  0.36936212454E+01  0.29547794829E+02  0.00000000000E+00 0. -1.
</event>
<event>
 5    1  0.6924836E-004  0.9118800E+02  0.7818608E-02  0.1130116E+00
         25   -1    0    0    0    0  0.00000000000E+00  0.00000000000E+00  0.99999998245E-14  0.12500000000E+03  0.12500000000E+03 0.  0.
        -13    1    3    3    0    0  0.32258884120E+02 -0.29246869447E+02  0.34003826771E+02  0.55247501086E+02  0.10566000000E+00 0. -1.
         23    2    1    0    0    0  0.40953927714E+01 -0.22559479516E+01  0.30198498079E+02  0.94441681504E+02  0.89361179356E+02 0.  0.
         13    1    3    3    0    0 -0.28163491349E+02  0.26990921495E+02 -0.38053286923E+01  0.39194180418E+02  0.10566000000E+00 0.  1.
         22    1    1    0    0    0 -0.40953927714E+01  0.22559479516E+01 -0.30198498079E+02  0.30558318496E+02  0.00000000000E+00 0. -1.
</event>
<event>
 5    1  0.6924836E-004  0.9118800E+02  0.7818608E-02  0.1130116E+00
         25   -1    0    0    0    0  0.00000000000E+00  0.00000000000E+00  0.99999998245E-14  0.12500000000E+03  0.12500000000E+03 0.  0.
        -13    1    3    3    0    0 -0.26905014450E+02 -0.30495456448E+02 -0.11870461193E+02  0.42364745715E+02  0.10566000000E+00 0. -1.
         23    2    1    0    0    0  0.16345225893E+02 -0.72747737488E+01  0.17831187670E+02  0.99740546397E+02  0.96489049116E+02 0.  0.
         13    1    3    3    0    0  0.43250240342E+02  0.23220682700E+02  0.29701648863E+02  0.57375800682E+02  0.10566000000E+00 0.  1.
         22    1    1    0    0    0 -0.16345225893E+02  0.72747737488E+01 -0.17831187670E+02  0.25259453603E+02  0.00000000000E+00 0.  1.
</event>
<event>
 5    1  0.6924836E-004  0.9118800E+02  0.7818608E-02  0.1130116E+00
         25   -1    0    0    0    0  0.00000000000E+00  0.00000000000E+00  0.99999998245E-14  0.12500000000E+03  0.12500000000E+03 0.  0.
        -13    1    3    3    0    0  0.13549785156E+02 -0.90067567070E+01 -0.32693444774E+02  0.36518363043E+02  0.10566000000E+00 0. -1.
         23    2    1    0    0    0 -0.25878443504E+02 -0.16429309720E+02 -0.37093537962E+02  0.76879873082E+02  0.59958054258E+02 0.  0.
         13    1    3    3    0    0 -0.39428228660E+02 -0.74225530128E+01 -0.44000931886E+01  0.40361510039E+02  0.10566000000E+00 0.  1.
         22    1    1    0    0    0  0.25878443504E+02  0.16429309720E+02  0.37093537962E+02  0.48120126918E+02  0.00000000000E+00 0. -1.
</event>
<event>
 5    1  0.6924836E-004  0.9118800E+02  0.7818608E-02  0.1130116E+00
         25   -1    0    0    0    0  0.00000000000E+00  0.00000000000E+00  0.99999998245E-14  0.12500000000E+03  0.12500000000E+03 0.  0.
        -13    1    3    3    0    0 -0.41870527071E+02  0.16867195807E+02  0.40099032646E+02  0.60378695869E+02  0.10566000000E+00 0.  1.
         23    2    1    0    0    0 -0.17969173191E+02  0.18386129439E+02  0.14295692142E+02  0.95583886138E+02  0.90944881849E+02 0.  0.
         13    1    3    3    0    0  0.23901353880E+02  0.15189336325E+01 -0.25803340504E+02  0.35205190269E+02  0.10566000000E+00 0. -1.
         22    1    1    0    0    0  0.17969173191E+02 -0.18386129439E+02 -0.14295692142E+02  0.29416113862E+02  0.00000000000E+00 0.  1.
</event>
<event>
 5    1  0.6924836E-004  0.9118800E+02  0.7818608E-02  0.1130116E+00
         25   -1    0    0    0    0  0.00000000000E+00  0.00000000000E+00  0.99999998245E-14  0.12500000000E+03  0.12500000000E+03 0.  0.
        -13    1    3    3    0    0  0.13463003572E+02 -0.45766790273E+02  0.36833563018E+02  0.60270839431E+02  0.10566000000E+00 0.  1.
         23    2    1    0    0    0  0.14407813004E+02 -0.13773221396E+02  0.21230870901E+02  0.95878932327E+02  0.91349510572E+02 0.  0.
         13    1    3    3    0    0  0.94480943225E+00  0.31993568877E+02 -0.15602692117E+02  0.35608092896E+02  0.10566000000E+00 0. -1.
         22    1    1    0    0    0 -0.14407813004E+02  0.13773221396E+02 -0.21230870901E+02  0.29121067673E+02  0.00000000000E+00 0.  1.
</event>
<event>
 5    1  0.6924836E-004  0.9118800E+02  0.7818608E-02  0.1130116E+00
         25   -1    0    0    0    0  0.00000000000E+00  0.00000000000E+00  0.99999998245E-14  0.12500000000E+03  0.12500000000E+03 0.  0.
        -13    1    3    3    0    0 -0.17128214928E+02  0.17914581954E+02  0.27012203993E+02  0.36660309898E+02  0.10566000000E+00 0.  1.
         23    2    1    0    0    0 -0.87503146268E+01 -0.27967507943E+02 -0.75823434563E+01  0.94730519679E+02  0.89764302035E+02 0.  0.
         13    1    3    3    0    0  0.83779003010E+01 -0.45882089897E+02 -0.34594547449E+02  0.58070209781E+02  0.10566000000E+00 0. -1.
         22    1    1    0    0    0  0.87503146268E+01  0.27967507943E+02  0.75823434563E+01  0.30269480321E+02  0.00000000000E+00 0. -1.
</event>
<event>
 5    1  0.6924836E-004  0.9118800E+02  0.7818608E-02  0.1130116E+00
         25   -1    0    0    0    0  0.00000000000E+00  0.00000000000E+00  0.99999998245E-14  0.12500000000E+03  0.12500000000E+03 0.  0.
        -13    1    3    3    0    0  0.17728834839E+02  0.25234031695E+02  0.22084232500E+02  0.37931417446E+02  0.10566000000E+00 0. -1.
         23    2    1    0    0    0 -0.21729573632E+02 -0.15784301560E+02  0.11308583029E+02  0.95858919098E+02  0.91322120949E+02 0.  0.
         13    1    3    3    0    0 -0.39458408471E+02 -0.41018333255E+02 -0.10775649471E+02  0.57927501652E+02  0.10566000000E+00 0.  1.
         22    1    1    0    0    0  0.21729573632E+02  0.15784301560E+02 -0.11308583029E+02  0.29141080902E+02  0.00000000000E+00 0.  1.
</event>
<event>
 5    1  0.6924836E-004  0.9118800E+02  0.7818608E-02  0.1130116E+00
         25   -1    0    0    0    0  0.00000000000E+00  0.00000000000E+00  0.99999998245E-14  0.12500000000E+03  0.12500000000E+03 0.  0.
        -13    1    3    3    0    0 -0.19316502869E+02  0.39840316185E+02  0.27742630843E+02  0.52249811550E+02  0.10566000000E+00 0. -1.
         23    2    1    0    0    0  0.11414702759E+02  0.88955204328E+01  0.25205600604E+02  0.95935450723E+02  0.91426815983E+02 0.  0.
         13    1    3    3    0    0  0.30731205629E+02 -0.30944795753E+02 -0.25370302389E+01  0.43685639174E+02  0.10566000000E+00 0.  1.
         22    1    1    0    0    0 -0.11414702759E+02 -0.88955204328E+01 -0.25205600604E+02  0.29064549277E+02  0.00000000000E+00 0. -1.
</event>
<event>
 5    1  0.6924836E-004  0.9118800E+02  0.7818608E-02  0.1130116E+00
         25   -1    0    0    0    0  0.00000000000E+00  0.00000000000E+00  0.99999998245E-14  0.12500000000E+03  0.12500000000E+03 0.  0.
        -13    1    3    3    0    0 -0.27331919651E+02  0.18779602721E+02 -0.34487000821E+01  0.33340845917E+02  0.10566000000E+00 0.  1.
         23    2    1    0    0    0  0.12765543281E+02 -0.27210251449E+02  0.34574794418E+01  0.94745892126E+02  0.89785706164E+02 0.  0.
         13    1    3    3    0    0  0.40097462932E+02 -0.45989854170E+02  0.69061795239E+01  0.61405046208E+02  0.10566000000E+00 0. -1.
         22    1    1    0    0    0 -0.12765543281E+02  0.27210251449E+02 -0.34574794418E+01  0.30254107874E+02  0.00000000000E+00 0. -1.
</event>
<event>
 5    1  0.6924836E-004  0.9118800E+02  0.7818608E-02  0.1130116E+00
         25   -1    0    0    0    0  0.00000000000E+00  0.00000000000E+00  0.99999998245E-14  0.12500000000E+03  0.12500000000E+03 0.  0.
        -13    1    3    3    0    0 -0.99011454879E+01 -0.21534964323E+02 -0.38204444592E+02  0.44959738890E+02  0.10566000000E+00 0. -1.
         23    2    1    0    0    0  0.17337890673E+02  0.16128733266E+02 -0.15574705056E+02  0.96657277347E+02  0.92408437585E+02 0.  0.
         13    1    3    3    0    0  0.27239036161E+02  0.37663697589E+02  0.22629739536E+02  0.51697538458E+02  0.10566000000E+00 0.  1.
         22    1    1    0    0    0 -0.17337890673E+02 -0.16128733266E+02  0.15574705056E+02  0.28342722653E+02  0.00000000000E+00 0.  1.
</event>
<event>
 5    1  0.6924836E-004  0.9118800E+02  0.7818608E-02  0.1130116E+00
         25   -1    0    0    0    0  0.00000000000E+00  0.00000000000E+00  0.99999998245E-14  0.12500000000E+03  0.12500000000E+03 0.  0.
        -13    1    3    3    0    0 -0.31472778205E+02 -0.44380446115E+02 -0.17328790942E+02  0.57100419655E+02  0.10566000000E+00 0.  1.
         23    2    1    0    0    0 -0.19806136956E+02 -0.19637057188E+02  0.96159994742E+01  0.95498059013E+02  0.90826839388E+02 0.  0.
         13    1    3    3    0    0  0.11666641249E+02  0.24743388927E+02  0.26944790416E+02  0.38397639358E+02  0.10566000000E+00 0. -1.
         22    1    1    0    0    0  0.19806136956E+02  0.19637057188E+02 -0.96159994742E+01  0.29501940987E+02  0.00000000000E+00 0.  1.
</event>
<event>
 5    1  0.6924836E-004  0.9118800E+02  0.7818608E-02  0.1130116E+00
         25   -1    0    0    0    0  0.00000000000E+00  0.00000000000E+00  0.99999998245E-14  0.12500000000E+03  0.12500000000E+03 0.  0.
        -13    1    3    3    0    0 -0.15731442454E+02 -0.19322409418E+02  0.31121541812E+02  0.39867221074E+02  0.10566000000E+00 0.  1.
         23    2    1    0    0    0  0.13884272120E+02  0.23414608224E+02  0.97220063580E+01  0.96094389849E+02  0.91643862109E+02 0.  0.
         13    1    3    3    0    0  0.29615714574E+02  0.42737017642E+02 -0.21399535454E+02  0.56227168774E+02  0.10566000000E+00 0. -1.
         22    1    1    0    0    0 -0.13884272120E+02 -0.23414608224E+02 -0.97220063580E+01  0.28905610151E+02  0.00000000000E+00 0. -1.
</event>
<event>
 5    1  0.6924836E-004  0.9118800E+02  0.7818608E-02  0.1130116E+00
         25   -1    0    0    0    0  0.00000000000E+00  0.00000000000E+00  0.99999998245E-14  0.12500000000E+03  0.12500000000E+03 0.  0.
        -13    1    3    3    0    0  0.48300139509E+01 -0.21919176145E+02  0.34764047436E+02  0.41380302993E+02  0.10566000000E+00 0.  1.
         23    2    1    0    0    0  0.21152751767E+02  0.19800265508E+02  0.39398100682E+01  0.95759419895E+02  0.91185826605E+02 0.  0.
         13    1    3    3    0    0  0.16322737816E+02  0.41719441653E+02 -0.30824237368E+02  0.54379116902E+02  0.10566000000E+00 0. -1.
         22    1    1    0    0    0 -0.21152751767E+02 -0.19800265508E+02 -0.39398100682E+01  0.29240580105E+02  0.00000000000E+00 0. -1.
</event>
<event>
 5    1  0.6924836E-004  0.9118800E+02  0.7818608E-02  0.1130116E+00
         25   -1    0    0    0    0  0.00000000000E+00  0.00000000000E+00  0.99999998245E-14  0.12500000000E+03  0.12500000000E+03 0.  0.
        -13    1    3    3    0    0 -0.77292842710E+01 -0.31919243379E+02 -0.39420237441E+02  0.51308344518E+02  0.10566000000E+00 0.  1.
         23    2    1    0    0    0  0.11789961818E+01 -0.23505384718E+02  0.78883794490E+01  0.10017824194E+03  0.97054420227E+02 0.  0.
         13    1    3    3    0    0  0.89082804528E+01  0.84138586611E+01  0.47308616890E+02  0.48869897425E+02  0.10566000000E+00 0. -1.
         22    1    1    0    0    0 -0.11789961818E+01  0.23505384718E+02 -0.78883794490E+01  0.24821758057E+02  0.00000000000E+00 0.  1.
</event>
<event>
 5    1  0.6924836E-004  0.9118800E+02  0.7818608E-02  0.1130116E+00
         25   -1    0    0    0    0  0.00000000000E+00  0.00000000000E+00  0.99999998245E-14  0.12500000000E+03  0.12500000000E+03 0.  0.
        -13    1    3    3    0    0  0.16570603453E+02 -0.54736726987E+02 -0.12138584902E+02  0.58464096568E+02  0.10566000000E+00 0.  1.
         23    2    1    0    0    0  0.58540861209E+01 -0.26325697482E+02  0.10206178746E+02  0.96164626640E+02  0.91739613363E+02 0.  0.
         13    1    3    3    0    0 -0.10716517332E+02  0.28411029505E+02  0.22344763647E+02  0.37700530072E+02  0.10566000000E+00 0. -1.
         22    1    1    0    0    0 -0.58540861209E+01  0.26325697482E+02 -0.10206178746E+02  0.28835373360E+02  0.00000000000E+00 0.  1.
</event>
<event>
 5    1  0.6924836E-004  0.9118800E+02  0.7818608E-02  0.1130116E+00
         25   -1    0    0    0    0  0.00000000000E+00  0.00000000000E+00  0.99999998245E-14  0.12500000000E+03  0.12500000000E+03 0.  0.
        -13    1    3    3    0    0  0.78289152978E+01 -0.33298122744E+02 -0.37240216949E+02  0.50565816669E+02  0.10566000000E+00 0.  1.
         23    2    1    0    0    0  0.71552084958E+01 -0.27752868078E+02  0.72753337430E+01  0.95430604060E+02  0.90733957342E+02 0.  0.
         13    1    3    3    0    0 -0.67370680201E+00  0.55452546658E+01  0.44515550692E+02  0.44864787391E+02  0.10566000000E+00 0. -1.
         22    1    1    0    0    0 -0.71552084958E+01  0.27752868078E+02 -0.72753337430E+01  0.29569395940E+02  0.00000000000E+00 0.  1.
</event>
<event>
 5    1  0.6924836E-004  0.9118800E+02  0.7818608E-02  0.1130116E+00
         25   -1    0    0    0    0  0.00000000000E+00  0.00000000000E+00  0.99999998245E-14  0.12500000000E+03  0.12500000000E+03 0.  0.
        -13    1    3    3    0    0  0.17920917215E+02 -0.39735909277E+02  0.33078785998E+02  0.54720371043E+02  0.10566000000E+00 0. -1.
         23    2    1    0    0    0  0.26083164724E+02 -0.10148259838E+02  0.45111399387E+01  0.96650942815E+02  0.92399868526E+02 0.  0.
         13    1    3    3    0    0  0.81622475091E+01  0.29587649439E+02 -0.28567646060E+02  0.41930571772E+02  0.10566000000E+00 0.  1.
         22    1    1    0    0    0 -0.26083164724E+02  0.10148259838E+02 -0.45111399387E+01  0.28349057185E+02  0.00000000000E+00 0.  1.
</event>
<event>
 5    1  0.6924836E-004  0.9118800E+02  0.7818608E-02  0.1130116E+00
         25   -1    0    0    0    0  0.00000000000E+00  0.00000000000E+00  0.99999998245E-14  0.12500000000E+03  0.12500000000E+03 0.  0.
        -13    1    3    3    0    0 -0.11981548700E+02 -0.43923241946E+02 -0.39080731395E+02  0.60001028514E+02  0.10566000000E+00 0. -1.
         23    2    1    0    0    0  0.16088674243E+01 -0.14093187082E+02 -0.26171686015E+02  0.95231501123E+02  0.90459246519E+02 0.  0.
         13    1    3    3    0    0  0.13590416125E+02  0.29830054864E+02  0.12909045381E+02  0.35230472610E+02  0.10566000000E+00 0.  1.
         22    1    1    0    0    0 -0.16088674243E+01  0.14093187082E+02  0.26171686015E+02  0.29768498877E+02  0.00000000000E+00 0. -1.
</event>
<event>
 5    1  0.6924836E-004  0.9118800E+02  0.7818608E-02  0.1130116E+00
         25   -1    0    0    0    0  0.00000000000E+00  0.00000000000E+00  0.99999998245E-14  0.12500000000E+03  0.12500000000E+03 0.  0.
        -13    1    3    3    0    0  0.22711121388E+02  0.43192089665E+02 -0.16132502622E+02  0.51396696871E+02  0.10566000000E+00 0.  1.
         23    2    1    0    0    0  0.29327165230E+02  0.65913157608E+01  0.55263820221E+01  0.94437458186E+02  0.89355271509E+02 0.  0.
         13    1    3    3    0    0  0.66160438413E+01 -0.36600773904E+02  0.21658884644E+02  0.43040761315E+02  0.10566000000E+00 0. -1.
         22    1    1    0    0    0 -0.29327165230E+02 -0.65913157608E+01 -0.55263820221E+01  0.30562541814E+02  0.00000000000E+00 0. -1.
</event>
<event>
 5    1  0.6924836E-004  0.9118800E+02  0.7818608E-02  0.1130116E+00
         25   -1    0    0    0    0  0.00000000000E+00  0.00000000000E+00  0.99999998245E-14  0.12500000000E+03  0.12500000000E+03 0.  0.
        -13    1    3    3    0    0 -0.42737194308E+02 -0.20485568478E+01 -0.21451365284E+02  0.47862684829E+02  0.10566000000E+00 0. -1.
         23    2    1    0    0    0  0.49134957618E+01 -0.11989052263E+02 -0.25180048913E+02  0.96681901935E+02  0.92441741025E+02 0.  0.
         13    1    3    3    0    0  0.47650690070E+02 -0.99404954154E+01 -0.37286836294E+01  0.48819217106E+02  0.10566000000E+00 0.  1.
         22    1    1    0    0    0 -0.49134957618E+01  0.11989052263E+02  0.25180048913E+02  0.28318098065E+02  0.00000000000E+00 0.  1.
</event>
<event>
 5    1  0.6924836E-004  0.9118800E+02  0.7818608E-02  0.1130116E+00
         25   -1    0    0    0    0  0.00000000000E+00  0.00000000000E+00  0.99999998245E-14  0.12500000000E+03  0.12500000000E+03 0.  0.
        -13    1    3    3    0    0 -0.12450243048E+02 -0.30868758749E+02 -0.12146686566E+01  0.33307287531E+02  0.10566000000E+00 0.  1.
         23    2    1    0    0    0  0.21481066584E+02  0.20778350661E+02 -0.70869679216E+00  0.95105546854E+02  0.90285030395E+02 0.  0.
         13    1    3    3    0    0  0.33931309632E+02  0.51647109410E+02  0.50597186441E+00  0.61798259323E+02  0.10566000000E+00 0. -1.
         22    1    1    0    0    0 -0.21481066584E+02 -0.20778350661E+02  0.70869679216E+00  0.29894453146E+02  0.00000000000E+00 0. -1.
</event>
<event>
 5    1  0.6924836E-004  0.9118800E+02  0.7818608E-02  0.1130116E+00
         25   -1    0    0    0    0  0.00000000000E+00  0.00000000000E+00  0.99999998245E-14  0.12500000000E+03  0.12500000000E+03 0.  0.
        -13    1    3    3    0    0 -0.46565232337E+02  0.80437627396E+01  0.81225062120E+01  0.47947984867E+02  0.10566000000E+00 0. -1.
         23    2    1    0    0    0 -0.13362928242E+02 -0.42981865368E+01 -0.24926062360E+02  0.96393167888E+02  0.92050485995E+02 0.  0.
         13    1    3    3    0    0  0.33202304096E+02 -0.12341949276E+02 -0.33048568572E+02  0.48445183021E+02  0.10566000000E+00 0.  1.
         22    1    1    0    0    0  0.13362928242E+02  0.42981865368E+01  0.24926062360E+02  0.28606832112E+02  0.00000000000E+00 0. -1.
</event>
<event>
 5    1  0.6924836E-004  0.9118800E+02  0.7818608E-02  0.1130116E+00
         25   -1    0    0    0    0  0.00000000000E+00  0.00000000000E+00  0.99999998245E-14  0.12500000000E+03  0.12500000000E+03 0.  0.
        -13    1    3    3    0    0  0.47050238955E+01 -0.13792389875E+02 -0.54168522951E+02  0.56094628184E+02  0.10566000000E+00 0.  1.
         23    2    1    0    0    0 -0.16054298272E+02  0.22924012019E+01 -0.23105228649E+02  0.96771518156E+02  0.92562841027E+02 0.  0.
         13    1    3    3    0    0 -0.20759322168E+02  0.16084791077E+02  0.31063294302E+02  0.40676889972E+02  0.10566000000E+00 0. -1.
         22    1    1    0    0    0  0.16054298272E+02 -0.22924012019E+01  0.23105228649E+02  0.28228481844E+02  0.00000000000E+00 0.  1.
</event>
<event>
 5    1  0.6924836E-004  0.9118800E+02  0.7818608E-02  0.1130116E+00
         25   -1    0    0    0    0  0.00000000000E+00  0.00000000000E+00  0.99999998245E-14  0.12500000000E+03  0.12500000000E+03 0.  0.
        -13    1    3    3    0    0  0.55129317740E+02  0.37022809603E+01  0.15926249958E+02  0.57503088269E+02  0.10566000000E+00 0.  1.
         23    2    1    0    0    0  0.27108850899E+02 -0.83173321856E+01 -0.71680420468E+01  0.95751946415E+02  0.91175581181E+02 0.  0.
         13    1    3    3    0    0 -0.28020466841E+02 -0.12019613146E+02 -0.23094292005E+02  0.38248858145E+02  0.10566000000E+00 0. -1.
         22    1    1    0    0    0 -0.27108850899E+02  0.83173321856E+01  0.71680420468E+01  0.29248053585E+02  0.00000000000E+00 0.  1.
</event>
<event>
 5    1  0.6924836E-004  0.9118800E+02  0.7818608E-02  0.1130116E+00
         25   -1    0    0    0    0  0.00000000000E+00  0.00000000000E+00  0.99999998245E-14  0.12500000000E+03  0.12500000000E+03 0.  0.
        -13    1    3    3    0    0  0.18716706983E+02 -0.14034529865E+02  0.23977383283E+02  0.33499391367E+02  0.10566000000E+00 0. -1.
         23    2    1    0    0    0 -0.57479969454E+01  0.16823695836E+02 -0.23722805834E+02  0.95354633970E+02  0.90629236411E+02 0.  0.
         13    1    3    3    0    0 -0.24464703928E+02  0.30858225701E+02 -0.47700189116E+02  0.61855242603E+02  0.10566000000E+00 0.  1.
         22    1    1    0    0    0  0.57479969454E+01 -0.16823695836E+02  0.23722805834E+02  0.29645366030E+02  0.00000000000E+00 0.  1.
</event>
<event>
 5    1  0.6924836E-004  0.9118800E+02  0.7818608E-02  0.1130116E+00
         25   -1    0    0    0    0  0.00000000000E+00  0.00000000000E+00  0.99999998245E-14  0.12500000000E+03  0.12500000000E+03 0.  0.
        -13    1    3    3    0    0 -0.11178103194E+01 -0.20994185756E+02  0.27723529179E+02  0.34793829477E+02  0.10566000000E+00 0. -1.
         23    2    1    0    0    0 -0.31319043852E+01 -0.84624761485E+01 -0.29884136550E+02  0.93783274596E+02  0.88435392513E+02 0.  0.
         13    1    3    3    0    0 -0.20140940657E+01  0.12531709608E+02 -0.57607665729E+02  0.58989445119E+02  0.10566000000E+00 0.  1.
         22    1    1    0    0    0  0.31319043852E+01  0.84624761485E+01  0.29884136550E+02  0.31216725404E+02  0.00000000000E+00 0.  1.
</event>
<event>
 5    1  0.6924836E-004  0.9118800E+02  0.7818608E-02  0.1130116E+00
         25   -1    0    0    0    0  0.00000000000E+00  0.00000000000E+00  0.99999998245E-14  0.12500000000E+03  0.12500000000E+03 0.  0.
        -13    1    3    3    0    0  0.27619057608E+02 -0.37171415925E+02  0.33235712542E+02  0.57001318030E+02  0.10566000000E+00 0. -1.
         23    2    1    0    0    0 -0.54047992595E+01 -0.20148705326E+02  0.18983716960E+02  0.96794261382E+02  0.92593549158E+02 0.  0.
         13    1    3    3    0    0 -0.33023856867E+02  0.17022710599E+02 -0.14251995581E+02  0.39792943352E+02  0.10566000000E+00 0.  1.
         22    1    1    0    0    0  0.54047992595E+01  0.20148705326E+02 -0.18983716960E+02  0.28205738618E+02  0.00000000000E+00 0. -1.
</event>
<event>
 5    1  0.6924836E-004  0.9118800E+02  0.7818608E-02  0.1130116E+00
         25   -1    0    0    0    0  0.00000000000E+00  0.00000000000E+00  0.99999998245E-14  0.12500000000E+03  0.12500000000E+03 0.  0.
        -13    1    3    3    0    0 -0.73484329485E+01  0.29093834677E+02 -0.33082878507E+02  0.44664736620E+02  0.10566000000E+00 0.  1.
         23    2    1    0    0    0  0.17411425043E+01  0.22428162382E+02  0.17506709302E+02  0.96494931756E+02  0.92188572713E+02 0.  0.
         13    1    3    3    0    0  0.90895754528E+01 -0.66656722951E+01  0.50589587809E+02  0.51830195135E+02  0.10566000000E+00 0. -1.
         22    1    1    0    0    0 -0.17411425043E+01 -0.22428162382E+02 -0.17506709302E+02  0.28505068244E+02  0.00000000000E+00 0. -1.
</event>
<event>
 5    1  0.6924836E-004  0.9118800E+02  0.7818608E-02  0.1130116E+00
         25   -1    0    0    0    0  0.00000000000E+00  0.00000000000E+00  0.99999998245E-14  0.12500000000E+03  0.12500000000E+03 0.  0.
        -13    1    3    3    0    0  0.36322626142E+02 -0.10035351640E+02 -0.30514158220E+01  0.37806927341E+02  0.10566000000E+00 0.  1.
         23    2    1    0    0    0 -0.91754014922E+01  0.19511215860E+02  0.18898066677E+02  0.96329240313E+02  0.91963634543E+02 0.  0.
         13    1    3    3    0    0 -0.45498027634E+02  0.29546567500E+02  0.21949482499E+02  0.58522312973E+02  0.10566000000E+00 0. -1.
         22    1    1    0    0    0  0.91754014922E+01 -0.19511215860E+02 -0.18898066677E+02  0.28670759687E+02  0.00000000000E+00 0. -1.
</event>
<event>
 5    1  0.6924836E-004  0.9118800E+02  0.7818608E-02  0.1130116E+00
         25   -1    0    0    0    0  0.00000000000E+00  0.00000000000E+00  0.99999998245E-14  0.12500000000E+03  0.12500000000E+03 0.  0.
        -13    1    3    3    0    0  0.26233343478E+01  0.18673860898E+02  0.31107658368E+02  0.36377088079E+02  0.10566000000E+00 0. -1.
         23    2    1    0    0    0  0.17011568367E+02 -0.21299837128E+02 -0.10448800215E+02  0.95806611264E+02  0.91250494881E+02 0.  0.
         13    1    3    3    0    0  0.14388234019E+02 -0.39973698025E+02 -0.41556458583E+02  0.59429523185E+02  0.10566000000E+00 0.  1.
         22    1    1    0    0    0 -0.17011568367E+02  0.21299837128E+02  0.10448800215E+02  0.29193388736E+02  0.00000000000E+00 0.  1.
</event>
<event>
 5    1  0.6924836E-004  0.9118800E+02  0.7818608E-02  0.1130116E+00
         25   -1    0    0    0    0  0.00000000000E+00  0.00000000000E+00  0.99999998245E-14  0.12500000000E+03  0.12500000000E+03 0.  0.
        -13    1    3    3    0    0  0.32630575292E+02 -0.23880335651E+02 -0.23265601527E+02  0.46651090589E+02  0.10566000000E+00 0. -1.
         23    2    1    0    0    0  0.11811722910E+02  0.82800261441E-03  0.20892992105E+02  0.10099929339E+03  0.98106184040E+02 0.  0.
         13    1    3    3    0    0 -0.20818852382E+02  0.23881163653E+02  0.44158593631E+02  0.54348202799E+02  0.10566000000E+00 0.  1.
         22    1    1    0    0    0 -0.11811722910E+02 -0.82800261441E-03 -0.20892992105E+02  0.24000706612E+02  0.00000000000E+00 0.  1.
</event>
<event>
 5    1  0.6924836E-004  0.9118800E+02  0.7818608E-02  0.1130116E+00
         25   -1    0    0    0    0  0.00000000000E+00  0.00000000000E+00  0.99999998245E-14  0.12500000000E+03  0.12500000000E+03 0.  0.
        -13    1    3    3    0    0  0.78566549022E+00  0.49217491649E+02  0.35706089149E+02  0.60810481998E+02  0.10566000000E+00 0. -1.
         23    2    1    0    0    0 -0.26178935210E+01  0.18025105076E+02  0.25212762716E+02  0.93896283450E+02  0.88594982151E+02 0.  0.
         13    1    3    3    0    0 -0.34035590112E+01 -0.31192386573E+02 -0.10493326433E+02  0.33085801452E+02  0.10566000000E+00 0.  1.
         22    1    1    0    0    0  0.26178935210E+01 -0.18025105076E+02 -0.25212762716E+02  0.31103716550E+02  0.00000000000E+00 0. -1.
</event>
<event>
 5    1  0.6924836E-004  0.9118800E+02  0.7818608E-02  0.1130116E+00
         25   -1    0    0    0    0  0.00000000000E+00  0.00000000000E+00  0.99999998245E-14  0.12500000000E+03  0.12500000000E+03 0.  0.
        -13    1    3    3    0    0 -0.57122246381E+02  0.26871934014E+01  0.86801500713E+01  0.57840541226E+02  0.10566000000E+00 0.  1.
         23    2    1    0    0    0 -0.19379807615E+02  0.15652280739E+02  0.10897505524E+02  0.97809441672E+02  0.93954033538E+02 0.  0.
         13    1    3    3    0    0  0.37742438766E+02  0.12965087337E+02  0.22173554528E+01  0.39968900447E+02  0.10566000000E+00 0. -1.
         22    1    1    0    0    0  0.19379807615E+02 -0.15652280739E+02 -0.10897505524E+02  0.27190558328E+02  0.00000000000E+00 0.  1.
</event>
<event>
 5    1  0.6924836E-004  0.9118800E+02  0.7818608E-02  0.1130116E+00
         25   -1    0    0    0    0  0.00000000000E+00  0.00000000000E+00  0.99999998245E-14  0.12500000000E+03  0.12500000000E+03 0.  0.
        -13    1    3    3    0    0  0.19752936717E+02  0.21886730688E+02 -0.18004342457E+01  0.29537437544E+02  0.10566000000E+00 0. -1.
         23    2    1    0    0    0  0.41721626063E+02 -0.14668493327E+02 -0.20680630492E+02  0.76178414043E+02  0.58477376059E+02 0.  0.
         13    1    3    3    0    0  0.21968689346E+02 -0.36555224016E+02 -0.18880196246E+02  0.46640976499E+02  0.10566000000E+00 0.  1.
         22    1    1    0    0    0 -0.41721626063E+02  0.14668493327E+02  0.20680630492E+02  0.48821585957E+02  0.00000000000E+00 0.  1.
</event>
<event>
 5    1  0.6924836E-004  0.9118800E+02  0.7818608E-02  0.1130116E+00
         25   -1    0    0    0    0  0.00000000000E+00  0.00000000000E+00  0.99999998245E-14  0.12500000000E+03  0.12500000000E+03 0.  0.
        -13    1    3    3    0    0  0.32484999835E+02 -0.34024794179E+02 -0.13854539184E+02  0.49039996464E+02  0.10566000000E+00 0. -1.
         23    2    1    0    0    0  0.41127927446E+00 -0.35820391019E+01 -0.28995450589E+02  0.95781233605E+02  0.91215724529E+02 0.  0.
         13    1    3    3    0    0 -0.32073720560E+02  0.30442755077E+02 -0.15140911405E+02  0.46741237141E+02  0.10566000000E+00 0.  1.
         22    1    1    0    0    0 -0.41127927446E+00  0.35820391019E+01  0.28995450589E+02  0.29218766395E+02  0.00000000000E+00 0. -1.
</event>
<event>
 5    1  0.6924836E-004  0.9118800E+02  0.7818608E-02  0.1130116E+00
         25   -1    0    0    0    0  0.00000000000E+00  0.00000000000E+00  0.99999998245E-14  0.12500000000E+03  0.12500000000E+03 0.  0.
        -13    1    3    3    0    0 -0.98741173683E+00  0.49507543457E+02 -0.83607274915E+01  0.50218370835E+02  0.10566000000E+00 0. -1.
         23    2    1    0    0    0 -0.16017336820E+02  0.27339158811E+02  0.18630453508E+02  0.88242980518E+02  0.80223095985E+02 0.  0.
         13    1    3    3    0    0 -0.15029925083E+02 -0.22168384646E+02  0.26991180999E+02  0.38024609683E+02  0.10566000000E+00 0.  1.
         22    1    1    0    0    0  0.16017336820E+02 -0.27339158811E+02 -0.18630453508E+02  0.36757019482E+02  0.00000000000E+00 0. -1.
</event>
<event>
 5    1  0.6924836E-004  0.9118800E+02  0.7818608E-02  0.1130116E+00
         25   -1    0    0    0    0  0.00000000000E+00  0.00000000000E+00  0.99999998245E-14  0.12500000000E+03  0.12500000000E+03 0.  0.
        -13    1    3    3    0    0 -0.14562382394E+02 -0.39176870582E+02 -0.32565720627E+01  0.41922626292E+02  0.10566000000E+00 0. -1.
         23    2    1    0    0    0 -0.67739142954E+01  0.86919663540E+01 -0.26938861070E+02  0.95894357425E+02  0.91370615387E+02 0.  0.
         13    1    3    3    0    0  0.77884680988E+01  0.47868836936E+02 -0.23682289007E+02  0.53971731133E+02  0.10566000000E+00 0.  1.
         22    1    1    0    0    0  0.67739142954E+01 -0.86919663540E+01  0.26938861070E+02  0.29105642575E+02  0.00000000000E+00 0.  1.
</event>
<event>
 5    1  0.6924836E-004  0.9118800E+02  0.7818608E-02  0.1130116E+00
         25   -1    0    0    0    0  0.00000000000E+00  0.00000000000E+00  0.99999998245E-14  0.12500000000E+03  0.12500000000E+03 0.  0.
        -13    1    3    3    0    0 -0.67258797666E+01  0.46693098991E+02  0.14595770277E+02  0.49381480598E+02  0.10566000000E+00 0.  1.
         23    2    1    0    0    0  0.90190183496E+01  0.18786929038E+01  0.25301970203E+02  0.98073026996E+02  0.94304065389E+02 0.  0.
         13    1    3    3    0    0  0.15744898116E+02 -0.44814406088E+02  0.10706199926E+02  0.48691546397E+02  0.10566000000E+00 0. -1.
         22    1    1    0    0    0 -0.90190183496E+01 -0.18786929038E+01 -0.25301970203E+02  0.26926973004E+02  0.00000000000E+00 0. -1.
</event>
<event>
 5    1  0.6924836E-004  0.9118800E+02  0.7818608E-02  0.1130116E+00
         25   -1    0    0    0    0  0.00000000000E+00  0.00000000000E+00  0.99999998245E-14  0.12500000000E+03  0.12500000000E+03 0.  0.
        -13    1    3    3    0    0  0.24428833277E+02  0.22402115624E+02  0.11047254090E+02  0.34938169194E+02  0.10566000000E+00 0.  1.
         23    2    1    0    0    0 -0.30226861538E+02  0.78480496148E+01  0.12101007576E+02  0.91508367828E+02  0.85159215339E+02 0.  0.
         13    1    3    3    0    0 -0.54655694814E+02 -0.14554066010E+02  0.10537534862E+01  0.56570198634E+02  0.10566000000E+00 0. -1.
         22    1    1    0    0    0  0.30226861538E+02 -0.78480496148E+01 -0.12101007576E+02  0.33491632172E+02  0.00000000000E+00 0. -1.
</event>
<event>
 5    1  0.6924836E-004  0.9118800E+02  0.7818608E-02  0.1130116E+00
         25   -1    0    0    0    0  0.00000000000E+00  0.00000000000E+00  0.99999998245E-14  0.12500000000E+03  0.12500000000E+03 0.  0.
        -13    1    3    3    0    0 -0.34208954212E+01 -0.12506677860E+02  0.36920370873E+02  0.39131118895E+02  0.10566000000E+00 0. -1.
         23    2    1    0    0    0  0.25648097312E+02  0.74942035824E+01 -0.87851339865E+01  0.96872316800E+02  0.92698862992E+02 0.  0.
         13    1    3    3    0    0  0.29068992733E+02  0.20000881442E+02 -0.45705504859E+02  0.57741197905E+02  0.10566000000E+00 0.  1.
         22    1    1    0    0    0 -0.25648097312E+02 -0.74942035824E+01  0.87851339865E+01  0.28127683200E+02  0.00000000000E+00 0.  1.
</event>
<event>
 5    1  0.6924836E-004  0.9118800E+02  0.7818608E-02  0.1130116E+00
         25   -1    0    0    0    0  0.00000000000E+00  0.00000000000E+00  0.99999998245E-14  0.12500000000E+03  0.12500000000E+03 0.  0.
        -13    1    3    3    0    0  0.18463945196E+02  0.44765015877E+02  0.17624778336E+01  0.48455561196E+02  0.10566000000E+00 0. -1.
         23    2    1    0    0    0  0.61026821957E+01  0.81585444420E+01  0.28029631122E+02  0.95176103571E+02  0.90382663673E+02 0.  0.
         13    1    3    3    0    0 -0.12361263000E+02 -0.36606471435E+02  0.26267153289E+02  0.46720542375E+02  0.10566000000E+00 0.  1.
         22    1    1    0    0    0 -0.61026821957E+01 -0.81585444420E+01 -0.28029631122E+02  0.29823896429E+02  0.00000000000E+00 0. -1.
</event>
<event>
 5    1  0.6924836E-004  0.9118800E+02  0.7818608E-02  0.1130116E+00
         25   -1    0    0    0    0  0.00000000000E+00  0.00000000000E+00  0.99999998245E-14  0.12500000000E+03  0.12500000000E+03 0.  0.
        -13    1    3    3    0    0  0.82072266120E+01 -0.32467508067E+02  0.36266390730E+02  0.49363548387E+02  0.10566000000E+00 0.  1.
         23    2    1    0    0    0 -0.22133456188E+02 -0.17955748914E+02  0.35587506485E+01  0.96277822017E+02  0.91893718524E+02 0.  0.
         13    1    3    3    0    0 -0.30340682800E+02  0.14511759153E+02 -0.32707640081E+02  0.46914273630E+02  0.10566000000E+00 0. -1.
         22    1    1    0    0    0  0.22133456188E+02  0.17955748914E+02 -0.35587506485E+01  0.28722177983E+02  0.00000000000E+00 0. -1.
</event>
<event>
 5    1  0.6924836E-004  0.9118800E+02  0.7818608E-02  0.1130116E+00
         25   -1    0    0    0    0  0.00000000000E+00  0.00000000000E+00  0.99999998245E-14  0.12500000000E+03  0.12500000000E+03 0.  0.
        -13    1    3    3    0    0 -0.10320382410E+02  0.13723038188E+02  0.37898581956E+02  0.41607039651E+02  0.10566000000E+00 0. -1.
         23    2    1    0    0    0 -0.23927240451E+02  0.15716079269E+02 -0.12437387886E+02  0.93787877345E+02  0.88441898082E+02 0.  0.
         13    1    3    3    0    0 -0.13606858041E+02  0.19930410817E+01 -0.50335969842E+02  0.52180837694E+02  0.10566000000E+00 0.  1.
         22    1    1    0    0    0  0.23927240451E+02 -0.15716079269E+02  0.12437387886E+02  0.31212122655E+02  0.00000000000E+00 0.  1.
</event>
<event>
 5    1  0.6924836E-004  0.9118800E+02  0.7818608E-02  0.1130116E+00
         25   -1    0    0    0    0  0.00000000000E+00  0.00000000000E+00  0.99999998245E-14  0.12500000000E+03  0.12500000000E+03 0.  0.
        -13    1    3    3    0    0 -0.16907562351E+02 -0.16195025188E+02  0.32269525237E+02  0.39868257155E+02  0.10566000000E+00 0. -1.
         23    2    1    0    0    0  0.21883948287E+02  0.16942678058E+02  0.94808331469E+01  0.95745124687E+02  0.91166228241E+02 0.  0.
         13    1    3    3    0    0  0.38791510638E+02  0.33137703246E+02 -0.22788692090E+02  0.55876867532E+02  0.10566000000E+00 0.  1.
         22    1    1    0    0    0 -0.21883948287E+02 -0.16942678058E+02 -0.94808331469E+01  0.29254875313E+02  0.00000000000E+00 0.  1.
</event>
<event>
 5    1  0.6924836E-004  0.9118800E+02  0.7818608E-02  0.1130116E+00
         25   -1    0    0    0    0  0.00000000000E+00  0.00000000000E+00  0.99999998245E-14  0.12500000000E+03  0.12500000000E+03 0.  0.
        -13    1    3    3    0    0  0.22416384493E+02  0.33150039198E+02  0.14629503674E+02  0.42608132256E+02  0.10566000000E+00 0. -1.
         23    2    1    0    0    0 -0.22262961470E+02  0.41131239334E+01  0.18110635678E+02  0.96007718845E+02  0.91525568620E+02 0.  0.
         13    1    3    3    0    0 -0.44679345963E+02 -0.29036915265E+02  0.34811320043E+01  0.53399586589E+02  0.10566000000E+00 0.  1.
         22    1    1    0    0    0  0.22262961470E+02 -0.41131239334E+01 -0.18110635678E+02  0.28992281155E+02  0.00000000000E+00 0.  1.
</event>
<event>
 5    1  0.6924836E-004  0.9118800E+02  0.7818608E-02  0.1130116E+00
         25   -1    0    0    0    0  0.00000000000E+00  0.00000000000E+00  0.99999998245E-14  0.12500000000E+03  0.12500000000E+03 0.  0.
        -13    1    3    3    0    0  0.67351806728E+00  0.50209293000E+01 -0.46295131310E+02  0.46571597618E+02  0.10566000000E+00 0. -1.
         23    2    1    0    0    0  0.13873269150E+02  0.25108787026E+02 -0.29153383519E+01  0.96165680509E+02  0.91741049303E+02 0.  0.
         13    1    3    3    0    0  0.13199751083E+02  0.20087857726E+02  0.43379792958E+02  0.49594082891E+02  0.10566000000E+00 0.  1.
         22    1    1    0    0    0 -0.13873269150E+02 -0.25108787026E+02  0.29153383519E+01  0.28834319491E+02  0.00000000000E+00 0. -1.
</event>
<event>
 5    1  0.6924836E-004  0.9118800E+02  0.7818608E-02  0.1130116E+00
         25   -1    0    0    0    0  0.00000000000E+00  0.00000000000E+00  0.99999998245E-14  0.12500000000E+03  0.12500000000E+03 0.  0.
        -13    1    3    3    0    0  0.19084207784E+02  0.32811037552E+02  0.45771773450E+01  0.38232615506E+02  0.10566000000E+00 0. -1.
         23    2    1    0    0    0  0.16269762825E+02 -0.21968353252E+02 -0.11425993500E+02  0.95371178652E+02  0.90652052724E+02 0.  0.
         13    1    3    3    0    0 -0.28144449596E+01 -0.54779390804E+02 -0.16003170845E+02  0.57138563146E+02  0.10566000000E+00 0.  1.
         22    1    1    0    0    0 -0.16269762825E+02  0.21968353252E+02  0.11425993500E+02  0.29628821348E+02  0.00000000000E+00 0.  1.
</event>
<event>
 5    1  0.6924836E-004  0.9118800E+02  0.7818608E-02  0.1130116E+00
         25   -1    0    0    0    0  0.00000000000E+00  0.00000000000E+00  0.99999998245E-14  0.12500000000E+03  0.12500000000E+03 0.  0.
        -13    1    3    3    0    0 -0.44422455400E+02 -0.36327059081E+02 -0.31448618232E+01  0.57470958624E+02  0.10566000000E+00 0.  1.
         23    2    1    0    0    0 -0.10768487434E+02 -0.23256116324E+02 -0.14795435594E+02  0.95407565451E+02  0.90702212558E+02 0.  0.
         13    1    3    3    0    0  0.33653967966E+02  0.13070942756E+02 -0.11650573770E+02  0.37936606828E+02  0.10566000000E+00 0. -1.
         22    1    1    0    0    0  0.10768487434E+02  0.23256116324E+02  0.14795435594E+02  0.29592434549E+02  0.00000000000E+00 0.  1.
</event>
<event>
 5    1  0.6924836E-004  0.9118800E+02  0.7818608E-02  0.1130116E+00
         25   -1    0    0    0    0  0.00000000000E+00  0.00000000000E+00  0.99999998245E-14  0.12500000000E+03  0.12500000000E+03 0.  0.
        -13    1    3    3    0    0  0.29564808064E+02 -0.22316110643E+02  0.12655621656E+02  0.39144125915E+02  0.10566000000E+00 0.  1.
         23    2    1    0    0    0 -0.19132743231E+02  0.76622789403E+01  0.19362441910E+02  0.96721447371E+02  0.92495199025E+02 0.  0.
         13    1    3    3    0    0 -0.48697551294E+02  0.29978389584E+02  0.67068202535E+01  0.57577321456E+02  0.10566000000E+00 0. -1.
         22    1    1    0    0    0  0.19132743231E+02 -0.76622789403E+01 -0.19362441910E+02  0.28278552629E+02  0.00000000000E+00 0. -1.
</event>
<event>
 5    1  0.6924836E-004  0.9118800E+02  0.7818608E-02  0.1130116E+00
         25   -1    0    0    0    0  0.00000000000E+00  0.00000000000E+00  0.99999998245E-14  0.12500000000E+03  0.12500000000E+03 0.  0.
        -13    1    3    3    0    0 -0.36466819812E+01 -0.38436310918E+02  0.23761341609E+02  0.45334984344E+02  0.10566000000E+00 0.  1.
         23    2    1    0    0    0  0.28037520822E+02 -0.26048216734E+01  0.74176454783E+01  0.95881120656E+02  0.91352504968E+02 0.  0.
         13    1    3    3    0    0  0.31684202804E+02  0.35831489244E+02 -0.16343696131E+02  0.50546136311E+02  0.10566000000E+00 0. -1.
         22    1    1    0    0    0 -0.28037520822E+02  0.26048216734E+01 -0.74176454783E+01  0.29118879344E+02  0.00000000000E+00 0. -1.
</event>
<event>
 5    1  0.6924836E-004  0.9118800E+02  0.7818608E-02  0.1130116E+00
         25   -1    0    0    0    0  0.00000000000E+00  0.00000000000E+00  0.99999998245E-14  0.12500000000E+03  0.12500000000E+03 0.  0.
        -13    1    3    3    0    0 -0.13206021328E+02 -0.14938050086E+02  0.45443220013E+02  0.49625011324E+02  0.10566000000E+00 0. -1.
         23    2    1    0    0    0  0.14948453745E+02  0.12587188500E+02  0.22508956726E+02  0.95191499256E+02  0.90403953531E+02 0.  0.
         13    1    3    3    0    0  0.28154475073E+02  0.27525238586E+02 -0.22934263287E+02  0.45566487932E+02  0.10566000000E+00 0.  1.
         22    1    1    0    0    0 -0.14948453745E+02 -0.12587188500E+02 -0.22508956726E+02  0.29808500744E+02  0.00000000000E+00 0. -1.
</event>
<event>
 5    1  0.6924836E-004  0.9118800E+02  0.7818608E-02  0.1130116E+00
         25   -1    0    0    0    0  0.00000000000E+00  0.00000000000E+00  0.99999998245E-14  0.12500000000E+03  0.12500000000E+03 0.  0.
        -13    1    3    3    0    0  0.44837909518E+02  0.12805509890E+02  0.10587665013E+02  0.47817664393E+02  0.10566000000E+00 0. -1.
         23    2    1    0    0    0  0.35103528683E+01  0.31922693332E+01  0.30105801829E+02  0.94522590915E+02  0.89474285293E+02 0.  0.
         13    1    3    3    0    0 -0.41327556650E+02 -0.96132405573E+01  0.19518136816E+02  0.46704926522E+02  0.10566000000E+00 0.  1.
         22    1    1    0    0    0 -0.35103528683E+01 -0.31922693332E+01 -0.30105801829E+02  0.30477409085E+02  0.00000000000E+00 0.  1.
</event>
<event>
 5    1  0.6924836E-004  0.9118800E+02  0.7818608E-02  0.1130116E+00
         25   -1    0    0    0    0  0.00000000000E+00  0.00000000000E+00  0.99999998245E-14  0.12500000000E+03  0.12500000000E+03 0.  0.
        -13    1    3    3    0    0  0.25991278997E+02 -0.44756720927E+02 -0.13557804146E+02  0.53502671609E+02  0.10566000000E+00 0.  1.
         23    2    1    0    0    0 -0.46539598240E+01 -0.37660726746E+02 -0.20511806387E+01  0.86997407680E+02  0.78258238671E+02 0.  0.
         13    1    3    3    0    0 -0.30645238821E+02  0.70959941814E+01  0.11506623507E+02  0.33494736070E+02  0.10566000000E+00 0. -1.
         22    1    1    0    0    0  0.46539598240E+01  0.37660726746E+02  0.20511806387E+01  0.38002592320E+02  0.00000000000E+00 0.  1.
</event>
<event>
 5    1  0.6924836E-004  0.9118800E+02  0.7818608E-02  0.1130116E+00
         25   -1    0    0    0    0  0.00000000000E+00  0.00000000000E+00  0.99999998245E-14  0.12500000000E+03  0.12500000000E+03 0.  0.
        -13    1    3    3    0    0  0.23232369190E+02  0.32852849288E+02 -0.24923761016E+02  0.47331360764E+02  0.10566000000E+00 0.  1.
         23    2    1    0    0    0  0.27847429466E+02 -0.61352366950E+01  0.41492803198E+01  0.96184431563E+02  0.91766594634E+02 0.  0.
         13    1    3    3    0    0  0.46150602763E+01 -0.38988085983E+02  0.29073041336E+02  0.48853070799E+02  0.10566000000E+00 0. -1.
         22    1    1    0    0    0 -0.27847429466E+02  0.61352366950E+01 -0.41492803198E+01  0.28815568437E+02  0.00000000000E+00 0. -1.
</event>
<event>
 5    1  0.6924836E-004  0.9118800E+02  0.7818608E-02  0.1130116E+00
         25   -1    0    0    0    0  0.00000000000E+00  0.00000000000E+00  0.99999998245E-14  0.12500000000E+03  0.12500000000E+03 0.  0.
        -13    1    3    3    0    0  0.64850172430E+01 -0.27468112860E+02  0.23222317891E+02  0.36549143424E+02  0.10566000000E+00 0. -1.
         23    2    1    0    0    0 -0.27843492378E+02  0.72450955292E+01 -0.87746873117E+01  0.94920993793E+02  0.90029153323E+02 0.  0.
         13    1    3    3    0    0 -0.34328509621E+02  0.34713208389E+02 -0.31997005203E+02  0.58371850369E+02  0.10566000000E+00 0.  1.
         22    1    1    0    0    0  0.27843492378E+02 -0.72450955292E+01  0.87746873117E+01  0.30079006207E+02  0.00000000000E+00 0.  1.
</event>
<event>
 5    1  0.6924836E-004  0.9118800E+02  0.7818608E-02  0.1130116E+00
         25   -1    0    0    0    0  0.00000000000E+00  0.00000000000E+00  0.99999998245E-14  0.12500000000E+03  0.12500000000E+03 0.  0.
        -13    1    3    3    0    0  0.19377313839E+02 -0.29866819726E+02 -0.43236002138E+01  0.35863796438E+02  0.10566000000E+00 0. -1.
         23    2    1    0    0    0 -0.25828292155E+02  0.47355159970E+01 -0.16374560260E+02  0.94054046935E+02  0.88817294113E+02 0.  0.
         13    1    3    3    0    0 -0.45205605994E+02  0.34602335723E+02 -0.12050960046E+02  0.58190250496E+02  0.10566000000E+00 0.  1.
         22    1    1    0    0    0  0.25828292155E+02 -0.47355159970E+01  0.16374560260E+02  0.30945953065E+02  0.00000000000E+00 0.  1.
</event>
<event>
 5    1  0.6924836E-004  0.9118800E+02  0.7818608E-02  0.1130116E+00
         25   -1    0    0    0    0  0.00000000000E+00  0.00000000000E+00  0.99999998245E-14  0.12500000000E+03  0.12500000000E+03 0.  0.
        -13    1    3    3    0    0 -0.32290775776E+02 -0.18141999818E+02  0.26629282571E+02  0.45617498966E+02  0.10566000000E+00 0.  1.
         23    2    1    0    0    0 -0.20867685502E+02  0.23288438629E+02  0.65588788047E+01  0.93049560830E+02  0.87392163307E+02 0.  0.
         13    1    3    3    0    0  0.11423090274E+02  0.41430438447E+02 -0.20070403766E+02  0.47432061864E+02  0.10566000000E+00 0. -1.
         22    1    1    0    0    0  0.20867685502E+02 -0.23288438629E+02 -0.65588788047E+01  0.31950439170E+02  0.00000000000E+00 0. -1.
</event>
<event>
 5    1  0.6924836E-004  0.9118800E+02  0.7818608E-02  0.1130116E+00
         25   -1    0    0    0    0  0.00000000000E+00  0.00000000000E+00  0.99999998245E-14  0.12500000000E+03  0.12500000000E+03 0.  0.
        -13    1    3    3    0    0  0.42739247906E+02  0.14541656262E+02  0.17073458158E+02  0.48266108357E+02  0.10566000000E+00 0.  1.
         23    2    1    0    0    0  0.25070906896E+02 -0.71320442007E+01 -0.18148588985E+02  0.93238581435E+02  0.87662109026E+02 0.  0.
         13    1    3    3    0    0 -0.17668341010E+02 -0.21673700463E+02 -0.35222047143E+02  0.44972473078E+02  0.10566000000E+00 0. -1.
         22    1    1    0    0    0 -0.25070906896E+02  0.71320442007E+01  0.18148588985E+02  0.31761418565E+02  0.00000000000E+00 0. -1.
</event>
<event>
 5    1  0.6924836E-004  0.9118800E+02  0.7818608E-02  0.1130116E+00
         25   -1    0    0    0    0  0.00000000000E+00  0.00000000000E+00  0.99999998245E-14  0.12500000000E+03  0.12500000000E+03 0.  0.
        -13    1    3    3    0    0 -0.48212098018E+01 -0.79817045699E+01 -0.32463327885E+02  0.33776182336E+02  0.10566000000E+00 0. -1.
         23    2    1    0    0    0  0.12781523056E+02 -0.20365187052E+01  0.26451749821E+02  0.95551573749E+02  0.90900458949E+02 0.  0.
         13    1    3    3    0    0  0.17602732858E+02  0.59451858647E+01  0.58915077706E+02  0.61775391413E+02  0.10566000000E+00 0.  1.
         22    1    1    0    0    0 -0.12781523056E+02  0.20365187052E+01 -0.26451749821E+02  0.29448426251E+02  0.00000000000E+00 0.  1.
</event>
<event>
 5    1  0.6924836E-004  0.9118800E+02  0.7818608E-02  0.1130116E+00
         25   -1    0    0    0    0  0.00000000000E+00  0.00000000000E+00  0.99999998245E-14  0.12500000000E+03  0.12500000000E+03 0.  0.
        -13    1    3    3    0    0 -0.71507559958E+01  0.36929305539E+02  0.34516797774E+01  0.37773432147E+02  0.10566000000E+00 0. -1.
         23    2    1    0    0    0 -0.22465710958E+02 -0.18736834061E+02  0.37363978284E+01  0.95508682834E+02  0.90841459194E+02 0.  0.
         13    1    3    3    0    0 -0.15314954962E+02 -0.55666139599E+02  0.28471805106E+00  0.57735250686E+02  0.10566000000E+00 0.  1.
         22    1    1    0    0    0  0.22465710958E+02  0.18736834061E+02 -0.37363978284E+01  0.29491317166E+02  0.00000000000E+00 0.  1.
</event>
<event>
 5    1  0.6924836E-004  0.9118800E+02  0.7818608E-02  0.1130116E+00
         25   -1    0    0    0    0  0.00000000000E+00  0.00000000000E+00  0.99999998245E-14  0.12500000000E+03  0.12500000000E+03 0.  0.
        -13    1    3    3    0    0  0.86651731357E+01  0.35732568113E+02  0.15765857740E+02  0.40005938106E+02  0.10566000000E+00 0.  1.
         23    2    1    0    0    0 -0.11779318052E+02 -0.11448008533E+02  0.27703217843E+02  0.92793207052E+02  0.87024719264E+02 0.  0.
         13    1    3    3    0    0 -0.20444491188E+02 -0.47180576646E+02  0.11937360103E+02  0.52787268947E+02  0.10566000000E+00 0. -1.
         22    1    1    0    0    0  0.11779318052E+02  0.11448008533E+02 -0.27703217843E+02  0.32206792948E+02  0.00000000000E+00 0. -1.
</event>
<event>
 5    1  0.6924836E-004  0.9118800E+02  0.7818608E-02  0.1130116E+00
         25   -1    0    0    0    0  0.00000000000E+00  0.00000000000E+00  0.99999998245E-14  0.12500000000E+03  0.12500000000E+03 0.  0.
        -13    1    3    3    0    0 -0.12792731341E+02  0.31339588959E+02  0.18338246838E+02  0.38498393115E+02  0.10566000000E+00 0.  1.
         23    2    1    0    0    0 -0.22243912978E+02 -0.20400412771E+02 -0.16695195454E+01  0.94771606041E+02  0.89821498041E+02 0.  0.
         13    1    3    3    0    0 -0.94511816372E+01 -0.51740001730E+02 -0.20007766384E+02  0.56273212926E+02  0.10566000000E+00 0. -1.
         22    1    1    0    0    0  0.22243912978E+02  0.20400412771E+02  0.16695195454E+01  0.30228393959E+02  0.00000000000E+00 0. -1.
</event>
<event>
 5    1  0.6924836E-004  0.9118800E+02  0.7818608E-02  0.1130116E+00
         25   -1    0    0    0    0  0.00000000000E+00  0.00000000000E+00  0.99999998245E-14  0.12500000000E+03  0.12500000000E+03 0.  0.
        -13    1    3    3    0    0 -0.38868955450E+02  0.35201781680E+02  0.22857757947E+02  0.57205326620E+02  0.10566000000E+00 0.  1.
         23    2    1    0    0    0 -0.36754912110E+01  0.27044858764E+02  0.13633475623E+02  0.94490898428E+02  0.89429998361E+02 0.  0.
         13    1    3    3    0    0  0.35193464239E+02 -0.81569229165E+01 -0.92242823242E+01  0.37285571808E+02  0.10566000000E+00 0. -1.
         22    1    1    0    0    0  0.36754912110E+01 -0.27044858764E+02 -0.13633475623E+02  0.30509101572E+02  0.00000000000E+00 0.  1.
</event>
<event>
 5    1  0.6924836E-004  0.9118800E+02  0.7818608E-02  0.1130116E+00
         25   -1    0    0    0    0  0.00000000000E+00  0.00000000000E+00  0.99999998245E-14  0.12500000000E+03  0.12500000000E+03 0.  0.
        -13    1    3    3    0    0 -0.53721110649E+02  0.15752767965E+02  0.22166186513E+02  0.60211779715E+02  0.10566000000E+00 0.  1.
         23    2    1    0    0    0 -0.28884618551E+02  0.72698189887E-01  0.15949091625E+01  0.96071290919E+02  0.91612350312E+02 0.  0.
         13    1    3    3    0    0  0.24836492098E+02 -0.15680069775E+02 -0.20571277350E+02  0.35859511203E+02  0.10566000000E+00 0. -1.
         22    1    1    0    0    0  0.28884618551E+02 -0.72698189887E-01 -0.15949091625E+01  0.28928709081E+02  0.00000000000E+00 0.  1.
</event>
<event>
 5    1  0.6924836E-004  0.9118800E+02  0.7818608E-02  0.1130116E+00
         25   -1    0    0    0    0  0.00000000000E+00  0.00000000000E+00  0.99999998245E-14  0.12500000000E+03  0.12500000000E+03 0.  0.
        -13    1    3    3    0    0 -0.46828230812E+02 -0.64425530743E+01 -0.24390983380E+02  0.53191361379E+02  0.10566000000E+00 0. -1.
         23    2    1    0    0    0 -0.25529068960E+02  0.12869412793E+02  0.68012362153E+01  0.95612724494E+02  0.90984510350E+02 0.  0.
         13    1    3    3    0    0  0.21299161852E+02  0.19311965867E+02  0.31192219595E+02  0.42421363115E+02  0.10566000000E+00 0.  1.
         22    1    1    0    0    0  0.25529068960E+02 -0.12869412793E+02 -0.68012362153E+01  0.29387275506E+02  0.00000000000E+00 0. -1.
</event>
<event>
 5    1  0.6924836E-004  0.9118800E+02  0.7818608E-02  0.1130116E+00
         25   -1    0    0    0    0  0.00000000000E+00  0.00000000000E+00  0.99999998245E-14  0.12500000000E+03  0.12500000000E+03 0.  0.
        -13    1    3    3    0    0  0.15952441975E+02 -0.11862208892E+02  0.49160764674E+02  0.53028146791E+02  0.10566000000E+00 0.  1.
         23    2    1    0    0    0  0.19339298449E+02 -0.24837568711E+02  0.14211673477E+02  0.90461833474E+02  0.83608961054E+02 0.  0.
         13    1    3    3    0    0  0.33868564746E+01 -0.12975359818E+02 -0.34949091196E+02  0.37433686683E+02  0.10566000000E+00 0. -1.
         22    1    1    0    0    0 -0.19339298449E+02  0.24837568711E+02 -0.14211673477E+02  0.34538166526E+02  0.00000000000E+00 0.  1.
</event>
<event>
 5    1  0.6924836E-004  0.9118800E+02  0.7818608E-02  0.1130116E+00
         25   -1    0    0    0    0  0.00000000000E+00  0.00000000000E+00  0.99999998245E-14  0.12500000000E+03  0.12500000000E+03 0.  0.
        -13    1    3    3    0    0 -0.34179122668E+02 -0.27092481826E+02  0.22763377160E+02  0.49197535524E+02  0.10566000000E+00 0.  1.
         23    2    1    0    0    0 -0.70576433346E+01 -0.28202068757E+02 -0.12209446112E+02  0.93468466799E+02  0.87989298780E+02 0.  0.
         13    1    3    3    0    0  0.27121479333E+02 -0.11095869310E+01 -0.34972823272E+02  0.44270931276E+02  0.10566000000E+00 0. -1.
         22    1    1    0    0    0  0.70576433346E+01  0.28202068757E+02  0.12209446112E+02  0.31531533201E+02  0.00000000000E+00 0.  1.
</event>
<event>
 5    1  0.6924836E-004  0.9118800E+02  0.7818608E-02  0.1130116E+00
         25   -1    0    0    0    0  0.00000000000E+00  0.00000000000E+00  0.99999998245E-14  0.12500000000E+03  0.12500000000E+03 0.  0.
        -13    1    3    3    0    0 -0.31571443633E+02 -0.20050912220E+02 -0.37376804111E+02  0.52875625609E+02  0.10566000000E+00 0.  1.
         23    2    1    0    0    0 -0.17255309638E+02  0.15596650363E+02 -0.13485664539E+02  0.98113863027E+02  0.94358178007E+02 0.  0.
         13    1    3    3    0    0  0.14316133995E+02  0.35647562583E+02  0.23891139572E+02  0.45238237419E+02  0.10566000000E+00 0. -1.
         22    1    1    0    0    0  0.17255309638E+02 -0.15596650363E+02  0.13485664539E+02  0.26886136973E+02  0.00000000000E+00 0.  1.
</event>
<event>
 5    1  0.6924836E-004  0.9118800E+02  0.7818608E-02  0.1130116E+00
         25   -1    0    0    0    0  0.00000000000E+00  0.00000000000E+00  0.99999998245E-14  0.12500000000E+03  0.12500000000E+03 0.  0.
        -13    1    3    3    0    0  0.24910250689E+01  0.18025362920E+02  0.27822888698E+02  0.33245198357E+02  0.10566000000E+00 0.  1.
         23    2    1    0    0    0 -0.97891845422E+00 -0.15814021442E+02 -0.24600810427E+02  0.95738396675E+02  0.91157002851E+02 0.  0.
         13    1    3    3    0    0 -0.34699435231E+01 -0.33839384362E+02 -0.52423699124E+02  0.62493198318E+02  0.10566000000E+00 0. -1.
         22    1    1    0    0    0  0.97891845422E+00  0.15814021442E+02  0.24600810427E+02  0.29261603325E+02  0.00000000000E+00 0. -1.
</event>
<event>
 5    1  0.6924836E-004  0.9118800E+02  0.7818608E-02  0.1130116E+00
         25   -1    0    0    0    0  0.00000000000E+00  0.00000000000E+00  0.99999998245E-14  0.12500000000E+03  0.12500000000E+03 0.  0.
        -13    1    3    3    0    0  0.86972768892E+01  0.14163869387E+02 -0.30427533733E+02  0.34671368511E+02  0.10566000000E+00 0. -1.
         23    2    1    0    0    0 -0.21360884793E+02 -0.17356438238E+02  0.11540003157E+02  0.95155318392E+02  0.90353913019E+02 0.  0.
         13    1    3    3    0    0 -0.30058161682E+02 -0.31520307624E+02  0.41967536891E+02  0.60483949881E+02  0.10566000000E+00 0.  1.
         22    1    1    0    0    0  0.21360884793E+02  0.17356438238E+02 -0.11540003157E+02  0.29844681608E+02  0.00000000000E+00 0.  1.
</event>
<event>
 5    1  0.6924836E-004  0.9118800E+02  0.7818608E-02  0.1130116E+00
         25   -1    0    0    0    0  0.00000000000E+00  0.00000000000E+00  0.99999998245E-14  0.12500000000E+03  0.12500000000E+03 0.  0.
        -13    1    3    3    0    0  0.24889939280E+02  0.27105556958E+02  0.41811761782E+02  0.55699684763E+02  0.10566000000E+00 0.  1.
         23    2    1    0    0    0  0.34393133842E+01 -0.35887953531E+01  0.29448583837E+02  0.95134846080E+02  0.90325586187E+02 0.  0.
         13    1    3    3    0    0 -0.21450625896E+02 -0.30694352312E+02 -0.12363177945E+02  0.39435161317E+02  0.10566000000E+00 0. -1.
         22    1    1    0    0    0 -0.34393133842E+01  0.35887953531E+01 -0.29448583837E+02  0.29865153920E+02  0.00000000000E+00 0.  1.
</event>
<event>
 5    1  0.6924836E-004  0.9118800E+02  0.7818608E-02  0.1130116E+00
         25   -1    0    0    0    0  0.00000000000E+00  0.00000000000E+00  0.99999998245E-14  0.12500000000E+03  0.12500000000E+03 0.  0.
        -13    1    3    3    0    0 -0.26891720994E+02 -0.46319155032E+02  0.28119418450E+02  0.60492492417E+02  0.10566000000E+00 0.  1.
         23    2    1    0    0    0 -0.14177642027E+02 -0.26616202792E+02  0.32580888259E+01  0.94667790596E+02  0.89676907000E+02 0.  0.
         13    1    3    3    0    0  0.12714078967E+02  0.19702952240E+02 -0.24861329624E+02  0.34175298179E+02  0.10566000000E+00 0. -1.
         22    1    1    0    0    0  0.14177642027E+02  0.26616202792E+02 -0.32580888259E+01  0.30332209404E+02  0.00000000000E+00 0.  1.
</event>
<event>
 5    1  0.6924836E-004  0.9118800E+02  0.7818608E-02  0.1130116E+00
         25   -1    0    0    0    0  0.00000000000E+00  0.00000000000E+00  0.99999998245E-14  0.12500000000E+03  0.12500000000E+03 0.  0.
        -13    1    3    3    0    0 -0.25033741195E+02  0.32933281033E+01  0.32432457380E+02  0.41102428930E+02  0.10566000000E+00 0. -1.
         23    2    1    0    0    0 -0.18113726870E+02 -0.43084672015E+01 -0.21817423244E+02  0.96317776450E+02  0.91948051163E+02 0.  0.
         13    1    3    3    0    0  0.69200143253E+01 -0.76017953048E+01 -0.54249880623E+02  0.55215347520E+02  0.10566000000E+00 0.  1.
         22    1    1    0    0    0  0.18113726870E+02  0.43084672015E+01  0.21817423244E+02  0.28682223550E+02  0.00000000000E+00 0.  1.
</event>
<event>
 5    1  0.6924836E-004  0.9118800E+02  0.7818608E-02  0.1130116E+00
         25   -1    0    0    0    0  0.00000000000E+00  0.00000000000E+00  0.99999998245E-14  0.12500000000E+03  0.12500000000E+03 0.  0.
        -13    1    3    3    0    0  0.77061708766E+01  0.30149849767E+02  0.46845243302E+02  0.56239545647E+02  0.10566000000E+00 0. -1.
         23    2    1    0    0    0  0.17396877265E+02  0.52549286896E-01  0.24475442964E+02  0.94971656584E+02  0.90099468068E+02 0.  0.
         13    1    3    3    0    0  0.96907063888E+01 -0.30097300480E+02 -0.22369800338E+02  0.38732110938E+02  0.10566000000E+00 0.  1.
         22    1    1    0    0    0 -0.17396877265E+02 -0.52549286896E-01 -0.24475442964E+02  0.30028343416E+02  0.00000000000E+00 0. -1.
</event>
<event>
 5    1  0.6924836E-004  0.9118800E+02  0.7818608E-02  0.1130116E+00
         25   -1    0    0    0    0  0.00000000000E+00  0.00000000000E+00  0.99999998245E-14  0.12500000000E+03  0.12500000000E+03 0.  0.
        -13    1    3    3    0    0 -0.21117815262E+02  0.20038348217E+02 -0.32378059534E+02  0.43541330066E+02  0.10566000000E+00 0.  1.
         23    2    1    0    0    0  0.26944987859E+01  0.22140535293E+02  0.16032041201E+02  0.97532019153E+02  0.93584212281E+02 0.  0.
         13    1    3    3    0    0  0.23812314048E+02  0.21021870759E+01  0.48410100735E+02  0.53990689086E+02  0.10566000000E+00 0. -1.
         22    1    1    0    0    0 -0.26944987859E+01 -0.22140535293E+02 -0.16032041201E+02  0.27467980847E+02  0.00000000000E+00 0. -1.
</event>
<event>
 5    1  0.6924836E-004  0.9118800E+02  0.7818608E-02  0.1130116E+00
         25   -1    0    0    0    0  0.00000000000E+00  0.00000000000E+00  0.99999998245E-14  0.12500000000E+03  0.12500000000E+03 0.  0.
        -13    1    3    3    0    0  0.19120060579E+02 -0.28201691498E+02 -0.79455681705E+01  0.34986502218E+02  0.10566000000E+00 0. -1.
         23    2    1    0    0    0 -0.14083241060E+02  0.22127338513E+02 -0.13434255430E+02  0.95530761677E+02  0.90871835126E+02 0.  0.
         13    1    3    3    0    0 -0.33203301638E+02  0.50329030011E+02 -0.54886872592E+01  0.60544259458E+02  0.10566000000E+00 0.  1.
         22    1    1    0    0    0  0.14083241060E+02 -0.22127338513E+02  0.13434255430E+02  0.29469238323E+02  0.00000000000E+00 0.  1.
</event>
<event>
 5    1  0.6924836E-004  0.9118800E+02  0.7818608E-02  0.1130116E+00
         25   -1    0    0    0    0  0.00000000000E+00  0.00000000000E+00  0.99999998245E-14  0.12500000000E+03  0.12500000000E+03 0.  0.
        -13    1    3    3    0    0  0.76866626645E+01 -0.49147662959E+01  0.42585983818E+02  0.43552461382E+02  0.10566000000E+00 0.  1.
         23    2    1    0    0    0 -0.23811720569E+02 -0.14445478546E+02  0.28402250511E+00  0.97147701070E+02  0.93069464743E+02 0.  0.
         13    1    3    3    0    0 -0.31498383234E+02 -0.95307122497E+01 -0.42301961313E+02  0.53595239688E+02  0.10566000000E+00 0. -1.
         22    1    1    0    0    0  0.23811720569E+02  0.14445478546E+02 -0.28402250511E+00  0.27852298930E+02  0.00000000000E+00 0.  1.
</event>
<event>
 5    1  0.6924836E-004  0.9118800E+02  0.7818608E-02  0.1130116E+00
         25   -1    0    0    0    0  0.00000000000E+00  0.00000000000E+00  0.99999998245E-14  0.12500000000E+03  0.12500000000E+03 0.  0.
        -13    1    3    3    0    0  0.18888010404E+02 -0.17143477281E+02  0.40415155482E+02  0.47791753545E+02  0.10566000000E+00 0.  1.
         23    2    1    0    0    0  0.92406338611E+01  0.22847612535E+02  0.15394174498E+02  0.95941725427E+02  0.91435394442E+02 0.  0.
         13    1    3    3    0    0 -0.96473765429E+01  0.39991089815E+02 -0.25020980984E+02  0.48149971881E+02  0.10566000000E+00 0. -1.
         22    1    1    0    0    0 -0.92406338611E+01 -0.22847612535E+02 -0.15394174498E+02  0.29058274573E+02  0.00000000000E+00 0. -1.
</event>
<event>
 5    1  0.6924836E-004  0.9118800E+02  0.7818608E-02  0.1130116E+00
         25   -1    0    0    0    0  0.00000000000E+00  0.00000000000E+00  0.99999998245E-14  0.12500000000E+03  0.12500000000E+03 0.  0.
        -13    1    3    3    0    0 -0.29666201776E+02 -0.71762443953E+01 -0.12778334948E+02  0.33088956156E+02  0.10566000000E+00 0.  1.
         23    2    1    0    0    0  0.19794215268E+02  0.99845450768E+01  0.20236909941E+02  0.94982761246E+02  0.90114872865E+02 0.  0.
         13    1    3    3    0    0  0.49460417044E+02  0.17160789472E+02  0.33015244888E+02  0.61893805090E+02  0.10566000000E+00 0. -1.
         22    1    1    0    0    0 -0.19794215268E+02 -0.99845450768E+01 -0.20236909941E+02  0.30017238754E+02  0.00000000000E+00 0. -1.
</event>
<event>
 5    1  0.6924836E-004  0.9118800E+02  0.7818608E-02  0.1130116E+00
         25   -1    0    0    0    0  0.00000000000E+00  0.00000000000E+00  0.99999998245E-14  0.12500000000E+03  0.12500000000E+03 0.  0.
        -13    1    3    3    0    0 -0.40810276068E+02  0.19932992867E+02 -0.21194678059E+02  0.50120139460E+02  0.10566000000E+00 0. -1.
         23    2    1    0    0    0 -0.24865188595E+02 -0.24946630492E+01  0.15202399589E+02  0.95749121366E+02  0.91171708011E+02 0.  0.
         13    1    3    3    0    0  0.15945087474E+02 -0.22427655916E+02  0.36397077648E+02  0.45628981906E+02  0.10566000000E+00 0.  1.
         22    1    1    0    0    0  0.24865188595E+02  0.24946630492E+01 -0.15202399589E+02  0.29250878634E+02  0.00000000000E+00 0. -1.
</event>
<event>
 5    1  0.6924836E-004  0.9118800E+02  0.7818608E-02  0.1130116E+00
         25   -1    0    0    0    0  0.00000000000E+00  0.00000000000E+00  0.99999998245E-14  0.12500000000E+03  0.12500000000E+03 0.  0.
        -13    1    3    3    0    0 -0.11653848366E+02  0.32878310137E+02  0.10846791453E+02  0.36530254695E+02  0.10566000000E+00 0. -1.
         23    2    1    0    0    0  0.25049865195E+02 -0.50185190583E+01 -0.15100653134E+02  0.95323224486E+02  0.90585904652E+02 0.  0.
         13    1    3    3    0    0  0.36703713561E+02 -0.37896829195E+02 -0.25947444587E+02  0.58792969791E+02  0.10566000000E+00 0.  1.
         22    1    1    0    0    0 -0.25049865195E+02  0.50185190583E+01  0.15100653134E+02  0.29676775514E+02  0.00000000000E+00 0.  1.
</event>
<event>
 5    1  0.6924836E-004  0.9118800E+02  0.7818608E-02  0.1130116E+00
         25   -1    0    0    0    0  0.00000000000E+00  0.00000000000E+00  0.99999998245E-14  0.12500000000E+03  0.12500000000E+03 0.  0.
        -13    1    3    3    0    0  0.47857115786E-01 -0.75966665855E+01 -0.40042103962E+02  0.40756507300E+02  0.10566000000E+00 0.  1.
         23    2    1    0    0    0  0.26871503832E+02 -0.51022275422E+01  0.85725815537E+01  0.96336441279E+02  0.91973421811E+02 0.  0.
         13    1    3    3    0    0  0.26823646716E+02  0.24944390433E+01  0.48614685516E+02  0.55579933979E+02  0.10566000000E+00 0. -1.
         22    1    1    0    0    0 -0.26871503832E+02  0.51022275422E+01 -0.85725815537E+01  0.28663558721E+02  0.00000000000E+00 0.  1.
</event>
<event>
 5    1  0.6924836E-004  0.9118800E+02  0.7818608E-02  0.1130116E+00
         25   -1    0    0    0    0  0.00000000000E+00  0.00000000000E+00  0.99999998245E-14  0.12500000000E+03  0.12500000000E+03 0.  0.
        -13    1    3    3    0    0 -0.92807963523E+01 -0.92646672028E+01 -0.33582034474E+02  0.36051788344E+02  0.10566000000E+00 0.  1.
         23    2    1    0    0    0 -0.16269239454E+02 -0.30550445343E+00  0.24694824175E+02  0.95426095516E+02  0.90727745916E+02 0.  0.
         13    1    3    3    0    0 -0.69884431014E+01  0.89591627494E+01  0.58276858649E+02  0.59374307173E+02  0.10566000000E+00 0. -1.
         22    1    1    0    0    0  0.16269239454E+02  0.30550445343E+00 -0.24694824175E+02  0.29573904484E+02  0.00000000000E+00 0. -1.
</event>
<event>
 5    1  0.6924836E-004  0.9118800E+02  0.7818608E-02  0.1130116E+00
         25   -1    0    0    0    0  0.00000000000E+00  0.00000000000E+00  0.99999998245E-14  0.12500000000E+03  0.12500000000E+03 0.  0.
        -13    1    3    3    0    0  0.24345410921E+02 -0.31490201732E+02  0.38409492237E+02  0.55313941244E+02  0.10566000000E+00 0. -1.
         23    2    1    0    0    0  0.26131498763E+02 -0.34781782763E+02  0.15059035378E+02  0.78963034567E+02  0.64154178677E+02 0.  0.
         13    1    3    3    0    0  0.17860878419E+01 -0.32915810311E+01 -0.23350456858E+02  0.23649093323E+02  0.10566000000E+00 0.  1.
         22    1    1    0    0    0 -0.26131498763E+02  0.34781782763E+02 -0.15059035378E+02  0.46036965433E+02  0.00000000000E+00 0. -1.
</event>
<event>
 5    1  0.6924836E-004  0.9118800E+02  0.7818608E-02  0.1130116E+00
         25   -1    0    0    0    0  0.00000000000E+00  0.00000000000E+00  0.99999998245E-14  0.12500000000E+03  0.12500000000E+03 0.  0.
        -13    1    3    3    0    0 -0.11901357363E+02  0.40046369178E+02 -0.45932276892E+02  0.62089767401E+02  0.10566000000E+00 0. -1.
         23    2    1    0    0    0 -0.86016599582E+01  0.22258099971E+02 -0.19182302533E+02  0.94383463638E+02  0.89279706033E+02 0.  0.
         13    1    3    3    0    0  0.32996974044E+01 -0.17788269207E+02  0.26749974359E+02  0.32293696236E+02  0.10566000000E+00 0.  1.
         22    1    1    0    0    0  0.86016599582E+01 -0.22258099971E+02  0.19182302533E+02  0.30616536362E+02  0.00000000000E+00 0. -1.
</event>
<event>
 5    1  0.6924836E-004  0.9118800E+02  0.7818608E-02  0.1130116E+00
         25   -1    0    0    0    0  0.00000000000E+00  0.00000000000E+00  0.99999998245E-14  0.12500000000E+03  0.12500000000E+03 0.  0.
        -13    1    3    3    0    0  0.49639592327E+02  0.30355758278E+02  0.61460359627E+01  0.58509367704E+02  0.10566000000E+00 0.  1.
         23    2    1    0    0    0  0.13882448550E+02  0.26710008081E+02  0.49438108168E+00  0.94893666413E+02  0.89991202922E+02 0.  0.
         13    1    3    3    0    0 -0.35757143777E+02 -0.36457501974E+01 -0.56516548810E+01  0.36384298709E+02  0.10566000000E+00 0. -1.
         22    1    1    0    0    0 -0.13882448550E+02 -0.26710008081E+02 -0.49438108168E+00  0.30106333587E+02  0.00000000000E+00 0.  1.
</event>
<event>
 5    1  0.6924836E-004  0.9118800E+02  0.7818608E-02  0.1130116E+00
         25   -1    0    0    0    0  0.00000000000E+00  0.00000000000E+00  0.99999998245E-14  0.12500000000E+03  0.12500000000E+03 0.  0.
        -13    1    3    3    0    0  0.22502103725E+02 -0.30891137525E+02  0.41145122739E+01  0.38438879080E+02  0.10566000000E+00 0.  1.
         23    2    1    0    0    0  0.20898670626E+02  0.69342171930E+01  0.32489884745E+02  0.85751682676E+02  0.76242512216E+02 0.  0.
         13    1    3    3    0    0 -0.16034330994E+01  0.37825354718E+02  0.28375372471E+02  0.47312803596E+02  0.10566000000E+00 0. -1.
         22    1    1    0    0    0 -0.20898670626E+02 -0.69342171930E+01 -0.32489884745E+02  0.39248317324E+02  0.00000000000E+00 0.  1.
</event>
<event>
 5    1  0.6924836E-004  0.9118800E+02  0.7818608E-02  0.1130116E+00
         25   -1    0    0    0    0  0.00000000000E+00  0.00000000000E+00  0.99999998245E-14  0.12500000000E+03  0.12500000000E+03 0.  0.
        -13    1    3    3    0    0  0.12625616991E+01  0.42484950104E+02 -0.19253583092E+02  0.46661297381E+02  0.10566000000E+00 0.  1.
         23    2    1    0    0    0 -0.12608351746E+02  0.15746671407E+02  0.20301765945E+02  0.96380253414E+02  0.92032947109E+02 0.  0.
         13    1    3    3    0    0 -0.13870913445E+02 -0.26738278697E+02  0.39555349037E+02  0.49718956032E+02  0.10566000000E+00 0. -1.
         22    1    1    0    0    0  0.12608351746E+02 -0.15746671407E+02 -0.20301765945E+02  0.28619746586E+02  0.00000000000E+00 0.  1.
</event>
<event>
 5    1  0.6924836E-004  0.9118800E+02  0.7818608E-02  0.1130116E+00
         25   -1    0    0    0    0  0.00000000000E+00  0.00000000000E+00  0.99999998245E-14  0.12500000000E+03  0.12500000000E+03 0.  0.
        -13    1    3    3    0    0 -0.21885845486E+02 -0.20866224334E+02 -0.90933302146E+01  0.31576721948E+02  0.10566000000E+00 0. -1.
         23    2    1    0    0    0  0.18832028850E+01 -0.15597133900E+02  0.37607587963E+02  0.84242820125E+02  0.73727233986E+02 0.  0.
         13    1    3    3    0    0  0.23769048371E+02  0.52690904346E+01  0.46700918178E+02  0.52666098176E+02  0.10566000000E+00 0.  1.
         22    1    1    0    0    0 -0.18832028850E+01  0.15597133900E+02 -0.37607587963E+02  0.40757179875E+02  0.00000000000E+00 0.  1.
</event>
<event>
 5    1  0.6924836E-004  0.9118800E+02  0.7818608E-02  0.1130116E+00
         25   -1    0    0    0    0  0.00000000000E+00  0.00000000000E+00  0.99999998245E-14  0.12500000000E+03  0.12500000000E+03 0.  0.
        -13    1    3    3    0    0  0.25021940633E+02 -0.35564514044E+02  0.32715641208E+02  0.54417428421E+02  0.10566000000E+00 0.  1.
         23    2    1    0    0    0  0.25601606849E+02 -0.14595454225E+02 -0.25177882072E+01  0.95422832882E+02  0.90723250715E+02 0.  0.
         13    1    3    3    0    0  0.57966621592E+00  0.20969059818E+02 -0.35233429415E+02  0.41005404461E+02  0.10566000000E+00 0. -1.
         22    1    1    0    0    0 -0.25601606849E+02  0.14595454225E+02  0.25177882072E+01  0.29577167118E+02  0.00000000000E+00 0. -1.
</event>
<event>
 5    1  0.6924836E-004  0.9118800E+02  0.7818608E-02  0.1130116E+00
         25   -1    0    0    0    0  0.00000000000E+00  0.00000000000E+00  0.99999998245E-14  0.12500000000E+03  0.12500000000E+03 0.  0.
        -13    1    3    3    0    0 -0.16545408952E+02  0.19620043748E+02  0.21680298828E+02  0.33596773586E+02  0.10566000000E+00 0.  1.
         23    2    1    0    0    0  0.12945994681E+02  0.23389202948E+02 -0.24643763051E+02  0.88641113189E+02  0.80841068135E+02 0.  0.
         13    1    3    3    0    0  0.29491403633E+02  0.37691591997E+01 -0.46324061879E+02  0.55044339603E+02  0.10566000000E+00 0. -1.
         22    1    1    0    0    0 -0.12945994681E+02 -0.23389202948E+02  0.24643763051E+02  0.36358886811E+02  0.00000000000E+00 0. -1.
</event>
<event>
 5    1  0.6924836E-004  0.9118800E+02  0.7818608E-02  0.1130116E+00
         25   -1    0    0    0    0  0.00000000000E+00  0.00000000000E+00  0.99999998245E-14  0.12500000000E+03  0.12500000000E+03 0.  0.
        -13    1    3    3    0    0 -0.17560000000E+02  0.19840798789E+02 -0.28463307577E+02  0.38886783601E+02  0.10566000000E+00 0.  1.
         23    2    1    0    0    0  0.13217381678E+02  0.14782422549E+02  0.20203619090E+02  0.96690895119E+02  0.92453900835E+02 0.  0.
         13    1    3    3    0    0  0.30777381677E+02 -0.50583762402E+01  0.48666926667E+02  0.57804111518E+02  0.10566000000E+00 0. -1.
         22    1    1    0    0    0 -0.13217381678E+02 -0.14782422549E+02 -0.20203619090E+02  0.28309104881E+02  0.00000000000E+00 0. -1.
</event>
<event>
 5    1  0.6924836E-004  0.9118800E+02  0.7818608E-02  0.1130116E+00
         25   -1    0    0    0    0  0.00000000000E+00  0.00000000000E+00  0.99999998245E-14  0.12500000000E+03  0.12500000000E+03 0.  0.
        -13    1    3    3    0    0  0.15817772321E+02 -0.36051890007E+02  0.71351213610E+01  0.40010771239E+02  0.10566000000E+00 0.  1.
         23    2    1    0    0    0 -0.26800078307E+02 -0.45861939620E+01 -0.10513415606E+02  0.95848511530E+02  0.91307874154E+02 0.  0.
         13    1    3    3    0    0 -0.42617850628E+02  0.31465696045E+02 -0.17648536967E+02  0.55837740291E+02  0.10566000000E+00 0. -1.
         22    1    1    0    0    0  0.26800078307E+02  0.45861939620E+01  0.10513415606E+02  0.29151488470E+02  0.00000000000E+00 0. -1.
</event>
<event>
 5    1  0.6924836E-004  0.9118800E+02  0.7818608E-02  0.1130116E+00
         25   -1    0    0    0    0  0.00000000000E+00  0.00000000000E+00  0.99999998245E-14  0.12500000000E+03  0.12500000000E+03 0.  0.
        -13    1    3    3    0    0 -0.30655639374E+02  0.30027196873E+02  0.23770064285E+00  0.42912334394E+02  0.10566000000E+00 0. -1.
         23    2    1    0    0    0 -0.11144584827E+02 -0.18401396800E+02 -0.16660353517E+02  0.97790065152E+02  0.93928250744E+02 0.  0.
         13    1    3    3    0    0  0.19511054547E+02 -0.48428593673E+02 -0.16898054160E+02  0.54877730758E+02  0.10566000000E+00 0.  1.
         22    1    1    0    0    0  0.11144584827E+02  0.18401396800E+02  0.16660353517E+02  0.27209934848E+02  0.00000000000E+00 0.  1.
</event>
<event>
 5    1  0.6924836E-004  0.9118800E+02  0.7818608E-02  0.1130116E+00
         25   -1    0    0    0    0  0.00000000000E+00  0.00000000000E+00  0.99999998245E-14  0.12500000000E+03  0.12500000000E+03 0.  0.
        -13    1    3    3    0    0 -0.37647270072E+02  0.67048665079E+01  0.69139020920E+01  0.38859817099E+02  0.10566000000E+00 0.  1.
         23    2    1    0    0    0  0.15374957244E+02  0.23350622113E+02  0.11812517557E+02  0.94649111473E+02  0.89650866523E+02 0.  0.
         13    1    3    3    0    0  0.53022227317E+02  0.16645755605E+02  0.48986154652E+01  0.55789294374E+02  0.10566000000E+00 0. -1.
         22    1    1    0    0    0 -0.15374957244E+02 -0.23350622113E+02 -0.11812517557E+02  0.30350888527E+02  0.00000000000E+00 0. -1.
</event>
<event>
 5    1  0.6924836E-004  0.9118800E+02  0.7818608E-02  0.1130116E+00
         25   -1    0    0    0    0  0.00000000000E+00  0.00000000000E+00  0.99999998245E-14  0.12500000000E+03  0.12500000000E+03 0.  0.
        -13    1    3    3    0    0 -0.36277228606E+02  0.17108499820E+01  0.32121595792E+02  0.48484764651E+02  0.10566000000E+00 0.  1.
         23    2    1    0    0    0  0.90521193929E+00 -0.14719761854E+02  0.32687377949E+02  0.89139778655E+02  0.81608484019E+02 0.  0.
         13    1    3    3    0    0  0.37182440545E+02 -0.16430611836E+02  0.56578215688E+00  0.40655014004E+02  0.10566000000E+00 0. -1.
         22    1    1    0    0    0 -0.90521193929E+00  0.14719761854E+02 -0.32687377949E+02  0.35860221345E+02  0.00000000000E+00 0.  1.
</event>
<event>
 5    1  0.6924836E-004  0.9118800E+02  0.7818608E-02  0.1130116E+00
         25   -1    0    0    0    0  0.00000000000E+00  0.00000000000E+00  0.99999998245E-14  0.12500000000E+03  0.12500000000E+03 0.  0.
        -13    1    3    3    0    0 -0.33730996333E+02 -0.12615230667E+02 -0.26645244853E+01  0.36111424967E+02  0.10566000000E+00 0.  1.
         23    2    1    0    0    0  0.13262475753E+02  0.13612323355E+02  0.22522200612E+02  0.95530725652E+02  0.90871785571E+02 0.  0.
         13    1    3    3    0    0  0.46993472086E+02  0.26227554023E+02  0.25186725097E+02  0.59419300684E+02  0.10566000000E+00 0. -1.
         22    1    1    0    0    0 -0.13262475753E+02 -0.13612323355E+02 -0.22522200612E+02  0.29469274348E+02  0.00000000000E+00 0. -1.
</event>
<event>
 5    1  0.6924836E-004  0.9118800E+02  0.7818608E-02  0.1130116E+00
         25   -1    0    0    0    0  0.00000000000E+00  0.00000000000E+00  0.99999998245E-14  0.12500000000E+03  0.12500000000E+03 0.  0.
        -13    1    3    3    0    0 -0.10304326676E+02  0.28050024245E+02 -0.96511407801E+01  0.31402845266E+02  0.10566000000E+00 0.  1.
         23    2    1    0    0    0 -0.28569932868E+02 -0.11749777437E+02  0.23382964040E+02  0.86256467105E+02  0.77065665352E+02 0.  0.
         13    1    3    3    0    0 -0.18265606192E+02 -0.39799801683E+02  0.33034104820E+02  0.54853621839E+02  0.10566000000E+00 0. -1.
         22    1    1    0    0    0  0.28569932868E+02  0.11749777437E+02 -0.23382964040E+02  0.38743532895E+02  0.00000000000E+00 0. -1.
</event>
<event>
 5    1  0.6924836E-004  0.9118800E+02  0.7818608E-02  0.1130116E+00
         25   -1    0    0    0    0  0.00000000000E+00  0.00000000000E+00  0.99999998245E-14  0.12500000000E+03  0.12500000000E+03 0.  0.
        -13    1    3    3    0    0 -0.10242687428E+02 -0.22353519789E+02 -0.25842049439E+02  0.35670929004E+02  0.10566000000E+00 0. -1.
         23    2    1    0    0    0  0.99574960933E+01 -0.29488036983E+01  0.27326534871E+02  0.95766685447E+02  0.91195785877E+02 0.  0.
         13    1    3    3    0    0  0.20200183521E+02  0.19404716091E+02  0.53168584311E+02  0.60095756443E+02  0.10566000000E+00 0.  1.
         22    1    1    0    0    0 -0.99574960933E+01  0.29488036983E+01 -0.27326534871E+02  0.29233314553E+02  0.00000000000E+00 0.  1.
</event>
<event>
 5    1  0.6924836E-004  0.9118800E+02  0.7818608E-02  0.1130116E+00
         25   -1    0    0    0    0  0.00000000000E+00  0.00000000000E+00  0.99999998245E-14  0.12500000000E+03  0.12500000000E+03 0.  0.
        -13    1    3    3    0    0  0.35894406826E+02 -0.20898645616E+02 -0.40976096114E+02  0.58345637770E+02  0.10566000000E+00 0. -1.
         23    2    1    0    0    0  0.26096429431E+02 -0.97691374090E+01 -0.57744326040E+01  0.96542949087E+02  0.92253657227E+02 0.  0.
         13    1    3    3    0    0 -0.97979773951E+01  0.11129508207E+02  0.35201663510E+02  0.38197311317E+02  0.10566000000E+00 0.  1.
         22    1    1    0    0    0 -0.26096429431E+02  0.97691374090E+01  0.57744326040E+01  0.28457050913E+02  0.00000000000E+00 0. -1.
</event>
<event>
 5    1  0.6924836E-004  0.9118800E+02  0.7818608E-02  0.1130116E+00
         25   -1    0    0    0    0  0.00000000000E+00  0.00000000000E+00  0.99999998245E-14  0.12500000000E+03  0.12500000000E+03 0.  0.
        -13    1    3    3    0    0  0.47213901735E+02  0.13664513427E+01 -0.35188520325E+02  0.58900448496E+02  0.10566000000E+00 0.  1.
         23    2    1    0    0    0  0.16720324484E+02 -0.13788204882E+02 -0.16640181157E+02  0.97676393473E+02  0.93776854117E+02 0.  0.
         13    1    3    3    0    0 -0.30493577251E+02 -0.15154656225E+02  0.18548339168E+02  0.38775944976E+02  0.10566000000E+00 0. -1.
         22    1    1    0    0    0 -0.16720324484E+02  0.13788204882E+02  0.16640181157E+02  0.27323606527E+02  0.00000000000E+00 0.  1.
</event>
<event>
 5    1  0.6924836E-004  0.9118800E+02  0.7818608E-02  0.1130116E+00
         25   -1    0    0    0    0  0.00000000000E+00  0.00000000000E+00  0.99999998245E-14  0.12500000000E+03  0.12500000000E+03 0.  0.
        -13    1    3    3    0    0 -0.13245043541E+02 -0.22499741564E+02 -0.46360928365E+02  0.53207296415E+02  0.10566000000E+00 0. -1.
         23    2    1    0    0    0 -0.25539272729E+02 -0.89220113508E+01 -0.63497398012E+01  0.97211946207E+02  0.93155711321E+02 0.  0.
         13    1    3    3    0    0 -0.12294229187E+02  0.13577730213E+02  0.40011188564E+02  0.44004649793E+02  0.10566000000E+00 0.  1.
         22    1    1    0    0    0  0.25539272729E+02  0.89220113508E+01  0.63497398012E+01  0.27788053793E+02  0.00000000000E+00 0. -1.
</event>
<event>
 5    1  0.6924836E-004  0.9118800E+02  0.7818608E-02  0.1130116E+00
         25   -1    0    0    0    0  0.00000000000E+00  0.00000000000E+00  0.99999998245E-14  0.12500000000E+03  0.12500000000E+03 0.  0.
        -13    1    3    3    0    0 -0.16179941145E+02 -0.33993663940E+02 -0.27643981889E+01  0.37749340987E+02  0.10566000000E+00 0.  1.
         23    2    1    0    0    0 -0.15280393171E+02  0.20532047161E+02  0.15281607188E+02  0.95190892426E+02  0.90403114474E+02 0.  0.
         13    1    3    3    0    0  0.89954797438E+00  0.54525711102E+02  0.18046005377E+02  0.57441551440E+02  0.10566000000E+00 0. -1.
         22    1    1    0    0    0  0.15280393171E+02 -0.20532047161E+02 -0.15281607188E+02  0.29809107574E+02  0.00000000000E+00 0. -1.
</event>
<event>
 5    1  0.6924836E-004  0.9118800E+02  0.7818608E-02  0.1130116E+00
         25   -1    0    0    0    0  0.00000000000E+00  0.00000000000E+00  0.99999998245E-14  0.12500000000E+03  0.12500000000E+03 0.  0.
        -13    1    3    3    0    0 -0.42488588643E+02  0.33583517808E+01 -0.14829208579E+02  0.45127323017E+02  0.10566000000E+00 0.  1.
         23    2    1    0    0    0 -0.27479921616E+00 -0.21336037786E+02 -0.21761737193E+02  0.94522545568E+02  0.89474221941E+02 0.  0.
         13    1    3    3    0    0  0.42213789427E+02 -0.24694389566E+02 -0.69325286142E+01  0.49395222551E+02  0.10566000000E+00 0. -1.
         22    1    1    0    0    0  0.27479921616E+00  0.21336037786E+02  0.21761737193E+02  0.30477454432E+02  0.00000000000E+00 0.  1.
</event>
<event>
 5    1  0.6924836E-004  0.9118800E+02  0.7818608E-02  0.1130116E+00
         25   -1    0    0    0    0  0.00000000000E+00  0.00000000000E+00  0.99999998245E-14  0.12500000000E+03  0.12500000000E+03 0.  0.
        -13    1    3    3    0    0 -0.13642426264E+02  0.29255242572E+02  0.39204704565E+02  0.50783905289E+02  0.10566000000E+00 0. -1.
         23    2    1    0    0    0 -0.94347067503E+01 -0.12890566386E+02  0.24758857523E+02  0.95535081554E+02  0.90877777198E+02 0.  0.
         13    1    3    3    0    0  0.42077195141E+01 -0.42145808958E+02 -0.14445847042E+02  0.44751176265E+02  0.10566000000E+00 0.  1.
         22    1    1    0    0    0  0.94347067503E+01  0.12890566386E+02 -0.24758857523E+02  0.29464918446E+02  0.00000000000E+00 0. -1.
</event>
<event>
 5    1  0.6924836E-004  0.9118800E+02  0.7818608E-02  0.1130116E+00
         25   -1    0    0    0    0  0.00000000000E+00  0.00000000000E+00  0.99999998245E-14  0.12500000000E+03  0.12500000000E+03 0.  0.
        -13    1    3    3    0    0 -0.27365547679E+01  0.33788189314E+02 -0.76550137587E+01  0.34752566363E+02  0.10566000000E+00 0. -1.
         23    2    1    0    0    0 -0.83689308528E+01 -0.23254002820E+02  0.14662482933E+02  0.96263680533E+02  0.91874480315E+02 0.  0.
         13    1    3    3    0    0 -0.56323760850E+01 -0.57042192134E+02  0.22317496692E+02  0.61511114170E+02  0.10566000000E+00 0.  1.
         22    1    1    0    0    0  0.83689308528E+01  0.23254002820E+02 -0.14662482933E+02  0.28736319467E+02  0.00000000000E+00 0.  1.
</event>
<event>
 5    1  0.6924836E-004  0.9118800E+02  0.7818608E-02  0.1130116E+00
         25   -1    0    0    0    0  0.00000000000E+00  0.00000000000E+00  0.99999998245E-14  0.12500000000E+03  0.12500000000E+03 0.  0.
        -13    1    3    3    0    0 -0.30852391355E+02 -0.36360235073E+02  0.35781860661E+02  0.59617861948E+02  0.10566000000E+00 0. -1.
         23    2    1    0    0    0 -0.21347738660E+01 -0.21944283942E+02  0.19132974670E+02  0.95807885022E+02  0.91252239729E+02 0.  0.
         13    1    3    3    0    0  0.28717617489E+02  0.14415951132E+02 -0.16648885991E+02  0.36190023073E+02  0.10566000000E+00 0.  1.
         22    1    1    0    0    0  0.21347738660E+01  0.21944283942E+02 -0.19132974670E+02  0.29192114978E+02  0.00000000000E+00 0. -1.
</event>
<event>
 5    1  0.6924836E-004  0.9118800E+02  0.7818608E-02  0.1130116E+00
         25   -1    0    0    0    0  0.00000000000E+00  0.00000000000E+00  0.99999998245E-14  0.12500000000E+03  0.12500000000E+03 0.  0.
        -13    1    3    3    0    0  0.58228031228E+01  0.23841820900E+02  0.23460504116E+02  0.33952082078E+02  0.10566000000E+00 0.  1.
         23    2    1    0    0    0  0.70440528403E+01 -0.21139690717E+02 -0.18922077847E+02  0.95767308812E+02  0.91196640305E+02 0.  0.
         13    1    3    3    0    0  0.12212497175E+01 -0.44981511617E+02 -0.42382581963E+02  0.61815226734E+02  0.10566000000E+00 0. -1.
         22    1    1    0    0    0 -0.70440528403E+01  0.21139690717E+02  0.18922077847E+02  0.29232691188E+02  0.00000000000E+00 0. -1.
</event>
<event>
 5    1  0.6924836E-004  0.9118800E+02  0.7818608E-02  0.1130116E+00
         25   -1    0    0    0    0  0.00000000000E+00  0.00000000000E+00  0.99999998245E-14  0.12500000000E+03  0.12500000000E+03 0.  0.
        -13    1    3    3    0    0  0.25926109352E+02 -0.15377157925E+02 -0.20346201014E+02  0.36367556856E+02  0.10566000000E+00 0. -1.
         23    2    1    0    0    0 -0.21927080814E+02 -0.18973485746E+00  0.15577902418E+02  0.98101971892E+02  0.94342424036E+02 0.  0.
         13    1    3    3    0    0 -0.47853190166E+02  0.15187423067E+02  0.35924103432E+02  0.61734415036E+02  0.10566000000E+00 0.  1.
         22    1    1    0    0    0  0.21927080814E+02  0.18973485746E+00 -0.15577902418E+02  0.26898028108E+02  0.00000000000E+00 0.  1.
</event>
<event>
 5    1  0.6924836E-004  0.9118800E+02  0.7818608E-02  0.1130116E+00
         25   -1    0    0    0    0  0.00000000000E+00  0.00000000000E+00  0.99999998245E-14  0.12500000000E+03  0.12500000000E+03 0.  0.
        -13    1    3    3    0    0  0.12988227967E+02  0.45454382632E+02  0.19861747925E+02  0.51276653175E+02  0.10566000000E+00 0.  1.
         23    2    1    0    0    0  0.24768272483E+02  0.26058501282E+01  0.14867354628E+02  0.95994896823E+02  0.91508055414E+02 0.  0.
         13    1    3    3    0    0  0.11780044516E+02 -0.42848532504E+02 -0.49943932966E+01  0.44718243648E+02  0.10566000000E+00 0. -1.
         22    1    1    0    0    0 -0.24768272483E+02 -0.26058501282E+01 -0.14867354628E+02  0.29005103177E+02  0.00000000000E+00 0.  1.
</event>
<event>
 5    1  0.6924836E-004  0.9118800E+02  0.7818608E-02  0.1130116E+00
         25   -1    0    0    0    0  0.00000000000E+00  0.00000000000E+00  0.99999998245E-14  0.12500000000E+03  0.12500000000E+03 0.  0.
        -13    1    3    3    0    0 -0.40933882073E+02 -0.30376713831E+02 -0.19255155773E+02  0.54489445149E+02  0.10566000000E+00 0. -1.
         23    2    1    0    0    0 -0.36759536283E+00 -0.27029193411E+02 -0.95118327721E+01  0.96343632724E+02  0.91983195101E+02 0.  0.
         13    1    3    3    0    0  0.40566286710E+02  0.33475204205E+01  0.97433230013E+01  0.41854187575E+02  0.10566000000E+00 0.  1.
         22    1    1    0    0    0  0.36759536283E+00  0.27029193411E+02  0.95118327721E+01  0.28656367276E+02  0.00000000000E+00 0. -1.
</event>
<event>
 5    1  0.6924836E-004  0.9118800E+02  0.7818608E-02  0.1130116E+00
         25   -1    0    0    0    0  0.00000000000E+00  0.00000000000E+00  0.99999998245E-14  0.12500000000E+03  0.12500000000E+03 0.  0.
        -13    1    3    3    0    0  0.15313274281E+02  0.43854275271E+02  0.32868041690E+02  0.56903542573E+02  0.10566000000E+00 0.  1.
         23    2    1    0    0    0  0.11717565919E+02  0.61218844763E+01  0.26564495508E+02  0.95327601340E+02  0.90591944096E+02 0.  0.
         13    1    3    3    0    0 -0.35957083625E+01 -0.37732390794E+02 -0.63035461818E+01  0.38424058768E+02  0.10566000000E+00 0. -1.
         22    1    1    0    0    0 -0.11717565919E+02 -0.61218844763E+01 -0.26564495508E+02  0.29672398660E+02  0.00000000000E+00 0.  1.
</event>
<event>
 5    1  0.6924836E-004  0.9118800E+02  0.7818608E-02  0.1130116E+00
         25   -1    0    0    0    0  0.00000000000E+00  0.00000000000E+00  0.99999998245E-14  0.12500000000E+03  0.12500000000E+03 0.  0.
        -13    1    3    3    0    0  0.26686896088E+02 -0.65331612695E+01  0.52992676351E+02  0.59691771040E+02  0.10566000000E+00 0.  1.
         23    2    1    0    0    0  0.11627360842E+02  0.10095794045E+02  0.25906207172E+02  0.94862778038E+02  0.89948287975E+02 0.  0.
         13    1    3    3    0    0 -0.15059535247E+02  0.16628955314E+02 -0.27086469179E+02  0.35171006999E+02  0.10566000000E+00 0. -1.
         22    1    1    0    0    0 -0.11627360842E+02 -0.10095794045E+02 -0.25906207172E+02  0.30137221962E+02  0.00000000000E+00 0.  1.
</event>
<event>
 5    1  0.6924836E-004  0.9118800E+02  0.7818608E-02  0.1130116E+00
         25   -1    0    0    0    0  0.00000000000E+00  0.00000000000E+00  0.99999998245E-14  0.12500000000E+03  0.12500000000E+03 0.  0.
        -13    1    3    3    0    0 -0.33393294563E+02 -0.84740541774E+01  0.87341800139E+01  0.35541789213E+02  0.10566000000E+00 0.  1.
         23    2    1    0    0    0  0.19540589373E+02 -0.14201904342E+02 -0.17764949083E+02  0.95014634638E+02  0.90159074194E+02 0.  0.
         13    1    3    3    0    0  0.52933883936E+02 -0.57278501642E+01 -0.26499129096E+02  0.59472845425E+02  0.10566000000E+00 0. -1.
         22    1    1    0    0    0 -0.19540589373E+02  0.14201904342E+02  0.17764949083E+02  0.29985365362E+02  0.00000000000E+00 0. -1.
</event>
<event>
 5    1  0.6924836E-004  0.9118800E+02  0.7818608E-02  0.1130116E+00
         25   -1    0    0    0    0  0.00000000000E+00  0.00000000000E+00  0.99999998245E-14  0.12500000000E+03  0.12500000000E+03 0.  0.
        -13    1    3    3    0    0  0.61121624575E+01 -0.36910304383E+02  0.50007366587E+02  0.62453798736E+02  0.10566000000E+00 0.  1.
         23    2    1    0    0    0  0.44193861012E+01 -0.16806883163E+02  0.22288849630E+02  0.96737036373E+02  0.92516263939E+02 0.  0.
         13    1    3    3    0    0 -0.16927763564E+01  0.20103421220E+02 -0.27718516957E+02  0.34283237637E+02  0.10566000000E+00 0. -1.
         22    1    1    0    0    0 -0.44193861012E+01  0.16806883163E+02 -0.22288849630E+02  0.28262963627E+02  0.00000000000E+00 0.  1.
</event>
<event>
 5    1  0.6924836E-004  0.9118800E+02  0.7818608E-02  0.1130116E+00
         25   -1    0    0    0    0  0.00000000000E+00  0.00000000000E+00  0.99999998245E-14  0.12500000000E+03  0.12500000000E+03 0.  0.
        -13    1    3    3    0    0 -0.42872975269E+02  0.32550718286E+02 -0.72256767557E+01  0.54312639763E+02  0.10566000000E+00 0.  1.
         23    2    1    0    0    0 -0.16284640256E+02  0.16598478326E+02  0.19037978067E+02  0.94947652340E+02  0.90066159489E+02 0.  0.
         13    1    3    3    0    0  0.26588335013E+02 -0.15952239960E+02  0.26263654822E+02  0.40635012578E+02  0.10566000000E+00 0. -1.
         22    1    1    0    0    0  0.16284640256E+02 -0.16598478326E+02 -0.19037978067E+02  0.30052347660E+02  0.00000000000E+00 0.  1.
</event>
<event>
 5    1  0.6924836E-004  0.9118800E+02  0.7818608E-02  0.1130116E+00
         25   -1    0    0    0    0  0.00000000000E+00  0.00000000000E+00  0.99999998245E-14  0.12500000000E+03  0.12500000000E+03 0.  0.
        -13    1    3    3    0    0 -0.35559789305E+02  0.23885002820E+02 -0.22587047628E+01  0.42896443749E+02  0.10566000000E+00 0. -1.
         23    2    1    0    0    0  0.10185073225E+02  0.41470902656E+01 -0.25019080499E+02  0.97670739797E+02  0.93769317739E+02 0.  0.
         13    1    3    3    0    0  0.45744862529E+02 -0.19737912555E+02 -0.22760375736E+02  0.54774296047E+02  0.10566000000E+00 0.  1.
         22    1    1    0    0    0 -0.10185073225E+02 -0.41470902656E+01  0.25019080499E+02  0.27329260203E+02  0.00000000000E+00 0. -1.
</event>
<event>
 5    1  0.6924836E-004  0.9118800E+02  0.7818608E-02  0.1130116E+00
         25   -1    0    0    0    0  0.00000000000E+00  0.00000000000E+00  0.99999998245E-14  0.12500000000E+03  0.12500000000E+03 0.  0.
        -13    1    3    3    0    0 -0.21471953832E+01  0.34458077943E+02  0.62479033628E+01  0.35085852477E+02  0.10566000000E+00 0.  1.
         23    2    1    0    0    0 -0.74718262352E+01 -0.25733504516E+02  0.11705601286E+02  0.95758547515E+02  0.91184630716E+02 0.  0.
         13    1    3    3    0    0 -0.53246308519E+01 -0.60191582459E+02  0.54576979231E+01  0.60672695039E+02  0.10566000000E+00 0. -1.
         22    1    1    0    0    0  0.74718262352E+01  0.25733504516E+02 -0.11705601286E+02  0.29241452485E+02  0.00000000000E+00 0. -1.
</event>
<event>
 5    1  0.6924836E-004  0.9118800E+02  0.7818608E-02  0.1130116E+00
         25   -1    0    0    0    0  0.00000000000E+00  0.00000000000E+00  0.99999998245E-14  0.12500000000E+03  0.12500000000E+03 0.  0.
        -13    1    3    3    0    0  0.19365839218E+01  0.42263467035E+02 -0.34573730173E+02  0.54637944555E+02  0.10566000000E+00 0.  1.
         23    2    1    0    0    0  0.16839891392E+02  0.41650987128E+01 -0.21045661391E+02  0.97726389078E+02  0.93843472172E+02 0.  0.
         13    1    3    3    0    0  0.14903307470E+02 -0.38098368322E+02  0.13528068782E+02  0.43088444522E+02  0.10566000000E+00 0. -1.
         22    1    1    0    0    0 -0.16839891392E+02 -0.41650987128E+01  0.21045661391E+02  0.27273610922E+02  0.00000000000E+00 0.  1.
</event>
<event>
 5    1  0.6924836E-004  0.9118800E+02  0.7818608E-02  0.1130116E+00
         25   -1    0    0    0    0  0.00000000000E+00  0.00000000000E+00  0.99999998245E-14  0.12500000000E+03  0.12500000000E+03 0.  0.
        -13    1    3    3    0    0  0.21058060932E+02 -0.27493625545E+02 -0.12901675448E+01  0.34655693214E+02  0.10566000000E+00 0.  1.
         23    2    1    0    0    0  0.17522443105E+02  0.23724620500E+02  0.19061462647E+02  0.89882582833E+02  0.82738417365E+02 0.  0.
         13    1    3    3    0    0 -0.35356178268E+01  0.51218246045E+02  0.20351630192E+02  0.55226889618E+02  0.10566000000E+00 0. -1.
         22    1    1    0    0    0 -0.17522443105E+02 -0.23724620500E+02 -0.19061462647E+02  0.35117417167E+02  0.00000000000E+00 0. -1.
</event>
<event>
 5    1  0.6924836E-004  0.9118800E+02  0.7818608E-02  0.1130116E+00
         25   -1    0    0    0    0  0.00000000000E+00  0.00000000000E+00  0.99999998245E-14  0.12500000000E+03  0.12500000000E+03 0.  0.
        -13    1    3    3    0    0  0.52505468505E+02 -0.18374447511E+02 -0.24708685002E+02  0.60868504359E+02  0.10566000000E+00 0. -1.
         23    2    1    0    0    0  0.28369653230E+02 -0.34089744144E+01 -0.37131548957E+01  0.96186012941E+02  0.91768748686E+02 0.  0.
         13    1    3    3    0    0 -0.24135815275E+02  0.14965473097E+02  0.20995530107E+02  0.35317508583E+02  0.10566000000E+00 0.  1.
         22    1    1    0    0    0 -0.28369653230E+02  0.34089744144E+01  0.37131548957E+01  0.28813987059E+02  0.00000000000E+00 0. -1.
</event>
<event>
 5    1  0.6924836E-004  0.9118800E+02  0.7818608E-02  0.1130116E+00
         25   -1    0    0    0    0  0.00000000000E+00  0.00000000000E+00  0.99999998245E-14  0.12500000000E+03  0.12500000000E+03 0.  0.
        -13    1    3    3    0    0  0.48396190076E+02  0.12866936413E+01 -0.35106726332E+02  0.59802509915E+02  0.10566000000E+00 0.  1.
         23    2    1    0    0    0  0.13375083366E+02 -0.10124948229E+02 -0.17935981354E+02  0.10044176597E+03  0.97393231242E+02 0.  0.
         13    1    3    3    0    0 -0.35021106709E+02 -0.11411641870E+02  0.17170744977E+02  0.40639256052E+02  0.10566000000E+00 0. -1.
         22    1    1    0    0    0 -0.13375083366E+02  0.10124948229E+02  0.17935981354E+02  0.24558234033E+02  0.00000000000E+00 0.  1.
</event>
<event>
 5    1  0.6924836E-004  0.9118800E+02  0.7818608E-02  0.1130116E+00
         25   -1    0    0    0    0  0.00000000000E+00  0.00000000000E+00  0.99999998245E-14  0.12500000000E+03  0.12500000000E+03 0.  0.
        -13    1    3    3    0    0  0.32743794524E+02  0.11268582285E+02 -0.42299420033E+02  0.54666160700E+02  0.10566000000E+00 0.  1.
         23    2    1    0    0    0 -0.32086273709E+01 -0.20718917275E+01 -0.29736245037E+02  0.95019468086E+02  0.90165775223E+02 0.  0.
         13    1    3    3    0    0 -0.35952421895E+02 -0.13340474012E+02  0.12563174996E+02  0.40353307386E+02  0.10566000000E+00 0. -1.
         22    1    1    0    0    0  0.32086273709E+01  0.20718917275E+01  0.29736245037E+02  0.29980531914E+02  0.00000000000E+00 0. -1.
</event>
<event>
 5    1  0.6924836E-004  0.9118800E+02  0.7818608E-02  0.1130116E+00
         25   -1    0    0    0    0  0.00000000000E+00  0.00000000000E+00  0.99999998245E-14  0.12500000000E+03  0.12500000000E+03 0.  0.
        -13    1    3    3    0    0 -0.27430927418E+02 -0.23876942413E+02 -0.49459812311E+01  0.36702017007E+02  0.10566000000E+00 0.  1.
         23    2    1    0    0    0  0.19180078720E+02  0.16904299302E+02 -0.63726834594E+01  0.98651530422E+02  0.95067779009E+02 0.  0.
         13    1    3    3    0    0  0.46611006138E+02  0.40781241716E+02 -0.14267022283E+01  0.61949513415E+02  0.10566000000E+00 0. -1.
         22    1    1    0    0    0 -0.19180078720E+02 -0.16904299302E+02  0.63726834594E+01  0.26348469578E+02  0.00000000000E+00 0. -1.
</event>
<event>
 5    1  0.6924836E-004  0.9118800E+02  0.7818608E-02  0.1130116E+00
         25   -1    0    0    0    0  0.00000000000E+00  0.00000000000E+00  0.99999998245E-14  0.12500000000E+03  0.12500000000E+03 0.  0.
        -13    1    3    3    0    0 -0.12875912602E+02 -0.28422375675E+02  0.87096559624E+01  0.32395830525E+02  0.10566000000E+00 0.  1.
         23    2    1    0    0    0 -0.65554336544E-01  0.31184633694E+02  0.16442823271E+01  0.93771978282E+02  0.88419424170E+02 0.  0.
         13    1    3    3    0    0  0.12810358266E+02  0.59607009370E+02 -0.70653736353E+01  0.61376147758E+02  0.10566000000E+00 0. -1.
         22    1    1    0    0    0  0.65554336544E-01 -0.31184633694E+02 -0.16442823271E+01  0.31228021718E+02  0.00000000000E+00 0. -1.
</event>
<event>
 5    1  0.6924836E-004  0.9118800E+02  0.7818608E-02  0.1130116E+00
         25   -1    0    0    0    0  0.00000000000E+00  0.00000000000E+00  0.99999998245E-14  0.12500000000E+03  0.12500000000E+03 0.  0.
        -13    1    3    3    0    0  0.12804269604E+01 -0.13305348435E+02 -0.35883705803E+02  0.38292601066E+02  0.10566000000E+00 0.  1.
         23    2    1    0    0    0 -0.24843372581E+02  0.15898692441E+02  0.51822552792E+01  0.95053091106E+02  0.90212375961E+02 0.  0.
         13    1    3    3    0    0 -0.26123799541E+02  0.29204040876E+02  0.41065961082E+02  0.56760490040E+02  0.10566000000E+00 0. -1.
         22    1    1    0    0    0  0.24843372581E+02 -0.15898692441E+02 -0.51822552792E+01  0.29946908894E+02  0.00000000000E+00 0. -1.
</event>
<event>
 5    1  0.6924836E-004  0.9118800E+02  0.7818608E-02  0.1130116E+00
         25   -1    0    0    0    0  0.00000000000E+00  0.00000000000E+00  0.99999998245E-14  0.12500000000E+03  0.12500000000E+03 0.  0.
        -13    1    3    3    0    0 -0.99651674105E+01  0.37504263702E+00 -0.37815703148E+02  0.39108615255E+02  0.10566000000E+00 0.  1.
         23    2    1    0    0    0  0.38907395073E+01  0.31731627277E+02  0.35509298416E+01  0.92834131034E+02  0.87083481548E+02 0.  0.
         13    1    3    3    0    0  0.13855906918E+02  0.31356584640E+02  0.41366632990E+02  0.53725515780E+02  0.10566000000E+00 0. -1.
         22    1    1    0    0    0 -0.38907395073E+01 -0.31731627277E+02 -0.35509298416E+01  0.32165868966E+02  0.00000000000E+00 0. -1.
</event>
<event>
 5    1  0.6924836E-004  0.9118800E+02  0.7818608E-02  0.1130116E+00
         25   -1    0    0    0    0  0.00000000000E+00  0.00000000000E+00  0.99999998245E-14  0.12500000000E+03  0.12500000000E+03 0.  0.
        -13    1    3    3    0    0 -0.17516656983E+02  0.29377325015E+02 -0.17700227385E+02  0.38511942439E+02  0.10566000000E+00 0.  1.
         23    2    1    0    0    0  0.13815962498E+02  0.69263463312E+01  0.24730827767E+02  0.95837199461E+02  0.91292386678E+02 0.  0.
         13    1    3    3    0    0  0.31332619481E+02 -0.22450978684E+02  0.42431055151E+02  0.57325257022E+02  0.10566000000E+00 0. -1.
         22    1    1    0    0    0 -0.13815962498E+02 -0.69263463312E+01 -0.24730827767E+02  0.29162800539E+02  0.00000000000E+00 0. -1.
</event>
<event>
 5    1  0.6924836E-004  0.9118800E+02  0.7818608E-02  0.1130116E+00
         25   -1    0    0    0    0  0.00000000000E+00  0.00000000000E+00  0.99999998245E-14  0.12500000000E+03  0.12500000000E+03 0.  0.
        -13    1    3    3    0    0 -0.20254517989E+02 -0.49158870698E+02 -0.24583078296E+00  0.53168709445E+02  0.10566000000E+00 0.  1.
         23    2    1    0    0    0  0.10508055260E+02 -0.21434569713E+02  0.14431421166E+02  0.97105091486E+02  0.93012218936E+02 0.  0.
         13    1    3    3    0    0  0.30762573249E+02  0.27724300985E+02  0.14677251949E+02  0.43936382040E+02  0.10566000000E+00 0. -1.
         22    1    1    0    0    0 -0.10508055260E+02  0.21434569713E+02 -0.14431421166E+02  0.27894908514E+02  0.00000000000E+00 0.  1.
</event>
<event>
 5    1  0.6924836E-004  0.9118800E+02  0.7818608E-02  0.1130116E+00
         25   -1    0    0    0    0  0.00000000000E+00  0.00000000000E+00  0.99999998245E-14  0.12500000000E+03  0.12500000000E+03 0.  0.
        -13    1    3    3    0    0 -0.37779469931E+01  0.32481850915E+02 -0.24745543582E+02  0.41008494407E+02  0.10566000000E+00 0.  1.
         23    2    1    0    0    0 -0.16997060308E+02  0.24324751993E+02  0.20557111179E+02  0.88900298634E+02  0.81240843537E+02 0.  0.
         13    1    3    3    0    0 -0.13219113315E+02 -0.81570989218E+01  0.45302654761E+02  0.47891804227E+02  0.10566000000E+00 0. -1.
         22    1    1    0    0    0  0.16997060308E+02 -0.24324751993E+02 -0.20557111179E+02  0.36099701366E+02  0.00000000000E+00 0.  1.
</event>
<event>
 5    1  0.6924836E-004  0.9118800E+02  0.7818608E-02  0.1130116E+00
         25   -1    0    0    0    0  0.00000000000E+00  0.00000000000E+00  0.99999998245E-14  0.12500000000E+03  0.12500000000E+03 0.  0.
        -13    1    3    3    0    0  0.29396468071E+02  0.92078589961E+01 -0.40364250660E+01  0.31068326213E+02  0.10566000000E+00 0.  1.
         23    2    1    0    0    0 -0.30498299033E+02 -0.13889308358E+01  0.87876250942E+01  0.93230553552E+02  0.87650661082E+02 0.  0.
         13    1    3    3    0    0 -0.59894767104E+02 -0.10596789832E+02  0.12824050160E+02  0.62162227339E+02  0.10566000000E+00 0. -1.
         22    1    1    0    0    0  0.30498299033E+02  0.13889308358E+01 -0.87876250942E+01  0.31769446448E+02  0.00000000000E+00 0. -1.
</event>
<event>
 5    1  0.6924836E-004  0.9118800E+02  0.7818608E-02  0.1130116E+00
         25   -1    0    0    0    0  0.00000000000E+00  0.00000000000E+00  0.99999998245E-14  0.12500000000E+03  0.12500000000E+03 0.  0.
        -13    1    3    3    0    0  0.13332204417E+02  0.63274435104E+01  0.27278316031E+02  0.31014543452E+02  0.10566000000E+00 0. -1.
         23    2    1    0    0    0 -0.32714809321E+02  0.10407654980E+01 -0.10302682551E+02  0.90685466498E+02  0.83942638894E+02 0.  0.
         13    1    3    3    0    0 -0.46047013738E+02 -0.52866780124E+01 -0.37580998583E+02  0.59670923046E+02  0.10566000000E+00 0.  1.
         22    1    1    0    0    0  0.32714809321E+02 -0.10407654980E+01  0.10302682551E+02  0.34314533502E+02  0.00000000000E+00 0.  1.
</event>
<event>
 5    1  0.6924836E-004  0.9118800E+02  0.7818608E-02  0.1130116E+00
         25   -1    0    0    0    0  0.00000000000E+00  0.00000000000E+00  0.99999998245E-14  0.12500000000E+03  0.12500000000E+03 0.  0.
        -13    1    3    3    0    0  0.32341466951E+02  0.28416316606E+00 -0.17804678678E+02  0.36919764085E+02  0.10566000000E+00 0.  1.
         23    2    1    0    0    0 -0.34134472021E+00  0.17477635507E+02  0.25657949580E+02  0.93953025336E+02  0.88675003998E+02 0.  0.
         13    1    3    3    0    0 -0.32682811671E+02  0.17193472341E+02  0.43462628257E+02  0.57033261251E+02  0.10566000000E+00 0. -1.
         22    1    1    0    0    0  0.34134472021E+00 -0.17477635507E+02 -0.25657949580E+02  0.31046974664E+02  0.00000000000E+00 0. -1.
</event>
<event>
 5    1  0.6924836E-004  0.9118800E+02  0.7818608E-02  0.1130116E+00
         25   -1    0    0    0    0  0.00000000000E+00  0.00000000000E+00  0.99999998245E-14  0.12500000000E+03  0.12500000000E+03 0.  0.
        -13    1    3    3    0    0 -0.12681364465E+01  0.49012434582E+02 -0.34919873067E+02  0.60193318672E+02  0.10566000000E+00 0.  1.
         23    2    1    0    0    0 -0.53394095098E+01  0.14832400469E+02 -0.23962495030E+02  0.96317068392E+02  0.91947088578E+02 0.  0.
         13    1    3    3    0    0 -0.40712730633E+01 -0.34180034113E+02  0.10957378037E+02  0.36123749720E+02  0.10566000000E+00 0. -1.
         22    1    1    0    0    0  0.53394095098E+01 -0.14832400469E+02  0.23962495030E+02  0.28682931608E+02  0.00000000000E+00 0.  1.
</event>
<event>
 5    1  0.6924836E-004  0.9118800E+02  0.7818608E-02  0.1130116E+00
         25   -1    0    0    0    0  0.00000000000E+00  0.00000000000E+00  0.99999998245E-14  0.12500000000E+03  0.12500000000E+03 0.  0.
        -13    1    3    3    0    0 -0.19125915262E+02  0.53124235019E+02  0.66796157793E+01  0.56856076298E+02  0.10566000000E+00 0. -1.
         23    2    1    0    0    0  0.89104882373E+01  0.27827466824E+02  0.82101428868E+01  0.94649198417E+02  0.89650987749E+02 0.  0.
         13    1    3    3    0    0  0.28036403499E+02 -0.25296768195E+02  0.15305271075E+01  0.37793122119E+02  0.10566000000E+00 0.  1.
         22    1    1    0    0    0 -0.89104882373E+01 -0.27827466824E+02 -0.82101428868E+01  0.30350801583E+02  0.00000000000E+00 0. -1.
</event>
<event>
 5    1  0.6924836E-004  0.9118800E+02  0.7818608E-02  0.1130116E+00
         25   -1    0    0    0    0  0.00000000000E+00  0.00000000000E+00  0.99999998245E-14  0.12500000000E+03  0.12500000000E+03 0.  0.
        -13    1    3    3    0    0 -0.15283810535E+02 -0.33906671326E+02 -0.14797885466E+02  0.40028062696E+02  0.10566000000E+00 0.  1.
         23    2    1    0    0    0 -0.19300174243E+02  0.20962571367E+02 -0.25441237060E+01  0.96392331630E+02  0.92049350392E+02 0.  0.
         13    1    3    3    0    0 -0.40163637074E+01  0.54869242693E+02  0.12253761760E+02  0.56364268934E+02  0.10566000000E+00 0. -1.
         22    1    1    0    0    0  0.19300174243E+02 -0.20962571367E+02  0.25441237060E+01  0.28607668370E+02  0.00000000000E+00 0. -1.
</event>
<event>
 5    1  0.6924836E-004  0.9118800E+02  0.7818608E-02  0.1130116E+00
         25   -1    0    0    0    0  0.00000000000E+00  0.00000000000E+00  0.99999998245E-14  0.12500000000E+03  0.12500000000E+03 0.  0.
        -13    1    3    3    0    0 -0.90915459336E+01  0.60562715383E+01  0.50373826030E+02  0.51544816862E+02  0.10566000000E+00 0.  1.
         23    2    1    0    0    0  0.21271800743E+02 -0.28686317759E+01  0.16306262005E+02  0.98044244850E+02  0.94265906947E+02 0.  0.
         13    1    3    3    0    0  0.30363346677E+02 -0.89249033143E+01 -0.34067564025E+02  0.46499427988E+02  0.10566000000E+00 0. -1.
         22    1    1    0    0    0 -0.21271800743E+02  0.28686317759E+01 -0.16306262005E+02  0.26955755150E+02  0.00000000000E+00 0. -1.
</event>
<event>
 5    1  0.6924836E-004  0.9118800E+02  0.7818608E-02  0.1130116E+00
         25   -1    0    0    0    0  0.00000000000E+00  0.00000000000E+00  0.99999998245E-14  0.12500000000E+03  0.12500000000E+03 0.  0.
        -13    1    3    3    0    0 -0.39449303281E+01  0.39580759873E+02 -0.34559452888E+02  0.52693130248E+02  0.10566000000E+00 0.  1.
         23    2    1    0    0    0 -0.10318051700E+02  0.24474855345E+02  0.71367403082E+01  0.97497022029E+02  0.93537455104E+02 0.  0.
         13    1    3    3    0    0 -0.63731213715E+01 -0.15105904528E+02  0.41696193196E+02  0.44803891781E+02  0.10566000000E+00 0. -1.
         22    1    1    0    0    0  0.10318051700E+02 -0.24474855345E+02 -0.71367403082E+01  0.27502977971E+02  0.00000000000E+00 0.  1.
</event>
<event>
 5    1  0.6924836E-004  0.9118800E+02  0.7818608E-02  0.1130116E+00
         25   -1    0    0    0    0  0.00000000000E+00  0.00000000000E+00  0.99999998245E-14  0.12500000000E+03  0.12500000000E+03 0.  0.
        -13    1    3    3    0    0  0.15159133002E+02 -0.18275513444E+02 -0.32513685410E+02  0.40260956372E+02  0.10566000000E+00 0.  1.
         23    2    1    0    0    0 -0.11015457589E+02 -0.26797354185E+02  0.12835674719E+02  0.93310994924E+02  0.87765304825E+02 0.  0.
         13    1    3    3    0    0 -0.26174590591E+02 -0.85218407409E+01  0.45349360129E+02  0.53050038552E+02  0.10566000000E+00 0. -1.
         22    1    1    0    0    0  0.11015457589E+02  0.26797354185E+02 -0.12835674719E+02  0.31689005076E+02  0.00000000000E+00 0. -1.
</event>
<event>
 5    1  0.6924836E-004  0.9118800E+02  0.7818608E-02  0.1130116E+00
         25   -1    0    0    0    0  0.00000000000E+00  0.00000000000E+00  0.99999998245E-14  0.12500000000E+03  0.12500000000E+03 0.  0.
        -13    1    3    3    0    0  0.27502903822E+02 -0.29144046305E+02  0.56438420799E+01  0.40467879499E+02  0.10566000000E+00 0.  1.
         23    2    1    0    0    0 -0.22683244063E+01  0.44940232338E+01 -0.27975008030E+02  0.96575668614E+02  0.92297980224E+02 0.  0.
         13    1    3    3    0    0 -0.29771228229E+02  0.33638069539E+02 -0.33618850110E+02  0.56107789115E+02  0.10566000000E+00 0. -1.
         22    1    1    0    0    0  0.22683244063E+01 -0.44940232338E+01  0.27975008030E+02  0.28424331386E+02  0.00000000000E+00 0. -1.
</event>
<event>
 5    1  0.6924836E-004  0.9118800E+02  0.7818608E-02  0.1130116E+00
         25   -1    0    0    0    0  0.00000000000E+00  0.00000000000E+00  0.99999998245E-14  0.12500000000E+03  0.12500000000E+03 0.  0.
        -13    1    3    3    0    0 -0.24509864097E+02 -0.61122550172E+01 -0.25322163041E+02  0.35767530032E+02  0.10566000000E+00 0.  1.
         23    2    1    0    0    0  0.24036988280E+02 -0.11227487040E+02  0.10656997234E+02  0.96409706877E+02  0.92072942384E+02 0.  0.
         13    1    3    3    0    0  0.48546852378E+02 -0.51152320228E+01  0.35979160275E+02  0.60642176845E+02  0.10566000000E+00 0. -1.
         22    1    1    0    0    0 -0.24036988280E+02  0.11227487040E+02 -0.10656997234E+02  0.28590293123E+02  0.00000000000E+00 0. -1.
</event>
<event>
 5    1  0.6924836E-004  0.9118800E+02  0.7818608E-02  0.1130116E+00
         25   -1    0    0    0    0  0.00000000000E+00  0.00000000000E+00  0.99999998245E-14  0.12500000000E+03  0.12500000000E+03 0.  0.
        -13    1    3    3    0    0 -0.62275980997E+01  0.32812180207E+02  0.17290477074E+02  0.37608428703E+02  0.10566000000E+00 0. -1.
         23    2    1    0    0    0 -0.13292510186E+02 -0.13266449741E+02 -0.20191175475E+02  0.97425136758E+02  0.93441340901E+02 0.  0.
         13    1    3    3    0    0 -0.70649120865E+01 -0.46078629948E+02 -0.37481652549E+02  0.59816708055E+02  0.10566000000E+00 0.  1.
         22    1    1    0    0    0  0.13292510186E+02  0.13266449741E+02  0.20191175475E+02  0.27574863242E+02  0.00000000000E+00 0.  1.
</event>
<event>
 5    1  0.6924836E-004  0.9118800E+02  0.7818608E-02  0.1130116E+00
         25   -1    0    0    0    0  0.00000000000E+00  0.00000000000E+00  0.99999998245E-14  0.12500000000E+03  0.12500000000E+03 0.  0.
        -13    1    3    3    0    0  0.28834379630E+02 -0.28497847909E+02 -0.12903831417E+01  0.40561373704E+02  0.10566000000E+00 0. -1.
         23    2    1    0    0    0  0.74573006446E+01  0.23654931072E+02 -0.11193171884E+02  0.97788712016E+02  0.93926449971E+02 0.  0.
         13    1    3    3    0    0 -0.21377078985E+02  0.52152778981E+02 -0.99027887421E+01  0.57227338312E+02  0.10566000000E+00 0.  1.
         22    1    1    0    0    0 -0.74573006446E+01 -0.23654931072E+02  0.11193171884E+02  0.27211287984E+02  0.00000000000E+00 0.  1.
</event>
<event>
 5    1  0.6924836E-004  0.9118800E+02  0.7818608E-02  0.1130116E+00
         25   -1    0    0    0    0  0.00000000000E+00  0.00000000000E+00  0.99999998245E-14  0.12500000000E+03  0.12500000000E+03 0.  0.
        -13    1    3    3    0    0  0.39858310139E+02  0.10253885293E+02  0.96728536793E+01  0.42277681028E+02  0.10566000000E+00 0.  1.
         23    2    1    0    0    0  0.11349712677E+02 -0.21775594353E+02 -0.19078199534E+02  0.93903855790E+02  0.88605665436E+02 0.  0.
         13    1    3    3    0    0 -0.28508597462E+02 -0.32029479646E+02 -0.28751053213E+02  0.51626174762E+02  0.10566000000E+00 0. -1.
         22    1    1    0    0    0 -0.11349712677E+02  0.21775594353E+02  0.19078199534E+02  0.31096144210E+02  0.00000000000E+00 0.  1.
</event>
<event>
 5    1  0.6924836E-004  0.9118800E+02  0.7818608E-02  0.1130116E+00
         25   -1    0    0    0    0  0.00000000000E+00  0.00000000000E+00  0.99999998245E-14  0.12500000000E+03  0.12500000000E+03 0.  0.
        -13    1    3    3    0    0 -0.23697915422E+02  0.26007928015E+02 -0.27574729251E+02  0.44703247894E+02  0.10566000000E+00 0.  1.
         23    2    1    0    0    0  0.36996202726E+01  0.25049919641E+02  0.15168634704E+02  0.95482663688E+02  0.90805649174E+02 0.  0.
         13    1    3    3    0    0  0.27397535694E+02 -0.95800837377E+00  0.42743363955E+02  0.50779415794E+02  0.10566000000E+00 0. -1.
         22    1    1    0    0    0 -0.36996202726E+01 -0.25049919641E+02 -0.15168634704E+02  0.29517336312E+02  0.00000000000E+00 0. -1.
</event>
<event>
 5    1  0.6924836E-004  0.9118800E+02  0.7818608E-02  0.1130116E+00
         25   -1    0    0    0    0  0.00000000000E+00  0.00000000000E+00  0.99999998245E-14  0.12500000000E+03  0.12500000000E+03 0.  0.
        -13    1    3    3    0    0 -0.46745460979E-01  0.36244744916E+01  0.45880776094E+02  0.46023860980E+02  0.10566000000E+00 0.  1.
         23    2    1    0    0    0  0.13755939485E+02  0.25492780579E+02  0.32958974394E+01  0.95845743490E+02  0.91304084643E+02 0.  0.
         13    1    3    3    0    0  0.13802684946E+02  0.21868306087E+02 -0.42584878654E+02  0.49821882510E+02  0.10566000000E+00 0. -1.
         22    1    1    0    0    0 -0.13755939485E+02 -0.25492780579E+02 -0.32958974394E+01  0.29154256510E+02  0.00000000000E+00 0. -1.
</event>
<event>
 5    1  0.6924836E-004  0.9118800E+02  0.7818608E-02  0.1130116E+00
         25   -1    0    0    0    0  0.00000000000E+00  0.00000000000E+00  0.99999998245E-14  0.12500000000E+03  0.12500000000E+03 0.  0.
        -13    1    3    3    0    0  0.33870525173E+02  0.11733995990E+02  0.11933666898E+01  0.35865504673E+02  0.10566000000E+00 0.  1.
         23    2    1    0    0    0 -0.13147117192E+02  0.28004623613E+02 -0.18017118743E+02  0.89198851946E+02  0.81698916679E+02 0.  0.
         13    1    3    3    0    0 -0.47017642365E+02  0.16270627622E+02 -0.19210485433E+02  0.53333347273E+02  0.10566000000E+00 0. -1.
         22    1    1    0    0    0  0.13147117192E+02 -0.28004623613E+02  0.18017118743E+02  0.35801148054E+02  0.00000000000E+00 0. -1.
</event>
<event>
 5    1  0.6924836E-004  0.9118800E+02  0.7818608E-02  0.1130116E+00
         25   -1    0    0    0    0  0.00000000000E+00  0.00000000000E+00  0.99999998245E-14  0.12500000000E+03  0.12500000000E+03 0.  0.
        -13    1    3    3    0    0  0.98387089031E+01  0.13574276188E+02  0.32972063995E+02  0.36989584142E+02  0.10566000000E+00 0.  1.
         23    2    1    0    0    0  0.25662637945E+01 -0.27541468457E+02 -0.87223409519E+01  0.95996596297E+02  0.91510376867E+02 0.  0.
         13    1    3    3    0    0 -0.72724451086E+01 -0.41115744645E+02 -0.41694404947E+02  0.59007012155E+02  0.10566000000E+00 0. -1.
         22    1    1    0    0    0 -0.25662637945E+01  0.27541468457E+02  0.87223409519E+01  0.29003403703E+02  0.00000000000E+00 0. -1.
</event>
<event>
 5    1  0.6924836E-004  0.9118800E+02  0.7818608E-02  0.1130116E+00
         25   -1    0    0    0    0  0.00000000000E+00  0.00000000000E+00  0.99999998245E-14  0.12500000000E+03  0.12500000000E+03 0.  0.
        -13    1    3    3    0    0 -0.21418789890E+02 -0.22270675508E+02 -0.21226600916E+02  0.37487695293E+02  0.10566000000E+00 0.  1.
         23    2    1    0    0    0  0.25148613714E+02 -0.11217813831E+02  0.11171233197E+02  0.95283193812E+02  0.90530649246E+02 0.  0.
         13    1    3    3    0    0  0.46567403605E+02  0.11052861676E+02  0.32397834113E+02  0.57795498518E+02  0.10566000000E+00 0. -1.
         22    1    1    0    0    0 -0.25148613714E+02  0.11217813831E+02 -0.11171233197E+02  0.29716806188E+02  0.00000000000E+00 0. -1.
</event>
<event>
 5    1  0.6924836E-004  0.9118800E+02  0.7818608E-02  0.1130116E+00
         25   -1    0    0    0    0  0.00000000000E+00  0.00000000000E+00  0.99999998245E-14  0.12500000000E+03  0.12500000000E+03 0.  0.
        -13    1    3    3    0    0 -0.11651745617E+02  0.44154612864E+02  0.27179965594E+02  0.53142776620E+02  0.10566000000E+00 0. -1.
         23    2    1    0    0    0  0.64145029845E+01  0.52265708774E+01  0.27729429601E+02  0.96062409263E+02  0.91600230981E+02 0.  0.
         13    1    3    3    0    0  0.18066248602E+02 -0.38928041987E+02  0.54946400717E+00  0.42919632643E+02  0.10566000000E+00 0.  1.
         22    1    1    0    0    0 -0.64145029845E+01 -0.52265708774E+01 -0.27729429601E+02  0.28937590737E+02  0.00000000000E+00 0. -1.
</event>
<event>
 5    1  0.6924836E-004  0.9118800E+02  0.7818608E-02  0.1130116E+00
         25   -1    0    0    0    0  0.00000000000E+00  0.00000000000E+00  0.99999998245E-14  0.12500000000E+03  0.12500000000E+03 0.  0.
        -13    1    3    3    0    0  0.19959723232E+02  0.21095609890E+02  0.29164909632E+02  0.41158455097E+02  0.10566000000E+00 0. -1.
         23    2    1    0    0    0 -0.20318516929E+02 -0.14359811536E+02  0.76687787688E+01  0.98964322836E+02  0.95478168757E+02 0.  0.
         13    1    3    3    0    0 -0.40278240161E+02 -0.35455421426E+02 -0.21496130864E+02  0.57805867739E+02  0.10566000000E+00 0.  1.
         22    1    1    0    0    0  0.20318516929E+02  0.14359811536E+02 -0.76687787688E+01  0.26035677164E+02  0.00000000000E+00 0.  1.
</event>
<event>
 5    1  0.6924836E-004  0.9118800E+02  0.7818608E-02  0.1130116E+00
         25   -1    0    0    0    0  0.00000000000E+00  0.00000000000E+00  0.99999998245E-14  0.12500000000E+03  0.12500000000E+03 0.  0.
        -13    1    3    3    0    0  0.13074514984E+02  0.26956858561E+02  0.31665247737E+02  0.43592593910E+02  0.10566000000E+00 0. -1.
         23    2    1    0    0    0 -0.22939261947E+02 -0.82449939072E+01  0.13543137684E+02  0.97114407994E+02  0.93024738637E+02 0.  0.
         13    1    3    3    0    0 -0.36013776931E+02 -0.35201852468E+02 -0.18122110052E+02  0.53521814084E+02  0.10566000000E+00 0.  1.
         22    1    1    0    0    0  0.22939261947E+02  0.82449939072E+01 -0.13543137684E+02  0.27885592006E+02  0.00000000000E+00 0.  1.
</event>
<event>
 5    1  0.6924836E-004  0.9118800E+02  0.7818608E-02  0.1130116E+00
         25   -1    0    0    0    0  0.00000000000E+00  0.00000000000E+00  0.99999998245E-14  0.12500000000E+03  0.12500000000E+03 0.  0.
        -13    1    3    3    0    0 -0.30195856646E+02 -0.22561287941E+02  0.28865132485E+02  0.47476399500E+02  0.10566000000E+00 0.  1.
         23    2    1    0    0    0 -0.44344350873E+01 -0.27117694769E+02 -0.11200548792E+02  0.95327017721E+02  0.90591138806E+02 0.  0.
         13    1    3    3    0    0  0.25761421558E+02 -0.45564068281E+01 -0.40065681277E+02  0.47850618220E+02  0.10566000000E+00 0. -1.
         22    1    1    0    0    0  0.44344350873E+01  0.27117694769E+02  0.11200548792E+02  0.29672982279E+02  0.00000000000E+00 0.  1.
</event>
<event>
 5    1  0.6924836E-004  0.9118800E+02  0.7818608E-02  0.1130116E+00
         25   -1    0    0    0    0  0.00000000000E+00  0.00000000000E+00  0.99999998245E-14  0.12500000000E+03  0.12500000000E+03 0.  0.
        -13    1    3    3    0    0 -0.75104252653E+01 -0.88496348401E+01 -0.24276960803E+02  0.26909190146E+02  0.10566000000E+00 0.  1.
         23    2    1    0    0    0 -0.16288417476E+02  0.77187752079E+01  0.33120919596E+02  0.87292078426E+02  0.78727502224E+02 0.  0.
         13    1    3    3    0    0 -0.87779922105E+01  0.16568410048E+02  0.57397880398E+02  0.60382888280E+02  0.10566000000E+00 0. -1.
         22    1    1    0    0    0  0.16288417476E+02 -0.77187752079E+01 -0.33120919596E+02  0.37707921574E+02  0.00000000000E+00 0. -1.
</event>
<event>
 5    1  0.6924836E-004  0.9118800E+02  0.7818608E-02  0.1130116E+00
         25   -1    0    0    0    0  0.00000000000E+00  0.00000000000E+00  0.99999998245E-14  0.12500000000E+03  0.12500000000E+03 0.  0.
        -13    1    3    3    0    0  0.28241937231E+02  0.90291197841E+01 -0.37267956403E+02  0.47623983046E+02  0.10566000000E+00 0.  1.
         23    2    1    0    0    0  0.22317074756E+02 -0.21925102509E+02 -0.39832844493E+01  0.93462268618E+02  0.87980493035E+02 0.  0.
         13    1    3    3    0    0 -0.59248624751E+01 -0.30954222293E+02  0.33284671954E+02  0.45838285572E+02  0.10566000000E+00 0. -1.
         22    1    1    0    0    0 -0.22317074756E+02  0.21925102509E+02  0.39832844493E+01  0.31537731382E+02  0.00000000000E+00 0. -1.
</event>
<event>
 5    1  0.6924836E-004  0.9118800E+02  0.7818608E-02  0.1130116E+00
         25   -1    0    0    0    0  0.00000000000E+00  0.00000000000E+00  0.99999998245E-14  0.12500000000E+03  0.12500000000E+03 0.  0.
        -13    1    3    3    0    0 -0.59170100291E+01 -0.13690097429E+02  0.46476868055E+02  0.48811271275E+02  0.10566000000E+00 0.  1.
         23    2    1    0    0    0 -0.27769785482E+02  0.27783570794E+01  0.81087727822E+01  0.95937439035E+02  0.91429534390E+02 0.  0.
         13    1    3    3    0    0 -0.21852775453E+02  0.16468454508E+02 -0.38368095272E+02  0.47126167760E+02  0.10566000000E+00 0. -1.
         22    1    1    0    0    0  0.27769785482E+02 -0.27783570794E+01 -0.81087727822E+01  0.29062560965E+02  0.00000000000E+00 0. -1.
</event>
<event>
 5    1  0.6924836E-004  0.9118800E+02  0.7818608E-02  0.1130116E+00
         25   -1    0    0    0    0  0.00000000000E+00  0.00000000000E+00  0.99999998245E-14  0.12500000000E+03  0.12500000000E+03 0.  0.
        -13    1    3    3    0    0  0.36837556474E+02  0.10164886901E+02  0.22007083877E+02  0.44098224426E+02  0.10566000000E+00 0.  1.
         23    2    1    0    0    0  0.48968531385E+01 -0.19248825533E+02 -0.14158807926E+02  0.10060802802E+03  0.97606388140E+02 0.  0.
         13    1    3    3    0    0 -0.31940703336E+02 -0.29413712434E+02 -0.36165891803E+02  0.56509803597E+02  0.10566000000E+00 0. -1.
         22    1    1    0    0    0 -0.48968531385E+01  0.19248825533E+02  0.14158807926E+02  0.24391971977E+02  0.00000000000E+00 0. -1.
</event>
<event>
 5    1  0.6924836E-004  0.9118800E+02  0.7818608E-02  0.1130116E+00
         25   -1    0    0    0    0  0.00000000000E+00  0.00000000000E+00  0.99999998245E-14  0.12500000000E+03  0.12500000000E+03 0.  0.
        -13    1    3    3    0    0 -0.37173684102E+02 -0.20675757661E+02  0.15754942739E+02  0.45360766410E+02  0.10566000000E+00 0. -1.
         23    2    1    0    0    0 -0.22354448758E+02  0.17141450879E+02 -0.11816526427E+02  0.94451988374E+02  0.89375595626E+02 0.  0.
         13    1    3    3    0    0  0.14819235344E+02  0.37817208540E+02 -0.27571469166E+02  0.49091221964E+02  0.10566000000E+00 0.  1.
         22    1    1    0    0    0  0.22354448758E+02 -0.17141450879E+02  0.11816526427E+02  0.30548011626E+02  0.00000000000E+00 0. -1.
</event>
<event>
 5    1  0.6924836E-004  0.9118800E+02  0.7818608E-02  0.1130116E+00
         25   -1    0    0    0    0  0.00000000000E+00  0.00000000000E+00  0.99999998245E-14  0.12500000000E+03  0.12500000000E+03 0.  0.
        -13    1    3    3    0    0 -0.19536494162E+02 -0.12769385284E+02 -0.48361639122E+02  0.53699079203E+02  0.10566000000E+00 0.  1.
         23    2    1    0    0    0 -0.24931615526E+02 -0.13654731761E+02 -0.65991459654E+01  0.95818055587E+02  0.91266170605E+02 0.  0.
         13    1    3    3    0    0 -0.53951213649E+01 -0.88534647738E+00  0.41762493157E+02  0.42118976384E+02  0.10566000000E+00 0. -1.
         22    1    1    0    0    0  0.24931615526E+02  0.13654731761E+02  0.65991459654E+01  0.29181944413E+02  0.00000000000E+00 0.  1.
</event>
<event>
 5    1  0.6924836E-004  0.9118800E+02  0.7818608E-02  0.1130116E+00
         25   -1    0    0    0    0  0.00000000000E+00  0.00000000000E+00  0.99999998245E-14  0.12500000000E+03  0.12500000000E+03 0.  0.
        -13    1    3    3    0    0  0.11503734966E+02 -0.50492631219E+01 -0.32046762596E+02  0.34421463263E+02  0.10566000000E+00 0. -1.
         23    2    1    0    0    0 -0.25419487680E+02  0.24906615529E+02 -0.51703565954E+01  0.89038597936E+02  0.81453357721E+02 0.  0.
         13    1    3    3    0    0 -0.36923222647E+02  0.29955878651E+02  0.26876406001E+02  0.54617134673E+02  0.10566000000E+00 0.  1.
         22    1    1    0    0    0  0.25419487680E+02 -0.24906615529E+02  0.51703565954E+01  0.35961402064E+02  0.00000000000E+00 0.  1.
</event>
<event>
 5    1  0.6924836E-004  0.9118800E+02  0.7818608E-02  0.1130116E+00
         25   -1    0    0    0    0  0.00000000000E+00  0.00000000000E+00  0.99999998245E-14  0.12500000000E+03  0.12500000000E+03 0.  0.
        -13    1    3    3    0    0  0.35654526748E+02 -0.21307130662E+02 -0.16599717143E+02  0.44730312629E+02  0.10566000000E+00 0. -1.
         23    2    1    0    0    0 -0.62623586517E+01  0.61887266780E+01 -0.27579653936E+02  0.96049096992E+02  0.91582062916E+02 0.  0.
         13    1    3    3    0    0 -0.41916885399E+02  0.27495857339E+02 -0.10979936793E+02  0.51318784362E+02  0.10566000000E+00 0.  1.
         22    1    1    0    0    0  0.62623586517E+01 -0.61887266780E+01  0.27579653936E+02  0.28950903008E+02  0.00000000000E+00 0.  1.
</event>
<event>
 5    1  0.6924836E-004  0.9118800E+02  0.7818608E-02  0.1130116E+00
         25   -1    0    0    0    0  0.00000000000E+00  0.00000000000E+00  0.99999998245E-14  0.12500000000E+03  0.12500000000E+03 0.  0.
        -13    1    3    3    0    0 -0.35017331392E+02  0.88259563549E+01 -0.16077443646E+01  0.36148402584E+02  0.10566000000E+00 0. -1.
         23    2    1    0    0    0  0.14410274790E+02 -0.20566246429E+02 -0.15735636421E+02  0.95364940269E+02  0.90643450216E+02 0.  0.
         13    1    3    3    0    0  0.49427606182E+02 -0.29392202784E+02 -0.14127892056E+02  0.59216537685E+02  0.10566000000E+00 0.  1.
         22    1    1    0    0    0 -0.14410274790E+02  0.20566246429E+02  0.15735636421E+02  0.29635059731E+02  0.00000000000E+00 0.  1.
</event>
<event>
 5    1  0.6924836E-004  0.9118800E+02  0.7818608E-02  0.1130116E+00
         25   -1    0    0    0    0  0.00000000000E+00  0.00000000000E+00  0.99999998245E-14  0.12500000000E+03  0.12500000000E+03 0.  0.
        -13    1    3    3    0    0 -0.71808114327E+01  0.16208127482E+02 -0.28668281309E+01  0.17958210291E+02  0.10566000000E+00 0.  1.
         23    2    1    0    0    0  0.98839811773E+01 -0.42716662424E+02  0.84727925050E+01  0.80343594576E+02  0.66789959156E+02 0.  0.
         13    1    3    3    0    0  0.17064792610E+02 -0.58924789905E+02  0.11339620636E+02  0.62385384285E+02  0.10566000000E+00 0. -1.
         22    1    1    0    0    0 -0.98839811773E+01  0.42716662424E+02 -0.84727925050E+01  0.44656405424E+02  0.00000000000E+00 0. -1.
</event>
<event>
 5    1  0.6924836E-004  0.9118800E+02  0.7818608E-02  0.1130116E+00
         25   -1    0    0    0    0  0.00000000000E+00  0.00000000000E+00  0.99999998245E-14  0.12500000000E+03  0.12500000000E+03 0.  0.
        -13    1    3    3    0    0 -0.29170425468E+02  0.16456483383E+02  0.24630034069E+01  0.33582839623E+02  0.10566000000E+00 0.  1.
         23    2    1    0    0    0  0.24021802934E+02 -0.55721200437E+01  0.19431348828E+02  0.93604572701E+02  0.88182442557E+02 0.  0.
         13    1    3    3    0    0  0.53192228402E+02 -0.22028603427E+02  0.16968345421E+02  0.60021733078E+02  0.10566000000E+00 0. -1.
         22    1    1    0    0    0 -0.24021802934E+02  0.55721200437E+01 -0.19431348828E+02  0.31395427299E+02  0.00000000000E+00 0. -1.
</event>
<event>
 5    1  0.6924836E-004  0.9118800E+02  0.7818608E-02  0.1130116E+00
         25   -1    0    0    0    0  0.00000000000E+00  0.00000000000E+00  0.99999998245E-14  0.12500000000E+03  0.12500000000E+03 0.  0.
        -13    1    3    3    0    0 -0.48713485584E+02  0.20800013527E+02 -0.71498715482E+00  0.52973263172E+02  0.10566000000E+00 0. -1.
         23    2    1    0    0    0 -0.10113571774E+02  0.25865490726E+02 -0.13725839829E+02  0.94020867934E+02  0.88770586252E+02 0.  0.
         13    1    3    3    0    0  0.38599913810E+02  0.50654771990E+01 -0.13010852675E+02  0.41047604762E+02  0.10566000000E+00 0.  1.
         22    1    1    0    0    0  0.10113571774E+02 -0.25865490726E+02  0.13725839829E+02  0.30979132066E+02  0.00000000000E+00 0.  1.
</event>
<event>
 5    1  0.6924836E-004  0.9118800E+02  0.7818608E-02  0.1130116E+00
         25   -1    0    0    0    0  0.00000000000E+00  0.00000000000E+00  0.99999998245E-14  0.12500000000E+03  0.12500000000E+03 0.  0.
        -13    1    3    3    0    0  0.17012287581E+02  0.13965097097E+02  0.49186822105E+02  0.53886886146E+02  0.10566000000E+00 0. -1.
         23    2    1    0    0    0  0.55461359814E+01  0.26701608608E+02  0.11279983133E+02  0.95487739056E+02  0.90812635486E+02 0.  0.
         13    1    3    3    0    0 -0.11466151599E+02  0.12736511511E+02 -0.37906838972E+02  0.41600852910E+02  0.10566000000E+00 0.  1.
         22    1    1    0    0    0 -0.55461359814E+01 -0.26701608608E+02 -0.11279983133E+02  0.29512260944E+02  0.00000000000E+00 0. -1.
</event>
<event>
 5    1  0.6924836E-004  0.9118800E+02  0.7818608E-02  0.1130116E+00
         25   -1    0    0    0    0  0.00000000000E+00  0.00000000000E+00  0.99999998245E-14  0.12500000000E+03  0.12500000000E+03 0.  0.
        -13    1    3    3    0    0 -0.35173645355E+02 -0.19077403901E+02  0.22749365240E+02  0.46029093517E+02  0.10566000000E+00 0.  1.
         23    2    1    0    0    0 -0.10116949007E+02  0.23038550343E+02  0.15172412327E+02  0.95617529802E+02  0.90991111931E+02 0.  0.
         13    1    3    3    0    0  0.25056696347E+02  0.42115954244E+02 -0.75769529126E+01  0.49588436285E+02  0.10566000000E+00 0. -1.
         22    1    1    0    0    0  0.10116949007E+02 -0.23038550343E+02 -0.15172412327E+02  0.29382470198E+02  0.00000000000E+00 0.  1.
</event>
<event>
 5    1  0.6924836E-004  0.9118800E+02  0.7818608E-02  0.1130116E+00
         25   -1    0    0    0    0  0.00000000000E+00  0.00000000000E+00  0.99999998245E-14  0.12500000000E+03  0.12500000000E+03 0.  0.
        -13    1    3    3    0    0 -0.22583743262E+02 -0.17486012373E+02  0.31101978337E+02  0.42227127642E+02  0.10566000000E+00 0.  1.
         23    2    1    0    0    0  0.15638177884E+02  0.16636121512E+02  0.19985655562E+02  0.94656309145E+02  0.89660901658E+02 0.  0.
         13    1    3    3    0    0  0.38221921146E+02  0.34122133885E+02 -0.11116322775E+02  0.52429181502E+02  0.10566000000E+00 0. -1.
         22    1    1    0    0    0 -0.15638177884E+02 -0.16636121512E+02 -0.19985655562E+02  0.30343690855E+02  0.00000000000E+00 0.  1.
</event>
<event>
 5    1  0.6924836E-004  0.9118800E+02  0.7818608E-02  0.1130116E+00
         25   -1    0    0    0    0  0.00000000000E+00  0.00000000000E+00  0.99999998245E-14  0.12500000000E+03  0.12500000000E+03 0.  0.
        -13    1    3    3    0    0  0.69468036018E+01 -0.38306134432E+02 -0.29645642478E+01  0.39043793625E+02  0.10566000000E+00 0. -1.
         23    2    1    0    0    0  0.63664487103E+01  0.23359159706E+02  0.11089775200E+00  0.10078855003E+03  0.97837301207E+02 0.  0.
         13    1    3    3    0    0 -0.58035489148E+00  0.61665294138E+02  0.30754619998E+01  0.61744756405E+02  0.10566000000E+00 0.  1.
         22    1    1    0    0    0 -0.63664487103E+01 -0.23359159706E+02 -0.11089775200E+00  0.24211449970E+02  0.00000000000E+00 0.  1.
</event>
<event>
 5    1  0.6924836E-004  0.9118800E+02  0.7818608E-02  0.1130116E+00
         25   -1    0    0    0    0  0.00000000000E+00  0.00000000000E+00  0.99999998245E-14  0.12500000000E+03  0.12500000000E+03 0.  0.
        -13    1    3    3    0    0 -0.45863563020E+02 -0.16402521125E+02 -0.20512795508E+02  0.52851632480E+02  0.10566000000E+00 0. -1.
         23    2    1    0    0    0 -0.39237722403E+01 -0.24110168306E+02 -0.16150121280E+02  0.95716512815E+02  0.91126989437E+02 0.  0.
         13    1    3    3    0    0  0.41939790780E+02 -0.77076471810E+01  0.43626742277E+01  0.42864880336E+02  0.10566000000E+00 0.  1.
         22    1    1    0    0    0  0.39237722403E+01  0.24110168306E+02  0.16150121280E+02  0.29283487185E+02  0.00000000000E+00 0. -1.
</event>
<event>
 5    1  0.6924836E-004  0.9118800E+02  0.7818608E-02  0.1130116E+00
         25   -1    0    0    0    0  0.00000000000E+00  0.00000000000E+00  0.99999998245E-14  0.12500000000E+03  0.12500000000E+03 0.  0.
        -13    1    3    3    0    0 -0.32515529158E+02 -0.10576764391E+01 -0.78174229159E+01  0.33458953674E+02  0.10566000000E+00 0.  1.
         23    2    1    0    0    0  0.16266461508E+02 -0.16680923409E+02  0.22190507752E+02  0.92824394177E+02  0.87069504100E+02 0.  0.
         13    1    3    3    0    0  0.48781990665E+02 -0.15623246970E+02  0.30007930668E+02  0.59365440504E+02  0.10566000000E+00 0. -1.
         22    1    1    0    0    0 -0.16266461508E+02  0.16680923409E+02 -0.22190507752E+02  0.32175605823E+02  0.00000000000E+00 0. -1.
</event>
<event>
 5    1  0.6924836E-004  0.9118800E+02  0.7818608E-02  0.1130116E+00
         25   -1    0    0    0    0  0.00000000000E+00  0.00000000000E+00  0.99999998245E-14  0.12500000000E+03  0.12500000000E+03 0.  0.
        -13    1    3    3    0    0 -0.33802901209E+02  0.26214847673E+02  0.84177058445E+01  0.43597285516E+02  0.10566000000E+00 0. -1.
         23    2    1    0    0    0  0.14048669051E+02  0.95014406158E+01  0.23076967428E+02  0.96361059699E+02  0.92006874334E+02 0.  0.
         13    1    3    3    0    0  0.47851570260E+02 -0.16713407058E+02  0.14659261584E+02  0.52763774183E+02  0.10566000000E+00 0.  1.
         22    1    1    0    0    0 -0.14048669051E+02 -0.95014406158E+01 -0.23076967428E+02  0.28638940301E+02  0.00000000000E+00 0.  1.
</event>
<event>
 5    1  0.6924836E-004  0.9118800E+02  0.7818608E-02  0.1130116E+00
         25   -1    0    0    0    0  0.00000000000E+00  0.00000000000E+00  0.99999998245E-14  0.12500000000E+03  0.12500000000E+03 0.  0.
        -13    1    3    3    0    0 -0.92658775332E+01 -0.31208032407E+02 -0.85339228240E+01  0.33654669453E+02  0.10566000000E+00 0.  1.
         23    2    1    0    0    0  0.65735424599E+01  0.28444224402E+02 -0.16023288472E+01  0.95762133798E+02  0.91189546821E+02 0.  0.
         13    1    3    3    0    0  0.15839419993E+02  0.59652256810E+02  0.69315939768E+01  0.62107464345E+02  0.10566000000E+00 0. -1.
         22    1    1    0    0    0 -0.65735424599E+01 -0.28444224402E+02  0.16023288472E+01  0.29237866202E+02  0.00000000000E+00 0. -1.
</event>
<event>
 5    1  0.6924836E-004  0.9118800E+02  0.7818608E-02  0.1130116E+00
         25   -1    0    0    0    0  0.00000000000E+00  0.00000000000E+00  0.99999998245E-14  0.12500000000E+03  0.12500000000E+03 0.  0.
        -13    1    3    3    0    0  0.45057190569E-02  0.55769553965E+02  0.12520394276E+02  0.57157804424E+02  0.10566000000E+00 0.  1.
         23    2    1    0    0    0 -0.52119777220E+01  0.14567362758E+02  0.20366116028E+02  0.99423615354E+02  0.96077592801E+02 0.  0.
         13    1    3    3    0    0 -0.52164834411E+01 -0.41202191206E+02  0.78457217519E+01  0.42265810930E+02  0.10566000000E+00 0. -1.
         22    1    1    0    0    0  0.52119777220E+01 -0.14567362758E+02 -0.20366116028E+02  0.25576384646E+02  0.00000000000E+00 0.  1.
</event>
<event>
 5    1  0.6924836E-004  0.9118800E+02  0.7818608E-02  0.1130116E+00
         25   -1    0    0    0    0  0.00000000000E+00  0.00000000000E+00  0.99999998245E-14  0.12500000000E+03  0.12500000000E+03 0.  0.
        -13    1    3    3    0    0 -0.23985344617E+02 -0.28871971322E+01 -0.25832549684E+02  0.35368975824E+02  0.10566000000E+00 0. -1.
         23    2    1    0    0    0 -0.95586816611E+01  0.16145207766E+01  0.30136565938E+02  0.93342652054E+02  0.87810381013E+02 0.  0.
         13    1    3    3    0    0  0.14426662956E+02  0.45017179088E+01  0.55969115621E+02  0.57973676230E+02  0.10566000000E+00 0.  1.
         22    1    1    0    0    0  0.95586816611E+01 -0.16145207766E+01 -0.30136565938E+02  0.31657347946E+02  0.00000000000E+00 0.  1.
</event>
<event>
 5    1  0.6924836E-004  0.9118800E+02  0.7818608E-02  0.1130116E+00
         25   -1    0    0    0    0  0.00000000000E+00  0.00000000000E+00  0.99999998245E-14  0.12500000000E+03  0.12500000000E+03 0.  0.
        -13    1    3    3    0    0  0.33899017910E+02 -0.23146845587E+02  0.21762633706E+02  0.46460125546E+02  0.10566000000E+00 0.  1.
         23    2    1    0    0    0 -0.14983099976E+02 -0.16872295091E+02  0.18446453411E+02  0.95854858553E+02  0.91316562781E+02 0.  0.
         13    1    3    3    0    0 -0.48882117886E+02  0.62745504961E+01 -0.33161802953E+01  0.49394733006E+02  0.10566000000E+00 0. -1.
         22    1    1    0    0    0  0.14983099976E+02  0.16872295091E+02 -0.18446453411E+02  0.29145141447E+02  0.00000000000E+00 0.  1.
</event>
<event>
 5    1  0.6924836E-004  0.9118800E+02  0.7818608E-02  0.1130116E+00
         25   -1    0    0    0    0  0.00000000000E+00  0.00000000000E+00  0.99999998245E-14  0.12500000000E+03  0.12500000000E+03 0.  0.
        -13    1    3    3    0    0  0.17381527348E+01 -0.84247512612E+01 -0.54732671846E+02  0.55404640060E+02  0.10566000000E+00 0. -1.
         23    2    1    0    0    0 -0.19727403820E+02  0.29604698266E+00 -0.22971079899E+02  0.94719170800E+02  0.89748496924E+02 0.  0.
         13    1    3    3    0    0 -0.21465556555E+02  0.87207982438E+01  0.31761591947E+02  0.39314530740E+02  0.10566000000E+00 0.  1.
         22    1    1    0    0    0  0.19727403820E+02 -0.29604698266E+00  0.22971079899E+02  0.30280829200E+02  0.00000000000E+00 0. -1.
</event>
<event>
 5    1  0.6924836E-004  0.9118800E+02  0.7818608E-02  0.1130116E+00
         25   -1    0    0    0    0  0.00000000000E+00  0.00000000000E+00  0.99999998245E-14  0.12500000000E+03  0.12500000000E+03 0.  0.
        -13    1    3    3    0    0  0.11518426903E+02 -0.53458469066E+02  0.15759005446E+02  0.56910802927E+02  0.10566000000E+00 0.  1.
         23    2    1    0    0    0  0.28740520054E+01 -0.26521023400E+02 -0.11272647995E+02  0.96039726349E+02  0.91569272070E+02 0.  0.
         13    1    3    3    0    0 -0.86443748975E+01  0.26937445666E+02 -0.27031653441E+02  0.39128923422E+02  0.10566000000E+00 0. -1.
         22    1    1    0    0    0 -0.28740520054E+01  0.26521023400E+02  0.11272647995E+02  0.28960273651E+02  0.00000000000E+00 0.  1.
</event>
<event>
 5    1  0.6924836E-004  0.9118800E+02  0.7818608E-02  0.1130116E+00
         25   -1    0    0    0    0  0.00000000000E+00  0.00000000000E+00  0.99999998245E-14  0.12500000000E+03  0.12500000000E+03 0.  0.
        -13    1    3    3    0    0  0.25111322676E+02  0.20108762360E+02  0.10205088872E+02  0.33750494117E+02  0.10566000000E+00 0.  1.
         23    2    1    0    0    0 -0.30133533492E-01 -0.23935737069E+02  0.28606248457E+02  0.87700698829E+02  0.79373639876E+02 0.  0.
         13    1    3    3    0    0 -0.25141456210E+02 -0.44044499429E+02  0.18401159586E+02  0.53950204712E+02  0.10566000000E+00 0. -1.
         22    1    1    0    0    0  0.30133533492E-01  0.23935737069E+02 -0.28606248457E+02  0.37299301171E+02  0.00000000000E+00 0. -1.
</event>
<event>
 5    1  0.6924836E-004  0.9118800E+02  0.7818608E-02  0.1130116E+00
         25   -1    0    0    0    0  0.00000000000E+00  0.00000000000E+00  0.99999998245E-14  0.12500000000E+03  0.12500000000E+03 0.  0.
        -13    1    3    3    0    0  0.18113982827E+01  0.40795563786E+02 -0.45180119555E+02  0.60900029190E+02  0.10566000000E+00 0.  1.
         23    2    1    0    0    0  0.97006177114E+01  0.23008127874E+02 -0.18492784958E+02  0.93928163431E+02  0.88639950687E+02 0.  0.
         13    1    3    3    0    0  0.78892194286E+01 -0.17787435912E+02  0.26687334597E+02  0.33028134241E+02  0.10566000000E+00 0. -1.
         22    1    1    0    0    0 -0.97006177114E+01 -0.23008127874E+02  0.18492784958E+02  0.31071836569E+02  0.00000000000E+00 0.  1.
</event>
<event>
 5    1  0.6924836E-004  0.9118800E+02  0.7818608E-02  0.1130116E+00
         25   -1    0    0    0    0  0.00000000000E+00  0.00000000000E+00  0.99999998245E-14  0.12500000000E+03  0.12500000000E+03 0.  0.
        -13    1    3    3    0    0  0.38947101325E+02  0.86977098413E+01 -0.23391390247E+02  0.46256839060E+02  0.10566000000E+00 0.  1.
         23    2    1    0    0    0 -0.45377716429E+01 -0.19796546790E+02 -0.16760946600E+02  0.98667055477E+02  0.95088189957E+02 0.  0.
         13    1    3    3    0    0 -0.43484872968E+02 -0.28494256631E+02  0.66304436462E+01  0.52410216418E+02  0.10566000000E+00 0. -1.
         22    1    1    0    0    0  0.45377716429E+01  0.19796546790E+02  0.16760946600E+02  0.26332944523E+02  0.00000000000E+00 0. -1.
</event>
<event>
 5    1  0.6924836E-004  0.9118800E+02  0.7818608E-02  0.1130116E+00
         25   -1    0    0    0    0  0.00000000000E+00  0.00000000000E+00  0.99999998245E-14  0.12500000000E+03  0.12500000000E+03 0.  0.
        -13    1    3    3    0    0  0.26749640736E+02  0.29627104734E+02  0.37473900896E+02  0.54750461431E+02  0.10566000000E+00 0. -1.
         23    2    1    0    0    0  0.26493412568E+02 -0.23368321916E+01  0.11144175170E+02  0.96163316168E+02  0.91737827759E+02 0.  0.
         13    1    3    3    0    0 -0.25622816821E+00 -0.31963936926E+02 -0.26329725726E+02  0.41412854737E+02  0.10566000000E+00 0.  1.
         22    1    1    0    0    0 -0.26493412568E+02  0.23368321916E+01 -0.11144175170E+02  0.28836683832E+02  0.00000000000E+00 0. -1.
</event>
<event>
 5    1  0.6924836E-004  0.9118800E+02  0.7818608E-02  0.1130116E+00
         25   -1    0    0    0    0  0.00000000000E+00  0.00000000000E+00  0.99999998245E-14  0.12500000000E+03  0.12500000000E+03 0.  0.
        -13    1    3    3    0    0  0.69360062224E+01 -0.50382099854E+01  0.53743810320E+02  0.54423341077E+02  0.10566000000E+00 0.  1.
         23    2    1    0    0    0  0.22356775264E+02 -0.99752422756E+01  0.15317941894E+02  0.96121457749E+02  0.91680774633E+02 0.  0.
         13    1    3    3    0    0  0.15420769042E+02 -0.49370322902E+01 -0.38425868426E+02  0.41698116672E+02  0.10566000000E+00 0. -1.
         22    1    1    0    0    0 -0.22356775264E+02  0.99752422756E+01 -0.15317941894E+02  0.28878542251E+02  0.00000000000E+00 0.  1.
</event>
<event>
 5    1  0.6924836E-004  0.9118800E+02  0.7818608E-02  0.1130116E+00
         25   -1    0    0    0    0  0.00000000000E+00  0.00000000000E+00  0.99999998245E-14  0.12500000000E+03  0.12500000000E+03 0.  0.
        -13    1    3    3    0    0  0.15414681249E+02 -0.24492105700E+02 -0.21104678643E+02  0.35817513374E+02  0.10566000000E+00 0.  1.
         23    2    1    0    0    0 -0.62913503150E+01 -0.48933495899E+01  0.29596783552E+02  0.94348808252E+02  0.89231172036E+02 0.  0.
         13    1    3    3    0    0 -0.21706031564E+02  0.19598756110E+02  0.50701462195E+02  0.58531294878E+02  0.10566000000E+00 0. -1.
         22    1    1    0    0    0  0.62913503150E+01  0.48933495899E+01 -0.29596783552E+02  0.30651191748E+02  0.00000000000E+00 0. -1.
</event>
<event>
 5    1  0.6924836E-004  0.9118800E+02  0.7818608E-02  0.1130116E+00
         25   -1    0    0    0    0  0.00000000000E+00  0.00000000000E+00  0.99999998245E-14  0.12500000000E+03  0.12500000000E+03 0.  0.
        -13    1    3    3    0    0 -0.55494083138E+02 -0.69077751710E+01 -0.25558433394E+01  0.55980837082E+02  0.10566000000E+00 0. -1.
         23    2    1    0    0    0 -0.19512001499E+02 -0.44216183172E+01 -0.20576807534E+02  0.96300280152E+02  0.91924262510E+02 0.  0.
         13    1    3    3    0    0  0.35982081639E+02  0.24861568538E+01 -0.18020964195E+02  0.40319443070E+02  0.10566000000E+00 0.  1.
         22    1    1    0    0    0  0.19512001499E+02  0.44216183172E+01  0.20576807534E+02  0.28699719848E+02  0.00000000000E+00 0. -1.
</event>
<event>
 5    1  0.6924836E-004  0.9118800E+02  0.7818608E-02  0.1130116E+00
         25   -1    0    0    0    0  0.00000000000E+00  0.00000000000E+00  0.99999998245E-14  0.12500000000E+03  0.12500000000E+03 0.  0.
        -13    1    3    3    0    0 -0.13503942479E+02  0.18512599167E+02  0.48539369945E+02  0.53676385768E+02  0.10566000000E+00 0.  1.
         23    2    1    0    0    0 -0.13148713849E+02 -0.14230985005E+02  0.20577598766E+02  0.96736115252E+02  0.92515019391E+02 0.  0.
         13    1    3    3    0    0  0.35522862963E+00 -0.32743584171E+02 -0.27961771179E+02  0.43059729484E+02  0.10566000000E+00 0. -1.
         22    1    1    0    0    0  0.13148713849E+02  0.14230985005E+02 -0.20577598766E+02  0.28263884748E+02  0.00000000000E+00 0.  1.
</event>
<event>
 5    1  0.6924836E-004  0.9118800E+02  0.7818608E-02  0.1130116E+00
         25   -1    0    0    0    0  0.00000000000E+00  0.00000000000E+00  0.99999998245E-14  0.12500000000E+03  0.12500000000E+03 0.  0.
        -13    1    3    3    0    0  0.13713881392E+02  0.29466858493E+02 -0.20377448068E+02  0.38361671576E+02  0.10566000000E+00 0. -1.
         23    2    1    0    0    0  0.50830992227E+01  0.35444428215E+01  0.29297411271E+02  0.95054394649E+02  0.90214182158E+02 0.  0.
         13    1    3    3    0    0 -0.86307821694E+01 -0.25922415671E+02  0.49674859340E+02  0.56692723074E+02  0.10566000000E+00 0.  1.
         22    1    1    0    0    0 -0.50830992227E+01 -0.35444428215E+01 -0.29297411271E+02  0.29945605351E+02  0.00000000000E+00 0.  1.
</event>
<event>
 5    1  0.6924836E-004  0.9118800E+02  0.7818608E-02  0.1130116E+00
         25   -1    0    0    0    0  0.00000000000E+00  0.00000000000E+00  0.99999998245E-14  0.12500000000E+03  0.12500000000E+03 0.  0.
        -13    1    3    3    0    0 -0.59691694983E+02  0.64638763954E+01 -0.21024323712E+01  0.60077546005E+02  0.10566000000E+00 0. -1.
         23    2    1    0    0    0 -0.27938367774E+02 -0.44528189373E+01 -0.10724473833E+02  0.94744515714E+02  0.89783789899E+02 0.  0.
         13    1    3    3    0    0  0.31753327209E+02 -0.10916695333E+02 -0.86220414619E+01  0.34666969710E+02  0.10566000000E+00 0.  1.
         22    1    1    0    0    0  0.27938367774E+02  0.44528189373E+01  0.10724473833E+02  0.30255484286E+02  0.00000000000E+00 0. -1.
</event>
<event>
 5    1  0.6924836E-004  0.9118800E+02  0.7818608E-02  0.1130116E+00
         25   -1    0    0    0    0  0.00000000000E+00  0.00000000000E+00  0.99999998245E-14  0.12500000000E+03  0.12500000000E+03 0.  0.
        -13    1    3    3    0    0  0.17566280267E+02  0.28059133932E+02  0.15848533423E+00  0.33104765232E+02  0.10566000000E+00 0. -1.
         23    2    1    0    0    0 -0.26750263220E+02 -0.65807818028E+01  0.17973829048E+02  0.92107116239E+02  0.86033592624E+02 0.  0.
         13    1    3    3    0    0 -0.44316543487E+02 -0.34639915735E+02  0.17815343713E+02  0.59002351007E+02  0.10566000000E+00 0.  1.
         22    1    1    0    0    0  0.26750263220E+02  0.65807818028E+01 -0.17973829048E+02  0.32892883761E+02  0.00000000000E+00 0.  1.
</event>
<event>
 5    1  0.6924836E-004  0.9118800E+02  0.7818608E-02  0.1130116E+00
         25   -1    0    0    0    0  0.00000000000E+00  0.00000000000E+00  0.99999998245E-14  0.12500000000E+03  0.12500000000E+03 0.  0.
        -13    1    3    3    0    0  0.42532519527E+02 -0.14962675973E+02 -0.24931016790E+02  0.51521487282E+02  0.10566000000E+00 0. -1.
         23    2    1    0    0    0  0.23837642875E+02  0.16586726986E+02  0.16515098506E+00  0.95958994425E+02  0.91458999592E+02 0.  0.
         13    1    3    3    0    0 -0.18694876652E+02  0.31549402958E+02  0.25096167775E+02  0.44437507143E+02  0.10566000000E+00 0.  1.
         22    1    1    0    0    0 -0.23837642875E+02 -0.16586726986E+02 -0.16515098506E+00  0.29041005575E+02  0.00000000000E+00 0. -1.
</event>
<event>
 5    1  0.6924836E-004  0.9118800E+02  0.7818608E-02  0.1130116E+00
         25   -1    0    0    0    0  0.00000000000E+00  0.00000000000E+00  0.99999998245E-14  0.12500000000E+03  0.12500000000E+03 0.  0.
        -13    1    3    3    0    0  0.80586788968E+01 -0.21543810972E+02  0.33963484617E+02  0.41019599560E+02  0.10566000000E+00 0.  1.
         23    2    1    0    0    0 -0.18132205378E+02 -0.15663284080E+02 -0.14909628680E+02  0.96779220999E+02  0.92573242623E+02 0.  0.
         13    1    3    3    0    0 -0.26190884275E+02  0.58805268923E+01 -0.48873113297E+02  0.55759621439E+02  0.10566000000E+00 0. -1.
         22    1    1    0    0    0  0.18132205378E+02  0.15663284080E+02  0.14909628680E+02  0.28220779001E+02  0.00000000000E+00 0. -1.
</event>
<event>
 5    1  0.6924836E-004  0.9118800E+02  0.7818608E-02  0.1130116E+00
         25   -1    0    0    0    0  0.00000000000E+00  0.00000000000E+00  0.99999998245E-14  0.12500000000E+03  0.12500000000E+03 0.  0.
        -13    1    3    3    0    0 -0.27935570388E+02 -0.89080200763E+01  0.27536549965E+02  0.40224639993E+02  0.10566000000E+00 0.  1.
         23    2    1    0    0    0 -0.21410013278E+02  0.71099962521E+01 -0.22482780403E+02  0.93150100002E+02  0.87535849801E+02 0.  0.
         13    1    3    3    0    0  0.65255571101E+01  0.16018016328E+02 -0.50019330367E+02  0.52925460009E+02  0.10566000000E+00 0. -1.
         22    1    1    0    0    0  0.21410013278E+02 -0.71099962521E+01  0.22482780403E+02  0.31849899998E+02  0.00000000000E+00 0. -1.
</event>
<event>
 5    1  0.6924836E-004  0.9118800E+02  0.7818608E-02  0.1130116E+00
         25   -1    0    0    0    0  0.00000000000E+00  0.00000000000E+00  0.99999998245E-14  0.12500000000E+03  0.12500000000E+03 0.  0.
        -13    1    3    3    0    0 -0.25619469231E+02  0.36169983288E+02 -0.12850675557E+02  0.46149495350E+02  0.10566000000E+00 0. -1.
         23    2    1    0    0    0 -0.23742425636E+02 -0.57024904342E+01  0.14878649359E+02  0.96406375203E+02  0.92068419129E+02 0.  0.
         13    1    3    3    0    0  0.18770435949E+01 -0.41872473722E+02  0.27729324916E+02  0.50256879853E+02  0.10566000000E+00 0.  1.
         22    1    1    0    0    0  0.23742425636E+02  0.57024904342E+01 -0.14878649359E+02  0.28593624797E+02  0.00000000000E+00 0.  1.
</event>
<event>
 5    1  0.6924836E-004  0.9118800E+02  0.7818608E-02  0.1130116E+00
         25   -1    0    0    0    0  0.00000000000E+00  0.00000000000E+00  0.99999998245E-14  0.12500000000E+03  0.12500000000E+03 0.  0.
        -13    1    3    3    0    0  0.55930330102E+02 -0.91745789933E+01 -0.29651617885E+01  0.56755423296E+02  0.10566000000E+00 0. -1.
         23    2    1    0    0    0  0.19591027321E+02 -0.13753197517E+02 -0.16635776870E+02  0.95850251022E+02  0.91310255478E+02 0.  0.
         13    1    3    3    0    0 -0.36339302781E+02 -0.45786185235E+01 -0.13670615081E+02  0.39094827726E+02  0.10566000000E+00 0.  1.
         22    1    1    0    0    0 -0.19591027321E+02  0.13753197517E+02  0.16635776870E+02  0.29149748978E+02  0.00000000000E+00 0. -1.
</event>
<event>
 5    1  0.6924836E-004  0.9118800E+02  0.7818608E-02  0.1130116E+00
         25   -1    0    0    0    0  0.00000000000E+00  0.00000000000E+00  0.99999998245E-14  0.12500000000E+03  0.12500000000E+03 0.  0.
        -13    1    3    3    0    0 -0.10034001744E+02 -0.34057194260E+02  0.54610630871E+01  0.35922250012E+02  0.10566000000E+00 0. -1.
         23    2    1    0    0    0  0.97213806316E+01  0.17726836197E+02  0.23304322324E+02  0.94148137789E+02  0.88949617465E+02 0.  0.
         13    1    3    3    0    0  0.19755382376E+02  0.51784030457E+02  0.17843259237E+02  0.58225887777E+02  0.10566000000E+00 0.  1.
         22    1    1    0    0    0 -0.97213806316E+01 -0.17726836197E+02 -0.23304322324E+02  0.30851862211E+02  0.00000000000E+00 0.  1.
</event>
<event>
 5    1  0.6924836E-004  0.9118800E+02  0.7818608E-02  0.1130116E+00
         25   -1    0    0    0    0  0.00000000000E+00  0.00000000000E+00  0.99999998245E-14  0.12500000000E+03  0.12500000000E+03 0.  0.
        -13    1    3    3    0    0 -0.76350234166E+01  0.20360868688E+02 -0.29983089331E+02  0.37038565930E+02  0.10566000000E+00 0. -1.
         23    2    1    0    0    0 -0.16612254978E+02 -0.20223463996E+02  0.12080911044E+02  0.96174595873E+02  0.91753195956E+02 0.  0.
         13    1    3    3    0    0 -0.89772315618E+01 -0.40584332683E+02  0.42064000375E+02  0.59136029943E+02  0.10566000000E+00 0.  1.
         22    1    1    0    0    0  0.16612254978E+02  0.20223463996E+02 -0.12080911044E+02  0.28825404127E+02  0.00000000000E+00 0.  1.
</event>
<event>
 5    1  0.6924836E-004  0.9118800E+02  0.7818608E-02  0.1130116E+00
         25   -1    0    0    0    0  0.00000000000E+00  0.00000000000E+00  0.99999998245E-14  0.12500000000E+03  0.12500000000E+03 0.  0.
        -13    1    3    3    0    0 -0.16127507522E+01  0.30066790289E+02  0.19553561937E+02  0.35902169736E+02  0.10566000000E+00 0. -1.
         23    2    1    0    0    0  0.19625711618E+02 -0.22509227942E+02  0.10613842686E+02  0.93306348339E+02  0.87758686662E+02 0.  0.
         13    1    3    3    0    0  0.21238462370E+02 -0.52576018230E+02 -0.89397192509E+01  0.57404178603E+02  0.10566000000E+00 0.  1.
         22    1    1    0    0    0 -0.19625711618E+02  0.22509227942E+02 -0.10613842686E+02  0.31693651661E+02  0.00000000000E+00 0.  1.
</event>
<event>
 5    1  0.6924836E-004  0.9118800E+02  0.7818608E-02  0.1130116E+00
         25   -1    0    0    0    0  0.00000000000E+00  0.00000000000E+00  0.99999998245E-14  0.12500000000E+03  0.12500000000E+03 0.  0.
        -13    1    3    3    0    0 -0.39368158941E+02 -0.19339067442E+02 -0.18658097796E+02  0.47665367357E+02  0.10566000000E+00 0. -1.
         23    2    1    0    0    0 -0.22435208659E+02  0.97738202110E+00  0.20283545135E+02  0.94739199177E+02  0.89776387732E+02 0.  0.
         13    1    3    3    0    0  0.16932950281E+02  0.20316449463E+02  0.38941642931E+02  0.47073831820E+02  0.10566000000E+00 0.  1.
         22    1    1    0    0    0  0.22435208659E+02 -0.97738202110E+00 -0.20283545135E+02  0.30260800823E+02  0.00000000000E+00 0. -1.
</event>
<event>
 5    1  0.6924836E-004  0.9118800E+02  0.7818608E-02  0.1130116E+00
         25   -1    0    0    0    0  0.00000000000E+00  0.00000000000E+00  0.99999998245E-14  0.12500000000E+03  0.12500000000E+03 0.  0.
        -13    1    3    3    0    0 -0.40949078541E+01 -0.43437267223E+02 -0.11434995932E+02  0.45103600190E+02  0.10566000000E+00 0. -1.
         23    2    1    0    0    0  0.15083911452E+02 -0.10954372605E+02  0.22456116382E+02  0.95814390073E+02  0.91261150104E+02 0.  0.
         13    1    3    3    0    0  0.19178819306E+02  0.32482894618E+02  0.33891112313E+02  0.50710789883E+02  0.10566000000E+00 0.  1.
         22    1    1    0    0    0 -0.15083911452E+02  0.10954372605E+02 -0.22456116382E+02  0.29185609927E+02  0.00000000000E+00 0.  1.
</event>
<event>
 5    1  0.6924836E-004  0.9118800E+02  0.7818608E-02  0.1130116E+00
         25   -1    0    0    0    0  0.00000000000E+00  0.00000000000E+00  0.99999998245E-14  0.12500000000E+03  0.12500000000E+03 0.  0.
        -13    1    3    3    0    0  0.28429336731E+02 -0.22686738020E+02  0.11215013014E+02  0.38061830616E+02  0.10566000000E+00 0.  1.
         23    2    1    0    0    0 -0.26429096968E+02 -0.11546916522E+02  0.11255786847E+02  0.94040006698E+02  0.88797531917E+02 0.  0.
         13    1    3    3    0    0 -0.54858433699E+02  0.11139821498E+02  0.40773832848E-01  0.55978176082E+02  0.10566000000E+00 0. -1.
         22    1    1    0    0    0  0.26429096968E+02  0.11546916522E+02 -0.11255786847E+02  0.30959993302E+02  0.00000000000E+00 0. -1.
</event>
<event>
 5    1  0.6924836E-004  0.9118800E+02  0.7818608E-02  0.1130116E+00
         25   -1    0    0    0    0  0.00000000000E+00  0.00000000000E+00  0.99999998245E-14  0.12500000000E+03  0.12500000000E+03 0.  0.
        -13    1    3    3    0    0  0.13439276842E+02  0.25601669123E+02  0.17923370802E+02  0.34019376962E+02  0.10566000000E+00 0. -1.
         23    2    1    0    0    0 -0.10883697973E+02 -0.96871699060E+01 -0.25878452642E+02  0.95301675914E+02  0.90556164774E+02 0.  0.
         13    1    3    3    0    0 -0.24322974815E+02 -0.35288839029E+02 -0.43801823444E+02  0.61282298953E+02  0.10566000000E+00 0.  1.
         22    1    1    0    0    0  0.10883697973E+02  0.96871699060E+01  0.25878452642E+02  0.29698324086E+02  0.00000000000E+00 0.  1.
</event>
<event>
 5    1  0.6924836E-004  0.9118800E+02  0.7818608E-02  0.1130116E+00
         25   -1    0    0    0    0  0.00000000000E+00  0.00000000000E+00  0.99999998245E-14  0.12500000000E+03  0.12500000000E+03 0.  0.
        -13    1    3    3    0    0  0.46464626950E+01  0.56499902167E+02 -0.17472026132E+01  0.56717655465E+02  0.10566000000E+00 0. -1.
         23    2    1    0    0    0  0.19290962925E+02  0.20054693795E+02 -0.68965241384E+01  0.96331305593E+02  0.91966441697E+02 0.  0.
         13    1    3    3    0    0  0.14644500230E+02 -0.36445208372E+02 -0.51493215251E+01  0.39613650128E+02  0.10566000000E+00 0.  1.
         22    1    1    0    0    0 -0.19290962925E+02 -0.20054693795E+02  0.68965241384E+01  0.28668694407E+02  0.00000000000E+00 0. -1.
</event>
<event>
 5    1  0.6924836E-004  0.9118800E+02  0.7818608E-02  0.1130116E+00
         25   -1    0    0    0    0  0.00000000000E+00  0.00000000000E+00  0.99999998245E-14  0.12500000000E+03  0.12500000000E+03 0.  0.
        -13    1    3    3    0    0  0.54828212028E+02 -0.29144651195E+02  0.21893268747E+00  0.62093499040E+02  0.10566000000E+00 0.  1.
         23    2    1    0    0    0  0.25591973885E+02 -0.12397511542E+02  0.50088124359E+01  0.96125519541E+02  0.91686312420E+02 0.  0.
         13    1    3    3    0    0 -0.29236238143E+02  0.16747139653E+02  0.47898797484E+01  0.34032020501E+02  0.10566000000E+00 0. -1.
         22    1    1    0    0    0 -0.25591973885E+02  0.12397511542E+02 -0.50088124359E+01  0.28874480459E+02  0.00000000000E+00 0.  1.
</event>
<event>
 5    1  0.6924836E-004  0.9118800E+02  0.7818608E-02  0.1130116E+00
         25   -1    0    0    0    0  0.00000000000E+00  0.00000000000E+00  0.99999998245E-14  0.12500000000E+03  0.12500000000E+03 0.  0.
        -13    1    3    3    0    0  0.21966837746E+02 -0.19515120670E+02 -0.19313083090E+02  0.35162312748E+02  0.10566000000E+00 0. -1.
         23    2    1    0    0    0 -0.29638177989E+02  0.20177965592E+01  0.25100859721E+01  0.95187357899E+02  0.90398227166E+02 0.  0.
         13    1    3    3    0    0 -0.51605015735E+02  0.21532917229E+02  0.21823169062E+02  0.60025045151E+02  0.10566000000E+00 0.  1.
         22    1    1    0    0    0  0.29638177989E+02 -0.20177965592E+01 -0.25100859721E+01  0.29812642101E+02  0.00000000000E+00 0.  1.
</event>
<event>
 5    1  0.6924836E-004  0.9118800E+02  0.7818608E-02  0.1130116E+00
         25   -1    0    0    0    0  0.00000000000E+00  0.00000000000E+00  0.99999998245E-14  0.12500000000E+03  0.12500000000E+03 0.  0.
        -13    1    3    3    0    0  0.21139337189E+02 -0.30774244651E+02  0.55654110554E+01  0.37747989018E+02  0.10566000000E+00 0. -1.
         23    2    1    0    0    0  0.12939488425E+02  0.26163430056E+02 -0.18708490061E+01  0.95751828964E+02  0.91175420157E+02 0.  0.
         13    1    3    3    0    0 -0.81998487640E+01  0.56937674706E+02 -0.74362600615E+01  0.58003839946E+02  0.10566000000E+00 0.  1.
         22    1    1    0    0    0 -0.12939488425E+02 -0.26163430056E+02  0.18708490061E+01  0.29248171036E+02  0.00000000000E+00 0.  1.
</event>
<event>
 5    1  0.6924836E-004  0.9118800E+02  0.7818608E-02  0.1130116E+00
         25   -1    0    0    0    0  0.00000000000E+00  0.00000000000E+00  0.99999998245E-14  0.12500000000E+03  0.12500000000E+03 0.  0.
        -13    1    3    3    0    0  0.21146471977E+02  0.24900457588E+02  0.34141010360E+02  0.47252786348E+02  0.10566000000E+00 0.  1.
         23    2    1    0    0    0  0.23500966765E+02 -0.15617374668E+02  0.74944095353E+01  0.95804726330E+02  0.91247912757E+02 0.  0.
         13    1    3    3    0    0  0.23544947874E+01 -0.40517832256E+02 -0.26646600825E+02  0.48551939982E+02  0.10566000000E+00 0. -1.
         22    1    1    0    0    0 -0.23500966765E+02  0.15617374668E+02 -0.74944095353E+01  0.29195273670E+02  0.00000000000E+00 0.  1.
</event>
<event>
 5    1  0.6924836E-004  0.9118800E+02  0.7818608E-02  0.1130116E+00
         25   -1    0    0    0    0  0.00000000000E+00  0.00000000000E+00  0.99999998245E-14  0.12500000000E+03  0.12500000000E+03 0.  0.
        -13    1    3    3    0    0  0.37988954677E+00 -0.40275206771E+02  0.43311761662E+02  0.59145215012E+02  0.10566000000E+00 0. -1.
         23    2    1    0    0    0  0.10478433140E+02 -0.97534671645E+01  0.25127616840E+02  0.96080719046E+02  0.91625213569E+02 0.  0.
         13    1    3    3    0    0  0.10098543594E+02  0.30521739607E+02 -0.18184144822E+02  0.36935504034E+02  0.10566000000E+00 0.  1.
         22    1    1    0    0    0 -0.10478433140E+02  0.97534671645E+01 -0.25127616840E+02  0.28919280954E+02  0.00000000000E+00 0. -1.
</event>
<event>
 5    1  0.6924836E-004  0.9118800E+02  0.7818608E-02  0.1130116E+00
         25   -1    0    0    0    0  0.00000000000E+00  0.00000000000E+00  0.99999998245E-14  0.12500000000E+03  0.12500000000E+03 0.  0.
        -13    1    3    3    0    0 -0.55600376148E+02 -0.17505096852E+02 -0.15900763369E+02  0.60420821604E+02  0.10566000000E+00 0. -1.
         23    2    1    0    0    0 -0.26011367430E+02 -0.11479203803E+01 -0.16390543731E+02  0.94233802956E+02  0.89069920506E+02 0.  0.
         13    1    3    3    0    0  0.29589008718E+02  0.16357176472E+02 -0.48978036187E+00  0.33812981352E+02  0.10566000000E+00 0.  1.
         22    1    1    0    0    0  0.26011367430E+02  0.11479203803E+01  0.16390543731E+02  0.30766197044E+02  0.00000000000E+00 0. -1.
</event>
<event>
 5    1  0.6924836E-004  0.9118800E+02  0.7818608E-02  0.1130116E+00
         25   -1    0    0    0    0  0.00000000000E+00  0.00000000000E+00  0.99999998245E-14  0.12500000000E+03  0.12500000000E+03 0.  0.
        -13    1    3    3    0    0 -0.38222738452E+02  0.12012316681E+02 -0.44361150028E+02  0.59776218370E+02  0.10566000000E+00 0. -1.
         23    2    1    0    0    0 -0.87351321160E+01  0.15027339109E+01 -0.29056335181E+02  0.94621860550E+02  0.89612862567E+02 0.  0.
         13    1    3    3    0    0  0.29487606336E+02 -0.10509582770E+02  0.15304814847E+02  0.34845642180E+02  0.10566000000E+00 0.  1.
         22    1    1    0    0    0  0.87351321160E+01 -0.15027339109E+01  0.29056335181E+02  0.30378139450E+02  0.00000000000E+00 0. -1.
</event>
<event>
 5    1  0.6924836E-004  0.9118800E+02  0.7818608E-02  0.1130116E+00
         25   -1    0    0    0    0  0.00000000000E+00  0.00000000000E+00  0.99999998245E-14  0.12500000000E+03  0.12500000000E+03 0.  0.
        -13    1    3    3    0    0 -0.43410169628E+02 -0.28785968749E+02 -0.17904599459E+02  0.55078677088E+02  0.10566000000E+00 0. -1.
         23    2    1    0    0    0 -0.29954796103E+02  0.27923273457E+01  0.21591343249E+01  0.94837958248E+02  0.89913789610E+02 0.  0.
         13    1    3    3    0    0  0.13455373525E+02  0.31578296095E+02  0.20063733784E+02  0.39759281160E+02  0.10566000000E+00 0.  1.
         22    1    1    0    0    0  0.29954796103E+02 -0.27923273457E+01 -0.21591343249E+01  0.30162041752E+02  0.00000000000E+00 0. -1.
</event>
<event>
 5    1  0.6924836E-004  0.9118800E+02  0.7818608E-02  0.1130116E+00
         25   -1    0    0    0    0  0.00000000000E+00  0.00000000000E+00  0.99999998245E-14  0.12500000000E+03  0.12500000000E+03 0.  0.
        -13    1    3    3    0    0 -0.69681200434E+01 -0.17378315479E+02  0.32813227359E+02  0.37779354145E+02  0.10566000000E+00 0.  1.
         23    2    1    0    0    0 -0.19634444020E+02  0.24483655565E+02 -0.18134494758E+01  0.93563566029E+02  0.88124295783E+02 0.  0.
         13    1    3    3    0    0 -0.12666323977E+02  0.41861971045E+02 -0.34626676835E+02  0.55784211884E+02  0.10566000000E+00 0. -1.
         22    1    1    0    0    0  0.19634444020E+02 -0.24483655565E+02  0.18134494758E+01  0.31436433971E+02  0.00000000000E+00 0. -1.
</event>
<event>
 5    1  0.6924836E-004  0.9118800E+02  0.7818608E-02  0.1130116E+00
         25   -1    0    0    0    0  0.00000000000E+00  0.00000000000E+00  0.99999998245E-14  0.12500000000E+03  0.12500000000E+03 0.  0.
        -13    1    3    3    0    0 -0.79835726726E+01  0.25155339165E+02 -0.29275800971E+02  0.39415887757E+02  0.10566000000E+00 0.  1.
         23    2    1    0    0    0  0.47154354941E+01 -0.26524496482E+02 -0.65995150315E+01  0.97263059935E+02  0.93224272504E+02 0.  0.
         13    1    3    3    0    0  0.12699008167E+02 -0.51679835647E+02  0.22676285940E+02  0.57847172178E+02  0.10566000000E+00 0. -1.
         22    1    1    0    0    0 -0.47154354941E+01  0.26524496482E+02  0.65995150315E+01  0.27736940065E+02  0.00000000000E+00 0. -1.
</event>
<event>
 5    1  0.6924836E-004  0.9118800E+02  0.7818608E-02  0.1130116E+00
         25   -1    0    0    0    0  0.00000000000E+00  0.00000000000E+00  0.99999998245E-14  0.12500000000E+03  0.12500000000E+03 0.  0.
        -13    1    3    3    0    0 -0.17165743933E+02 -0.33044378520E+02  0.62385360178E+01  0.37756114899E+02  0.10566000000E+00 0.  1.
         23    2    1    0    0    0  0.62113163690E+01  0.16819693103E+02  0.23473599890E+02  0.95462017352E+02  0.90777223675E+02 0.  0.
         13    1    3    3    0    0  0.23377060302E+02  0.49864071624E+02  0.17235063872E+02  0.57705902453E+02  0.10566000000E+00 0. -1.
         22    1    1    0    0    0 -0.62113163690E+01 -0.16819693103E+02 -0.23473599890E+02  0.29537982648E+02  0.00000000000E+00 0. -1.
</event>
<event>
 5    1  0.6924836E-004  0.9118800E+02  0.7818608E-02  0.1130116E+00
         25   -1    0    0    0    0  0.00000000000E+00  0.00000000000E+00  0.99999998245E-14  0.12500000000E+03  0.12500000000E+03 0.  0.
        -13    1    3    3    0    0 -0.13406381146E+02 -0.39603410369E+02  0.37033895099E+02  0.55854111026E+02  0.10566000000E+00 0.  1.
         23    2    1    0    0    0 -0.23853128220E+02 -0.16665332687E+02  0.69836954547E+01  0.95075477587E+02  0.90243389767E+02 0.  0.
         13    1    3    3    0    0 -0.10446747074E+02  0.22938077682E+02 -0.30050199644E+02  0.39221366560E+02  0.10566000000E+00 0. -1.
         22    1    1    0    0    0  0.23853128220E+02  0.16665332687E+02 -0.69836954547E+01  0.29924522413E+02  0.00000000000E+00 0.  1.
</event>
<event>
 5    1  0.6924836E-004  0.9118800E+02  0.7818608E-02  0.1130116E+00
         25   -1    0    0    0    0  0.00000000000E+00  0.00000000000E+00  0.99999998245E-14  0.12500000000E+03  0.12500000000E+03 0.  0.
        -13    1    3    3    0    0 -0.30234136587E+02 -0.34078388594E+02  0.22687223909E+02  0.50893623147E+02  0.10566000000E+00 0. -1.
         23    2    1    0    0    0 -0.18465405678E+02  0.12597076439E+02  0.86085829320E+01  0.10104660271E+03  0.98166443744E+02 0.  0.
         13    1    3    3    0    0  0.11768730909E+02  0.46675465033E+02 -0.14078640977E+02  0.50152979563E+02  0.10566000000E+00 0.  1.
         22    1    1    0    0    0  0.18465405678E+02 -0.12597076439E+02 -0.86085829320E+01  0.23953397290E+02  0.00000000000E+00 0. -1.
</event>
<event>
 5    1  0.6924836E-004  0.9118800E+02  0.7818608E-02  0.1130116E+00
         25   -1    0    0    0    0  0.00000000000E+00  0.00000000000E+00  0.99999998245E-14  0.12500000000E+03  0.12500000000E+03 0.  0.
        -13    1    3    3    0    0 -0.29628238974E+02  0.27053828710E+01  0.38877130896E+02  0.48955021314E+02  0.10566000000E+00 0.  1.
         23    2    1    0    0    0  0.14135645605E+02  0.76587598443E+01  0.25264095090E+02  0.95054256066E+02  0.90213990137E+02 0.  0.
         13    1    3    3    0    0  0.43763884579E+02  0.49533769733E+01 -0.13613035805E+02  0.46099234752E+02  0.10566000000E+00 0. -1.
         22    1    1    0    0    0 -0.14135645605E+02 -0.76587598443E+01 -0.25264095090E+02  0.29945743934E+02  0.00000000000E+00 0. -1.
</event>
<event>
 5    1  0.6924836E-004  0.9118800E+02  0.7818608E-02  0.1130116E+00
         25   -1    0    0    0    0  0.00000000000E+00  0.00000000000E+00  0.99999998245E-14  0.12500000000E+03  0.12500000000E+03 0.  0.
        -13    1    3    3    0    0 -0.40554346070E+02 -0.14288164300E+02 -0.35377722282E+02  0.55681244797E+02  0.10566000000E+00 0. -1.
         23    2    1    0    0    0 -0.31125972179E+01 -0.22255993199E+01 -0.29259670188E+02  0.95491190243E+02  0.90817385785E+02 0.  0.
         13    1    3    3    0    0  0.37441748852E+02  0.12062564980E+02  0.61180520938E+01  0.39809945447E+02  0.10566000000E+00 0.  1.
         22    1    1    0    0    0  0.31125972179E+01  0.22255993199E+01  0.29259670188E+02  0.29508809757E+02  0.00000000000E+00 0. -1.
</event>
<event>
 5    1  0.6924836E-004  0.9118800E+02  0.7818608E-02  0.1130116E+00
         25   -1    0    0    0    0  0.00000000000E+00  0.00000000000E+00  0.99999998245E-14  0.12500000000E+03  0.12500000000E+03 0.  0.
        -13    1    3    3    0    0  0.21326434252E+02  0.27409604708E+02  0.44688651725E+02  0.56596731223E+02  0.10566000000E+00 0. -1.
         23    2    1    0    0    0  0.25000098997E+02  0.15721763981E+02  0.93134467498E+01  0.94033581045E+02  0.88788486085E+02 0.  0.
         13    1    3    3    0    0  0.36736647447E+01 -0.11687840727E+02 -0.35375204975E+02  0.37436849822E+02  0.10566000000E+00 0.  1.
         22    1    1    0    0    0 -0.25000098997E+02 -0.15721763981E+02 -0.93134467498E+01  0.30966418955E+02  0.00000000000E+00 0. -1.
</event>
<event>
 5    1  0.6924836E-004  0.9118800E+02  0.7818608E-02  0.1130116E+00
         25   -1    0    0    0    0  0.00000000000E+00  0.00000000000E+00  0.99999998245E-14  0.12500000000E+03  0.12500000000E+03 0.  0.
        -13    1    3    3    0    0  0.14404435024E+02  0.46448052412E+02 -0.29072788998E+02  0.56658163978E+02  0.10566000000E+00 0.  1.
         23    2    1    0    0    0 -0.11985006493E+02  0.20286909463E+02 -0.17735388676E+02  0.95508592986E+02  0.90841335561E+02 0.  0.
         13    1    3    3    0    0 -0.26389441517E+02 -0.26161142949E+02  0.11337400322E+02  0.38850429008E+02  0.10566000000E+00 0. -1.
         22    1    1    0    0    0  0.11985006493E+02 -0.20286909463E+02  0.17735388676E+02  0.29491407014E+02  0.00000000000E+00 0.  1.
</event>
<event>
 5    1  0.6924836E-004  0.9118800E+02  0.7818608E-02  0.1130116E+00
         25   -1    0    0    0    0  0.00000000000E+00  0.00000000000E+00  0.99999998245E-14  0.12500000000E+03  0.12500000000E+03 0.  0.
        -13    1    3    3    0    0 -0.40072654918E+02  0.10601888869E+02  0.63604935227E+01  0.41936675616E+02  0.10566000000E+00 0.  1.
         23    2    1    0    0    0 -0.16258970238E+02 -0.18582195338E+02 -0.24188794590E+02  0.90434845863E+02  0.83568603349E+02 0.  0.
         13    1    3    3    0    0  0.23813684681E+02 -0.29184084207E+02 -0.30549288113E+02  0.48498170247E+02  0.10566000000E+00 0. -1.
         22    1    1    0    0    0  0.16258970238E+02  0.18582195338E+02  0.24188794590E+02  0.34565154137E+02  0.00000000000E+00 0. -1.
</event>
<event>
 5    1  0.6924836E-004  0.9118800E+02  0.7818608E-02  0.1130116E+00
         25   -1    0    0    0    0  0.00000000000E+00  0.00000000000E+00  0.99999998245E-14  0.12500000000E+03  0.12500000000E+03 0.  0.
        -13    1    3    3    0    0  0.25669767382E+02  0.68306205586E+01 -0.48096506044E+02  0.54944329938E+02  0.10566000000E+00 0.  1.
         23    2    1    0    0    0 -0.45157904340E+01 -0.98197594800E+01 -0.28320057475E+02  0.94687532353E+02  0.89704420672E+02 0.  0.
         13    1    3    3    0    0 -0.30185557816E+02 -0.16650380039E+02  0.19776448570E+02  0.39743202414E+02  0.10566000000E+00 0. -1.
         22    1    1    0    0    0  0.45157904340E+01  0.98197594800E+01  0.28320057475E+02  0.30312467647E+02  0.00000000000E+00 0.  1.
</event>
<event>
 5    1  0.6924836E-004  0.9118800E+02  0.7818608E-02  0.1130116E+00
         25   -1    0    0    0    0  0.00000000000E+00  0.00000000000E+00  0.99999998245E-14  0.12500000000E+03  0.12500000000E+03 0.  0.
        -13    1    3    3    0    0 -0.25662459024E+02  0.69856516353E+01 -0.23966324023E+02  0.35801633806E+02  0.10566000000E+00 0. -1.
         23    2    1    0    0    0  0.12476206397E+02  0.19338361521E+02  0.19429845001E+02  0.94881121715E+02  0.89973776339E+02 0.  0.
         13    1    3    3    0    0  0.38138665422E+02  0.12352709886E+02  0.43396169024E+02  0.59079487909E+02  0.10566000000E+00 0.  1.
         22    1    1    0    0    0 -0.12476206397E+02 -0.19338361521E+02 -0.19429845001E+02  0.30118878285E+02  0.00000000000E+00 0.  1.
</event>
<event>
 5    1  0.6924836E-004  0.9118800E+02  0.7818608E-02  0.1130116E+00
         25   -1    0    0    0    0  0.00000000000E+00  0.00000000000E+00  0.99999998245E-14  0.12500000000E+03  0.12500000000E+03 0.  0.
        -13    1    3    3    0    0 -0.28475946337E+02 -0.49444931150E+02 -0.14737085101E+02  0.58931091773E+02  0.10566000000E+00 0.  1.
         23    2    1    0    0    0 -0.14512199710E+02 -0.27958858728E+02  0.72265339293E+01  0.92680895519E+02  0.86863248154E+02 0.  0.
         13    1    3    3    0    0  0.13963746627E+02  0.21486072422E+02  0.21963619030E+02  0.33749803747E+02  0.10566000000E+00 0. -1.
         22    1    1    0    0    0  0.14512199710E+02  0.27958858728E+02 -0.72265339293E+01  0.32319104481E+02  0.00000000000E+00 0.  1.
</event>
<event>
 5    1  0.6924836E-004  0.9118800E+02  0.7818608E-02  0.1130116E+00
         25   -1    0    0    0    0  0.00000000000E+00  0.00000000000E+00  0.99999998245E-14  0.12500000000E+03  0.12500000000E+03 0.  0.
        -13    1    3    3    0    0  0.52399341486E+02  0.27865653480E+02 -0.17661787625E+02  0.61920396786E+02  0.10566000000E+00 0.  1.
         23    2    1    0    0    0  0.22589398600E+02  0.11310223005E+02 -0.13736197868E+02  0.96244388280E+02  0.91848228453E+02 0.  0.
         13    1    3    3    0    0 -0.29809942885E+02 -0.16555430476E+02  0.39255897568E+01  0.34323991493E+02  0.10566000000E+00 0. -1.
         22    1    1    0    0    0 -0.22589398600E+02 -0.11310223005E+02  0.13736197868E+02  0.28755611720E+02  0.00000000000E+00 0.  1.
</event>
<event>
 5    1  0.6924836E-004  0.9118800E+02  0.7818608E-02  0.1130116E+00
         25   -1    0    0    0    0  0.00000000000E+00  0.00000000000E+00  0.99999998245E-14  0.12500000000E+03  0.12500000000E+03 0.  0.
        -13    1    3    3    0    0  0.28683180927E+01 -0.41440633762E+02 -0.37224043092E+02  0.55778077444E+02  0.10566000000E+00 0.  1.
         23    2    1    0    0    0 -0.14091466859E+02 -0.25200988393E+02 -0.49260943112E+01  0.95709631969E+02  0.91117550408E+02 0.  0.
         13    1    3    3    0    0 -0.16959784951E+02  0.16239645369E+02  0.32297948781E+02  0.39931554525E+02  0.10566000000E+00 0. -1.
         22    1    1    0    0    0  0.14091466859E+02  0.25200988393E+02  0.49260943112E+01  0.29290368031E+02  0.00000000000E+00 0.  1.
</event>
<event>
 5    1  0.6924836E-004  0.9118800E+02  0.7818608E-02  0.1130116E+00
         25   -1    0    0    0    0  0.00000000000E+00  0.00000000000E+00  0.99999998245E-14  0.12500000000E+03  0.12500000000E+03 0.  0.
        -13    1    3    3    0    0 -0.94477781246E+01  0.61224831906E+01  0.24729636104E+02  0.27171885797E+02  0.10566000000E+00 0. -1.
         23    2    1    0    0    0  0.34468070350E+02  0.28996192284E+02  0.96213866382E+01  0.78941362141E+02  0.64111937541E+02 0.  0.
         13    1    3    3    0    0  0.43915848474E+02  0.22873709093E+02 -0.15108249466E+02  0.51769476343E+02  0.10566000000E+00 0.  1.
         22    1    1    0    0    0 -0.34468070350E+02 -0.28996192284E+02 -0.96213866382E+01  0.46058637859E+02  0.00000000000E+00 0.  1.
</event>
<event>
 5    1  0.6924836E-004  0.9118800E+02  0.7818608E-02  0.1130116E+00
         25   -1    0    0    0    0  0.00000000000E+00  0.00000000000E+00  0.99999998245E-14  0.12500000000E+03  0.12500000000E+03 0.  0.
        -13    1    3    3    0    0  0.82686006638E+01 -0.40767434105E+02  0.10275819238E+02  0.42848069565E+02  0.10566000000E+00 0. -1.
         23    2    1    0    0    0 -0.17918965443E+02 -0.16943589987E+02 -0.22885258874E+02  0.91356135211E+02  0.84935468462E+02 0.  0.
         13    1    3    3    0    0 -0.26187566106E+02  0.23823844117E+02 -0.33161078112E+02  0.48508065646E+02  0.10566000000E+00 0.  1.
         22    1    1    0    0    0  0.17918965443E+02  0.16943589987E+02  0.22885258874E+02  0.33643864789E+02  0.00000000000E+00 0.  1.
</event>
<event>
 5    1  0.6924836E-004  0.9118800E+02  0.7818608E-02  0.1130116E+00
         25   -1    0    0    0    0  0.00000000000E+00  0.00000000000E+00  0.99999998245E-14  0.12500000000E+03  0.12500000000E+03 0.  0.
        -13    1    3    3    0    0 -0.32772377742E+02 -0.17972156064E+02 -0.86656864986E+01  0.38368377904E+02  0.10566000000E+00 0.  1.
         23    2    1    0    0    0  0.96095835501E+01  0.21856019185E+02 -0.14893326358E+02  0.96860333324E+02  0.92682702437E+02 0.  0.
         13    1    3    3    0    0  0.42381961292E+02  0.39828175249E+02 -0.62276398593E+01  0.58491955420E+02  0.10566000000E+00 0. -1.
         22    1    1    0    0    0 -0.96095835501E+01 -0.21856019185E+02  0.14893326358E+02  0.28139666676E+02  0.00000000000E+00 0. -1.
</event>
<event>
 5    1  0.6924836E-004  0.9118800E+02  0.7818608E-02  0.1130116E+00
         25   -1    0    0    0    0  0.00000000000E+00  0.00000000000E+00  0.99999998245E-14  0.12500000000E+03  0.12500000000E+03 0.  0.
        -13    1    3    3    0    0 -0.10400729048E+02  0.36174782605E+02 -0.30282247895E+02  0.48309582516E+02  0.10566000000E+00 0.  1.
         23    2    1    0    0    0 -0.19275156489E+02  0.17840697334E+02  0.12664226267E+02  0.95841729030E+02  0.91298588474E+02 0.  0.
         13    1    3    3    0    0 -0.88744274411E+01 -0.18334085271E+02  0.42946474163E+02  0.47532146513E+02  0.10566000000E+00 0. -1.
         22    1    1    0    0    0  0.19275156489E+02 -0.17840697334E+02 -0.12664226267E+02  0.29158270970E+02  0.00000000000E+00 0.  1.
</event>
<event>
 5    1  0.6924836E-004  0.9118800E+02  0.7818608E-02  0.1130116E+00
         25   -1    0    0    0    0  0.00000000000E+00  0.00000000000E+00  0.99999998245E-14  0.12500000000E+03  0.12500000000E+03 0.  0.
        -13    1    3    3    0    0  0.33773267087E+02 -0.19829325118E+02  0.18472411578E+02  0.43302157659E+02  0.10566000000E+00 0.  1.
         23    2    1    0    0    0  0.30743406766E+02  0.13357368446E+02 -0.12912192093E+02  0.89079239205E+02  0.81515702790E+02 0.  0.
         13    1    3    3    0    0 -0.30298603209E+01  0.33186693564E+02 -0.31384603671E+02  0.45777081546E+02  0.10566000000E+00 0. -1.
         22    1    1    0    0    0 -0.30743406766E+02 -0.13357368446E+02  0.12912192093E+02  0.35920760795E+02  0.00000000000E+00 0.  1.
</event>
<event>
 5    1  0.6924836E-004  0.9118800E+02  0.7818608E-02  0.1130116E+00
         25   -1    0    0    0    0  0.00000000000E+00  0.00000000000E+00  0.99999998245E-14  0.12500000000E+03  0.12500000000E+03 0.  0.
        -13    1    3    3    0    0 -0.32508570292E+02 -0.46409615896E+02  0.20333465524E+02  0.60200669218E+02  0.10566000000E+00 0.  1.
         23    2    1    0    0    0 -0.65631527920E+01 -0.17895288732E+02  0.17936351044E+02  0.98826940909E+02  0.95298138635E+02 0.  0.
         13    1    3    3    0    0  0.25945417500E+02  0.28514327164E+02 -0.23971144795E+01  0.38626271691E+02  0.10566000000E+00 0. -1.
         22    1    1    0    0    0  0.65631527920E+01  0.17895288732E+02 -0.17936351044E+02  0.26173059091E+02  0.00000000000E+00 0.  1.
</event>
<event>
 5    1  0.6924836E-004  0.9118800E+02  0.7818608E-02  0.1130116E+00
         25   -1    0    0    0    0  0.00000000000E+00  0.00000000000E+00  0.99999998245E-14  0.12500000000E+03  0.12500000000E+03 0.  0.
        -13    1    3    3    0    0 -0.69823873188E+01 -0.58083988102E+02  0.76157327839E+01  0.58995880842E+02  0.10566000000E+00 0.  1.
         23    2    1    0    0    0 -0.13026324850E+02 -0.22273819651E+02  0.13647083792E+02  0.95810086040E+02  0.91255254698E+02 0.  0.
         13    1    3    3    0    0 -0.60439375316E+01  0.35810168451E+02  0.60313510084E+01  0.36814205198E+02  0.10566000000E+00 0. -1.
         22    1    1    0    0    0  0.13026324850E+02  0.22273819651E+02 -0.13647083792E+02  0.29189913960E+02  0.00000000000E+00 0.  1.
</event>
<event>
 5    1  0.6924836E-004  0.9118800E+02  0.7818608E-02  0.1130116E+00
         25   -1    0    0    0    0  0.00000000000E+00  0.00000000000E+00  0.99999998245E-14  0.12500000000E+03  0.12500000000E+03 0.  0.
        -13    1    3    3    0    0  0.19925053235E+01 -0.31530895815E+02 -0.33292989593E+02  0.45897731844E+02  0.10566000000E+00 0. -1.
         23    2    1    0    0    0 -0.23455329261E+02  0.76918182468E+01 -0.15073937287E+02  0.96076996629E+02  0.91620135108E+02 0.  0.
         13    1    3    3    0    0 -0.25447834584E+02  0.39222714062E+02  0.18219052306E+02  0.50179264785E+02  0.10566000000E+00 0.  1.
         22    1    1    0    0    0  0.23455329261E+02 -0.76918182468E+01  0.15073937287E+02  0.28923003371E+02  0.00000000000E+00 0.  1.
</event>
<event>
 5    1  0.6924836E-004  0.9118800E+02  0.7818608E-02  0.1130116E+00
         25   -1    0    0    0    0  0.00000000000E+00  0.00000000000E+00  0.99999998245E-14  0.12500000000E+03  0.12500000000E+03 0.  0.
        -13    1    3    3    0    0 -0.28035725220E+02 -0.13781157479E+02 -0.10111214611E+02  0.32835499311E+02  0.10566000000E+00 0.  1.
         23    2    1    0    0    0  0.14519886244E+02  0.26494242682E+02  0.72190824519E+01  0.93937367413E+02  0.88652929186E+02 0.  0.
         13    1    3    3    0    0  0.42555611463E+02  0.40275400161E+02  0.17330297063E+02  0.61101868101E+02  0.10566000000E+00 0. -1.
         22    1    1    0    0    0 -0.14519886244E+02 -0.26494242682E+02 -0.72190824519E+01  0.31062632587E+02  0.00000000000E+00 0. -1.
</event>
<event>
 5    1  0.6924836E-004  0.9118800E+02  0.7818608E-02  0.1130116E+00
         25   -1    0    0    0    0  0.00000000000E+00  0.00000000000E+00  0.99999998245E-14  0.12500000000E+03  0.12500000000E+03 0.  0.
        -13    1    3    3    0    0 -0.35911711686E+02 -0.14903989656E+02  0.18126695664E+02  0.42899512859E+02  0.10566000000E+00 0.  1.
         23    2    1    0    0    0  0.13338260075E+02 -0.25608314311E+02  0.10736789765E+01  0.96106268323E+02  0.91660062627E+02 0.  0.
         13    1    3    3    0    0  0.49249971761E+02 -0.10704324655E+02 -0.17053016687E+02  0.53206755464E+02  0.10566000000E+00 0. -1.
         22    1    1    0    0    0 -0.13338260075E+02  0.25608314311E+02 -0.10736789765E+01  0.28893731677E+02  0.00000000000E+00 0. -1.
</event>
<event>
 5    1  0.6924836E-004  0.9118800E+02  0.7818608E-02  0.1130116E+00
         25   -1    0    0    0    0  0.00000000000E+00  0.00000000000E+00  0.99999998245E-14  0.12500000000E+03  0.12500000000E+03 0.  0.
        -13    1    3    3    0    0  0.47066379127E+01 -0.47520212267E+02 -0.25394625515E+02  0.54085313935E+02  0.10566000000E+00 0.  1.
         23    2    1    0    0    0  0.25000801015E+02 -0.20504530156E+02 -0.10583408455E+02  0.90978178431E+02  0.84377393938E+02 0.  0.
         13    1    3    3    0    0  0.20294163102E+02  0.27015682111E+02  0.14811217060E+02  0.36892864496E+02  0.10566000000E+00 0. -1.
         22    1    1    0    0    0 -0.25000801015E+02  0.20504530156E+02  0.10583408455E+02  0.34021821569E+02  0.00000000000E+00 0.  1.
</event>
<event>
 5    1  0.6924836E-004  0.9118800E+02  0.7818608E-02  0.1130116E+00
         25   -1    0    0    0    0  0.00000000000E+00  0.00000000000E+00  0.99999998245E-14  0.12500000000E+03  0.12500000000E+03 0.  0.
        -13    1    3    3    0    0 -0.33572323288E+02  0.17339910741E+02 -0.23521775489E+02  0.44509083137E+02  0.10566000000E+00 0. -1.
         23    2    1    0    0    0  0.21569602943E+01  0.25426680928E+02  0.13106645694E+02  0.96312847090E+02  0.91941349635E+02 0.  0.
         13    1    3    3    0    0  0.35729283583E+02  0.80867701865E+01  0.36628421183E+02  0.51803763954E+02  0.10566000000E+00 0.  1.
         22    1    1    0    0    0 -0.21569602943E+01 -0.25426680928E+02 -0.13106645694E+02  0.28687152910E+02  0.00000000000E+00 0. -1.
</event>
<event>
 5    1  0.6924836E-004  0.9118800E+02  0.7818608E-02  0.1130116E+00
         25   -1    0    0    0    0  0.00000000000E+00  0.00000000000E+00  0.99999998245E-14  0.12500000000E+03  0.12500000000E+03 0.  0.
        -13    1    3    3    0    0  0.33640505956E+02 -0.19537176041E+01  0.59912550035E+01  0.34225822912E+02  0.10566000000E+00 0. -1.
         23    2    1    0    0    0 -0.24646925212E+02 -0.70221034473E+01 -0.13677407621E+02  0.95950863379E+02  0.91447885950E+02 0.  0.
         13    1    3    3    0    0 -0.58287431168E+02 -0.50683858431E+01 -0.19668662624E+02  0.61725040467E+02  0.10566000000E+00 0.  1.
         22    1    1    0    0    0  0.24646925212E+02  0.70221034473E+01  0.13677407621E+02  0.29049136621E+02  0.00000000000E+00 0.  1.
</event>
<event>
 5    1  0.6924836E-004  0.9118800E+02  0.7818608E-02  0.1130116E+00
         25   -1    0    0    0    0  0.00000000000E+00  0.00000000000E+00  0.99999998245E-14  0.12500000000E+03  0.12500000000E+03 0.  0.
        -13    1    3    3    0    0 -0.28104891454E+02 -0.32353094739E+02  0.13137654404E+01  0.42875923389E+02  0.10566000000E+00 0.  1.
         23    2    1    0    0    0 -0.11190612858E+02  0.12866671526E+02  0.23463846472E+02  0.95994256714E+02  0.91507181021E+02 0.  0.
         13    1    3    3    0    0  0.16914278596E+02  0.45219766265E+02  0.22150081032E+02  0.53118333325E+02  0.10566000000E+00 0. -1.
         22    1    1    0    0    0  0.11190612858E+02 -0.12866671526E+02 -0.23463846472E+02  0.29005743286E+02  0.00000000000E+00 0. -1.
</event>
<event>
 5    1  0.6924836E-004  0.9118800E+02  0.7818608E-02  0.1130116E+00
         25   -1    0    0    0    0  0.00000000000E+00  0.00000000000E+00  0.99999998245E-14  0.12500000000E+03  0.12500000000E+03 0.  0.
        -13    1    3    3    0    0  0.35058645417E+02 -0.28441287503E+02 -0.47842888409E+01  0.45397313104E+02  0.10566000000E+00 0.  1.
         23    2    1    0    0    0 -0.42134567365E+01 -0.16610903584E+02  0.24003256198E+02  0.95507091638E+02  0.90839269644E+02 0.  0.
         13    1    3    3    0    0 -0.39272102154E+02  0.11830383919E+02  0.28787545039E+02  0.50109778533E+02  0.10566000000E+00 0. -1.
         22    1    1    0    0    0  0.42134567365E+01  0.16610903584E+02 -0.24003256198E+02  0.29492908362E+02  0.00000000000E+00 0. -1.
</event>
<event>
 5    1  0.6924836E-004  0.9118800E+02  0.7818608E-02  0.1130116E+00
         25   -1    0    0    0    0  0.00000000000E+00  0.00000000000E+00  0.99999998245E-14  0.12500000000E+03  0.12500000000E+03 0.  0.
        -13    1    3    3    0    0  0.36927952111E+02  0.19096937975E+02  0.34933329492E+02  0.54302075104E+02  0.10566000000E+00 0. -1.
         23    2    1    0    0    0  0.58378766558E+01  0.26369975218E+02  0.61277380606E+01  0.97305134581E+02  0.93280671337E+02 0.  0.
         13    1    3    3    0    0 -0.31090075456E+02  0.72730372433E+01 -0.28805591432E+02  0.43003059477E+02  0.10566000000E+00 0.  1.
         22    1    1    0    0    0 -0.58378766558E+01 -0.26369975218E+02 -0.61277380606E+01  0.27694865419E+02  0.00000000000E+00 0. -1.
</event>
<event>
 5    1  0.6924836E-004  0.9118800E+02  0.7818608E-02  0.1130116E+00
         25   -1    0    0    0    0  0.00000000000E+00  0.00000000000E+00  0.99999998245E-14  0.12500000000E+03  0.12500000000E+03 0.  0.
        -13    1    3    3    0    0  0.19615023120E+02  0.39193778230E+01 -0.44784459759E+02  0.49048645796E+02  0.10566000000E+00 0.  1.
         23    2    1    0    0    0 -0.15471260420E+02 -0.14471521854E+02 -0.20538730745E+02  0.95493656540E+02  0.90820780304E+02 0.  0.
         13    1    3    3    0    0 -0.35086283539E+02 -0.18390899677E+02  0.24245729014E+02  0.46445010744E+02  0.10566000000E+00 0. -1.
         22    1    1    0    0    0  0.15471260420E+02  0.14471521854E+02  0.20538730745E+02  0.29506343460E+02  0.00000000000E+00 0.  1.
</event>
<event>
 5    1  0.6924836E-004  0.9118800E+02  0.7818608E-02  0.1130116E+00
         25   -1    0    0    0    0  0.00000000000E+00  0.00000000000E+00  0.99999998245E-14  0.12500000000E+03  0.12500000000E+03 0.  0.
        -13    1    3    3    0    0  0.13676322126E+02 -0.27158978516E+02 -0.21015164947E+02  0.36963498518E+02  0.10566000000E+00 0.  1.
         23    2    1    0    0    0 -0.29691842915E+02  0.15831280525E+01  0.45273397298E+01  0.94923287494E+02  0.90032337933E+02 0.  0.
         13    1    3    3    0    0 -0.43368165041E+02  0.28742106568E+02  0.25542504677E+02  0.57959788976E+02  0.10566000000E+00 0. -1.
         22    1    1    0    0    0  0.29691842915E+02 -0.15831280525E+01 -0.45273397298E+01  0.30076712506E+02  0.00000000000E+00 0. -1.
</event>
<event>
 5    1  0.6924836E-004  0.9118800E+02  0.7818608E-02  0.1130116E+00
         25   -1    0    0    0    0  0.00000000000E+00  0.00000000000E+00  0.99999998245E-14  0.12500000000E+03  0.12500000000E+03 0.  0.
        -13    1    3    3    0    0 -0.12982090740E+02  0.30915368341E+02 -0.73288421775E+01  0.34322263494E+02  0.10566000000E+00 0. -1.
         23    2    1    0    0    0  0.22337010309E+02 -0.17319893145E+02  0.71712535332E+01  0.95839279752E+02  0.91295235024E+02 0.  0.
         13    1    3    3    0    0  0.35319101050E+02 -0.48235261487E+02  0.14500095711E+02  0.61517016258E+02  0.10566000000E+00 0.  1.
         22    1    1    0    0    0 -0.22337010309E+02  0.17319893145E+02 -0.71712535332E+01  0.29160720248E+02  0.00000000000E+00 0.  1.
</event>
<event>
 5    1  0.6924836E-004  0.9118800E+02  0.7818608E-02  0.1130116E+00
         25   -1    0    0    0    0  0.00000000000E+00  0.00000000000E+00  0.99999998245E-14  0.12500000000E+03  0.12500000000E+03 0.  0.
        -13    1    3    3    0    0 -0.17930349625E+02  0.24194023721E+02 -0.29462224279E+02  0.42129348974E+02  0.10566000000E+00 0. -1.
         23    2    1    0    0    0 -0.14390423214E+02 -0.24517324570E+02 -0.80747012726E+01  0.95446924272E+02  0.90756438163E+02 0.  0.
         13    1    3    3    0    0  0.35399264110E+01 -0.48711348291E+02  0.21387523006E+02  0.53317575298E+02  0.10566000000E+00 0.  1.
         22    1    1    0    0    0  0.14390423214E+02  0.24517324570E+02  0.80747012726E+01  0.29553075728E+02  0.00000000000E+00 0.  1.
</event>
<event>
 4    1  0.6924836E-004  0.9118800E+02  0.7818608E-02  0.1130116E+00
         25   -1    0    0    0    0  0.00000000000E+00  0.00000000000E+00  0.99999998245E-14  0.12500000000E+03  0.12500000000E+03 0.  0.
        -13    1    1    0    0    0  0.21353258945E+02  0.85365248171E+01  0.11331248341E+01  0.23024531688E+02  0.10566000000E+00 0. -1.
         13    1    1    0    0    0  0.11915422559E+02  0.34583892032E+02 -0.23085867433E+02  0.43254957196E+02  0.10566000000E+00 0.  1.
         22    1    1    0    0    0 -0.33268681504E+02 -0.43120416849E+02  0.21952742599E+02  0.58720511117E+02  0.00000000000E+00 0. -1.
</event>
<event>
 5    1  0.6924836E-004  0.9118800E+02  0.7818608E-02  0.1130116E+00
         25   -1    0    0    0    0  0.00000000000E+00  0.00000000000E+00  0.99999998245E-14  0.12500000000E+03  0.12500000000E+03 0.  0.
        -13    1    3    3    0    0  0.20095686322E+02 -0.25174704077E+02 -0.10945234863E+02  0.34020753436E+02  0.10566000000E+00 0.  1.
         23    2    1    0    0    0 -0.12282311910E+02  0.26386689840E+02  0.75760160290E-01  0.95894702781E+02  0.91371087853E+02 0.  0.
         13    1    3    3    0    0 -0.32377998232E+02  0.51561393918E+02  0.11020995023E+02  0.61873949345E+02  0.10566000000E+00 0. -1.
         22    1    1    0    0    0  0.12282311910E+02 -0.26386689840E+02 -0.75760160290E-01  0.29105297219E+02  0.00000000000E+00 0. -1.
</event>
<event>
 5    1  0.6924836E-004  0.9118800E+02  0.7818608E-02  0.1130116E+00
         25   -1    0    0    0    0  0.00000000000E+00  0.00000000000E+00  0.99999998245E-14  0.12500000000E+03  0.12500000000E+03 0.  0.
        -13    1    3    3    0    0 -0.38372447752E+02  0.85852279224E+01  0.10619339268E+02  0.40729994052E+02  0.10566000000E+00 0.  1.
         23    2    1    0    0    0 -0.17312229912E+01 -0.16798710971E+02 -0.22931845765E+02  0.96520825618E+02  0.92223675943E+02 0.  0.
         13    1    3    3    0    0  0.36641224760E+02 -0.25383938893E+02 -0.33551185033E+02  0.55790831566E+02  0.10566000000E+00 0. -1.
         22    1    1    0    0    0  0.17312229912E+01  0.16798710971E+02  0.22931845765E+02  0.28479174382E+02  0.00000000000E+00 0. -1.
</event>
<event>
 5    1  0.6924836E-004  0.9118800E+02  0.7818608E-02  0.1130116E+00
         25   -1    0    0    0    0  0.00000000000E+00  0.00000000000E+00  0.99999998245E-14  0.12500000000E+03  0.12500000000E+03 0.  0.
        -13    1    3    3    0    0  0.21767684375E+02  0.26644658133E+02  0.32455624216E+01  0.34558858916E+02  0.10566000000E+00 0. -1.
         23    2    1    0    0    0 -0.71139018830E+00 -0.29490988434E+02 -0.29925691495E+01  0.95349031298E+02  0.90621508620E+02 0.  0.
         13    1    3    3    0    0 -0.22479074563E+02 -0.56135646567E+02 -0.62381315711E+01  0.60790172383E+02  0.10566000000E+00 0.  1.
         22    1    1    0    0    0  0.71139018830E+00  0.29490988434E+02  0.29925691495E+01  0.29650968702E+02  0.00000000000E+00 0.  1.
</event>
<event>
 5    1  0.6924836E-004  0.9118800E+02  0.7818608E-02  0.1130116E+00
         25   -1    0    0    0    0  0.00000000000E+00  0.00000000000E+00  0.99999998245E-14  0.12500000000E+03  0.12500000000E+03 0.  0.
        -13    1    3    3    0    0 -0.15750562997E+01 -0.26368661761E+01 -0.35453744004E+02  0.35586696861E+02  0.10566000000E+00 0.  1.
         23    2    1    0    0    0  0.16358940134E+02 -0.66755939680E+01  0.22503189452E+02  0.96389302479E+02  0.92045236812E+02 0.  0.
         13    1    3    3    0    0  0.17933996434E+02 -0.40387277919E+01  0.57956933456E+02  0.60802605618E+02  0.10566000000E+00 0. -1.
         22    1    1    0    0    0 -0.16358940134E+02  0.66755939680E+01 -0.22503189452E+02  0.28610697521E+02  0.00000000000E+00 0. -1.
</event>
<event>
 5    1  0.6924836E-004  0.9118800E+02  0.7818608E-02  0.1130116E+00
         25   -1    0    0    0    0  0.00000000000E+00  0.00000000000E+00  0.99999998245E-14  0.12500000000E+03  0.12500000000E+03 0.  0.
        -13    1    3    3    0    0  0.18274452226E+02 -0.26472342252E+02 -0.21618922411E+02  0.38757315164E+02  0.10566000000E+00 0.  1.
         23    2    1    0    0    0 -0.13166970444E+02 -0.43157664459E+01  0.23298032363E+02  0.97892929655E+02  0.94065043527E+02 0.  0.
         13    1    3    3    0    0 -0.31441422670E+02  0.22156575806E+02  0.44916954774E+02  0.59135614491E+02  0.10566000000E+00 0. -1.
         22    1    1    0    0    0  0.13166970444E+02  0.43157664459E+01 -0.23298032363E+02  0.27107070345E+02  0.00000000000E+00 0. -1.
</event>
<event>
 5    1  0.6924836E-004  0.9118800E+02  0.7818608E-02  0.1130116E+00
         25   -1    0    0    0    0  0.00000000000E+00  0.00000000000E+00  0.99999998245E-14  0.12500000000E+03  0.12500000000E+03 0.  0.
        -13    1    3    3    0    0  0.30368315391E+02  0.16734677290E+02 -0.41416348535E+00  0.34676601609E+02  0.10566000000E+00 0.  1.
         23    2    1    0    0    0 -0.13246542796E+02 -0.25528373952E+02  0.55765254205E+01  0.95703815804E+02  0.91109571128E+02 0.  0.
         13    1    3    3    0    0 -0.43614858187E+02 -0.42263051241E+02  0.59906889059E+01  0.61027214196E+02  0.10566000000E+00 0. -1.
         22    1    1    0    0    0  0.13246542796E+02  0.25528373952E+02 -0.55765254205E+01  0.29296184196E+02  0.00000000000E+00 0. -1.
</event>
<event>
 5    1  0.6924836E-004  0.9118800E+02  0.7818608E-02  0.1130116E+00
         25   -1    0    0    0    0  0.00000000000E+00  0.00000000000E+00  0.99999998245E-14  0.12500000000E+03  0.12500000000E+03 0.  0.
        -13    1    3    3    0    0 -0.18022196986E+02  0.25266403501E+02 -0.13487158635E+02  0.33839405169E+02  0.10566000000E+00 0. -1.
         23    2    1    0    0    0  0.27349522554E+02 -0.84960846843E+01  0.94111829529E+01  0.94854516035E+02  0.89936805640E+02 0.  0.
         13    1    3    3    0    0  0.45371719540E+02 -0.33762488186E+02  0.22898341588E+02  0.61015110866E+02  0.10566000000E+00 0.  1.
         22    1    1    0    0    0 -0.27349522554E+02  0.84960846843E+01 -0.94111829529E+01  0.30145483965E+02  0.00000000000E+00 0.  1.
</event>
<event>
 5    1  0.6924836E-004  0.9118800E+02  0.7818608E-02  0.1130116E+00
         25   -1    0    0    0    0  0.00000000000E+00  0.00000000000E+00  0.99999998245E-14  0.12500000000E+03  0.12500000000E+03 0.  0.
        -13    1    3    3    0    0 -0.39209134691E+02 -0.80412894824E+01 -0.13545860022E+02  0.42255414653E+02  0.10566000000E+00 0. -1.
         23    2    1    0    0    0  0.34224201205E+00 -0.23193112037E+02  0.18470147312E+02  0.95348964313E+02  0.90621416224E+02 0.  0.
         13    1    3    3    0    0  0.39551376703E+02 -0.15151822555E+02  0.32016007334E+02  0.53093549660E+02  0.10566000000E+00 0.  1.
         22    1    1    0    0    0 -0.34224201205E+00  0.23193112037E+02 -0.18470147312E+02  0.29651035687E+02  0.00000000000E+00 0.  1.
</event>
<event>
 5    1  0.6924836E-004  0.9118800E+02  0.7818608E-02  0.1130116E+00
         25   -1    0    0    0    0  0.00000000000E+00  0.00000000000E+00  0.99999998245E-14  0.12500000000E+03  0.12500000000E+03 0.  0.
        -13    1    3    3    0    0 -0.36247713352E+02 -0.17175488366E+02  0.19169501083E+02  0.44456440025E+02  0.10566000000E+00 0. -1.
         23    2    1    0    0    0 -0.14904625468E+02 -0.43164529938E+01 -0.25235811927E+02  0.95375249699E+02  0.90657666111E+02 0.  0.
         13    1    3    3    0    0  0.21343087883E+02  0.12859035372E+02 -0.44405313010E+02  0.50918809674E+02  0.10566000000E+00 0.  1.
         22    1    1    0    0    0  0.14904625468E+02  0.43164529938E+01  0.25235811927E+02  0.29624750301E+02  0.00000000000E+00 0.  1.
</event>
<event>
 5    1  0.6924836E-004  0.9118800E+02  0.7818608E-02  0.1130116E+00
         25   -1    0    0    0    0  0.00000000000E+00  0.00000000000E+00  0.99999998245E-14  0.12500000000E+03  0.12500000000E+03 0.  0.
        -13    1    3    3    0    0 -0.70072596409E+01 -0.38282242747E+02 -0.18802415943E+02  0.43222376228E+02  0.10566000000E+00 0. -1.
         23    2    1    0    0    0  0.12819148843E+02 -0.11081539060E+02  0.22709121804E+02  0.96665651620E+02  0.92419764688E+02 0.  0.
         13    1    3    3    0    0  0.19826408484E+02  0.27200703687E+02  0.41511537748E+02  0.53443275392E+02  0.10566000000E+00 0.  1.
         22    1    1    0    0    0 -0.12819148843E+02  0.11081539060E+02 -0.22709121804E+02  0.28334348380E+02  0.00000000000E+00 0.  1.
</event>
<event>
 5    1  0.6924836E-004  0.9118800E+02  0.7818608E-02  0.1130116E+00
         25   -1    0    0    0    0  0.00000000000E+00  0.00000000000E+00  0.99999998245E-14  0.12500000000E+03  0.12500000000E+03 0.  0.
        -13    1    3    3    0    0 -0.16931663277E+02  0.12178136823E+02 -0.23449173129E+02  0.31382528934E+02  0.10566000000E+00 0.  1.
         23    2    1    0    0    0  0.14904579797E+02 -0.23738505119E+02  0.15298843957E+02  0.93066980246E+02  0.87417075343E+02 0.  0.
         13    1    3    3    0    0  0.31836243074E+02 -0.35916641942E+02  0.38748017086E+02  0.61684451312E+02  0.10566000000E+00 0. -1.
         22    1    1    0    0    0 -0.14904579797E+02  0.23738505119E+02 -0.15298843957E+02  0.31933019754E+02  0.00000000000E+00 0. -1.
</event>
<event>
 5    1  0.6924836E-004  0.9118800E+02  0.7818608E-02  0.1130116E+00
         25   -1    0    0    0    0  0.00000000000E+00  0.00000000000E+00  0.99999998245E-14  0.12500000000E+03  0.12500000000E+03 0.  0.
        -13    1    3    3    0    0 -0.25716941688E+02 -0.32535139466E+01  0.42989043942E+02  0.50199756034E+02  0.10566000000E+00 0.  1.
         23    2    1    0    0    0 -0.26737475276E+02 -0.12505490219E+02 -0.12975119040E+01  0.95454045846E+02  0.90766246268E+02 0.  0.
         13    1    3    3    0    0 -0.10205335874E+01 -0.92519762720E+01 -0.44286555846E+02  0.45254289813E+02  0.10566000000E+00 0. -1.
         22    1    1    0    0    0  0.26737475276E+02  0.12505490219E+02  0.12975119040E+01  0.29545954154E+02  0.00000000000E+00 0.  1.
</event>
<event>
 5    1  0.6924836E-004  0.9118800E+02  0.7818608E-02  0.1130116E+00
         25   -1    0    0    0    0  0.00000000000E+00  0.00000000000E+00  0.99999998245E-14  0.12500000000E+03  0.12500000000E+03 0.  0.
        -13    1    3    3    0    0  0.23516076509E+02 -0.33630663283E+02 -0.14111016557E+02  0.43395383620E+02  0.10566000000E+00 0. -1.
         23    2    1    0    0    0 -0.19365947569E+02 -0.51319448003E+01 -0.21729251991E+02  0.95444337687E+02  0.90752875556E+02 0.  0.
         13    1    3    3    0    0 -0.42882024078E+02  0.28498718483E+02 -0.76182354343E+01  0.52048954066E+02  0.10566000000E+00 0.  1.
         22    1    1    0    0    0  0.19365947569E+02  0.51319448003E+01  0.21729251991E+02  0.29555662313E+02  0.00000000000E+00 0.  1.
</event>
<event>
 5    1  0.6924836E-004  0.9118800E+02  0.7818608E-02  0.1130116E+00
         25   -1    0    0    0    0  0.00000000000E+00  0.00000000000E+00  0.99999998245E-14  0.12500000000E+03  0.12500000000E+03 0.  0.
        -13    1    3    3    0    0 -0.22917350438E+02 -0.16136853086E+02  0.22560318471E+02  0.35980301725E+02  0.10566000000E+00 0. -1.
         23    2    1    0    0    0  0.92040003328E+01 -0.20087662326E+02 -0.23803127006E+02  0.92522058946E+02  0.86634373873E+02 0.  0.
         13    1    3    3    0    0  0.32121350771E+02 -0.39508092392E+01 -0.46363445478E+02  0.56541757221E+02  0.10566000000E+00 0.  1.
         22    1    1    0    0    0 -0.92040003328E+01  0.20087662326E+02  0.23803127006E+02  0.32477941054E+02  0.00000000000E+00 0.  1.
</event>
<event>
 5    1  0.6924836E-004  0.9118800E+02  0.7818608E-02  0.1130116E+00
         25   -1    0    0    0    0  0.00000000000E+00  0.00000000000E+00  0.99999998245E-14  0.12500000000E+03  0.12500000000E+03 0.  0.
        -13    1    3    3    0    0  0.84554944902E+00  0.28654203821E+02  0.12094510866E+02  0.31113770386E+02  0.10566000000E+00 0. -1.
         23    2    1    0    0    0  0.20695044617E+02 -0.26965508158E+02  0.28410609618E+01  0.90889955595E+02  0.84246595770E+02 0.  0.
         13    1    3    3    0    0  0.19849495168E+02 -0.55619711979E+02 -0.92534499044E+01  0.59776185209E+02  0.10566000000E+00 0.  1.
         22    1    1    0    0    0 -0.20695044617E+02  0.26965508158E+02 -0.28410609618E+01  0.34110044405E+02  0.00000000000E+00 0.  1.
</event>
<event>
 5    1  0.6924836E-004  0.9118800E+02  0.7818608E-02  0.1130116E+00
         25   -1    0    0    0    0  0.00000000000E+00  0.00000000000E+00  0.99999998245E-14  0.12500000000E+03  0.12500000000E+03 0.  0.
        -13    1    3    3    0    0  0.21711103031E+02  0.38201165579E+02 -0.42515588994E+02  0.61141536765E+02  0.10566000000E+00 0.  1.
         23    2    1    0    0    0  0.61690442632E+01  0.93781360896E+01 -0.23369191658E+02  0.99074613554E+02  0.95622452324E+02 0.  0.
         13    1    3    3    0    0 -0.15542058768E+02 -0.28823029489E+02  0.19146397336E+02  0.37933076789E+02  0.10566000000E+00 0. -1.
         22    1    1    0    0    0 -0.61690442632E+01 -0.93781360896E+01  0.23369191658E+02  0.25925386446E+02  0.00000000000E+00 0.  1.
</event>
<event>
 5    1  0.6924836E-004  0.9118800E+02  0.7818608E-02  0.1130116E+00
         25   -1    0    0    0    0  0.00000000000E+00  0.00000000000E+00  0.99999998245E-14  0.12500000000E+03  0.12500000000E+03 0.  0.
        -13    1    3    3    0    0 -0.20303030739E+02  0.24050661173E+02  0.20840336201E+02  0.37748882594E+02  0.10566000000E+00 0.  1.
         23    2    1    0    0    0 -0.30032663781E+01 -0.92803290071E+01 -0.25676973687E+02  0.97532726871E+02  0.93585157572E+02 0.  0.
         13    1    3    3    0    0  0.17299764361E+02 -0.33330990180E+02 -0.46517309888E+02  0.59783844277E+02  0.10566000000E+00 0. -1.
         22    1    1    0    0    0  0.30032663781E+01  0.92803290071E+01  0.25676973687E+02  0.27467273129E+02  0.00000000000E+00 0. -1.
</event>
<event>
 5    1  0.6924836E-004  0.9118800E+02  0.7818608E-02  0.1130116E+00
         25   -1    0    0    0    0  0.00000000000E+00  0.00000000000E+00  0.99999998245E-14  0.12500000000E+03  0.12500000000E+03 0.  0.
        -13    1    3    3    0    0  0.35270962407E+02 -0.44819422720E+02  0.66515881182E+01  0.57420172680E+02  0.10566000000E+00 0. -1.
         23    2    1    0    0    0  0.27069476861E+02 -0.96701308792E+01  0.11892194537E+02  0.93892246953E+02  0.88589286814E+02 0.  0.
         13    1    3    3    0    0 -0.82014855462E+01  0.35149291841E+02  0.52406064184E+01  0.36472074273E+02  0.10566000000E+00 0.  1.
         22    1    1    0    0    0 -0.27069476861E+02  0.96701308792E+01 -0.11892194537E+02  0.31107753047E+02  0.00000000000E+00 0. -1.
</event>
<event>
 5    1  0.6924836E-004  0.9118800E+02  0.7818608E-02  0.1130116E+00
         25   -1    0    0    0    0  0.00000000000E+00  0.00000000000E+00  0.99999998245E-14  0.12500000000E+03  0.12500000000E+03 0.  0.
        -13    1    3    3    0    0 -0.22947222965E+02  0.21152840477E+02  0.31033521362E+02  0.44012592678E+02  0.10566000000E+00 0.  1.
         23    2    1    0    0    0  0.69050667684E+01  0.27432853234E+02 -0.98699373749E+01  0.95039074657E+02  0.90192952409E+02 0.  0.
         13    1    3    3    0    0  0.29852289733E+02  0.62800127568E+01 -0.40903458737E+02  0.51026481980E+02  0.10566000000E+00 0. -1.
         22    1    1    0    0    0 -0.69050667684E+01 -0.27432853234E+02  0.98699373749E+01  0.29960925343E+02  0.00000000000E+00 0. -1.
</event>
<event>
 5    1  0.6924836E-004  0.9118800E+02  0.7818608E-02  0.1130116E+00
         25   -1    0    0    0    0  0.00000000000E+00  0.00000000000E+00  0.99999998245E-14  0.12500000000E+03  0.12500000000E+03 0.  0.
        -13    1    3    3    0    0  0.30491219452E+02 -0.30538346798E+02 -0.98949269751E+01  0.44274437689E+02  0.10566000000E+00 0. -1.
         23    2    1    0    0    0  0.16706282878E+02  0.18834879786E+02 -0.14842292237E+02  0.95774219890E+02  0.91206112584E+02 0.  0.
         13    1    3    3    0    0 -0.13784936575E+02  0.49373226584E+02 -0.49473652623E+01  0.51499782201E+02  0.10566000000E+00 0.  1.
         22    1    1    0    0    0 -0.16706282878E+02 -0.18834879786E+02  0.14842292237E+02  0.29225780110E+02  0.00000000000E+00 0. -1.
</event>
<event>
 5    1  0.6924836E-004  0.9118800E+02  0.7818608E-02  0.1130116E+00
         25   -1    0    0    0    0  0.00000000000E+00  0.00000000000E+00  0.99999998245E-14  0.12500000000E+03  0.12500000000E+03 0.  0.
        -13    1    3    3    0    0  0.49707123680E+02  0.15290307707E+02 -0.18245801403E+02  0.55113628869E+02  0.10566000000E+00 0.  1.
         23    2    1    0    0    0  0.29988190808E+02 -0.13080291277E+02 -0.11531484397E+02  0.90310509657E+02  0.83382416697E+02 0.  0.
         13    1    3    3    0    0 -0.19718932871E+02 -0.28370598984E+02  0.67143170050E+01  0.35196880788E+02  0.10566000000E+00 0. -1.
         22    1    1    0    0    0 -0.29988190808E+02  0.13080291277E+02  0.11531484397E+02  0.34689490343E+02  0.00000000000E+00 0.  1.
</event>
<event>
 5    1  0.6924836E-004  0.9118800E+02  0.7818608E-02  0.1130116E+00
         25   -1    0    0    0    0  0.00000000000E+00  0.00000000000E+00  0.99999998245E-14  0.12500000000E+03  0.12500000000E+03 0.  0.
        -13    1    3    3    0    0 -0.32313843372E+02  0.15431634272E+02  0.27713243398E+01  0.35916726082E+02  0.10566000000E+00 0.  1.
         23    2    1    0    0    0  0.21929873408E+02  0.25750434247E+02  0.91450231576E+00  0.91164507893E+02  0.84652979707E+02 0.  0.
         13    1    3    3    0    0  0.54243716780E+02  0.10318799975E+02 -0.18568220241E+01  0.55247781812E+02  0.10566000000E+00 0. -1.
         22    1    1    0    0    0 -0.21929873408E+02 -0.25750434247E+02 -0.91450231576E+00  0.33835492107E+02  0.00000000000E+00 0. -1.
</event>
<event>
 5    1  0.6924836E-004  0.9118800E+02  0.7818608E-02  0.1130116E+00
         25   -1    0    0    0    0  0.00000000000E+00  0.00000000000E+00  0.99999998245E-14  0.12500000000E+03  0.12500000000E+03 0.  0.
        -13    1    3    3    0    0 -0.15182308772E+02 -0.80202111201E+01  0.37664870316E+02  0.41394201358E+02  0.10566000000E+00 0. -1.
         23    2    1    0    0    0  0.26421891917E+02 -0.12756163768E+02  0.34702544111E+01  0.95455478473E+02  0.90768219209E+02 0.  0.
         13    1    3    3    0    0  0.41604200689E+02 -0.47359526478E+01 -0.34194615905E+02  0.54061277116E+02  0.10566000000E+00 0.  1.
         22    1    1    0    0    0 -0.26421891917E+02  0.12756163768E+02 -0.34702544111E+01  0.29544521527E+02  0.00000000000E+00 0.  1.
</event>
<event>
 5    1  0.6924836E-004  0.9118800E+02  0.7818608E-02  0.1130116E+00
         25   -1    0    0    0    0  0.00000000000E+00  0.00000000000E+00  0.99999998245E-14  0.12500000000E+03  0.12500000000E+03 0.  0.
        -13    1    3    3    0    0 -0.64251336369E+01  0.40673121946E+02 -0.44467548471E+02  0.60604943875E+02  0.10566000000E+00 0.  1.
         23    2    1    0    0    0  0.72891569683E+01  0.20616068970E+02 -0.16816562125E+02  0.97414662033E+02  0.93427327416E+02 0.  0.
         13    1    3    3    0    0  0.13714290605E+02 -0.20057052976E+02  0.27650986346E+02  0.36809718157E+02  0.10566000000E+00 0. -1.
         22    1    1    0    0    0 -0.72891569683E+01 -0.20616068970E+02  0.16816562125E+02  0.27585337967E+02  0.00000000000E+00 0.  1.
</event>
<event>
 5    1  0.6924836E-004  0.9118800E+02  0.7818608E-02  0.1130116E+00
         25   -1    0    0    0    0  0.00000000000E+00  0.00000000000E+00  0.99999998245E-14  0.12500000000E+03  0.12500000000E+03 0.  0.
        -13    1    3    3    0    0  0.16864332315E+02 -0.35586953368E+02 -0.83494704640E+01  0.40256201702E+02  0.10566000000E+00 0.  1.
         23    2    1    0    0    0 -0.26012096152E+02 -0.54039296821E+01  0.11133930721E+02  0.96193819838E+02  0.91779381995E+02 0.  0.
         13    1    3    3    0    0 -0.42876428467E+02  0.30183023686E+02  0.19483401185E+02  0.55937618135E+02  0.10566000000E+00 0. -1.
         22    1    1    0    0    0  0.26012096152E+02  0.54039296821E+01 -0.11133930721E+02  0.28806180162E+02  0.00000000000E+00 0. -1.
</event>
<event>
 5    1  0.6924836E-004  0.9118800E+02  0.7818608E-02  0.1130116E+00
         25   -1    0    0    0    0  0.00000000000E+00  0.00000000000E+00  0.99999998245E-14  0.12500000000E+03  0.12500000000E+03 0.  0.
        -13    1    3    3    0    0 -0.35704831977E+02  0.37835828438E+02 -0.17418284418E+02  0.54861577959E+02  0.10566000000E+00 0. -1.
         23    2    1    0    0    0 -0.23234502980E+02 -0.26550239205E+00 -0.19002574348E+02  0.94983163856E+02  0.90115431331E+02 0.  0.
         13    1    3    3    0    0  0.12470328996E+02 -0.38101330830E+02 -0.15842899297E+01  0.40121585897E+02  0.10566000000E+00 0.  1.
         22    1    1    0    0    0  0.23234502980E+02  0.26550239205E+00  0.19002574348E+02  0.30016836144E+02  0.00000000000E+00 0. -1.
</event>
<event>
 5    1  0.6924836E-004  0.9118800E+02  0.7818608E-02  0.1130116E+00
         25   -1    0    0    0    0  0.00000000000E+00  0.00000000000E+00  0.99999998245E-14  0.12500000000E+03  0.12500000000E+03 0.  0.
        -13    1    3    3    0    0 -0.82172823332E+01  0.18364711060E+02 -0.29934095042E+02  0.36067264261E+02  0.10566000000E+00 0.  1.
         23    2    1    0    0    0  0.62963803458E+01 -0.22451626623E+02  0.14028829392E+02  0.97787355924E+02  0.93924645227E+02 0.  0.
         13    1    3    3    0    0  0.14513662679E+02 -0.40816337683E+02  0.43962924434E+02  0.61720091664E+02  0.10566000000E+00 0. -1.
         22    1    1    0    0    0 -0.62963803458E+01  0.22451626623E+02 -0.14028829392E+02  0.27212644076E+02  0.00000000000E+00 0. -1.
</event>
<event>
 5    1  0.6924836E-004  0.9118800E+02  0.7818608E-02  0.1130116E+00
         25   -1    0    0    0    0  0.00000000000E+00  0.00000000000E+00  0.99999998245E-14  0.12500000000E+03  0.12500000000E+03 0.  0.
        -13    1    3    3    0    0  0.83212937953E+01  0.11733587940E+02 -0.47978035650E+02  0.50088163126E+02  0.10566000000E+00 0. -1.
         23    2    1    0    0    0 -0.23560097698E+02  0.38403257127E+01 -0.14089619602E+02  0.97280986929E+02  0.93248306859E+02 0.  0.
         13    1    3    3    0    0 -0.31881391494E+02 -0.78932622276E+01  0.33888416049E+02  0.47192823803E+02  0.10566000000E+00 0.  1.
         22    1    1    0    0    0  0.23560097698E+02 -0.38403257127E+01  0.14089619602E+02  0.27719013071E+02  0.00000000000E+00 0. -1.
</event>
<event>
 5    1  0.6924836E-004  0.9118800E+02  0.7818608E-02  0.1130116E+00
         25   -1    0    0    0    0  0.00000000000E+00  0.00000000000E+00  0.99999998245E-14  0.12500000000E+03  0.12500000000E+03 0.  0.
        -13    1    3    3    0    0  0.50203243051E+02 -0.24152770075E+02 -0.22416548147E+02  0.60051933441E+02  0.10566000000E+00 0. -1.
         23    2    1    0    0    0  0.15206559633E+02 -0.32957151562E+01 -0.18268802132E+02  0.10100311842E+03  0.98111057505E+02 0.  0.
         13    1    3    3    0    0 -0.34996683418E+02  0.20857054918E+02  0.41477460149E+01  0.40951184978E+02  0.10566000000E+00 0.  1.
         22    1    1    0    0    0 -0.15206559633E+02  0.32957151562E+01  0.18268802132E+02  0.23996881581E+02  0.00000000000E+00 0. -1.
</event>
<event>
 5    1  0.6924836E-004  0.9118800E+02  0.7818608E-02  0.1130116E+00
         25   -1    0    0    0    0  0.00000000000E+00  0.00000000000E+00  0.99999998245E-14  0.12500000000E+03  0.12500000000E+03 0.  0.
        -13    1    3    3    0    0  0.16823958028E+02  0.28860511122E+02  0.11725604790E+02  0.35404457879E+02  0.10566000000E+00 0.  1.
         23    2    1    0    0    0 -0.20159813662E+01 -0.27242977398E+02  0.13319556165E+02  0.94608314051E+02  0.89593964711E+02 0.  0.
         13    1    3    3    0    0 -0.18839939395E+02 -0.56103488521E+02  0.15939513757E+01  0.59203856172E+02  0.10566000000E+00 0. -1.
         22    1    1    0    0    0  0.20159813662E+01  0.27242977398E+02 -0.13319556165E+02  0.30391685949E+02  0.00000000000E+00 0. -1.
</event>
<event>
 5    1  0.6924836E-004  0.9118800E+02  0.7818608E-02  0.1130116E+00
         25   -1    0    0    0    0  0.00000000000E+00  0.00000000000E+00  0.99999998245E-14  0.12500000000E+03  0.12500000000E+03 0.  0.
        -13    1    3    3    0    0  0.26116017155E+02  0.48815003537E+02  0.12139703326E+02  0.56677460099E+02  0.10566000000E+00 0. -1.
         23    2    1    0    0    0  0.25441538190E+02  0.95425775015E+01  0.10108731442E+02  0.96008292526E+02  0.91526352116E+02 0.  0.
         13    1    3    3    0    0 -0.67447896449E+00 -0.39272426036E+02 -0.20309718841E+01  0.39330832427E+02  0.10566000000E+00 0.  1.
         22    1    1    0    0    0 -0.25441538190E+02 -0.95425775015E+01 -0.10108731442E+02  0.28991707474E+02  0.00000000000E+00 0. -1.
</event>
<event>
 5    1  0.6924836E-004  0.9118800E+02  0.7818608E-02  0.1130116E+00
         25   -1    0    0    0    0  0.00000000000E+00  0.00000000000E+00  0.99999998245E-14  0.12500000000E+03  0.12500000000E+03 0.  0.
        -13    1    3    3    0    0 -0.11244395795E+02  0.44035745457E+02  0.20058249867E+02  0.49678243392E+02  0.10566000000E+00 0. -1.
         23    2    1    0    0    0  0.22549586188E+02  0.16248251311E+02  0.14102470935E+02  0.93833203655E+02  0.88505937167E+02 0.  0.
         13    1    3    3    0    0  0.33793981982E+02 -0.27787494146E+02 -0.59557789321E+01  0.44154960263E+02  0.10566000000E+00 0.  1.
         22    1    1    0    0    0 -0.22549586188E+02 -0.16248251311E+02 -0.14102470935E+02  0.31166796345E+02  0.00000000000E+00 0.  1.
</event>
<event>
 5    1  0.6924836E-004  0.9118800E+02  0.7818608E-02  0.1130116E+00
         25   -1    0    0    0    0  0.00000000000E+00  0.00000000000E+00  0.99999998245E-14  0.12500000000E+03  0.12500000000E+03 0.  0.
        -13    1    3    3    0    0  0.84657383637E+01 -0.16816615981E+02 -0.59527382777E+02  0.62433867119E+02  0.10566000000E+00 0. -1.
         23    2    1    0    0    0  0.42009744968E+01 -0.10212438036E+02 -0.28677030857E+02  0.94270304653E+02  0.89121131968E+02 0.  0.
         13    1    3    3    0    0 -0.42647638669E+01  0.66041779453E+01  0.30850351921E+02  0.31836437534E+02  0.10566000000E+00 0.  1.
         22    1    1    0    0    0 -0.42009744968E+01  0.10212438036E+02  0.28677030857E+02  0.30729695347E+02  0.00000000000E+00 0. -1.
</event>
<event>
 5    1  0.6924836E-004  0.9118800E+02  0.7818608E-02  0.1130116E+00
         25   -1    0    0    0    0  0.00000000000E+00  0.00000000000E+00  0.99999998245E-14  0.12500000000E+03  0.12500000000E+03 0.  0.
        -13    1    3    3    0    0  0.27235917858E+02  0.23930792386E+02 -0.23482316981E+02  0.43196162105E+02  0.10566000000E+00 0.  1.
         23    2    1    0    0    0 -0.19919391929E+02  0.37238753863E+01 -0.22790195870E+02  0.94503402641E+02  0.89447474308E+02 0.  0.
         13    1    3    3    0    0 -0.47155309787E+02 -0.20206917000E+02  0.69212111130E+00  0.51307240536E+02  0.10566000000E+00 0. -1.
         22    1    1    0    0    0  0.19919391929E+02 -0.37238753863E+01  0.22790195870E+02  0.30496597359E+02  0.00000000000E+00 0. -1.
</event>
<event>
 5    1  0.6924836E-004  0.9118800E+02  0.7818608E-02  0.1130116E+00
         25   -1    0    0    0    0  0.00000000000E+00  0.00000000000E+00  0.99999998245E-14  0.12500000000E+03  0.12500000000E+03 0.  0.
        -13    1    3    3    0    0  0.12088840928E+02  0.88875034217E+01  0.27152703154E+02  0.31022705309E+02  0.10566000000E+00 0. -1.
         23    2    1    0    0    0 -0.19047095532E+02 -0.16427994304E+02 -0.19945880908E+02  0.92898457821E+02  0.87175767592E+02 0.  0.
         13    1    3    3    0    0 -0.31135936460E+02 -0.25315497725E+02 -0.47098584062E+02  0.61875752513E+02  0.10566000000E+00 0.  1.
         22    1    1    0    0    0  0.19047095532E+02  0.16427994304E+02  0.19945880908E+02  0.32101542179E+02  0.00000000000E+00 0.  1.
</event>
<event>
 5    1  0.6924836E-004  0.9118800E+02  0.7818608E-02  0.1130116E+00
         25   -1    0    0    0    0  0.00000000000E+00  0.00000000000E+00  0.99999998245E-14  0.12500000000E+03  0.12500000000E+03 0.  0.
        -13    1    3    3    0    0  0.17131371549E+02  0.47269353190E+02  0.28896790790E+02  0.57990614104E+02  0.10566000000E+00 0. -1.
         23    2    1    0    0    0 -0.54019481380E+01  0.28466827839E+02  0.55357272666E+01  0.95501091422E+02  0.90831012630E+02 0.  0.
         13    1    3    3    0    0 -0.22533319687E+02 -0.18802525351E+02 -0.23361063523E+02  0.37510477318E+02  0.10566000000E+00 0.  1.
         22    1    1    0    0    0  0.54019481380E+01 -0.28466827839E+02 -0.55357272666E+01  0.29498908578E+02  0.00000000000E+00 0. -1.
</event>
<event>
 5    1  0.6924836E-004  0.9118800E+02  0.7818608E-02  0.1130116E+00
         25   -1    0    0    0    0  0.00000000000E+00  0.00000000000E+00  0.99999998245E-14  0.12500000000E+03  0.12500000000E+03 0.  0.
        -13    1    3    3    0    0 -0.34213949907E+02 -0.31209569927E+01  0.83271043337E+01  0.35350906231E+02  0.10566000000E+00 0. -1.
         23    2    1    0    0    0  0.25920162485E+02 -0.53138977772E+00  0.13513466636E+02  0.95763875447E+02  0.91191934193E+02 0.  0.
         13    1    3    3    0    0  0.60134112392E+02  0.25895672149E+01  0.51863623026E+01  0.60412969216E+02  0.10566000000E+00 0.  1.
         22    1    1    0    0    0 -0.25920162485E+02  0.53138977772E+00 -0.13513466636E+02  0.29236124553E+02  0.00000000000E+00 0.  1.
</event>
<event>
 5    1  0.6924836E-004  0.9118800E+02  0.7818608E-02  0.1130116E+00
         25   -1    0    0    0    0  0.00000000000E+00  0.00000000000E+00  0.99999998245E-14  0.12500000000E+03  0.12500000000E+03 0.  0.
        -13    1    3    3    0    0  0.14649049689E+01  0.57430261604E+02 -0.15644348258E+02  0.59541058866E+02  0.10566000000E+00 0.  1.
         23    2    1    0    0    0 -0.68221945037E+01  0.28124654883E+02  0.40038476430E+01  0.95784090874E+02  0.91219639982E+02 0.  0.
         13    1    3    3    0    0 -0.82870994726E+01 -0.29305606721E+02  0.19648195901E+02  0.36243032008E+02  0.10566000000E+00 0. -1.
         22    1    1    0    0    0  0.68221945037E+01 -0.28124654883E+02 -0.40038476430E+01  0.29215909126E+02  0.00000000000E+00 0.  1.
</event>
<event>
 5    1  0.6924836E-004  0.9118800E+02  0.7818608E-02  0.1130116E+00
         25   -1    0    0    0    0  0.00000000000E+00  0.00000000000E+00  0.99999998245E-14  0.12500000000E+03  0.12500000000E+03 0.  0.
        -13    1    3    3    0    0 -0.10530532001E+02  0.16734477512E+02  0.55235548955E+02  0.58667809523E+02  0.10566000000E+00 0.  1.
         23    2    1    0    0    0 -0.43596418861E+01 -0.78272463355E+01  0.26780272867E+02  0.96760749347E+02  0.92548297320E+02 0.  0.
         13    1    3    3    0    0  0.61708901150E+01 -0.24561723848E+02 -0.28455276088E+02  0.38092939824E+02  0.10566000000E+00 0. -1.
         22    1    1    0    0    0  0.43596418861E+01  0.78272463355E+01 -0.26780272867E+02  0.28239250653E+02  0.00000000000E+00 0.  1.
</event>
<event>
 5    1  0.6924836E-004  0.9118800E+02  0.7818608E-02  0.1130116E+00
         25   -1    0    0    0    0  0.00000000000E+00  0.00000000000E+00  0.99999998245E-14  0.12500000000E+03  0.12500000000E+03 0.  0.
        -13    1    3    3    0    0  0.42531023017E+02 -0.41644322988E+02 -0.48601611337E+01  0.59722440391E+02  0.10566000000E+00 0. -1.
         23    2    1    0    0    0  0.24210809454E+02 -0.14964844736E+02 -0.13899206690E+02  0.93325123220E+02  0.87785424787E+02 0.  0.
         13    1    3    3    0    0 -0.18320213563E+02  0.26679478251E+02 -0.90390455560E+01  0.33602682830E+02  0.10566000000E+00 0.  1.
         22    1    1    0    0    0 -0.24210809454E+02  0.14964844736E+02  0.13899206690E+02  0.31674876780E+02  0.00000000000E+00 0. -1.
</event>
<event>
 5    1  0.6924836E-004  0.9118800E+02  0.7818608E-02  0.1130116E+00
         25   -1    0    0    0    0  0.00000000000E+00  0.00000000000E+00  0.99999998245E-14  0.12500000000E+03  0.12500000000E+03 0.  0.
        -13    1    3    3    0    0 -0.45128989341E+01  0.26999352903E+02  0.56101386980E+02  0.62423618119E+02  0.10566000000E+00 0. -1.
         23    2    1    0    0    0 -0.66541593713E+00  0.11712999239E+02  0.27943466726E+02  0.94693656404E+02  0.89712953919E+02 0.  0.
         13    1    3    3    0    0  0.38474829969E+01 -0.15286353665E+02 -0.28157920255E+02  0.32270038284E+02  0.10566000000E+00 0.  1.
         22    1    1    0    0    0  0.66541593713E+00 -0.11712999239E+02 -0.27943466726E+02  0.30306343596E+02  0.00000000000E+00 0. -1.
</event>
<event>
 5    1  0.6924836E-004  0.9118800E+02  0.7818608E-02  0.1130116E+00
         25   -1    0    0    0    0  0.00000000000E+00  0.00000000000E+00  0.99999998245E-14  0.12500000000E+03  0.12500000000E+03 0.  0.
        -13    1    3    3    0    0 -0.46690038263E+01  0.30947761837E+02  0.33845646697E+02  0.46098834300E+02  0.10566000000E+00 0. -1.
         23    2    1    0    0    0  0.28820136897E+02  0.69106365534E+01  0.10001908962E+02  0.93720687807E+02  0.88346884223E+02 0.  0.
         13    1    3    3    0    0  0.33489140724E+02 -0.24037125283E+02 -0.23843737735E+02  0.47621853508E+02  0.10566000000E+00 0.  1.
         22    1    1    0    0    0 -0.28820136897E+02 -0.69106365534E+01 -0.10001908962E+02  0.31279312193E+02  0.00000000000E+00 0.  1.
</event>
<event>
 5    1  0.6924836E-004  0.9118800E+02  0.7818608E-02  0.1130116E+00
         25   -1    0    0    0    0  0.00000000000E+00  0.00000000000E+00  0.99999998245E-14  0.12500000000E+03  0.12500000000E+03 0.  0.
        -13    1    3    3    0    0 -0.13407440840E+02 -0.57886082419E+02  0.16643656311E+02  0.61705595104E+02  0.10566000000E+00 0.  1.
         23    2    1    0    0    0 -0.12414376951E+02 -0.27359212724E+02  0.42954983124E+01  0.94650459943E+02  0.89652746671E+02 0.  0.
         13    1    3    3    0    0  0.99306388904E+00  0.30526869695E+02 -0.12348157998E+02  0.32944864839E+02  0.10566000000E+00 0. -1.
         22    1    1    0    0    0  0.12414376951E+02  0.27359212724E+02 -0.42954983124E+01  0.30349540057E+02  0.00000000000E+00 0.  1.
</event>
<event>
 5    1  0.6924836E-004  0.9118800E+02  0.7818608E-02  0.1130116E+00
         25   -1    0    0    0    0  0.00000000000E+00  0.00000000000E+00  0.99999998245E-14  0.12500000000E+03  0.12500000000E+03 0.  0.
        -13    1    3    3    0    0 -0.45552997573E+02  0.23550885109E+02 -0.30123504713E+01  0.51369302084E+02  0.10566000000E+00 0.  1.
         23    2    1    0    0    0 -0.61912848826E+01  0.26484324260E+02  0.14069558434E+02  0.94378048486E+02  0.89272123989E+02 0.  0.
         13    1    3    3    0    0  0.39361712690E+02  0.29334391514E+01  0.17081908905E+02  0.43008746401E+02  0.10566000000E+00 0. -1.
         22    1    1    0    0    0  0.61912848826E+01 -0.26484324260E+02 -0.14069558434E+02  0.30621951514E+02  0.00000000000E+00 0.  1.
</event>
<event>
 5    1  0.6924836E-004  0.9118800E+02  0.7818608E-02  0.1130116E+00
         25   -1    0    0    0    0  0.00000000000E+00  0.00000000000E+00  0.99999998245E-14  0.12500000000E+03  0.12500000000E+03 0.  0.
        -13    1    3    3    0    0 -0.22766640930E+02 -0.18886754092E+02  0.24135358440E+02  0.38177953198E+02  0.10566000000E+00 0.  1.
         23    2    1    0    0    0 -0.10393239781E+02  0.23036626939E+01 -0.27589280686E+02  0.95428143384E+02  0.90730567319E+02 0.  0.
         13    1    3    3    0    0  0.12373401149E+02  0.21190416786E+02 -0.51724639126E+02  0.57250190185E+02  0.10566000000E+00 0. -1.
         22    1    1    0    0    0  0.10393239781E+02 -0.23036626939E+01  0.27589280686E+02  0.29571856616E+02  0.00000000000E+00 0. -1.
</event>
<event>
 5    1  0.6924836E-004  0.9118800E+02  0.7818608E-02  0.1130116E+00
         25   -1    0    0    0    0  0.00000000000E+00  0.00000000000E+00  0.99999998245E-14  0.12500000000E+03  0.12500000000E+03 0.  0.
        -13    1    3    3    0    0  0.61767437837E+01  0.39701952252E+02  0.38475790721E+02  0.55630880022E+02  0.10566000000E+00 0. -1.
         23    2    1    0    0    0 -0.17580746992E+02  0.14846087696E+02  0.19079815199E+02  0.95108055722E+02  0.90288503867E+02 0.  0.
         13    1    3    3    0    0 -0.23757490776E+02 -0.24855864556E+02 -0.19395975521E+02  0.39477175700E+02  0.10566000000E+00 0.  1.
         22    1    1    0    0    0  0.17580746992E+02 -0.14846087696E+02 -0.19079815199E+02  0.29891944278E+02  0.00000000000E+00 0. -1.
</event>
<event>
 5    1  0.6924836E-004  0.9118800E+02  0.7818608E-02  0.1130116E+00
         25   -1    0    0    0    0  0.00000000000E+00  0.00000000000E+00  0.99999998245E-14  0.12500000000E+03  0.12500000000E+03 0.  0.
        -13    1    3    3    0    0  0.29222333864E+01 -0.34769260120E+02 -0.14567125483E+02  0.37810755165E+02  0.10566000000E+00 0.  1.
         23    2    1    0    0    0  0.14794219821E+02  0.61429850231E+01  0.24576445283E+02  0.95663898216E+02  0.91054788749E+02 0.  0.
         13    1    3    3    0    0  0.11871986435E+02  0.40912245143E+02  0.39143570766E+02  0.57853143051E+02  0.10566000000E+00 0. -1.
         22    1    1    0    0    0 -0.14794219821E+02 -0.61429850231E+01 -0.24576445283E+02  0.29336101784E+02  0.00000000000E+00 0. -1.
</event>
<event>
 5    1  0.6924836E-004  0.9118800E+02  0.7818608E-02  0.1130116E+00
         25   -1    0    0    0    0  0.00000000000E+00  0.00000000000E+00  0.99999998245E-14  0.12500000000E+03  0.12500000000E+03 0.  0.
        -13    1    3    3    0    0 -0.45820472884E+02 -0.23219596611E+02  0.27419107286E+02  0.58227862837E+02  0.10566000000E+00 0.  1.
         23    2    1    0    0    0 -0.18824509549E+02 -0.22271348160E+02  0.12896698118E+01  0.95810303926E+02  0.91255553155E+02 0.  0.
         13    1    3    3    0    0  0.26995963335E+02  0.94824845107E+00 -0.26129437474E+02  0.37582441090E+02  0.10566000000E+00 0. -1.
         22    1    1    0    0    0  0.18824509549E+02  0.22271348160E+02 -0.12896698118E+01  0.29189696074E+02  0.00000000000E+00 0.  1.
</event>
<event>
 5    1  0.6924836E-004  0.9118800E+02  0.7818608E-02  0.1130116E+00
         25   -1    0    0    0    0  0.00000000000E+00  0.00000000000E+00  0.99999998245E-14  0.12500000000E+03  0.12500000000E+03 0.  0.
        -13    1    3    3    0    0 -0.33968807346E+02 -0.30116254341E+01  0.25440207827E+02  0.42546035051E+02  0.10566000000E+00 0. -1.
         23    2    1    0    0    0 -0.15930281168E+02 -0.53873097726E+01 -0.24265388180E+02  0.95477025418E+02  0.90797887390E+02 0.  0.
         13    1    3    3    0    0  0.18038526178E+02 -0.23756843385E+01 -0.49705596007E+02  0.52930990367E+02  0.10566000000E+00 0.  1.
         22    1    1    0    0    0  0.15930281168E+02  0.53873097726E+01  0.24265388180E+02  0.29522974582E+02  0.00000000000E+00 0. -1.
</event>
<event>
 5    1  0.6924836E-004  0.9118800E+02  0.7818608E-02  0.1130116E+00
         25   -1    0    0    0    0  0.00000000000E+00  0.00000000000E+00  0.99999998245E-14  0.12500000000E+03  0.12500000000E+03 0.  0.
        -13    1    3    3    0    0 -0.34872864176E+02 -0.32036519320E+02  0.37442044283E+02  0.60368643103E+02  0.10566000000E+00 0. -1.
         23    2    1    0    0    0 -0.22604492468E+02 -0.52871127512E+01  0.17729404481E+02  0.95789583634E+02  0.91227166505E+02 0.  0.
         13    1    3    3    0    0  0.12268371707E+02  0.26749406569E+02 -0.19712639802E+02  0.35420940531E+02  0.10566000000E+00 0.  1.
         22    1    1    0    0    0  0.22604492468E+02  0.52871127512E+01 -0.17729404481E+02  0.29210416366E+02  0.00000000000E+00 0. -1.
</event>
<event>
 5    1  0.6924836E-004  0.9118800E+02  0.7818608E-02  0.1130116E+00
         25   -1    0    0    0    0  0.00000000000E+00  0.00000000000E+00  0.99999998245E-14  0.12500000000E+03  0.12500000000E+03 0.  0.
        -13    1    3    3    0    0  0.16265635308E+02  0.70146739829E+01 -0.38302403192E+02  0.42200258262E+02  0.10566000000E+00 0.  1.
         23    2    1    0    0    0 -0.26697298864E+02 -0.70800724141E+01 -0.95896958156E+01  0.95762430712E+02  0.91189953822E+02 0.  0.
         13    1    3    3    0    0 -0.42962934172E+02 -0.14094746397E+02  0.28712707376E+02  0.53562172450E+02  0.10566000000E+00 0. -1.
         22    1    1    0    0    0  0.26697298864E+02  0.70800724141E+01  0.95896958156E+01  0.29237569288E+02  0.00000000000E+00 0. -1.
</event>
<event>
 5    1  0.6924836E-004  0.9118800E+02  0.7818608E-02  0.1130116E+00
         25   -1    0    0    0    0  0.00000000000E+00  0.00000000000E+00  0.99999998245E-14  0.12500000000E+03  0.12500000000E+03 0.  0.
        -13    1    3    3    0    0  0.41805050985E+02 -0.11471463260E+02  0.32116334653E+02  0.53951152655E+02  0.10566000000E+00 0.  1.
         23    2    1    0    0    0  0.22541611409E+02  0.13722030048E+02  0.68648847947E+00  0.98601332989E+02  0.95001753916E+02 0.  0.
         13    1    3    3    0    0 -0.19263439576E+02  0.25193493308E+02 -0.31429846173E+02  0.44650180334E+02  0.10566000000E+00 0. -1.
         22    1    1    0    0    0 -0.22541611409E+02 -0.13722030048E+02 -0.68648847947E+00  0.26398667011E+02  0.00000000000E+00 0.  1.
</event>
<event>
 5    1  0.6924836E-004  0.9118800E+02  0.7818608E-02  0.1130116E+00
         25   -1    0    0    0    0  0.00000000000E+00  0.00000000000E+00  0.99999998245E-14  0.12500000000E+03  0.12500000000E+03 0.  0.
        -13    1    3    3    0    0  0.11735245699E+02 -0.55361649790E+02 -0.22520525937E+01  0.56636659188E+02  0.10566000000E+00 0. -1.
         23    2    1    0    0    0  0.18125967498E+02 -0.18888486341E+02  0.11855375002E+02  0.96261949780E+02  0.91872125506E+02 0.  0.
         13    1    3    3    0    0  0.63907217993E+01  0.36473163449E+02  0.14107427596E+02  0.39625290592E+02  0.10566000000E+00 0.  1.
         22    1    1    0    0    0 -0.18125967498E+02  0.18888486341E+02 -0.11855375002E+02  0.28738050220E+02  0.00000000000E+00 0. -1.
</event>
<event>
 5    1  0.6924836E-004  0.9118800E+02  0.7818608E-02  0.1130116E+00
         25   -1    0    0    0    0  0.00000000000E+00  0.00000000000E+00  0.99999998245E-14  0.12500000000E+03  0.12500000000E+03 0.  0.
        -13    1    3    3    0    0 -0.34485842498E+02  0.36002891426E+02 -0.24142935530E+02  0.55392905899E+02  0.10566000000E+00 0. -1.
         23    2    1    0    0    0 -0.24316047868E+02  0.92012820906E+01  0.73533550869E+01  0.97981384064E+02  0.94182514386E+02 0.  0.
         13    1    3    3    0    0  0.10169794630E+02 -0.26801609336E+02  0.31496290617E+02  0.42588478166E+02  0.10566000000E+00 0.  1.
         22    1    1    0    0    0  0.24316047868E+02 -0.92012820906E+01 -0.73533550869E+01  0.27018615936E+02  0.00000000000E+00 0. -1.
</event>
<event>
 5    1  0.6924836E-004  0.9118800E+02  0.7818608E-02  0.1130116E+00
         25   -1    0    0    0    0  0.00000000000E+00  0.00000000000E+00  0.99999998245E-14  0.12500000000E+03  0.12500000000E+03 0.  0.
        -13    1    3    3    0    0 -0.26307350328E+02 -0.43769082604E+02  0.14142992704E+02  0.52989099633E+02  0.10566000000E+00 0.  1.
         23    2    1    0    0    0  0.10771430099E+02 -0.28573014516E+02  0.59861892215E+01  0.93882877281E+02  0.88576065166E+02 0.  0.
         13    1    3    3    0    0  0.37078780427E+02  0.15196068088E+02 -0.81568034825E+01  0.40893777648E+02  0.10566000000E+00 0. -1.
         22    1    1    0    0    0 -0.10771430099E+02  0.28573014516E+02 -0.59861892215E+01  0.31117122719E+02  0.00000000000E+00 0.  1.
</event>
<event>
 5    1  0.6924836E-004  0.9118800E+02  0.7818608E-02  0.1130116E+00
         25   -1    0    0    0    0  0.00000000000E+00  0.00000000000E+00  0.99999998245E-14  0.12500000000E+03  0.12500000000E+03 0.  0.
        -13    1    3    3    0    0 -0.25194066282E+02  0.22624649443E+02  0.13686450218E+02  0.36523223048E+02  0.10566000000E+00 0. -1.
         23    2    1    0    0    0  0.17146692964E+02 -0.20728193352E+00 -0.22493978256E+02  0.96715178926E+02  0.92486727326E+02 0.  0.
         13    1    3    3    0    0  0.42340759245E+02 -0.22831931376E+02 -0.36180428474E+02  0.60191955878E+02  0.10566000000E+00 0.  1.
         22    1    1    0    0    0 -0.17146692964E+02  0.20728193352E+00  0.22493978256E+02  0.28284821074E+02  0.00000000000E+00 0.  1.
</event>
<event>
 5    1  0.6924836E-004  0.9118800E+02  0.7818608E-02  0.1130116E+00
         25   -1    0    0    0    0  0.00000000000E+00  0.00000000000E+00  0.99999998245E-14  0.12500000000E+03  0.12500000000E+03 0.  0.
        -13    1    3    3    0    0  0.58488316016E+02  0.12469479381E+02  0.72313631701E+01  0.60238482748E+02  0.10566000000E+00 0.  1.
         23    2    1    0    0    0  0.28001295932E+02  0.11789951518E+02 -0.68934091278E+01  0.93845632408E+02  0.88523488985E+02 0.  0.
         13    1    3    3    0    0 -0.30487020085E+02 -0.67952786351E+00 -0.14124772298E+02  0.33607149660E+02  0.10566000000E+00 0. -1.
         22    1    1    0    0    0 -0.28001295932E+02 -0.11789951518E+02  0.68934091278E+01  0.31154367592E+02  0.00000000000E+00 0.  1.
</event>
<event>
 5    1  0.6924836E-004  0.9118800E+02  0.7818608E-02  0.1130116E+00
         25   -1    0    0    0    0  0.00000000000E+00  0.00000000000E+00  0.99999998245E-14  0.12500000000E+03  0.12500000000E+03 0.  0.
        -13    1    3    3    0    0  0.42928649912E+02 -0.23527241608E+02  0.24127619329E+02  0.54576123529E+02  0.10566000000E+00 0. -1.
         23    2    1    0    0    0  0.11016275019E+02 -0.27068925523E+02 -0.16160790874E+01  0.95730617433E+02  0.91146334859E+02 0.  0.
         13    1    3    3    0    0 -0.31912374893E+02 -0.35416839148E+01 -0.25743698416E+02  0.41154493903E+02  0.10566000000E+00 0.  1.
         22    1    1    0    0    0 -0.11016275019E+02  0.27068925523E+02  0.16160790874E+01  0.29269382567E+02  0.00000000000E+00 0. -1.
</event>
<event>
 5    1  0.6924836E-004  0.9118800E+02  0.7818608E-02  0.1130116E+00
         25   -1    0    0    0    0  0.00000000000E+00  0.00000000000E+00  0.99999998245E-14  0.12500000000E+03  0.12500000000E+03 0.  0.
        -13    1    3    3    0    0 -0.37776523266E+02  0.48982119522E+02  0.34813955874E+01  0.61955185596E+02  0.10566000000E+00 0.  1.
         23    2    1    0    0    0 -0.23983386427E+02  0.21974419229E+02  0.35254099838E+01  0.92281405279E+02  0.86286449224E+02 0.  0.
         13    1    3    3    0    0  0.13793136839E+02 -0.27007700293E+02  0.44014396316E-01  0.30326219683E+02  0.10566000000E+00 0. -1.
         22    1    1    0    0    0  0.23983386427E+02 -0.21974419229E+02 -0.35254099838E+01  0.32718594721E+02  0.00000000000E+00 0.  1.
</event>
<event>
 5    1  0.6924836E-004  0.9118800E+02  0.7818608E-02  0.1130116E+00
         25   -1    0    0    0    0  0.00000000000E+00  0.00000000000E+00  0.99999998245E-14  0.12500000000E+03  0.12500000000E+03 0.  0.
        -13    1    3    3    0    0  0.42503024783E+02 -0.30215888566E+02 -0.54377733990E+01  0.52431742114E+02  0.10566000000E+00 0.  1.
         23    2    1    0    0    0  0.24419209683E+02  0.88028896679E+00  0.17365500372E+02  0.95022786764E+02  0.90170375906E+02 0.  0.
         13    1    3    3    0    0 -0.18083815099E+02  0.31096177532E+02  0.22803273771E+02  0.42591044650E+02  0.10566000000E+00 0. -1.
         22    1    1    0    0    0 -0.24419209683E+02 -0.88028896679E+00 -0.17365500372E+02  0.29977213236E+02  0.00000000000E+00 0.  1.
</event>
<event>
 5    1  0.6924836E-004  0.9118800E+02  0.7818608E-02  0.1130116E+00
         25   -1    0    0    0    0  0.00000000000E+00  0.00000000000E+00  0.99999998245E-14  0.12500000000E+03  0.12500000000E+03 0.  0.
        -13    1    3    3    0    0  0.25385318255E+01  0.40240934570E+02  0.33105472076E+01  0.40456740424E+02  0.10566000000E+00 0.  1.
         23    2    1    0    0    0  0.29785890765E+02 -0.45054771653E+01 -0.75126215116E+01  0.93952647534E+02  0.88674471431E+02 0.  0.
         13    1    3    3    0    0  0.27247358940E+02 -0.44746411735E+02 -0.10823168719E+02  0.53495907110E+02  0.10566000000E+00 0. -1.
         22    1    1    0    0    0 -0.29785890765E+02  0.45054771653E+01  0.75126215116E+01  0.31047352466E+02  0.00000000000E+00 0. -1.
</event>
<event>
 5    1  0.6924836E-004  0.9118800E+02  0.7818608E-02  0.1130116E+00
         25   -1    0    0    0    0  0.00000000000E+00  0.00000000000E+00  0.99999998245E-14  0.12500000000E+03  0.12500000000E+03 0.  0.
        -13    1    3    3    0    0  0.16673689522E+02 -0.20692780657E+02 -0.30330242513E+02  0.40325399794E+02  0.10566000000E+00 0.  1.
         23    2    1    0    0    0 -0.27606964125E+02 -0.84873857317E+01  0.12897568113E+01  0.96089039148E+02  0.91636563592E+02 0.  0.
         13    1    3    3    0    0 -0.44280653647E+02  0.12205394926E+02  0.31619999325E+02  0.55763639354E+02  0.10566000000E+00 0. -1.
         22    1    1    0    0    0  0.27606964125E+02  0.84873857317E+01 -0.12897568113E+01  0.28910960852E+02  0.00000000000E+00 0. -1.
</event>
<event>
 5    1  0.6924836E-004  0.9118800E+02  0.7818608E-02  0.1130116E+00
         25   -1    0    0    0    0  0.00000000000E+00  0.00000000000E+00  0.99999998245E-14  0.12500000000E+03  0.12500000000E+03 0.  0.
        -13    1    3    3    0    0  0.35878101927E+02  0.12333681265E+02 -0.18921783298E+02  0.42395789162E+02  0.10566000000E+00 0.  1.
         23    2    1    0    0    0  0.17927294877E+02 -0.15427431716E+01  0.26383397448E+02  0.93064884233E+02  0.87414078147E+02 0.  0.
         13    1    3    3    0    0 -0.17950807049E+02 -0.13876424437E+02  0.45305180747E+02  0.50669095072E+02  0.10566000000E+00 0. -1.
         22    1    1    0    0    0 -0.17927294877E+02  0.15427431716E+01 -0.26383397448E+02  0.31935115767E+02  0.00000000000E+00 0. -1.
</event>
<event>
 5    1  0.6924836E-004  0.9118800E+02  0.7818608E-02  0.1130116E+00
         25   -1    0    0    0    0  0.00000000000E+00  0.00000000000E+00  0.99999998245E-14  0.12500000000E+03  0.12500000000E+03 0.  0.
        -13    1    3    3    0    0  0.39571057997E+02  0.33799272231E+02 -0.13645580336E+02  0.53800301682E+02  0.10566000000E+00 0.  1.
         23    2    1    0    0    0  0.26684297914E+02 -0.57840520210E+01 -0.11161747534E+02  0.95502684513E+02  0.90833204987E+02 0.  0.
         13    1    3    3    0    0 -0.12886760083E+02 -0.39583324252E+02  0.24838328023E+01  0.41702382830E+02  0.10566000000E+00 0. -1.
         22    1    1    0    0    0 -0.26684297914E+02  0.57840520210E+01  0.11161747534E+02  0.29497315487E+02  0.00000000000E+00 0.  1.
</event>
<event>
 5    1  0.6924836E-004  0.9118800E+02  0.7818608E-02  0.1130116E+00
         25   -1    0    0    0    0  0.00000000000E+00  0.00000000000E+00  0.99999998245E-14  0.12500000000E+03  0.12500000000E+03 0.  0.
        -13    1    3    3    0    0  0.24832855300E+02  0.37813047279E+02 -0.34096059558E+02  0.56648474722E+02  0.10566000000E+00 0. -1.
         23    2    1    0    0    0  0.65838705603E+01  0.50409126263E+01 -0.29401278783E+02  0.94451786538E+02  0.89375313339E+02 0.  0.
         13    1    3    3    0    0 -0.18248984740E+02 -0.32772134652E+02  0.46947807752E+01  0.37803311816E+02  0.10566000000E+00 0.  1.
         22    1    1    0    0    0 -0.65838705603E+01 -0.50409126263E+01  0.29401278783E+02  0.30548213462E+02  0.00000000000E+00 0. -1.
</event>
<event>
 5    1  0.6924836E-004  0.9118800E+02  0.7818608E-02  0.1130116E+00
         25   -1    0    0    0    0  0.00000000000E+00  0.00000000000E+00  0.99999998245E-14  0.12500000000E+03  0.12500000000E+03 0.  0.
        -13    1    3    3    0    0 -0.27747443423E+02 -0.84556215535E+01  0.18364566388E+02  0.34332005695E+02  0.10566000000E+00 0. -1.
         23    2    1    0    0    0  0.68740501033E+01  0.15230512473E+02 -0.25170036249E+02  0.94788217534E+02  0.89844612434E+02 0.  0.
         13    1    3    3    0    0  0.34621493526E+02  0.23686134026E+02 -0.43534602637E+02  0.60456211839E+02  0.10566000000E+00 0.  1.
         22    1    1    0    0    0 -0.68740501033E+01 -0.15230512473E+02  0.25170036249E+02  0.30211782466E+02  0.00000000000E+00 0.  1.
</event>
<event>
 5    1  0.6924836E-004  0.9118800E+02  0.7818608E-02  0.1130116E+00
         25   -1    0    0    0    0  0.00000000000E+00  0.00000000000E+00  0.99999998245E-14  0.12500000000E+03  0.12500000000E+03 0.  0.
        -13    1    3    3    0    0  0.15360265491E+00 -0.43717402088E+02 -0.12874602953E+02  0.45574130867E+02  0.10566000000E+00 0. -1.
         23    2    1    0    0    0  0.28663202996E+02 -0.19203956220E+02 -0.21760344397E+02  0.84209269083E+02  0.73670328292E+02 0.  0.
         13    1    3    3    0    0  0.28509600341E+02  0.24513445868E+02 -0.88857414441E+01  0.38635138216E+02  0.10566000000E+00 0.  1.
         22    1    1    0    0    0 -0.28663202996E+02  0.19203956220E+02  0.21760344397E+02  0.40790730917E+02  0.00000000000E+00 0.  1.
</event>
<event>
 5    1  0.6924836E-004  0.9118800E+02  0.7818608E-02  0.1130116E+00
         25   -1    0    0    0    0  0.00000000000E+00  0.00000000000E+00  0.99999998245E-14  0.12500000000E+03  0.12500000000E+03 0.  0.
        -13    1    3    3    0    0  0.41739550352E+02 -0.41036749785E+00  0.81301802510E+01  0.42526103278E+02  0.10566000000E+00 0. -1.
         23    2    1    0    0    0 -0.44914914060E+01 -0.83204309611E+01  0.29466203066E+02  0.94053914794E+02  0.88817108141E+02 0.  0.
         13    1    3    3    0    0 -0.46231041758E+02 -0.79100634632E+01  0.21336022815E+02  0.51527811516E+02  0.10566000000E+00 0.  1.
         22    1    1    0    0    0  0.44914914060E+01  0.83204309611E+01 -0.29466203066E+02  0.30946085206E+02  0.00000000000E+00 0.  1.
</event>
<event>
 5    1  0.6924836E-004  0.9118800E+02  0.7818608E-02  0.1130116E+00
         25   -1    0    0    0    0  0.00000000000E+00  0.00000000000E+00  0.99999998245E-14  0.12500000000E+03  0.12500000000E+03 0.  0.
        -13    1    3    3    0    0  0.24987985036E+02  0.14703792513E+02 -0.42237980682E+02  0.51231426748E+02  0.10566000000E+00 0. -1.
         23    2    1    0    0    0  0.30799056651E+02  0.11122273730E+02 -0.18396137549E+01  0.92202575676E+02  0.86172176015E+02 0.  0.
         13    1    3    3    0    0  0.58110716148E+01 -0.35815187832E+01  0.40398366927E+02  0.40971148929E+02  0.10566000000E+00 0.  1.
         22    1    1    0    0    0 -0.30799056651E+02 -0.11122273730E+02  0.18396137549E+01  0.32797424324E+02  0.00000000000E+00 0.  1.
</event>
<event>
 5    1  0.6924836E-004  0.9118800E+02  0.7818608E-02  0.1130116E+00
         25   -1    0    0    0    0  0.00000000000E+00  0.00000000000E+00  0.99999998245E-14  0.12500000000E+03  0.12500000000E+03 0.  0.
        -13    1    3    3    0    0  0.23566074494E+02  0.17360045564E+02  0.13619918007E+02  0.32283809868E+02  0.10566000000E+00 0.  1.
         23    2    1    0    0    0 -0.21635458408E+02 -0.34123080830E+01 -0.22376785050E+02  0.93687743355E+02  0.88300259563E+02 0.  0.
         13    1    3    3    0    0 -0.45201532903E+02 -0.20772353647E+02 -0.35996703057E+02  0.61403933488E+02  0.10566000000E+00 0. -1.
         22    1    1    0    0    0  0.21635458408E+02  0.34123080830E+01  0.22376785050E+02  0.31312256645E+02  0.00000000000E+00 0. -1.
</event>
<event>
 5    1  0.6924836E-004  0.9118800E+02  0.7818608E-02  0.1130116E+00
         25   -1    0    0    0    0  0.00000000000E+00  0.00000000000E+00  0.99999998245E-14  0.12500000000E+03  0.12500000000E+03 0.  0.
        -13    1    3    3    0    0 -0.36258083598E+02 -0.27644310846E+02 -0.20426286419E+02  0.49960993678E+02  0.10566000000E+00 0.  1.
         23    2    1    0    0    0 -0.10962172960E+02  0.10380361527E+02 -0.24932448039E+02  0.95852991463E+02  0.91314006952E+02 0.  0.
         13    1    3    3    0    0  0.25295910638E+02  0.38024672373E+02 -0.45061616208E+01  0.45891997785E+02  0.10566000000E+00 0. -1.
         22    1    1    0    0    0  0.10962172960E+02 -0.10380361527E+02  0.24932448039E+02  0.29147008537E+02  0.00000000000E+00 0.  1.
</event>
<event>
 5    1  0.6924836E-004  0.9118800E+02  0.7818608E-02  0.1130116E+00
         25   -1    0    0    0    0  0.00000000000E+00  0.00000000000E+00  0.99999998245E-14  0.12500000000E+03  0.12500000000E+03 0.  0.
        -13    1    3    3    0    0 -0.14976686273E+02  0.29757137508E+02  0.33198518408E+02  0.47031278453E+02  0.10566000000E+00 0. -1.
         23    2    1    0    0    0 -0.28619759077E+02  0.39067600487E+01 -0.55684848863E+01  0.95582974188E+02  0.90943628402E+02 0.  0.
         13    1    3    3    0    0 -0.13643072803E+02 -0.25850377459E+02 -0.38767003294E+02  0.48551695735E+02  0.10566000000E+00 0.  1.
         22    1    1    0    0    0  0.28619759077E+02 -0.39067600487E+01  0.55684848863E+01  0.29417025812E+02  0.00000000000E+00 0.  1.
</event>
<event>
 5    1  0.6924836E-004  0.9118800E+02  0.7818608E-02  0.1130116E+00
         25   -1    0    0    0    0  0.00000000000E+00  0.00000000000E+00  0.99999998245E-14  0.12500000000E+03  0.12500000000E+03 0.  0.
        -13    1    3    3    0    0 -0.13799733732E+02  0.26316438800E+02  0.15467607794E+02  0.33499935181E+02  0.10566000000E+00 0.  1.
         23    2    1    0    0    0  0.26723393805E+02 -0.16342148834E+02  0.44302487990E+01  0.93364059846E+02  0.87840850187E+02 0.  0.
         13    1    3    3    0    0  0.40523127538E+02 -0.42658587634E+02 -0.11037358995E+02  0.59864124666E+02  0.10566000000E+00 0. -1.
         22    1    1    0    0    0 -0.26723393805E+02  0.16342148834E+02 -0.44302487990E+01  0.31635940154E+02  0.00000000000E+00 0. -1.
</event>
<event>
 5    1  0.6924836E-004  0.9118800E+02  0.7818608E-02  0.1130116E+00
         25   -1    0    0    0    0  0.00000000000E+00  0.00000000000E+00  0.99999998245E-14  0.12500000000E+03  0.12500000000E+03 0.  0.
        -13    1    3    3    0    0  0.33056402359E+02 -0.52404270684E+01 -0.14230557983E+02  0.36369049442E+02  0.10566000000E+00 0. -1.
         23    2    1    0    0    0 -0.25285349942E+02 -0.11010962085E+02  0.24228496296E+01  0.97314978634E+02  0.93293861848E+02 0.  0.
         13    1    3    3    0    0 -0.58341752301E+02 -0.57705350169E+01  0.16653407613E+02  0.60945929192E+02  0.10566000000E+00 0.  1.
         22    1    1    0    0    0  0.25285349942E+02  0.11010962085E+02 -0.24228496296E+01  0.27685021366E+02  0.00000000000E+00 0.  1.
</event>
<event>
 5    1  0.6924836E-004  0.9118800E+02  0.7818608E-02  0.1130116E+00
         25   -1    0    0    0    0  0.00000000000E+00  0.00000000000E+00  0.99999998245E-14  0.12500000000E+03  0.12500000000E+03 0.  0.
        -13    1    3    3    0    0  0.37758842410E+02  0.20336045940E+02 -0.32436686321E+02  0.53772062710E+02  0.10566000000E+00 0.  1.
         23    2    1    0    0    0  0.14455562404E+02 -0.13399177118E+02 -0.20692597268E+02  0.96422302165E+02  0.92090040401E+02 0.  0.
         13    1    3    3    0    0 -0.23303280005E+02 -0.33735223058E+02  0.11744089053E+02  0.42650239454E+02  0.10566000000E+00 0. -1.
         22    1    1    0    0    0 -0.14455562404E+02  0.13399177118E+02  0.20692597268E+02  0.28577697835E+02  0.00000000000E+00 0. -1.
</event>
<event>
 5    1  0.6924836E-004  0.9118800E+02  0.7818608E-02  0.1130116E+00
         25   -1    0    0    0    0  0.00000000000E+00  0.00000000000E+00  0.99999998245E-14  0.12500000000E+03  0.12500000000E+03 0.  0.
        -13    1    3    3    0    0  0.81939919744E+01  0.35524686731E+02 -0.33764320010E+01  0.36613608521E+02  0.10566000000E+00 0.  1.
         23    2    1    0    0    0  0.16741108834E+02 -0.23096104188E+02 -0.57460361836E+01  0.95901689302E+02  0.91380645245E+02 0.  0.
         13    1    3    3    0    0  0.85471168600E+01 -0.58620790919E+02 -0.23696041826E+01  0.59288080781E+02  0.10566000000E+00 0. -1.
         22    1    1    0    0    0 -0.16741108834E+02  0.23096104188E+02  0.57460361836E+01  0.29098310698E+02  0.00000000000E+00 0. -1.
</event>
<event>
 5    1  0.6924836E-004  0.9118800E+02  0.7818608E-02  0.1130116E+00
         25   -1    0    0    0    0  0.00000000000E+00  0.00000000000E+00  0.99999998245E-14  0.12500000000E+03  0.12500000000E+03 0.  0.
        -13    1    3    3    0    0  0.37966646788E+02 -0.24782651169E+02  0.68035817680E+01  0.45846984156E+02  0.10566000000E+00 0.  1.
         23    2    1    0    0    0 -0.11640186343E+02 -0.23110300003E+02 -0.84598372453E+01  0.97775952716E+02  0.93909467994E+02 0.  0.
         13    1    3    3    0    0 -0.49606833131E+02  0.16723511669E+01 -0.15263419013E+02  0.51928968560E+02  0.10566000000E+00 0. -1.
         22    1    1    0    0    0  0.11640186343E+02  0.23110300003E+02  0.84598372453E+01  0.27224047284E+02  0.00000000000E+00 0. -1.
</event>
<event>
 5    1  0.6924836E-004  0.9118800E+02  0.7818608E-02  0.1130116E+00
         25   -1    0    0    0    0  0.00000000000E+00  0.00000000000E+00  0.99999998245E-14  0.12500000000E+03  0.12500000000E+03 0.  0.
        -13    1    3    3    0    0  0.13081817241E+02  0.20570696774E+02  0.37139036602E+02  0.44425293604E+02  0.10566000000E+00 0.  1.
         23    2    1    0    0    0 -0.20702593881E+02 -0.12536709119E+02  0.12467691725E+02  0.97774831389E+02  0.93907975419E+02 0.  0.
         13    1    3    3    0    0 -0.33784411122E+02 -0.33107405892E+02 -0.24671344877E+02  0.53349537785E+02  0.10566000000E+00 0. -1.
         22    1    1    0    0    0  0.20702593881E+02  0.12536709119E+02 -0.12467691725E+02  0.27225168611E+02  0.00000000000E+00 0. -1.
</event>
<event>
 5    1  0.6924836E-004  0.9118800E+02  0.7818608E-02  0.1130116E+00
         25   -1    0    0    0    0  0.00000000000E+00  0.00000000000E+00  0.99999998245E-14  0.12500000000E+03  0.12500000000E+03 0.  0.
        -13    1    3    3    0    0  0.28090249853E+02 -0.47015902874E+02  0.28948055089E+02  0.61948029165E+02  0.10566000000E+00 0.  1.
         23    2    1    0    0    0  0.15508919719E+02 -0.25744551221E+02  0.92436393581E+01  0.93555550935E+02  0.88112926031E+02 0.  0.
         13    1    3    3    0    0 -0.12581330134E+02  0.21271351653E+02 -0.19704415731E+02  0.31607521770E+02  0.10566000000E+00 0. -1.
         22    1    1    0    0    0 -0.15508919719E+02  0.25744551221E+02 -0.92436393581E+01  0.31444449065E+02  0.00000000000E+00 0.  1.
</event>
<event>
 5    1  0.6924836E-004  0.9118800E+02  0.7818608E-02  0.1130116E+00
         25   -1    0    0    0    0  0.00000000000E+00  0.00000000000E+00  0.99999998245E-14  0.12500000000E+03  0.12500000000E+03 0.  0.
        -13    1    3    3    0    0  0.95917270255E+01 -0.24443656977E+02  0.34576747166E+02  0.43417233932E+02  0.10566000000E+00 0. -1.
         23    2    1    0    0    0  0.17604359308E+02 -0.14630308017E+02 -0.16974656895E+02  0.96502660545E+02  0.92199051710E+02 0.  0.
         13    1    3    3    0    0  0.80126322824E+01  0.98133489606E+01 -0.51551404061E+02  0.53085426612E+02  0.10566000000E+00 0.  1.
         22    1    1    0    0    0 -0.17604359308E+02  0.14630308017E+02  0.16974656895E+02  0.28497339455E+02  0.00000000000E+00 0.  1.
</event>
<event>
 5    1  0.6924836E-004  0.9118800E+02  0.7818608E-02  0.1130116E+00
         25   -1    0    0    0    0  0.00000000000E+00  0.00000000000E+00  0.99999998245E-14  0.12500000000E+03  0.12500000000E+03 0.  0.
        -13    1    3    3    0    0  0.39068538203E+02 -0.99207595253E+01 -0.70998218904E+01  0.40929094563E+02  0.10566000000E+00 0.  1.
         23    2    1    0    0    0  0.34011344948E+01  0.26252343953E+02 -0.18132431260E+02  0.92913580096E+02  0.87197448494E+02 0.  0.
         13    1    3    3    0    0 -0.35667403708E+02  0.36173103478E+02 -0.11032609370E+02  0.51984485532E+02  0.10566000000E+00 0. -1.
         22    1    1    0    0    0 -0.34011344948E+01 -0.26252343953E+02  0.18132431260E+02  0.32086419904E+02  0.00000000000E+00 0. -1.
</event>
<event>
 5    1  0.6924836E-004  0.9118800E+02  0.7818608E-02  0.1130116E+00
         25   -1    0    0    0    0  0.00000000000E+00  0.00000000000E+00  0.99999998245E-14  0.12500000000E+03  0.12500000000E+03 0.  0.
        -13    1    3    3    0    0 -0.34413762005E+01  0.11270833782E+02  0.50989385665E+02  0.52333577929E+02  0.10566000000E+00 0.  1.
         23    2    1    0    0    0  0.27243404136E+01  0.26467500121E+02  0.98388134094E+01  0.96631833992E+02  0.92374014192E+02 0.  0.
         13    1    3    3    0    0  0.61657166141E+01  0.15196666339E+02 -0.41150572256E+02  0.44298256063E+02  0.10566000000E+00 0. -1.
         22    1    1    0    0    0 -0.27243404136E+01 -0.26467500121E+02 -0.98388134094E+01  0.28368166008E+02  0.00000000000E+00 0. -1.
</event>
<event>
 5    1  0.6924836E-004  0.9118800E+02  0.7818608E-02  0.1130116E+00
         25   -1    0    0    0    0  0.00000000000E+00  0.00000000000E+00  0.99999998245E-14  0.12500000000E+03  0.12500000000E+03 0.  0.
        -13    1    3    3    0    0  0.28111838453E+02 -0.49459196886E+02  0.95092765522E+01  0.57679503486E+02  0.10566000000E+00 0. -1.
         23    2    1    0    0    0  0.19887084535E+02 -0.12742683234E+02  0.16812186432E+02  0.96008247380E+02  0.91526290459E+02 0.  0.
         13    1    3    3    0    0 -0.82247539175E+01  0.36716513652E+02  0.73029098799E+01  0.38328743894E+02  0.10566000000E+00 0.  1.
         22    1    1    0    0    0 -0.19887084535E+02  0.12742683234E+02 -0.16812186432E+02  0.28991752620E+02  0.00000000000E+00 0. -1.
</event>
<event>
 5    1  0.6924836E-004  0.9118800E+02  0.7818608E-02  0.1130116E+00
         25   -1    0    0    0    0  0.00000000000E+00  0.00000000000E+00  0.99999998245E-14  0.12500000000E+03  0.12500000000E+03 0.  0.
        -13    1    3    3    0    0  0.10389118347E+01  0.55956560028E+02 -0.18609457257E+02  0.58979140477E+02  0.10566000000E+00 0.  1.
         23    2    1    0    0    0 -0.66220078849E+01  0.30089458260E+02  0.36769038710E+01  0.93971849735E+02  0.88701535690E+02 0.  0.
         13    1    3    3    0    0 -0.76609197197E+01 -0.25867101769E+02  0.22286361128E+02  0.34992709258E+02  0.10566000000E+00 0. -1.
         22    1    1    0    0    0  0.66220078849E+01 -0.30089458260E+02 -0.36769038710E+01  0.31028150265E+02  0.00000000000E+00 0.  1.
</event>
<event>
 5    1  0.6924836E-004  0.9118800E+02  0.7818608E-02  0.1130116E+00
         25   -1    0    0    0    0  0.00000000000E+00  0.00000000000E+00  0.99999998245E-14  0.12500000000E+03  0.12500000000E+03 0.  0.
        -13    1    3    3    0    0  0.26000462464E+02  0.20052617565E+02  0.18625883147E+01  0.32887868870E+02  0.10566000000E+00 0. -1.
         23    2    1    0    0    0 -0.24463793522E+02 -0.13270846856E+02 -0.11609267047E+02  0.94844276644E+02  0.89922573145E+02 0.  0.
         13    1    3    3    0    0 -0.50464255986E+02 -0.33323464422E+02 -0.13471855361E+02  0.61956407774E+02  0.10566000000E+00 0.  1.
         22    1    1    0    0    0  0.24463793522E+02  0.13270846856E+02  0.11609267047E+02  0.30155723356E+02  0.00000000000E+00 0.  1.
</event>
<event>
 5    1  0.6924836E-004  0.9118800E+02  0.7818608E-02  0.1130116E+00
         25   -1    0    0    0    0  0.00000000000E+00  0.00000000000E+00  0.99999998245E-14  0.12500000000E+03  0.12500000000E+03 0.  0.
        -13    1    3    3    0    0 -0.45615888301E+01 -0.18512952294E+02 -0.38669997434E+02  0.43115163932E+02  0.10566000000E+00 0.  1.
         23    2    1    0    0    0 -0.17798723614E+02  0.16585809535E+02  0.44492830409E+01  0.10026783957E+03  0.97169747819E+02 0.  0.
         13    1    3    3    0    0 -0.13237134783E+02  0.35098761829E+02  0.43119280475E+02  0.57152675633E+02  0.10566000000E+00 0. -1.
         22    1    1    0    0    0  0.17798723614E+02 -0.16585809535E+02 -0.44492830409E+01  0.24732160435E+02  0.00000000000E+00 0. -1.
</event>
<event>
 5    1  0.6924836E-004  0.9118800E+02  0.7818608E-02  0.1130116E+00
         25   -1    0    0    0    0  0.00000000000E+00  0.00000000000E+00  0.99999998245E-14  0.12500000000E+03  0.12500000000E+03 0.  0.
        -13    1    3    3    0    0 -0.40468447886E+02 -0.28493869048E+02 -0.33771469316E+02  0.59917603018E+02  0.10566000000E+00 0. -1.
         23    2    1    0    0    0 -0.26302600174E+02 -0.84922288595E+01 -0.64580008672E+01  0.96616016804E+02  0.92352607981E+02 0.  0.
         13    1    3    3    0    0  0.14165847712E+02  0.20001640189E+02  0.27313468449E+02  0.36698413786E+02  0.10566000000E+00 0.  1.
         22    1    1    0    0    0  0.26302600174E+02  0.84922288595E+01  0.64580008672E+01  0.28383983196E+02  0.00000000000E+00 0. -1.
</event>
<event>
 5    1  0.6924836E-004  0.9118800E+02  0.7818608E-02  0.1130116E+00
         25   -1    0    0    0    0  0.00000000000E+00  0.00000000000E+00  0.99999998245E-14  0.12500000000E+03  0.12500000000E+03 0.  0.
        -13    1    3    3    0    0  0.47677862675E+02  0.23625560803E+02 -0.23474452423E+01  0.53262250944E+02  0.10566000000E+00 0.  1.
         23    2    1    0    0    0  0.19353420631E+02  0.28847318049E+01 -0.23633179195E+02  0.94317696850E+02  0.89187578802E+02 0.  0.
         13    1    3    3    0    0 -0.28324442044E+02 -0.20740828998E+02 -0.21285733953E+02  0.41055445906E+02  0.10566000000E+00 0. -1.
         22    1    1    0    0    0 -0.19353420631E+02 -0.28847318049E+01  0.23633179195E+02  0.30682303150E+02  0.00000000000E+00 0. -1.
</event>
<event>
 5    1  0.6924836E-004  0.9118800E+02  0.7818608E-02  0.1130116E+00
         25   -1    0    0    0    0  0.00000000000E+00  0.00000000000E+00  0.99999998245E-14  0.12500000000E+03  0.12500000000E+03 0.  0.
        -13    1    3    3    0    0  0.36375233120E+02 -0.11596273731E+02 -0.12253656222E+02  0.40097311679E+02  0.10566000000E+00 0. -1.
         23    2    1    0    0    0 -0.11736804487E+02 -0.25853100534E+02  0.98740048146E+01  0.94939538295E+02  0.90054897556E+02 0.  0.
         13    1    3    3    0    0 -0.48112037608E+02 -0.14256826804E+02  0.22127661037E+02  0.54842226617E+02  0.10566000000E+00 0.  1.
         22    1    1    0    0    0  0.11736804487E+02  0.25853100534E+02 -0.98740048146E+01  0.30060461705E+02  0.00000000000E+00 0.  1.
</event>
<event>
 5    1  0.6924836E-004  0.9118800E+02  0.7818608E-02  0.1130116E+00
         25   -1    0    0    0    0  0.00000000000E+00  0.00000000000E+00  0.99999998245E-14  0.12500000000E+03  0.12500000000E+03 0.  0.
        -13    1    3    3    0    0  0.17101288676E+02 -0.24688707735E+02  0.16184678021E+02  0.34116584393E+02  0.10566000000E+00 0. -1.
         23    2    1    0    0    0 -0.26728542218E+02  0.13765953902E+02 -0.10439362148E+01  0.94916678063E+02  0.90023160997E+02 0.  0.
         13    1    3    3    0    0 -0.43829830894E+02  0.38454661637E+02 -0.17228614236E+02  0.60800093670E+02  0.10566000000E+00 0.  1.
         22    1    1    0    0    0  0.26728542218E+02 -0.13765953902E+02  0.10439362148E+01  0.30083321937E+02  0.00000000000E+00 0.  1.
</event>
<event>
 5    1  0.6924836E-004  0.9118800E+02  0.7818608E-02  0.1130116E+00
         25   -1    0    0    0    0  0.00000000000E+00  0.00000000000E+00  0.99999998245E-14  0.12500000000E+03  0.12500000000E+03 0.  0.
        -13    1    3    3    0    0 -0.75525521165E+01 -0.25224288321E+02 -0.54430503724E+02  0.60464838249E+02  0.10566000000E+00 0.  1.
         23    2    1    0    0    0 -0.14785920934E+02 -0.11379839179E+02 -0.24747897606E+02  0.94006732448E+02  0.88750679502E+02 0.  0.
         13    1    3    3    0    0 -0.72333688176E+01  0.13844449142E+02  0.29682606118E+02  0.33541894200E+02  0.10566000000E+00 0. -1.
         22    1    1    0    0    0  0.14785920934E+02  0.11379839179E+02  0.24747897606E+02  0.30993267552E+02  0.00000000000E+00 0.  1.
</event>
<event>
 5    1  0.6924836E-004  0.9118800E+02  0.7818608E-02  0.1130116E+00
         25   -1    0    0    0    0  0.00000000000E+00  0.00000000000E+00  0.99999998245E-14  0.12500000000E+03  0.12500000000E+03 0.  0.
        -13    1    3    3    0    0  0.40415009393E+02 -0.26284202392E+02  0.23365615666E+02  0.53574204978E+02  0.10566000000E+00 0.  1.
         23    2    1    0    0    0  0.25334976864E+01 -0.36919242991E+01  0.26812944347E+02  0.97815760078E+02  0.93962439408E+02 0.  0.
         13    1    3    3    0    0 -0.37881511706E+02  0.22592278093E+02  0.34473286819E+01  0.44241555100E+02  0.10566000000E+00 0. -1.
         22    1    1    0    0    0 -0.25334976864E+01  0.36919242991E+01 -0.26812944347E+02  0.27184239922E+02  0.00000000000E+00 0.  1.
</event>
<event>
 5    1  0.6924836E-004  0.9118800E+02  0.7818608E-02  0.1130116E+00
         25   -1    0    0    0    0  0.00000000000E+00  0.00000000000E+00  0.99999998245E-14  0.12500000000E+03  0.12500000000E+03 0.  0.
        -13    1    3    3    0    0 -0.34111900276E+02  0.32662032087E+02  0.13918775552E+02  0.49235897040E+02  0.10566000000E+00 0. -1.
         23    2    1    0    0    0 -0.29978792562E+02  0.14004498656E+02 -0.18664872855E+02  0.87010113652E+02  0.78278530983E+02 0.  0.
         13    1    3    3    0    0  0.41331077138E+01 -0.18657533431E+02 -0.32583648407E+02  0.37774216611E+02  0.10566000000E+00 0.  1.
         22    1    1    0    0    0  0.29978792562E+02 -0.14004498656E+02  0.18664872855E+02  0.37989886348E+02  0.00000000000E+00 0. -1.
</event>
<event>
 5    1  0.6924836E-004  0.9118800E+02  0.7818608E-02  0.1130116E+00
         25   -1    0    0    0    0  0.00000000000E+00  0.00000000000E+00  0.99999998245E-14  0.12500000000E+03  0.12500000000E+03 0.  0.
        -13    1    3    3    0    0 -0.29553172201E+02  0.16572034735E+02  0.18816095680E+01  0.33934848475E+02  0.10566000000E+00 0. -1.
         23    2    1    0    0    0  0.15242943731E+02 -0.24748603592E+02 -0.58011447038E+01  0.95360600661E+02  0.90637465571E+02 0.  0.
         13    1    3    3    0    0  0.44796115932E+02 -0.41320638327E+02 -0.76827542717E+01  0.61425752186E+02  0.10566000000E+00 0.  1.
         22    1    1    0    0    0 -0.15242943731E+02  0.24748603592E+02  0.58011447038E+01  0.29639399339E+02  0.00000000000E+00 0.  1.
</event>
<event>
 5    1  0.6924836E-004  0.9118800E+02  0.7818608E-02  0.1130116E+00
         25   -1    0    0    0    0  0.00000000000E+00  0.00000000000E+00  0.99999998245E-14  0.12500000000E+03  0.12500000000E+03 0.  0.
        -13    1    3    3    0    0  0.42399725953E+02  0.24682469219E+02 -0.36046025327E+02  0.60879291664E+02  0.10566000000E+00 0. -1.
         23    2    1    0    0    0  0.25647611440E+02  0.55822147623E+01 -0.11047620298E+02  0.96521744989E+02  0.92224922051E+02 0.  0.
         13    1    3    3    0    0 -0.16752114512E+02 -0.19100254457E+02  0.24998405030E+02  0.35642453325E+02  0.10566000000E+00 0.  1.
         22    1    1    0    0    0 -0.25647611440E+02 -0.55822147623E+01  0.11047620298E+02  0.28478255011E+02  0.00000000000E+00 0. -1.
</event>
<event>
 5    1  0.6924836E-004  0.9118800E+02  0.7818608E-02  0.1130116E+00
         25   -1    0    0    0    0  0.00000000000E+00  0.00000000000E+00  0.99999998245E-14  0.12500000000E+03  0.12500000000E+03 0.  0.
        -13    1    3    3    0    0 -0.24038368478E+02 -0.15791887724E+02  0.51245369524E+02  0.58765006072E+02  0.10566000000E+00 0.  1.
         23    2    1    0    0    0 -0.25479075215E+02 -0.32075784191E+01  0.20096036297E+02  0.92391373719E+02  0.86445609661E+02 0.  0.
         13    1    3    3    0    0 -0.14407067367E+01  0.12584309305E+02 -0.31149333227E+02  0.33626367647E+02  0.10566000000E+00 0. -1.
         22    1    1    0    0    0  0.25479075215E+02  0.32075784191E+01 -0.20096036297E+02  0.32608626281E+02  0.00000000000E+00 0.  1.
</event>
<event>
 5    1  0.6924836E-004  0.9118800E+02  0.7818608E-02  0.1130116E+00
         25   -1    0    0    0    0  0.00000000000E+00  0.00000000000E+00  0.99999998245E-14  0.12500000000E+03  0.12500000000E+03 0.  0.
        -13    1    3    3    0    0  0.12361299206E+02  0.35252081988E+02 -0.21522959282E+02  0.43113338340E+02  0.10566000000E+00 0. -1.
         23    2    1    0    0    0 -0.23586762785E+02  0.88438279636E+01  0.10172540221E+02  0.97833306306E+02  0.93985778586E+02 0.  0.
         13    1    3    3    0    0 -0.35948061990E+02 -0.26408254024E+02  0.31695499503E+02  0.54719967966E+02  0.10566000000E+00 0.  1.
         22    1    1    0    0    0  0.23586762785E+02 -0.88438279636E+01 -0.10172540221E+02  0.27166693694E+02  0.00000000000E+00 0.  1.
</event>
<event>
 5    1  0.6924836E-004  0.9118800E+02  0.7818608E-02  0.1130116E+00
         25   -1    0    0    0    0  0.00000000000E+00  0.00000000000E+00  0.99999998245E-14  0.12500000000E+03  0.12500000000E+03 0.  0.
        -13    1    3    3    0    0  0.14019977341E+02  0.33078019594E+02  0.45318216108E+02  0.57831367096E+02  0.10566000000E+00 0. -1.
         23    2    1    0    0    0  0.19371812931E+02  0.17406296521E+02  0.95257151122E+01  0.97269411416E+02  0.93232788513E+02 0.  0.
         13    1    3    3    0    0  0.53518355899E+01 -0.15671723073E+02 -0.35792500996E+02  0.39438044320E+02  0.10566000000E+00 0.  1.
         22    1    1    0    0    0 -0.19371812931E+02 -0.17406296521E+02 -0.95257151122E+01  0.27730588584E+02  0.00000000000E+00 0. -1.
</event>
<event>
 5    1  0.6924836E-004  0.9118800E+02  0.7818608E-02  0.1130116E+00
         25   -1    0    0    0    0  0.00000000000E+00  0.00000000000E+00  0.99999998245E-14  0.12500000000E+03  0.12500000000E+03 0.  0.
        -13    1    3    3    0    0  0.45980759355E+02  0.23414940731E+01 -0.54806405163E+01  0.46365519623E+02  0.10566000000E+00 0. -1.
         23    2    1    0    0    0  0.57083933668E+01 -0.26686547242E+02 -0.93316489668E+01  0.96158411435E+02  0.91731144431E+02 0.  0.
         13    1    3    3    0    0 -0.40272365988E+02 -0.29028041315E+02 -0.38510084505E+01  0.49792891812E+02  0.10566000000E+00 0.  1.
         22    1    1    0    0    0 -0.57083933668E+01  0.26686547242E+02  0.93316489668E+01  0.28841588565E+02  0.00000000000E+00 0. -1.
</event>
<event>
 5    1  0.6924836E-004  0.9118800E+02  0.7818608E-02  0.1130116E+00
         25   -1    0    0    0    0  0.00000000000E+00  0.00000000000E+00  0.99999998245E-14  0.12500000000E+03  0.12500000000E+03 0.  0.
        -13    1    3    3    0    0  0.32678861828E+01  0.49782751758E+02 -0.36471596005E+02  0.61799594917E+02  0.10566000000E+00 0.  1.
         23    2    1    0    0    0 -0.35901549911E+01  0.22481746943E+02 -0.21514705442E+02  0.93675876569E+02  0.88283459053E+02 0.  0.
         13    1    3    3    0    0 -0.68580411739E+01 -0.27301004815E+02  0.14956890563E+02  0.31876281653E+02  0.10566000000E+00 0. -1.
         22    1    1    0    0    0  0.35901549911E+01 -0.22481746943E+02  0.21514705442E+02  0.31324123431E+02  0.00000000000E+00 0.  1.
</event>
<event>
 5    1  0.6924836E-004  0.9118800E+02  0.7818608E-02  0.1130116E+00
         25   -1    0    0    0    0  0.00000000000E+00  0.00000000000E+00  0.99999998245E-14  0.12500000000E+03  0.12500000000E+03 0.  0.
        -13    1    3    3    0    0  0.56002240715E+02 -0.11542735321E+01 -0.26424688284E+02  0.61934308968E+02  0.10566000000E+00 0.  1.
         23    2    1    0    0    0  0.25558294780E+02 -0.63879211270E+01 -0.13138038428E+02  0.95561249650E+02  0.90913763604E+02 0.  0.
         13    1    3    3    0    0 -0.30443945934E+02 -0.52336475949E+01  0.13286649856E+02  0.33626940682E+02  0.10566000000E+00 0. -1.
         22    1    1    0    0    0 -0.25558294780E+02  0.63879211270E+01  0.13138038428E+02  0.29438750350E+02  0.00000000000E+00 0.  1.
</event>
<event>
 5    1  0.6924836E-004  0.9118800E+02  0.7818608E-02  0.1130116E+00
         25   -1    0    0    0    0  0.00000000000E+00  0.00000000000E+00  0.99999998245E-14  0.12500000000E+03  0.12500000000E+03 0.  0.
        -13    1    3    3    0    0  0.35948662017E+02 -0.41026643575E+02  0.53062070575E+01  0.54805645523E+02  0.10566000000E+00 0. -1.
         23    2    1    0    0    0  0.28769112328E+02 -0.87516238065E+00 -0.15932315762E+01  0.96173517034E+02  0.91751726188E+02 0.  0.
         13    1    3    3    0    0 -0.71795496891E+01  0.40151481194E+02 -0.68994386336E+01  0.41367871511E+02  0.10566000000E+00 0.  1.
         22    1    1    0    0    0 -0.28769112328E+02  0.87516238065E+00  0.15932315762E+01  0.28826482966E+02  0.00000000000E+00 0. -1.
</event>
<event>
 5    1  0.6924836E-004  0.9118800E+02  0.7818608E-02  0.1130116E+00
         25   -1    0    0    0    0  0.00000000000E+00  0.00000000000E+00  0.99999998245E-14  0.12500000000E+03  0.12500000000E+03 0.  0.
        -13    1    3    3    0    0 -0.15746221891E+02  0.14514518132E+01  0.50038218513E+02  0.52477468424E+02  0.10566000000E+00 0. -1.
         23    2    1    0    0    0  0.10122914402E+02 -0.17643267968E+02  0.19528062537E+02  0.96802419837E+02  0.92604562303E+02 0.  0.
         13    1    3    3    0    0  0.25869136293E+02 -0.19094719781E+02 -0.30510155976E+02  0.44324951413E+02  0.10566000000E+00 0.  1.
         22    1    1    0    0    0 -0.10122914402E+02  0.17643267968E+02 -0.19528062537E+02  0.28197580163E+02  0.00000000000E+00 0. -1.
</event>
<event>
 5    1  0.6924836E-004  0.9118800E+02  0.7818608E-02  0.1130116E+00
         25   -1    0    0    0    0  0.00000000000E+00  0.00000000000E+00  0.99999998245E-14  0.12500000000E+03  0.12500000000E+03 0.  0.
        -13    1    3    3    0    0 -0.26512336949E+02 -0.47973276930E+02  0.18573611281E+02  0.57873392073E+02  0.10566000000E+00 0. -1.
         23    2    1    0    0    0 -0.25396667360E+02 -0.11560963078E+02  0.56345474606E+01  0.96532567637E+02  0.92239589706E+02 0.  0.
         13    1    3    3    0    0  0.11156695890E+01  0.36412313852E+02 -0.12939063821E+02  0.38659175564E+02  0.10566000000E+00 0.  1.
         22    1    1    0    0    0  0.25396667360E+02  0.11560963078E+02 -0.56345474606E+01  0.28467432363E+02  0.00000000000E+00 0. -1.
</event>
<event>
 5    1  0.6924836E-004  0.9118800E+02  0.7818608E-02  0.1130116E+00
         25   -1    0    0    0    0  0.00000000000E+00  0.00000000000E+00  0.99999998245E-14  0.12500000000E+03  0.12500000000E+03 0.  0.
        -13    1    3    3    0    0 -0.17797792602E+01  0.23931665235E+02  0.36531366046E+02  0.43708627116E+02  0.10566000000E+00 0.  1.
         23    2    1    0    0    0 -0.32144779228E+02  0.17587302541E+02  0.48660703378E+01  0.88036792850E+02  0.79901177791E+02 0.  0.
         13    1    3    3    0    0 -0.30364999968E+02 -0.63443626941E+01 -0.31665295708E+02  0.44328165734E+02  0.10566000000E+00 0. -1.
         22    1    1    0    0    0  0.32144779228E+02 -0.17587302541E+02 -0.48660703378E+01  0.36963207150E+02  0.00000000000E+00 0. -1.
</event>
<event>
 5    1  0.6924836E-004  0.9118800E+02  0.7818608E-02  0.1130116E+00
         25   -1    0    0    0    0  0.00000000000E+00  0.00000000000E+00  0.99999998245E-14  0.12500000000E+03  0.12500000000E+03 0.  0.
        -13    1    3    3    0    0 -0.29336360259E+02 -0.11003503629E+02  0.22483962600E+02  0.38564736011E+02  0.10566000000E+00 0. -1.
         23    2    1    0    0    0 -0.32858374975E+02 -0.27112856457E+02 -0.15256271438E+02  0.79750319234E+02  0.65670235331E+02 0.  0.
         13    1    3    3    0    0 -0.35220147159E+01 -0.16109352828E+02 -0.37740234038E+02  0.41185583223E+02  0.10566000000E+00 0.  1.
         22    1    1    0    0    0  0.32858374975E+02  0.27112856457E+02  0.15256271438E+02  0.45249680766E+02  0.00000000000E+00 0.  1.
</event>
<event>
 5    1  0.6924836E-004  0.9118800E+02  0.7818608E-02  0.1130116E+00
         25   -1    0    0    0    0  0.00000000000E+00  0.00000000000E+00  0.99999998245E-14  0.12500000000E+03  0.12500000000E+03 0.  0.
        -13    1    3    3    0    0 -0.32093908107E+02  0.26579105925E+02 -0.41629480291E+01  0.41878504148E+02  0.10566000000E+00 0.  1.
         23    2    1    0    0    0  0.15055871041E+02  0.32615353394E+01  0.19992880285E+02  0.99760504608E+02  0.96514901191E+02 0.  0.
         13    1    3    3    0    0  0.47149779147E+02 -0.23317570586E+02  0.24155828314E+02  0.57882000460E+02  0.10566000000E+00 0. -1.
         22    1    1    0    0    0 -0.15055871041E+02 -0.32615353394E+01 -0.19992880285E+02  0.25239495392E+02  0.00000000000E+00 0. -1.
</event>
<event>
 5    1  0.6924836E-004  0.9118800E+02  0.7818608E-02  0.1130116E+00
         25   -1    0    0    0    0  0.00000000000E+00  0.00000000000E+00  0.99999998245E-14  0.12500000000E+03  0.12500000000E+03 0.  0.
        -13    1    3    3    0    0  0.24717275718E+02  0.33232886330E+02 -0.32053165422E+01  0.41540987842E+02  0.10566000000E+00 0.  1.
         23    2    1    0    0    0 -0.92312676293E+01  0.61160066606E+01  0.27904007623E+02  0.94979082610E+02  0.90109770017E+02 0.  0.
         13    1    3    3    0    0 -0.33948543347E+02 -0.27116879670E+02  0.31109324165E+02  0.53438094768E+02  0.10566000000E+00 0. -1.
         22    1    1    0    0    0  0.92312676293E+01 -0.61160066606E+01 -0.27904007623E+02  0.30020917390E+02  0.00000000000E+00 0. -1.
</event>
<event>
 5    1  0.6924836E-004  0.9118800E+02  0.7818608E-02  0.1130116E+00
         25   -1    0    0    0    0  0.00000000000E+00  0.00000000000E+00  0.99999998245E-14  0.12500000000E+03  0.12500000000E+03 0.  0.
        -13    1    3    3    0    0  0.71106980169E+00  0.12777179747E+02 -0.40249623354E+02  0.42235119116E+02  0.10566000000E+00 0.  1.
         23    2    1    0    0    0  0.26578160660E+02 -0.14185600679E+02 -0.33036212042E+02  0.80289585142E+02  0.66688801799E+02 0.  0.
         13    1    3    3    0    0  0.25867090859E+02 -0.26962780425E+02  0.72134113118E+01  0.38054466026E+02  0.10566000000E+00 0. -1.
         22    1    1    0    0    0 -0.26578160660E+02  0.14185600679E+02  0.33036212042E+02  0.44710414858E+02  0.00000000000E+00 0. -1.
</event>
<event>
 5    1  0.6924836E-004  0.9118800E+02  0.7818608E-02  0.1130116E+00
         25   -1    0    0    0    0  0.00000000000E+00  0.00000000000E+00  0.99999998245E-14  0.12500000000E+03  0.12500000000E+03 0.  0.
        -13    1    3    3    0    0 -0.54710419572E+02  0.20696288334E+02 -0.68631999426E+01  0.58895509490E+02  0.10566000000E+00 0.  1.
         23    2    1    0    0    0 -0.18064038394E+02  0.22634308864E+02 -0.47501854725E+01  0.95654034640E+02  0.91041247026E+02 0.  0.
         13    1    3    3    0    0  0.36646381178E+02  0.19380205301E+01  0.21130144701E+01  0.36758525150E+02  0.10566000000E+00 0. -1.
         22    1    1    0    0    0  0.18064038394E+02 -0.22634308864E+02  0.47501854725E+01  0.29345965360E+02  0.00000000000E+00 0.  1.
</event>
<event>
 5    1  0.6924836E-004  0.9118800E+02  0.7818608E-02  0.1130116E+00
         25   -1    0    0    0    0  0.00000000000E+00  0.00000000000E+00  0.99999998245E-14  0.12500000000E+03  0.12500000000E+03 0.  0.
        -13    1    3    3    0    0  0.19233441326E+02  0.24581097715E+01 -0.30582307206E+02  0.36211272374E+02  0.10566000000E+00 0.  1.
         23    2    1    0    0    0 -0.78213697963E+01 -0.17848138035E+02  0.20008871097E+02  0.97070002159E+02  0.92965050098E+02 0.  0.
         13    1    3    3    0    0 -0.27054811122E+02 -0.20306247807E+02  0.50591178303E+02  0.60858729785E+02  0.10566000000E+00 0. -1.
         22    1    1    0    0    0  0.78213697963E+01  0.17848138035E+02 -0.20008871097E+02  0.27929997841E+02  0.00000000000E+00 0. -1.
</event>
<event>
 5    1  0.6924836E-004  0.9118800E+02  0.7818608E-02  0.1130116E+00
         25   -1    0    0    0    0  0.00000000000E+00  0.00000000000E+00  0.99999998245E-14  0.12500000000E+03  0.12500000000E+03 0.  0.
        -13    1    3    3    0    0 -0.31934267054E+02 -0.16881387501E+02  0.30061515482E+02  0.46994515992E+02  0.10566000000E+00 0. -1.
         23    2    1    0    0    0 -0.19781738783E+02 -0.17573378572E+02 -0.15622266943E+02  0.94272226763E+02  0.89123827850E+02 0.  0.
         13    1    3    3    0    0  0.12152528271E+02 -0.69199107139E+00 -0.45683782425E+02  0.47277710771E+02  0.10566000000E+00 0.  1.
         22    1    1    0    0    0  0.19781738783E+02  0.17573378572E+02  0.15622266943E+02  0.30727773237E+02  0.00000000000E+00 0.  1.
</event>
<event>
 5    1  0.6924836E-004  0.9118800E+02  0.7818608E-02  0.1130116E+00
         25   -1    0    0    0    0  0.00000000000E+00  0.00000000000E+00  0.99999998245E-14  0.12500000000E+03  0.12500000000E+03 0.  0.
        -13    1    3    3    0    0  0.24166021450E+02  0.33454252833E+01  0.34177510430E+02  0.41991687824E+02  0.10566000000E+00 0.  1.
         23    2    1    0    0    0 -0.74353830725E+01  0.28164074552E+02 -0.16463003821E+01  0.95824491062E+02  0.91274984336E+02 0.  0.
         13    1    3    3    0    0 -0.31601404523E+02  0.24818649269E+02 -0.35823810812E+02  0.53832803238E+02  0.10566000000E+00 0. -1.
         22    1    1    0    0    0  0.74353830725E+01 -0.28164074552E+02  0.16463003821E+01  0.29175508938E+02  0.00000000000E+00 0. -1.
</event>
<event>
 5    1  0.6924836E-004  0.9118800E+02  0.7818608E-02  0.1130116E+00
         25   -1    0    0    0    0  0.00000000000E+00  0.00000000000E+00  0.99999998245E-14  0.12500000000E+03  0.12500000000E+03 0.  0.
        -13    1    3    3    0    0 -0.14950097679E+02  0.83443022612E+01  0.39739396352E+02  0.43270816808E+02  0.10566000000E+00 0. -1.
         23    2    1    0    0    0 -0.12854800477E+02  0.24506251519E+02 -0.99715503288E+01  0.95585138538E+02  0.90946603205E+02 0.  0.
         13    1    3    3    0    0  0.20952972017E+01  0.16161949258E+02 -0.49710946680E+02  0.52314321730E+02  0.10566000000E+00 0.  1.
         22    1    1    0    0    0  0.12854800477E+02 -0.24506251519E+02  0.99715503288E+01  0.29414861462E+02  0.00000000000E+00 0.  1.
</event>
<event>
 5    1  0.6924836E-004  0.9118800E+02  0.7818608E-02  0.1130116E+00
         25   -1    0    0    0    0  0.00000000000E+00  0.00000000000E+00  0.99999998245E-14  0.12500000000E+03  0.12500000000E+03 0.  0.
        -13    1    3    3    0    0 -0.27852517171E+02  0.53759934753E+02 -0.49606753453E+01  0.60749590627E+02  0.10566000000E+00 0. -1.
         23    2    1    0    0    0 -0.20677985207E+02  0.20415485757E+02  0.30406879917E+01  0.95783276802E+02  0.91218524438E+02 0.  0.
         13    1    3    3    0    0  0.71745319631E+01 -0.33344448996E+02  0.80013633370E+01  0.35033686175E+02  0.10566000000E+00 0.  1.
         22    1    1    0    0    0  0.20677985207E+02 -0.20415485757E+02 -0.30406879917E+01  0.29216723198E+02  0.00000000000E+00 0. -1.
</event>
<event>
 5    1  0.6924836E-004  0.9118800E+02  0.7818608E-02  0.1130116E+00
         25   -1    0    0    0    0  0.00000000000E+00  0.00000000000E+00  0.99999998245E-14  0.12500000000E+03  0.12500000000E+03 0.  0.
        -13    1    3    3    0    0  0.10643034703E+02  0.47000250911E+02 -0.25236406955E+02  0.54398393114E+02  0.10566000000E+00 0.  1.
         23    2    1    0    0    0 -0.80340296432E+01  0.24572888129E+02  0.73286747868E+01  0.98128417660E+02  0.94377457134E+02 0.  0.
         13    1    3    3    0    0 -0.18677064347E+02 -0.22427362782E+02  0.32565081742E+02  0.43730024546E+02  0.10566000000E+00 0. -1.
         22    1    1    0    0    0  0.80340296432E+01 -0.24572888129E+02 -0.73286747868E+01  0.26871582340E+02  0.00000000000E+00 0. -1.
</event>
<event>
 5    1  0.6924836E-004  0.9118800E+02  0.7818608E-02  0.1130116E+00
         25   -1    0    0    0    0  0.00000000000E+00  0.00000000000E+00  0.99999998245E-14  0.12500000000E+03  0.12500000000E+03 0.  0.
        -13    1    3    3    0    0  0.28151649076E+02 -0.26165660712E+02 -0.60968725348E+01  0.38914523830E+02  0.10566000000E+00 0.  1.
         23    2    1    0    0    0 -0.47002344888E+01  0.24716008034E+02 -0.40688235734E+01  0.99514149363E+02  0.96195308310E+02 0.  0.
         13    1    3    3    0    0 -0.32851883565E+02  0.50881668746E+02  0.20280489615E+01  0.60599625533E+02  0.10566000000E+00 0. -1.
         22    1    1    0    0    0  0.47002344888E+01 -0.24716008034E+02  0.40688235734E+01  0.25485850637E+02  0.00000000000E+00 0. -1.
</event>
<event>
 5    1  0.6924836E-004  0.9118800E+02  0.7818608E-02  0.1130116E+00
         25   -1    0    0    0    0  0.00000000000E+00  0.00000000000E+00  0.99999998245E-14  0.12500000000E+03  0.12500000000E+03 0.  0.
        -13    1    3    3    0    0 -0.15375532139E+01 -0.15463356784E+02 -0.14004859638E+02  0.20919529881E+02  0.10566000000E+00 0. -1.
         23    2    1    0    0    0 -0.44864970225E+02 -0.17249153467E+02  0.16767377066E+02  0.74092792433E+02  0.53834915327E+02 0.  0.
         13    1    3    3    0    0 -0.43327417011E+02 -0.17857966831E+01  0.30772236704E+02  0.53173262552E+02  0.10566000000E+00 0.  1.
         22    1    1    0    0    0  0.44864970225E+02  0.17249153467E+02 -0.16767377066E+02  0.50907207567E+02  0.00000000000E+00 0. -1.
</event>
<event>
 5    1  0.6924836E-004  0.9118800E+02  0.7818608E-02  0.1130116E+00
         25   -1    0    0    0    0  0.00000000000E+00  0.00000000000E+00  0.99999998245E-14  0.12500000000E+03  0.12500000000E+03 0.  0.
        -13    1    3    3    0    0  0.29718326868E+02 -0.26865300585E+02 -0.17338814556E+02  0.43652823295E+02  0.10566000000E+00 0.  1.
         23    2    1    0    0    0  0.39250114080E+01 -0.98439256340E+01  0.26023971809E+02  0.96900966295E+02  0.92737487425E+02 0.  0.
         13    1    3    3    0    0 -0.25793315460E+02  0.17021374951E+02  0.43362786365E+02  0.53248143000E+02  0.10566000000E+00 0. -1.
         22    1    1    0    0    0 -0.39250114080E+01  0.98439256340E+01 -0.26023971809E+02  0.28099033705E+02  0.00000000000E+00 0. -1.
</event>
<event>
 5    1  0.6924836E-004  0.9118800E+02  0.7818608E-02  0.1130116E+00
         25   -1    0    0    0    0  0.00000000000E+00  0.00000000000E+00  0.99999998245E-14  0.12500000000E+03  0.12500000000E+03 0.  0.
        -13    1    3    3    0    0 -0.12408458367E+02 -0.32911703592E+02  0.11571735570E+02  0.37027912451E+02  0.10566000000E+00 0.  1.
         23    2    1    0    0    0  0.27109116049E+02  0.98339278784E+01  0.63189516264E+01  0.95478152834E+02  0.90799439472E+02 0.  0.
         13    1    3    3    0    0  0.39517574416E+02  0.42745631470E+02 -0.52527839438E+01  0.58450240382E+02  0.10566000000E+00 0. -1.
         22    1    1    0    0    0 -0.27109116049E+02 -0.98339278784E+01 -0.63189516264E+01  0.29521847166E+02  0.00000000000E+00 0.  1.
</event>
<event>
 5    1  0.6924836E-004  0.9118800E+02  0.7818608E-02  0.1130116E+00
         25   -1    0    0    0    0  0.00000000000E+00  0.00000000000E+00  0.99999998245E-14  0.12500000000E+03  0.12500000000E+03 0.  0.
        -13    1    3    3    0    0  0.29077893933E+02 -0.17336848629E+02 -0.52242076492E+02  0.62252196396E+02  0.10566000000E+00 0.  1.
         23    2    1    0    0    0  0.16280293965E+02 -0.58658939682E+01 -0.22336546350E+02  0.96744416720E+02  0.92526235091E+02 0.  0.
         13    1    3    3    0    0 -0.12797599969E+02  0.11470954661E+02  0.29905530142E+02  0.34492220324E+02  0.10566000000E+00 0. -1.
         22    1    1    0    0    0 -0.16280293965E+02  0.58658939682E+01  0.22336546350E+02  0.28255583280E+02  0.00000000000E+00 0.  1.
</event>
<event>
 5    1  0.6924836E-004  0.9118800E+02  0.7818608E-02  0.1130116E+00
         25   -1    0    0    0    0  0.00000000000E+00  0.00000000000E+00  0.99999998245E-14  0.12500000000E+03  0.12500000000E+03 0.  0.
        -13    1    3    3    0    0 -0.15221294720E+01  0.50147439420E+02  0.35351136946E+02  0.61374234056E+02  0.10566000000E+00 0.  1.
         23    2    1    0    0    0 -0.33606679535E+01  0.17018177222E+02  0.21613702541E+02  0.97286021892E+02  0.93255056018E+02 0.  0.
         13    1    3    3    0    0 -0.18385384814E+01 -0.33129262198E+02 -0.13737434405E+02  0.35911787836E+02  0.10566000000E+00 0. -1.
         22    1    1    0    0    0  0.33606679535E+01 -0.17018177222E+02 -0.21613702541E+02  0.27713978108E+02  0.00000000000E+00 0.  1.
</event>
<event>
 5    1  0.6924836E-004  0.9118800E+02  0.7818608E-02  0.1130116E+00
         25   -1    0    0    0    0  0.00000000000E+00  0.00000000000E+00  0.99999998245E-14  0.12500000000E+03  0.12500000000E+03 0.  0.
        -13    1    3    3    0    0  0.13341134962E+02  0.30947907778E+02  0.82091239764E+01  0.34686593353E+02  0.10566000000E+00 0. -1.
         23    2    1    0    0    0 -0.28045683969E+02 -0.75383794446E+01 -0.10346359611E+02  0.94170878846E+02  0.88981569504E+02 0.  0.
         13    1    3    3    0    0 -0.41386818931E+02 -0.38486287223E+02 -0.18555483587E+02  0.59484285493E+02  0.10566000000E+00 0.  1.
         22    1    1    0    0    0  0.28045683969E+02  0.75383794446E+01  0.10346359611E+02  0.30829121154E+02  0.00000000000E+00 0.  1.
</event>
<event>
 5    1  0.6924836E-004  0.9118800E+02  0.7818608E-02  0.1130116E+00
         25   -1    0    0    0    0  0.00000000000E+00  0.00000000000E+00  0.99999998245E-14  0.12500000000E+03  0.12500000000E+03 0.  0.
        -13    1    3    3    0    0 -0.10263966702E+02 -0.29068314701E+02  0.52385121903E+02  0.60782629861E+02  0.10566000000E+00 0.  1.
         23    2    1    0    0    0 -0.94195387327E+01 -0.20650438580E+02  0.18469818816E+02  0.95737352639E+02  0.91155571194E+02 0.  0.
         13    1    3    3    0    0  0.84442796970E+00  0.84178761216E+01 -0.33915303086E+02  0.34954722778E+02  0.10566000000E+00 0. -1.
         22    1    1    0    0    0  0.94195387327E+01  0.20650438580E+02 -0.18469818816E+02  0.29262647361E+02  0.00000000000E+00 0.  1.
</event>
<event>
 5    1  0.6924836E-004  0.9118800E+02  0.7818608E-02  0.1130116E+00
         25   -1    0    0    0    0  0.00000000000E+00  0.00000000000E+00  0.99999998245E-14  0.12500000000E+03  0.12500000000E+03 0.  0.
        -13    1    3    3    0    0  0.27423343764E+02 -0.59773709673E+01  0.41082560900E+02  0.49754966797E+02  0.10566000000E+00 0. -1.
         23    2    1    0    0    0  0.22369118040E+02  0.18636421077E+02  0.25277152092E+01  0.95775301941E+02  0.91207595546E+02 0.  0.
         13    1    3    3    0    0 -0.50542257240E+01  0.24613792045E+02 -0.38554845690E+02  0.46020335144E+02  0.10566000000E+00 0.  1.
         22    1    1    0    0    0 -0.22369118040E+02 -0.18636421077E+02 -0.25277152092E+01  0.29224698059E+02  0.00000000000E+00 0.  1.
</event>
<event>
 5    1  0.6924836E-004  0.9118800E+02  0.7818608E-02  0.1130116E+00
         25   -1    0    0    0    0  0.00000000000E+00  0.00000000000E+00  0.99999998245E-14  0.12500000000E+03  0.12500000000E+03 0.  0.
        -13    1    3    3    0    0  0.26751069665E+01  0.43444986820E+02  0.14338136392E+02  0.45828117966E+02  0.10566000000E+00 0.  1.
         23    2    1    0    0    0 -0.28148149406E+02  0.58192843630E+01  0.11050751425E+01  0.96235376301E+02  0.91835962864E+02 0.  0.
         13    1    3    3    0    0 -0.30823256372E+02 -0.37625702457E+02 -0.13233061250E+02  0.50407258335E+02  0.10566000000E+00 0. -1.
         22    1    1    0    0    0  0.28148149406E+02 -0.58192843630E+01 -0.11050751425E+01  0.28764623699E+02  0.00000000000E+00 0. -1.
</event>
<event>
 5    1  0.6924836E-004  0.9118800E+02  0.7818608E-02  0.1130116E+00
         25   -1    0    0    0    0  0.00000000000E+00  0.00000000000E+00  0.99999998245E-14  0.12500000000E+03  0.12500000000E+03 0.  0.
        -13    1    3    3    0    0 -0.23646741850E+02 -0.12203659715E+02  0.24529616205E+02  0.36191310362E+02  0.10566000000E+00 0. -1.
         23    2    1    0    0    0  0.29496892102E+02 -0.50903789337E+01  0.21058183554E+00  0.95066357621E+02  0.90230756426E+02 0.  0.
         13    1    3    3    0    0  0.53143633952E+02  0.71132807814E+01 -0.24319034369E+02  0.58875047259E+02  0.10566000000E+00 0.  1.
         22    1    1    0    0    0 -0.29496892102E+02  0.50903789337E+01 -0.21058183554E+00  0.29933642379E+02  0.00000000000E+00 0.  1.
</event>
<event>
 5    1  0.6924836E-004  0.9118800E+02  0.7818608E-02  0.1130116E+00
         25   -1    0    0    0    0  0.00000000000E+00  0.00000000000E+00  0.99999998245E-14  0.12500000000E+03  0.12500000000E+03 0.  0.
        -13    1    3    3    0    0  0.33273683828E+02  0.36525263870E+01 -0.34973767025E+02  0.48411305792E+02  0.10566000000E+00 0.  1.
         23    2    1    0    0    0 -0.70339613901E+01 -0.14559916939E+02 -0.27252356567E+02  0.93311536286E+02  0.87766075858E+02 0.  0.
         13    1    3    3    0    0 -0.40307645218E+02 -0.18212443326E+02  0.77214104586E+01  0.44900230494E+02  0.10566000000E+00 0. -1.
         22    1    1    0    0    0  0.70339613901E+01  0.14559916939E+02  0.27252356567E+02  0.31688463714E+02  0.00000000000E+00 0.  1.
</event>
<event>
 5    1  0.6924836E-004  0.9118800E+02  0.7818608E-02  0.1130116E+00
         25   -1    0    0    0    0  0.00000000000E+00  0.00000000000E+00  0.99999998245E-14  0.12500000000E+03  0.12500000000E+03 0.  0.
        -13    1    3    3    0    0  0.81963814523E-01  0.15339115296E+02  0.31462072772E+02  0.35002405107E+02  0.10566000000E+00 0.  1.
         23    2    1    0    0    0 -0.36831007239E+01  0.39477656671E+01 -0.28418525739E+02  0.96073149327E+02  0.91614885972E+02 0.  0.
         13    1    3    3    0    0 -0.37650645385E+01 -0.11391349629E+02 -0.59880598511E+02  0.61070744219E+02  0.10566000000E+00 0. -1.
         22    1    1    0    0    0  0.36831007239E+01 -0.39477656671E+01  0.28418525739E+02  0.28926850673E+02  0.00000000000E+00 0. -1.
</event>
<event>
 5    1  0.6924836E-004  0.9118800E+02  0.7818608E-02  0.1130116E+00
         25   -1    0    0    0    0  0.00000000000E+00  0.00000000000E+00  0.99999998245E-14  0.12500000000E+03  0.12500000000E+03 0.  0.
        -13    1    3    3    0    0  0.10748894826E+02  0.41960336465E+02  0.14175599453E+02  0.45575951555E+02  0.10566000000E+00 0. -1.
         23    2    1    0    0    0 -0.10025376272E+02  0.15261693431E+02 -0.22864184804E+02  0.95739131890E+02  0.91158011017E+02 0.  0.
         13    1    3    3    0    0 -0.20774271098E+02 -0.26698643034E+02 -0.37039784257E+02  0.50163180335E+02  0.10566000000E+00 0.  1.
         22    1    1    0    0    0  0.10025376272E+02 -0.15261693431E+02  0.22864184804E+02  0.29260868110E+02  0.00000000000E+00 0.  1.
</event>
<event>
 5    1  0.6924836E-004  0.9118800E+02  0.7818608E-02  0.1130116E+00
         25   -1    0    0    0    0  0.00000000000E+00  0.00000000000E+00  0.99999998245E-14  0.12500000000E+03  0.12500000000E+03 0.  0.
        -13    1    3    3    0    0  0.66694525701E+01 -0.36628118920E+02  0.41246323226E+02  0.55564116450E+02  0.10566000000E+00 0.  1.
         23    2    1    0    0    0 -0.55951551615E+01 -0.28583648067E+02  0.39924860842E+01  0.95601519712E+02  0.90969115242E+02 0.  0.
         13    1    3    3    0    0 -0.12264607732E+02  0.80444708522E+01 -0.37253837142E+02  0.40037403262E+02  0.10566000000E+00 0. -1.
         22    1    1    0    0    0  0.55951551615E+01  0.28583648067E+02 -0.39924860842E+01  0.29398480288E+02  0.00000000000E+00 0.  1.
</event>
<event>
 5    1  0.6924836E-004  0.9118800E+02  0.7818608E-02  0.1130116E+00
         25   -1    0    0    0    0  0.00000000000E+00  0.00000000000E+00  0.99999998245E-14  0.12500000000E+03  0.12500000000E+03 0.  0.
        -13    1    3    3    0    0  0.46942273664E+02  0.28919594066E+02  0.19650026237E+02  0.58532509538E+02  0.10566000000E+00 0.  1.
         23    2    1    0    0    0  0.29070852009E+02  0.45905953046E+01 -0.17200429197E+01  0.95518708485E+02  0.90855253679E+02 0.  0.
         13    1    3    3    0    0 -0.17871421655E+02 -0.24328998761E+02 -0.21370069157E+02  0.36986198946E+02  0.10566000000E+00 0. -1.
         22    1    1    0    0    0 -0.29070852009E+02 -0.45905953046E+01  0.17200429197E+01  0.29481291515E+02  0.00000000000E+00 0.  1.
</event>
<event>
 5    1  0.6924836E-004  0.9118800E+02  0.7818608E-02  0.1130116E+00
         25   -1    0    0    0    0  0.00000000000E+00  0.00000000000E+00  0.99999998245E-14  0.12500000000E+03  0.12500000000E+03 0.  0.
        -13    1    3    3    0    0 -0.30370870351E+02 -0.32992166901E+02 -0.35898657780E+02  0.57442124239E+02  0.10566000000E+00 0.  1.
         23    2    1    0    0    0 -0.18053969545E+02 -0.24102652741E+02 -0.17291867798E+01  0.94835886016E+02  0.89910908705E+02 0.  0.
         13    1    3    3    0    0  0.12316900806E+02  0.88895141592E+01  0.34169471000E+02  0.37393761778E+02  0.10566000000E+00 0. -1.
         22    1    1    0    0    0  0.18053969545E+02  0.24102652741E+02  0.17291867798E+01  0.30164113984E+02  0.00000000000E+00 0. -1.
</event>
<event>
 5    1  0.6924836E-004  0.9118800E+02  0.7818608E-02  0.1130116E+00
         25   -1    0    0    0    0  0.00000000000E+00  0.00000000000E+00  0.99999998245E-14  0.12500000000E+03  0.12500000000E+03 0.  0.
        -13    1    3    3    0    0 -0.32907247429E+02  0.62868390871E+01 -0.11963712292E+02  0.35574609695E+02  0.10566000000E+00 0. -1.
         23    2    1    0    0    0  0.25316761450E+02 -0.51217531809E+01 -0.15263477105E+02  0.94997591775E+02  0.90135442218E+02 0.  0.
         13    1    3    3    0    0  0.58224008879E+02 -0.11408592268E+02 -0.32997648128E+01  0.59422982081E+02  0.10566000000E+00 0.  1.
         22    1    1    0    0    0 -0.25316761450E+02  0.51217531809E+01  0.15263477105E+02  0.30002408225E+02  0.00000000000E+00 0.  1.
</event>
<event>
 5    1  0.6924836E-004  0.9118800E+02  0.7818608E-02  0.1130116E+00
         25   -1    0    0    0    0  0.00000000000E+00  0.00000000000E+00  0.99999998245E-14  0.12500000000E+03  0.12500000000E+03 0.  0.
        -13    1    3    3    0    0 -0.24709364571E+02  0.95282391345E+01 -0.24073588166E+02  0.35789507537E+02  0.10566000000E+00 0. -1.
         23    2    1    0    0    0  0.29193764617E+02  0.36461314844E+01  0.10727648792E+01  0.95559874460E+02  0.90911872795E+02 0.  0.
         13    1    3    3    0    0  0.53903129188E+02 -0.58821076502E+01  0.25146353045E+02  0.59770366924E+02  0.10566000000E+00 0.  1.
         22    1    1    0    0    0 -0.29193764617E+02 -0.36461314844E+01 -0.10727648792E+01  0.29440125540E+02  0.00000000000E+00 0.  1.
</event>
<event>
 5    1  0.6924836E-004  0.9118800E+02  0.7818608E-02  0.1130116E+00
         25   -1    0    0    0    0  0.00000000000E+00  0.00000000000E+00  0.99999998245E-14  0.12500000000E+03  0.12500000000E+03 0.  0.
        -13    1    3    3    0    0 -0.27652952298E+02 -0.23131705524E+02  0.12518801301E+02  0.38164029154E+02  0.10566000000E+00 0. -1.
         23    2    1    0    0    0 -0.93553329791E+01  0.24352761032E+02 -0.13834339362E+02  0.95470892824E+02  0.90789444354E+02 0.  0.
         13    1    3    3    0    0  0.18297619319E+02  0.47484466556E+02 -0.26353140663E+02  0.57306863670E+02  0.10566000000E+00 0.  1.
         22    1    1    0    0    0  0.93553329791E+01 -0.24352761032E+02  0.13834339362E+02  0.29529107176E+02  0.00000000000E+00 0.  1.
</event>
<event>
 5    1  0.6924836E-004  0.9118800E+02  0.7818608E-02  0.1130116E+00
         25   -1    0    0    0    0  0.00000000000E+00  0.00000000000E+00  0.99999998245E-14  0.12500000000E+03  0.12500000000E+03 0.  0.
        -13    1    3    3    0    0 -0.23699314118E+02  0.49974780842E+02  0.24914723607E+02  0.60662103708E+02  0.10566000000E+00 0. -1.
         23    2    1    0    0    0 -0.14591452075E+02  0.15431854228E+02  0.18241085351E+02  0.97003753941E+02  0.92875930603E+02 0.  0.
         13    1    3    3    0    0  0.91078620430E+01 -0.34542926614E+02 -0.66736382558E+01  0.36341650233E+02  0.10566000000E+00 0.  1.
         22    1    1    0    0    0  0.14591452075E+02 -0.15431854228E+02 -0.18241085351E+02  0.27996246059E+02  0.00000000000E+00 0. -1.
</event>
<event>
 5    1  0.6924836E-004  0.9118800E+02  0.7818608E-02  0.1130116E+00
         25   -1    0    0    0    0  0.00000000000E+00  0.00000000000E+00  0.99999998245E-14  0.12500000000E+03  0.12500000000E+03 0.  0.
        -13    1    3    3    0    0 -0.26457803407E+02 -0.40738554381E+02 -0.28086325508E+02  0.56111478494E+02  0.10566000000E+00 0. -1.
         23    2    1    0    0    0 -0.20672643522E+02 -0.20203550517E+02  0.51824776275E+01  0.95633357051E+02  0.91012852185E+02 0.  0.
         13    1    3    3    0    0  0.57851598850E+01  0.20535003864E+02  0.33268803136E+02  0.39521878557E+02  0.10566000000E+00 0.  1.
         22    1    1    0    0    0  0.20672643522E+02  0.20203550517E+02 -0.51824776275E+01  0.29366642949E+02  0.00000000000E+00 0. -1.
</event>
<event>
 5    1  0.6924836E-004  0.9118800E+02  0.7818608E-02  0.1130116E+00
         25   -1    0    0    0    0  0.00000000000E+00  0.00000000000E+00  0.99999998245E-14  0.12500000000E+03  0.12500000000E+03 0.  0.
        -13    1    3    3    0    0 -0.57131358516E+02 -0.18038761483E+02  0.23240632053E+01  0.59956663313E+02  0.10566000000E+00 0.  1.
         23    2    1    0    0    0 -0.29657067287E+02 -0.52898136756E+01 -0.10842538563E+02  0.92983060558E+02  0.87296993874E+02 0.  0.
         13    1    3    3    0    0  0.27474291230E+02  0.12748947808E+02 -0.13166601769E+02  0.33026397245E+02  0.10566000000E+00 0. -1.
         22    1    1    0    0    0  0.29657067287E+02  0.52898136756E+01  0.10842538563E+02  0.32016939442E+02  0.00000000000E+00 0.  1.
</event>
<event>
 5    1  0.6924836E-004  0.9118800E+02  0.7818608E-02  0.1130116E+00
         25   -1    0    0    0    0  0.00000000000E+00  0.00000000000E+00  0.99999998245E-14  0.12500000000E+03  0.12500000000E+03 0.  0.
        -13    1    3    3    0    0  0.26690792026E+02 -0.37698909547E+02 -0.44351151266E+01  0.46403529717E+02  0.10566000000E+00 0.  1.
         23    2    1    0    0    0  0.26660089660E+02  0.94013250312E+01  0.89134457461E+01  0.95358900019E+02  0.90635120150E+02 0.  0.
         13    1    3    3    0    0 -0.30702365384E-01  0.47100234578E+02  0.13348560873E+02  0.48955370302E+02  0.10566000000E+00 0. -1.
         22    1    1    0    0    0 -0.26660089660E+02 -0.94013250312E+01 -0.89134457461E+01  0.29641099981E+02  0.00000000000E+00 0. -1.
</event>
<event>
 5    1  0.6924836E-004  0.9118800E+02  0.7818608E-02  0.1130116E+00
         25   -1    0    0    0    0  0.00000000000E+00  0.00000000000E+00  0.99999998245E-14  0.12500000000E+03  0.12500000000E+03 0.  0.
        -13    1    3    3    0    0 -0.54412492539E+02 -0.93060070999E+01 -0.59479448388E+01  0.55522160659E+02  0.10566000000E+00 0.  1.
         23    2    1    0    0    0 -0.24581275754E+02 -0.25200263042E+02 -0.28161534538E+00  0.89795288920E+02  0.82606429713E+02 0.  0.
         13    1    3    3    0    0  0.29831216785E+02 -0.15894255942E+02  0.56663294934E+01  0.34273128261E+02  0.10566000000E+00 0. -1.
         22    1    1    0    0    0  0.24581275754E+02  0.25200263042E+02  0.28161534538E+00  0.35204711080E+02  0.00000000000E+00 0.  1.
</event>
<event>
 5    1  0.6924836E-004  0.9118800E+02  0.7818608E-02  0.1130116E+00
         25   -1    0    0    0    0  0.00000000000E+00  0.00000000000E+00  0.99999998245E-14  0.12500000000E+03  0.12500000000E+03 0.  0.
        -13    1    3    3    0    0  0.11902564437E+02 -0.38880930052E+02  0.47399872472E+01  0.40937469451E+02  0.10566000000E+00 0.  1.
         23    2    1    0    0    0 -0.33451606538E+00  0.40675082031E+01 -0.28248418785E+02  0.96458281625E+02  0.92138864797E+02 0.  0.
         13    1    3    3    0    0 -0.12237080503E+02  0.42948438256E+02 -0.32988406032E+02  0.55520812173E+02  0.10566000000E+00 0. -1.
         22    1    1    0    0    0  0.33451606538E+00 -0.40675082031E+01  0.28248418785E+02  0.28541718375E+02  0.00000000000E+00 0. -1.
</event>
<event>
 5    1  0.6924836E-004  0.9118800E+02  0.7818608E-02  0.1130116E+00
         25   -1    0    0    0    0  0.00000000000E+00  0.00000000000E+00  0.99999998245E-14  0.12500000000E+03  0.12500000000E+03 0.  0.
        -13    1    3    3    0    0  0.20004244294E+02 -0.37368441295E+02  0.29645116300E+02  0.51724406996E+02  0.10566000000E+00 0. -1.
         23    2    1    0    0    0  0.10312964454E+01 -0.28219817860E+02 -0.86807872372E+01  0.95457187685E+02  0.90770572992E+02 0.  0.
         13    1    3    3    0    0 -0.18972947849E+02  0.91486234355E+01 -0.38325903537E+02  0.43732780689E+02  0.10566000000E+00 0.  1.
         22    1    1    0    0    0 -0.10312964454E+01  0.28219817860E+02  0.86807872372E+01  0.29542812315E+02  0.00000000000E+00 0. -1.
</event>
<event>
 5    1  0.6924836E-004  0.9118800E+02  0.7818608E-02  0.1130116E+00
         25   -1    0    0    0    0  0.00000000000E+00  0.00000000000E+00  0.99999998245E-14  0.12500000000E+03  0.12500000000E+03 0.  0.
        -13    1    3    3    0    0  0.26545413864E+02 -0.69917588689E+01  0.31835023154E+02  0.42035979262E+02  0.10566000000E+00 0. -1.
         23    2    1    0    0    0  0.19672137459E+02  0.11056301117E+02 -0.18417606000E+02  0.95871955140E+02  0.91339962694E+02 0.  0.
         13    1    3    3    0    0 -0.68732764052E+01  0.18048059986E+02 -0.50252629154E+02  0.53835975878E+02  0.10566000000E+00 0.  1.
         22    1    1    0    0    0 -0.19672137459E+02 -0.11056301117E+02  0.18417606000E+02  0.29128044860E+02  0.00000000000E+00 0.  1.
</event>
<event>
 5    1  0.6924836E-004  0.9118800E+02  0.7818608E-02  0.1130116E+00
         25   -1    0    0    0    0  0.00000000000E+00  0.00000000000E+00  0.99999998245E-14  0.12500000000E+03  0.12500000000E+03 0.  0.
        -13    1    3    3    0    0 -0.31129088901E+02  0.68398663968E+01  0.49510946020E+02  0.58882500694E+02  0.10566000000E+00 0.  1.
         23    2    1    0    0    0 -0.16625671787E+01 -0.15008691616E+01  0.29388444288E+02  0.95526327077E+02  0.90865734847E+02 0.  0.
         13    1    3    3    0    0  0.29466521722E+02 -0.83407355584E+01 -0.20122501732E+02  0.36643826384E+02  0.10566000000E+00 0. -1.
         22    1    1    0    0    0  0.16625671787E+01  0.15008691616E+01 -0.29388444288E+02  0.29473672923E+02  0.00000000000E+00 0.  1.
</event>
<event>
 5    1  0.6924836E-004  0.9118800E+02  0.7818608E-02  0.1130116E+00
         25   -1    0    0    0    0  0.00000000000E+00  0.00000000000E+00  0.99999998245E-14  0.12500000000E+03  0.12500000000E+03 0.  0.
        -13    1    3    3    0    0  0.54365281270E+02  0.83376615463E+01  0.26498564942E+02  0.61051498881E+02  0.10566000000E+00 0.  1.
         23    2    1    0    0    0  0.31560471597E+02 -0.24109427854E+01  0.79112453009E+01  0.92373878337E+02  0.86420307707E+02 0.  0.
         13    1    3    3    0    0 -0.22804809673E+02 -0.10748604332E+02 -0.18587319641E+02  0.31322379456E+02  0.10566000000E+00 0. -1.
         22    1    1    0    0    0 -0.31560471597E+02  0.24109427854E+01 -0.79112453009E+01  0.32626121663E+02  0.00000000000E+00 0.  1.
</event>
<event>
 5    1  0.6924836E-004  0.9118800E+02  0.7818608E-02  0.1130116E+00
         25   -1    0    0    0    0  0.00000000000E+00  0.00000000000E+00  0.99999998245E-14  0.12500000000E+03  0.12500000000E+03 0.  0.
        -13    1    3    3    0    0 -0.56188363095E+02 -0.17241782196E+02  0.18755927337E+02  0.61694466323E+02  0.10566000000E+00 0. -1.
         23    2    1    0    0    0 -0.25322744009E+02 -0.39021122613E+01  0.14423640382E+02  0.95597461910E+02  0.90963539276E+02 0.  0.
         13    1    3    3    0    0  0.30865619086E+02  0.13339669935E+02 -0.43322869551E+01  0.33902995588E+02  0.10566000000E+00 0.  1.
         22    1    1    0    0    0  0.25322744009E+02  0.39021122613E+01 -0.14423640382E+02  0.29402538090E+02  0.00000000000E+00 0. -1.
</event>
<event>
 5    1  0.6924836E-004  0.9118800E+02  0.7818608E-02  0.1130116E+00
         25   -1    0    0    0    0  0.00000000000E+00  0.00000000000E+00  0.99999998245E-14  0.12500000000E+03  0.12500000000E+03 0.  0.
        -13    1    3    3    0    0  0.32291494256E+01 -0.29046542193E+02 -0.25722277333E+02  0.38932964627E+02  0.10566000000E+00 0.  1.
         23    2    1    0    0    0  0.25203841791E+01 -0.12865784982E+02  0.27483650147E+02  0.94549519133E+02  0.89511897440E+02 0.  0.
         13    1    3    3    0    0 -0.70876524651E+00  0.16180757211E+02  0.53205927480E+02  0.55616554506E+02  0.10566000000E+00 0. -1.
         22    1    1    0    0    0 -0.25203841791E+01  0.12865784982E+02 -0.27483650147E+02  0.30450480867E+02  0.00000000000E+00 0. -1.
</event>
<event>
 5    1  0.6924836E-004  0.9118800E+02  0.7818608E-02  0.1130116E+00
         25   -1    0    0    0    0  0.00000000000E+00  0.00000000000E+00  0.99999998245E-14  0.12500000000E+03  0.12500000000E+03 0.  0.
        -13    1    3    3    0    0 -0.33286467047E+02 -0.38767252079E+02 -0.26107867890E+02  0.57380490169E+02  0.10566000000E+00 0.  1.
         23    2    1    0    0    0  0.10662932483E+01 -0.25495251850E+02 -0.11736208518E+02  0.96912931115E+02  0.92753613292E+02 0.  0.
         13    1    3    3    0    0  0.34352760295E+02  0.13272000230E+02  0.14371659372E+02  0.39532440946E+02  0.10566000000E+00 0. -1.
         22    1    1    0    0    0 -0.10662932483E+01  0.25495251850E+02  0.11736208518E+02  0.28087068885E+02  0.00000000000E+00 0.  1.
</event>
<event>
 5    1  0.6924836E-004  0.9118800E+02  0.7818608E-02  0.1130116E+00
         25   -1    0    0    0    0  0.00000000000E+00  0.00000000000E+00  0.99999998245E-14  0.12500000000E+03  0.12500000000E+03 0.  0.
        -13    1    3    3    0    0 -0.37533132458E+02 -0.41025689490E+02 -0.26754018448E+02  0.61706011841E+02  0.10566000000E+00 0. -1.
         23    2    1    0    0    0 -0.23001213477E+02 -0.15246248100E+02 -0.10458950792E+02  0.95489094317E+02  0.90814500931E+02 0.  0.
         13    1    3    3    0    0  0.14531918981E+02  0.25779441390E+02  0.16295067656E+02  0.33783082476E+02  0.10566000000E+00 0.  1.
         22    1    1    0    0    0  0.23001213477E+02  0.15246248100E+02  0.10458950792E+02  0.29510905683E+02  0.00000000000E+00 0. -1.
</event>
<event>
 5    1  0.6924836E-004  0.9118800E+02  0.7818608E-02  0.1130116E+00
         25   -1    0    0    0    0  0.00000000000E+00  0.00000000000E+00  0.99999998245E-14  0.12500000000E+03  0.12500000000E+03 0.  0.
        -13    1    3    3    0    0 -0.22797213117E+02 -0.29733918346E+02 -0.21533090521E+02  0.43214626893E+02  0.10566000000E+00 0. -1.
         23    2    1    0    0    0 -0.23741486423E+02  0.16951674630E+02  0.24801452459E+01  0.95722558671E+02  0.91135282233E+02 0.  0.
         13    1    3    3    0    0 -0.94427330639E+00  0.46685592975E+02  0.24013235767E+02  0.52507931778E+02  0.10566000000E+00 0.  1.
         22    1    1    0    0    0  0.23741486423E+02 -0.16951674630E+02 -0.24801452459E+01  0.29277441329E+02  0.00000000000E+00 0.  1.
</event>
<event>
 5    1  0.6924836E-004  0.9118800E+02  0.7818608E-02  0.1130116E+00
         25   -1    0    0    0    0  0.00000000000E+00  0.00000000000E+00  0.99999998245E-14  0.12500000000E+03  0.12500000000E+03 0.  0.
        -13    1    3    3    0    0  0.33112826287E+02 -0.21040220480E+02  0.11740770722E+02  0.40951275972E+02  0.10566000000E+00 0.  1.
         23    2    1    0    0    0  0.16025441948E+02  0.27452153546E+02  0.35405114074E+01  0.93016086153E+02  0.87344270208E+02 0.  0.
         13    1    3    3    0    0 -0.17087384339E+02  0.48492374026E+02 -0.82002593143E+01  0.52064810180E+02  0.10566000000E+00 0. -1.
         22    1    1    0    0    0 -0.16025441948E+02 -0.27452153546E+02 -0.35405114074E+01  0.31983913847E+02  0.00000000000E+00 0. -1.
</event>
<event>
 5    1  0.6924836E-004  0.9118800E+02  0.7818608E-02  0.1130116E+00
         25   -1    0    0    0    0  0.00000000000E+00  0.00000000000E+00  0.99999998245E-14  0.12500000000E+03  0.12500000000E+03 0.  0.
        -13    1    3    3    0    0  0.34742346972E+02 -0.32704475761E+02  0.13421367216E+02  0.49565690451E+02  0.10566000000E+00 0. -1.
         23    2    1    0    0    0  0.69257395193E+01  0.27405662643E+01  0.27292472547E+02  0.96709442758E+02  0.92478974310E+02 0.  0.
         13    1    3    3    0    0 -0.27816607453E+02  0.35445042025E+02  0.13871105331E+02  0.47143752306E+02  0.10566000000E+00 0.  1.
         22    1    1    0    0    0 -0.69257395193E+01 -0.27405662643E+01 -0.27292472547E+02  0.28290557242E+02  0.00000000000E+00 0.  1.
</event>
<event>
 5    1  0.6924836E-004  0.9118800E+02  0.7818608E-02  0.1130116E+00
         25   -1    0    0    0    0  0.00000000000E+00  0.00000000000E+00  0.99999998245E-14  0.12500000000E+03  0.12500000000E+03 0.  0.
        -13    1    3    3    0    0 -0.34281992610E+02  0.20005001543E+02 -0.45163279316E+01  0.39948260113E+02  0.10566000000E+00 0. -1.
         23    2    1    0    0    0  0.84947324539E+01 -0.10625391717E+02 -0.25105295559E+02  0.96445923343E+02  0.92122097435E+02 0.  0.
         13    1    3    3    0    0  0.42776725064E+02 -0.30630393260E+02 -0.20588967628E+02  0.56497663230E+02  0.10566000000E+00 0.  1.
         22    1    1    0    0    0 -0.84947324539E+01  0.10625391717E+02  0.25105295559E+02  0.28554076657E+02  0.00000000000E+00 0.  1.
</event>
<event>
 5    1  0.6924836E-004  0.9118800E+02  0.7818608E-02  0.1130116E+00
         25   -1    0    0    0    0  0.00000000000E+00  0.00000000000E+00  0.99999998245E-14  0.12500000000E+03  0.12500000000E+03 0.  0.
        -13    1    3    3    0    0 -0.18201450294E+02 -0.57061040876E+01  0.41406101680E+02  0.45588691986E+02  0.10566000000E+00 0.  1.
         23    2    1    0    0    0  0.23328893510E+02 -0.11165975452E+02  0.16495517555E+02  0.94323977122E+02  0.89196380423E+02 0.  0.
         13    1    3    3    0    0  0.41530343804E+02 -0.54598713646E+01 -0.24910584125E+02  0.48735285136E+02  0.10566000000E+00 0. -1.
         22    1    1    0    0    0 -0.23328893510E+02  0.11165975452E+02 -0.16495517555E+02  0.30676022878E+02  0.00000000000E+00 0.  1.
</event>
<event>
 5    1  0.6924836E-004  0.9118800E+02  0.7818608E-02  0.1130116E+00
         25   -1    0    0    0    0  0.00000000000E+00  0.00000000000E+00  0.99999998245E-14  0.12500000000E+03  0.12500000000E+03 0.  0.
        -13    1    3    3    0    0 -0.31829090790E+02  0.28116965759E+02  0.15157857593E+02  0.45093531630E+02  0.10566000000E+00 0.  1.
         23    2    1    0    0    0  0.16514116222E+02  0.12378450561E+02  0.20121672595E+02  0.96175986037E+02  0.91755089828E+02 0.  0.
         13    1    3    3    0    0  0.48343207013E+02 -0.15738515197E+02  0.49638150018E+01  0.51082454407E+02  0.10566000000E+00 0. -1.
         22    1    1    0    0    0 -0.16514116222E+02 -0.12378450561E+02 -0.20121672595E+02  0.28824013963E+02  0.00000000000E+00 0.  1.
</event>
<event>
 5    1  0.6924836E-004  0.9118800E+02  0.7818608E-02  0.1130116E+00
         25   -1    0    0    0    0  0.00000000000E+00  0.00000000000E+00  0.99999998245E-14  0.12500000000E+03  0.12500000000E+03 0.  0.
        -13    1    3    3    0    0 -0.47227328240E+02  0.22560612302E+02  0.29366868558E+02  0.60015213847E+02  0.10566000000E+00 0.  1.
         23    2    1    0    0    0 -0.21540674389E+02  0.79708709020E-01  0.20455112436E+02  0.95294468000E+02  0.90546214719E+02 0.  0.
         13    1    3    3    0    0  0.25686653851E+02 -0.22480903593E+02 -0.89117561216E+01  0.35279254153E+02  0.10566000000E+00 0. -1.
         22    1    1    0    0    0  0.21540674389E+02 -0.79708709020E-01 -0.20455112436E+02  0.29705532000E+02  0.00000000000E+00 0.  1.
</event>
<event>
 5    1  0.6924836E-004  0.9118800E+02  0.7818608E-02  0.1130116E+00
         25   -1    0    0    0    0  0.00000000000E+00  0.00000000000E+00  0.99999998245E-14  0.12500000000E+03  0.12500000000E+03 0.  0.
        -13    1    3    3    0    0 -0.54087092402E+02 -0.11293719323E+02  0.20700165216E+02  0.59003980075E+02  0.10566000000E+00 0.  1.
         23    2    1    0    0    0 -0.25799781439E+02  0.95525140293E+01  0.98113500437E+01  0.95791408177E+02  0.91229666471E+02 0.  0.
         13    1    3    3    0    0  0.28287310963E+02  0.20846233352E+02 -0.10888815173E+02  0.36787428103E+02  0.10566000000E+00 0. -1.
         22    1    1    0    0    0  0.25799781439E+02 -0.95525140293E+01 -0.98113500437E+01  0.29208591823E+02  0.00000000000E+00 0.  1.
</event>
<event>
 5    1  0.6924836E-004  0.9118800E+02  0.7818608E-02  0.1130116E+00
         25   -1    0    0    0    0  0.00000000000E+00  0.00000000000E+00  0.99999998245E-14  0.12500000000E+03  0.12500000000E+03 0.  0.
        -13    1    3    3    0    0  0.43508890516E+02 -0.80482232203E+01 -0.20721551409E+02  0.48858891799E+02  0.10566000000E+00 0. -1.
         23    2    1    0    0    0 -0.16283406880E+01  0.17975765093E+02 -0.15475763367E+02  0.10122440588E+03  0.98392588488E+02 0.  0.
         13    1    3    3    0    0 -0.45137231204E+02  0.26023988313E+02  0.52457880422E+01  0.52365514079E+02  0.10566000000E+00 0.  1.
         22    1    1    0    0    0  0.16283406880E+01 -0.17975765093E+02  0.15475763367E+02  0.23775594122E+02  0.00000000000E+00 0.  1.
</event>
<event>
 5    1  0.6924836E-004  0.9118800E+02  0.7818608E-02  0.1130116E+00
         25   -1    0    0    0    0  0.00000000000E+00  0.00000000000E+00  0.99999998245E-14  0.12500000000E+03  0.12500000000E+03 0.  0.
        -13    1    3    3    0    0 -0.29187404532E+02 -0.13926132522E+02 -0.11268918598E+02  0.34246772705E+02  0.10566000000E+00 0.  1.
         23    2    1    0    0    0  0.29726169782E+02 -0.50549162289E+01 -0.18692294268E+00  0.94846521126E+02  0.89925693111E+02 0.  0.
         13    1    3    3    0    0  0.58913574314E+02  0.88712162929E+01  0.11081995655E+02  0.60599748421E+02  0.10566000000E+00 0. -1.
         22    1    1    0    0    0 -0.29726169782E+02  0.50549162289E+01  0.18692294268E+00  0.30153478874E+02  0.00000000000E+00 0. -1.
</event>
<event>
 5    1  0.6924836E-004  0.9118800E+02  0.7818608E-02  0.1130116E+00
         25   -1    0    0    0    0  0.00000000000E+00  0.00000000000E+00  0.99999998245E-14  0.12500000000E+03  0.12500000000E+03 0.  0.
        -13    1    3    3    0    0  0.23413642912E+02 -0.26655460936E+02 -0.32821308470E+02  0.48331787944E+02  0.10566000000E+00 0.  1.
         23    2    1    0    0    0  0.77452107865E+01  0.14251747635E+02 -0.28314714689E+02  0.92368363990E+02  0.86412331281E+02 0.  0.
         13    1    3    3    0    0 -0.15668432126E+02  0.40907208571E+02  0.45065937808E+01  0.44036576046E+02  0.10566000000E+00 0. -1.
         22    1    1    0    0    0 -0.77452107865E+01 -0.14251747635E+02  0.28314714689E+02  0.32631636010E+02  0.00000000000E+00 0. -1.
</event>
<event>
 5    1  0.6924836E-004  0.9118800E+02  0.7818608E-02  0.1130116E+00
         25   -1    0    0    0    0  0.00000000000E+00  0.00000000000E+00  0.99999998245E-14  0.12500000000E+03  0.12500000000E+03 0.  0.
        -13    1    3    3    0    0  0.20947364284E+02 -0.38927707683E+02  0.30716906301E+02  0.53830270226E+02  0.10566000000E+00 0.  1.
         23    2    1    0    0    0  0.18974774548E+02 -0.20013576333E+02 -0.74155936390E+01  0.96441702855E+02  0.92116370498E+02 0.  0.
         13    1    3    3    0    0 -0.19725897355E+01  0.18914131350E+02 -0.38132499940E+02  0.42611432629E+02  0.10566000000E+00 0. -1.
         22    1    1    0    0    0 -0.18974774548E+02  0.20013576333E+02  0.74155936390E+01  0.28558297145E+02  0.00000000000E+00 0.  1.
</event>
<event>
 5    1  0.6924836E-004  0.9118800E+02  0.7818608E-02  0.1130116E+00
         25   -1    0    0    0    0  0.00000000000E+00  0.00000000000E+00  0.99999998245E-14  0.12500000000E+03  0.12500000000E+03 0.  0.
        -13    1    3    3    0    0  0.12913158637E+02 -0.17593227486E+02 -0.39837983385E+02  0.45424083960E+02  0.10566000000E+00 0.  1.
         23    2    1    0    0    0  0.26322321271E+02 -0.93486885742E+01  0.81290581618E+01  0.95908005195E+02  0.91389284376E+02 0.  0.
         13    1    3    3    0    0  0.13409162634E+02  0.82445389120E+01  0.47967041547E+02  0.50483921235E+02  0.10566000000E+00 0. -1.
         22    1    1    0    0    0 -0.26322321271E+02  0.93486885742E+01 -0.81290581618E+01  0.29091994805E+02  0.00000000000E+00 0.  1.
</event>
<event>
 5    1  0.6924836E-004  0.9118800E+02  0.7818608E-02  0.1130116E+00
         25   -1    0    0    0    0  0.00000000000E+00  0.00000000000E+00  0.99999998245E-14  0.12500000000E+03  0.12500000000E+03 0.  0.
        -13    1    3    3    0    0 -0.24074923184E+02 -0.13460109423E+02 -0.30386611104E+02  0.41038198918E+02  0.10566000000E+00 0.  1.
         23    2    1    0    0    0 -0.90501637220E+01  0.26039204399E+02  0.59797550631E+01  0.96791790206E+02  0.92590213044E+02 0.  0.
         13    1    3    3    0    0  0.15024759462E+02  0.39499313822E+02  0.36366366167E+02  0.55753591288E+02  0.10566000000E+00 0. -1.
         22    1    1    0    0    0  0.90501637220E+01 -0.26039204399E+02 -0.59797550631E+01  0.28208209794E+02  0.00000000000E+00 0. -1.
</event>
<event>
 5    1  0.6924836E-004  0.9118800E+02  0.7818608E-02  0.1130116E+00
         25   -1    0    0    0    0  0.00000000000E+00  0.00000000000E+00  0.99999998245E-14  0.12500000000E+03  0.12500000000E+03 0.  0.
        -13    1    3    3    0    0  0.38468315473E+02 -0.39007350653E+01 -0.22467112023E+01  0.38730942471E+02  0.10566000000E+00 0. -1.
         23    2    1    0    0    0 -0.79746321411E+01  0.28064829531E+02  0.43714075997E+01  0.95498498025E+02  0.90827443574E+02 0.  0.
         13    1    3    3    0    0 -0.46442947614E+02  0.31965564596E+02  0.66181188020E+01  0.56767555554E+02  0.10566000000E+00 0.  1.
         22    1    1    0    0    0  0.79746321411E+01 -0.28064829531E+02 -0.43714075997E+01  0.29501501975E+02  0.00000000000E+00 0.  1.
</event>
<event>
 5    1  0.6924836E-004  0.9118800E+02  0.7818608E-02  0.1130116E+00
         25   -1    0    0    0    0  0.00000000000E+00  0.00000000000E+00  0.99999998245E-14  0.12500000000E+03  0.12500000000E+03 0.  0.
        -13    1    3    3    0    0 -0.17351271520E+02  0.19582378207E+02 -0.23678025101E+02  0.35287337620E+02  0.10566000000E+00 0.  1.
         23    2    1    0    0    0 -0.11816363077E+02 -0.24873549058E+02  0.14257253046E+02  0.93990499141E+02  0.88727812919E+02 0.  0.
         13    1    3    3    0    0  0.55349084435E+01 -0.44455927265E+02  0.37935278147E+02  0.58703161521E+02  0.10566000000E+00 0. -1.
         22    1    1    0    0    0  0.11816363077E+02  0.24873549058E+02 -0.14257253046E+02  0.31009500859E+02  0.00000000000E+00 0. -1.
</event>
<event>
 5    1  0.6924836E-004  0.9118800E+02  0.7818608E-02  0.1130116E+00
         25   -1    0    0    0    0  0.00000000000E+00  0.00000000000E+00  0.99999998245E-14  0.12500000000E+03  0.12500000000E+03 0.  0.
        -13    1    3    3    0    0 -0.44499396678E+02 -0.26085536930E+01 -0.40624318776E+01  0.44760645370E+02  0.10566000000E+00 0. -1.
         23    2    1    0    0    0 -0.57809565949E+01 -0.18974278452E+02  0.22903027442E+02  0.94701627636E+02  0.89724059811E+02 0.  0.
         13    1    3    3    0    0  0.38718440083E+02 -0.16365724759E+02  0.26965459319E+02  0.49940982266E+02  0.10566000000E+00 0.  1.
         22    1    1    0    0    0  0.57809565949E+01  0.18974278452E+02 -0.22903027442E+02  0.30298372364E+02  0.00000000000E+00 0.  1.
</event>
<event>
 5    1  0.6924836E-004  0.9118800E+02  0.7818608E-02  0.1130116E+00
         25   -1    0    0    0    0  0.00000000000E+00  0.00000000000E+00  0.99999998245E-14  0.12500000000E+03  0.12500000000E+03 0.  0.
        -13    1    3    3    0    0 -0.27915871369E+02  0.30201875425E+02  0.11246565406E+02  0.42637372702E+02  0.10566000000E+00 0. -1.
         23    2    1    0    0    0 -0.48154736909E+01 -0.14991031290E+02  0.25209162187E+02  0.95277589866E+02  0.90522911280E+02 0.  0.
         13    1    3    3    0    0  0.23100397678E+02 -0.45192906714E+02  0.13962596781E+02  0.52640217164E+02  0.10566000000E+00 0.  1.
         22    1    1    0    0    0  0.48154736909E+01  0.14991031290E+02 -0.25209162187E+02  0.29722410134E+02  0.00000000000E+00 0.  1.
</event>
<event>
 5    1  0.6924836E-004  0.9118800E+02  0.7818608E-02  0.1130116E+00
         25   -1    0    0    0    0  0.00000000000E+00  0.00000000000E+00  0.99999998245E-14  0.12500000000E+03  0.12500000000E+03 0.  0.
        -13    1    3    3    0    0  0.41170695551E+02 -0.31638012516E+02  0.22929294793E+01  0.51973634641E+02  0.10566000000E+00 0. -1.
         23    2    1    0    0    0 -0.18371005104E+01 -0.28781579068E+02 -0.51193649431E+01  0.95709009417E+02  0.91116696352E+02 0.  0.
         13    1    3    3    0    0 -0.43007796062E+02  0.28564334479E+01 -0.74122944223E+01  0.43735374776E+02  0.10566000000E+00 0.  1.
         22    1    1    0    0    0  0.18371005104E+01  0.28781579068E+02  0.51193649431E+01  0.29290990583E+02  0.00000000000E+00 0. -1.
</event>
<event>
 5    1  0.6924836E-004  0.9118800E+02  0.7818608E-02  0.1130116E+00
         25   -1    0    0    0    0  0.00000000000E+00  0.00000000000E+00  0.99999998245E-14  0.12500000000E+03  0.12500000000E+03 0.  0.
        -13    1    3    3    0    0  0.39469952943E+02 -0.35635044760E+02 -0.18177905094E+02  0.56197695665E+02  0.10566000000E+00 0. -1.
         23    2    1    0    0    0  0.68468336509E+01 -0.29879939009E+02  0.72225887674E+00  0.94337130856E+02  0.89214812190E+02 0.  0.
         13    1    3    3    0    0 -0.32623119292E+02  0.57551057507E+01  0.18900163971E+02  0.38139435191E+02  0.10566000000E+00 0.  1.
         22    1    1    0    0    0 -0.68468336509E+01  0.29879939009E+02 -0.72225887674E+00  0.30662869144E+02  0.00000000000E+00 0. -1.
</event>
<event>
 5    1  0.6924836E-004  0.9118800E+02  0.7818608E-02  0.1130116E+00
         25   -1    0    0    0    0  0.00000000000E+00  0.00000000000E+00  0.99999998245E-14  0.12500000000E+03  0.12500000000E+03 0.  0.
        -13    1    3    3    0    0  0.48222696505E+02 -0.28055662002E+02  0.23591052753E+02  0.60573076219E+02  0.10566000000E+00 0.  1.
         23    2    1    0    0    0  0.28103938438E+02 -0.48469058484E+01  0.63999729644E+01  0.95771871323E+02  0.91202893763E+02 0.  0.
         13    1    3    3    0    0 -0.20118758067E+02  0.23208756154E+02 -0.17191079789E+02  0.35198795103E+02  0.10566000000E+00 0. -1.
         22    1    1    0    0    0 -0.28103938438E+02  0.48469058484E+01 -0.63999729644E+01  0.29228128677E+02  0.00000000000E+00 0.  1.
</event>
<event>
 5    1  0.6924836E-004  0.9118800E+02  0.7818608E-02  0.1130116E+00
         25   -1    0    0    0    0  0.00000000000E+00  0.00000000000E+00  0.99999998245E-14  0.12500000000E+03  0.12500000000E+03 0.  0.
        -13    1    3    3    0    0  0.55616792449E+02  0.31487634152E+01  0.13909997740E+02  0.57416387160E+02  0.10566000000E+00 0. -1.
         23    2    1    0    0    0  0.20963711989E+02  0.83370190917E+01  0.22119593361E+02  0.93404754817E+02  0.87898741199E+02 0.  0.
         13    1    3    3    0    0 -0.34653080460E+02  0.51882556765E+01  0.82095956217E+01  0.35988367657E+02  0.10566000000E+00 0.  1.
         22    1    1    0    0    0 -0.20963711989E+02 -0.83370190917E+01 -0.22119593361E+02  0.31595245183E+02  0.00000000000E+00 0. -1.
</event>
<event>
 5    1  0.6924836E-004  0.9118800E+02  0.7818608E-02  0.1130116E+00
         25   -1    0    0    0    0  0.00000000000E+00  0.00000000000E+00  0.99999998245E-14  0.12500000000E+03  0.12500000000E+03 0.  0.
        -13    1    3    3    0    0  0.24795596487E+02 -0.54452923449E+02 -0.17133659055E+02  0.62237576382E+02  0.10566000000E+00 0.  1.
         23    2    1    0    0    0  0.95085417071E+01 -0.24188569480E+02 -0.11375020806E+02  0.96629410348E+02  0.92370734472E+02 0.  0.
         13    1    3    3    0    0 -0.15287054780E+02  0.30264353969E+02  0.57586382482E+01  0.34391833966E+02  0.10566000000E+00 0. -1.
         22    1    1    0    0    0 -0.95085417071E+01  0.24188569480E+02  0.11375020806E+02  0.28370589652E+02  0.00000000000E+00 0.  1.
</event>
<event>
 5    1  0.6924836E-004  0.9118800E+02  0.7818608E-02  0.1130116E+00
         25   -1    0    0    0    0  0.00000000000E+00  0.00000000000E+00  0.99999998245E-14  0.12500000000E+03  0.12500000000E+03 0.  0.
        -13    1    3    3    0    0  0.16218827080E+02 -0.48328578196E+02 -0.48879930804E+01  0.51211380207E+02  0.10566000000E+00 0. -1.
         23    2    1    0    0    0  0.20622032764E+02 -0.14090312727E+02  0.19361828250E+02  0.93398013650E+02  0.87889154123E+02 0.  0.
         13    1    3    3    0    0  0.44032056848E+01  0.34238265469E+02  0.24249821330E+02  0.42186633443E+02  0.10566000000E+00 0.  1.
         22    1    1    0    0    0 -0.20622032764E+02  0.14090312727E+02 -0.19361828250E+02  0.31601986350E+02  0.00000000000E+00 0. -1.
</event>
<event>
 5    1  0.6924836E-004  0.9118800E+02  0.7818608E-02  0.1130116E+00
         25   -1    0    0    0    0  0.00000000000E+00  0.00000000000E+00  0.99999998245E-14  0.12500000000E+03  0.12500000000E+03 0.  0.
        -13    1    3    3    0    0  0.18470779049E+01 -0.29360151518E+02 -0.42224206869E+02  0.51461879131E+02  0.10566000000E+00 0.  1.
         23    2    1    0    0    0  0.68627042411E+01  0.12170056696E+02 -0.24294422582E+02  0.96974548031E+02  0.92836614586E+02 0.  0.
         13    1    3    3    0    0  0.50156263362E+01  0.41530208214E+02  0.17929784287E+02  0.45512668900E+02  0.10566000000E+00 0. -1.
         22    1    1    0    0    0 -0.68627042411E+01 -0.12170056696E+02  0.24294422582E+02  0.28025451969E+02  0.00000000000E+00 0.  1.
</event>
<event>
 5    1  0.6924836E-004  0.9118800E+02  0.7818608E-02  0.1130116E+00
         25   -1    0    0    0    0  0.00000000000E+00  0.00000000000E+00  0.99999998245E-14  0.12500000000E+03  0.12500000000E+03 0.  0.
        -13    1    3    3    0    0  0.52806613052E+02  0.25353126287E+02 -0.15880305705E+02  0.60691965431E+02  0.10566000000E+00 0.  1.
         23    2    1    0    0    0  0.21762902199E+02  0.21551577541E+02 -0.41656387015E+01  0.94089695045E+02  0.88867450517E+02 0.  0.
         13    1    3    3    0    0 -0.31043710853E+02 -0.38015487463E+01  0.11714667003E+02  0.33397729615E+02  0.10566000000E+00 0. -1.
         22    1    1    0    0    0 -0.21762902199E+02 -0.21551577541E+02  0.41656387015E+01  0.30910304955E+02  0.00000000000E+00 0.  1.
</event>
<event>
 5    1  0.6924836E-004  0.9118800E+02  0.7818608E-02  0.1130116E+00
         25   -1    0    0    0    0  0.00000000000E+00  0.00000000000E+00  0.99999998245E-14  0.12500000000E+03  0.12500000000E+03 0.  0.
        -13    1    3    3    0    0 -0.34975911559E+02  0.26008146657E+02 -0.12080078789E+02  0.45229167022E+02  0.10566000000E+00 0.  1.
         23    2    1    0    0    0  0.86201082576E+01  0.24083590473E+02  0.13769854204E+02  0.95949449554E+02  0.91445953374E+02 0.  0.
         13    1    3    3    0    0  0.43596019816E+02 -0.19245561843E+01  0.25849932993E+02  0.50720282532E+02  0.10566000000E+00 0. -1.
         22    1    1    0    0    0 -0.86201082576E+01 -0.24083590473E+02 -0.13769854204E+02  0.29050550446E+02  0.00000000000E+00 0. -1.
</event>
<event>
 5    1  0.6924836E-004  0.9118800E+02  0.7818608E-02  0.1130116E+00
         25   -1    0    0    0    0  0.00000000000E+00  0.00000000000E+00  0.99999998245E-14  0.12500000000E+03  0.12500000000E+03 0.  0.
        -13    1    3    3    0    0  0.26393937737E+02  0.66584350572E+01 -0.55374740247E+02  0.61703709192E+02  0.10566000000E+00 0.  1.
         23    2    1    0    0    0  0.14345926654E+02 -0.36496754032E+01 -0.26461177874E+02  0.94679715097E+02  0.89693526937E+02 0.  0.
         13    1    3    3    0    0 -0.12048011083E+02 -0.10308110460E+02  0.28913562373E+02  0.32976005905E+02  0.10566000000E+00 0. -1.
         22    1    1    0    0    0 -0.14345926654E+02  0.36496754032E+01  0.26461177874E+02  0.30320284903E+02  0.00000000000E+00 0.  1.
</event>
<event>
 5    1  0.6924836E-004  0.9118800E+02  0.7818608E-02  0.1130116E+00
         25   -1    0    0    0    0  0.00000000000E+00  0.00000000000E+00  0.99999998245E-14  0.12500000000E+03  0.12500000000E+03 0.  0.
        -13    1    3    3    0    0  0.33287920127E+02  0.37715244299E+01  0.49968808755E+02  0.60159812461E+02  0.10566000000E+00 0.  1.
         23    2    1    0    0    0  0.99007305640E+01 -0.88937281882E+01  0.25189545697E+02  0.96510772576E+02  0.92210049040E+02 0.  0.
         13    1    3    3    0    0 -0.23387189563E+02 -0.12665252618E+02 -0.24779263058E+02  0.36350960115E+02  0.10566000000E+00 0. -1.
         22    1    1    0    0    0 -0.99007305640E+01  0.88937281882E+01 -0.25189545697E+02  0.28489227424E+02  0.00000000000E+00 0.  1.
</event>
<event>
 5    1  0.6924836E-004  0.9118800E+02  0.7818608E-02  0.1130116E+00
         25   -1    0    0    0    0  0.00000000000E+00  0.00000000000E+00  0.99999998245E-14  0.12500000000E+03  0.12500000000E+03 0.  0.
        -13    1    3    3    0    0 -0.57516013592E+02  0.54398891288E+01  0.10048113616E+02  0.58640088374E+02  0.10566000000E+00 0.  1.
         23    2    1    0    0    0 -0.26606786970E+02 -0.12105489102E+02 -0.66395829704E+00  0.95761244556E+02  0.91188327866E+02 0.  0.
         13    1    3    3    0    0  0.30909226621E+02 -0.17545378231E+02 -0.10712071913E+02  0.37121156182E+02  0.10566000000E+00 0. -1.
         22    1    1    0    0    0  0.26606786970E+02  0.12105489102E+02  0.66395829704E+00  0.29238755444E+02  0.00000000000E+00 0.  1.
</event>
<event>
 5    1  0.6924836E-004  0.9118800E+02  0.7818608E-02  0.1130116E+00
         25   -1    0    0    0    0  0.00000000000E+00  0.00000000000E+00  0.99999998245E-14  0.12500000000E+03  0.12500000000E+03 0.  0.
        -13    1    3    3    0    0 -0.24906941996E+02 -0.24710805636E+02 -0.39014781517E+02  0.52470410858E+02  0.10566000000E+00 0. -1.
         23    2    1    0    0    0  0.13256984486E+02 -0.12657503819E+02 -0.23029054316E+02  0.95567069747E+02  0.90921765473E+02 0.  0.
         13    1    3    3    0    0  0.38163926482E+02  0.12053301818E+02  0.15985727201E+02  0.43096658889E+02  0.10566000000E+00 0.  1.
         22    1    1    0    0    0 -0.13256984486E+02  0.12657503819E+02  0.23029054316E+02  0.29432930253E+02  0.00000000000E+00 0. -1.
</event>
<event>
 5    1  0.6924836E-004  0.9118800E+02  0.7818608E-02  0.1130116E+00
         25   -1    0    0    0    0  0.00000000000E+00  0.00000000000E+00  0.99999998245E-14  0.12500000000E+03  0.12500000000E+03 0.  0.
        -13    1    3    3    0    0 -0.17189365726E+02  0.53111905242E+02 -0.92307246974E-01  0.55824443187E+02  0.10566000000E+00 0.  1.
         23    2    1    0    0    0  0.26879105779E+01  0.23234705737E+02 -0.17576239458E+02  0.95742511942E+02  0.91162645780E+02 0.  0.
         13    1    3    3    0    0  0.19877276304E+02 -0.29877199505E+02 -0.17483932211E+02  0.39918068755E+02  0.10566000000E+00 0. -1.
         22    1    1    0    0    0 -0.26879105779E+01 -0.23234705737E+02  0.17576239458E+02  0.29257488058E+02  0.00000000000E+00 0.  1.
</event>
<event>
 5    1  0.6924836E-004  0.9118800E+02  0.7818608E-02  0.1130116E+00
         25   -1    0    0    0    0  0.00000000000E+00  0.00000000000E+00  0.99999998245E-14  0.12500000000E+03  0.12500000000E+03 0.  0.
        -13    1    3    3    0    0  0.50055452183E+02 -0.18491461118E+02 -0.29493781133E+02  0.60970293726E+02  0.10566000000E+00 0.  1.
         23    2    1    0    0    0  0.21479465369E+02  0.27435246425E+00 -0.17800971412E+02  0.97101661608E+02  0.93007609377E+02 0.  0.
         13    1    3    3    0    0 -0.28575986814E+02  0.18765813582E+02  0.11692809721E+02  0.36131367882E+02  0.10566000000E+00 0. -1.
         22    1    1    0    0    0 -0.21479465369E+02 -0.27435246425E+00  0.17800971412E+02  0.27898338392E+02  0.00000000000E+00 0.  1.
</event>
<event>
 5    1  0.6924836E-004  0.9118800E+02  0.7818608E-02  0.1130116E+00
         25   -1    0    0    0    0  0.00000000000E+00  0.00000000000E+00  0.99999998245E-14  0.12500000000E+03  0.12500000000E+03 0.  0.
        -13    1    3    3    0    0 -0.51948145542E+02  0.18005840294E+02  0.15694315589E+02  0.57176418354E+02  0.10566000000E+00 0. -1.
         23    2    1    0    0    0 -0.17313737483E+02  0.16558803368E+01  0.22997317775E+02  0.96166268535E+02  0.91741850504E+02 0.  0.
         13    1    3    3    0    0  0.34634408059E+02 -0.16349959957E+02  0.73030021862E+01  0.38989850181E+02  0.10566000000E+00 0.  1.
         22    1    1    0    0    0  0.17313737483E+02 -0.16558803368E+01 -0.22997317775E+02  0.28833731465E+02  0.00000000000E+00 0. -1.
</event>
<event>
 5    1  0.6924836E-004  0.9118800E+02  0.7818608E-02  0.1130116E+00
         25   -1    0    0    0    0  0.00000000000E+00  0.00000000000E+00  0.99999998245E-14  0.12500000000E+03  0.12500000000E+03 0.  0.
        -13    1    3    3    0    0  0.49061790313E+02  0.51170122423E+01  0.21388026526E+02  0.53765248309E+02  0.10566000000E+00 0.  1.
         23    2    1    0    0    0  0.12253135386E+02  0.20392986754E+02  0.20447973150E+02  0.93629108373E+02  0.88217215402E+02 0.  0.
         13    1    3    3    0    0 -0.36808654927E+02  0.15275974512E+02 -0.94005337605E+00  0.39863860064E+02  0.10566000000E+00 0. -1.
         22    1    1    0    0    0 -0.12253135386E+02 -0.20392986754E+02 -0.20447973150E+02  0.31370891627E+02  0.00000000000E+00 0.  1.
</event>
<event>
 5    1  0.6924836E-004  0.9118800E+02  0.7818608E-02  0.1130116E+00
         25   -1    0    0    0    0  0.00000000000E+00  0.00000000000E+00  0.99999998245E-14  0.12500000000E+03  0.12500000000E+03 0.  0.
        -13    1    3    3    0    0 -0.49058173531E+02  0.79116622004E+01 -0.23773725459E+02  0.55086295712E+02  0.10566000000E+00 0. -1.
         23    2    1    0    0    0 -0.25954469174E+02  0.93449790932E+01  0.96777191235E+01  0.95766092430E+02  0.91194973039E+02 0.  0.
         13    1    3    3    0    0  0.23103704357E+02  0.14333168928E+01  0.33451444583E+02  0.40679796718E+02  0.10566000000E+00 0.  1.
         22    1    1    0    0    0  0.25954469174E+02 -0.93449790932E+01 -0.96777191235E+01  0.29233907570E+02  0.00000000000E+00 0. -1.
</event>
<event>
 5    1  0.6924836E-004  0.9118800E+02  0.7818608E-02  0.1130116E+00
         25   -1    0    0    0    0  0.00000000000E+00  0.00000000000E+00  0.99999998245E-14  0.12500000000E+03  0.12500000000E+03 0.  0.
        -13    1    3    3    0    0  0.26116140806E+02  0.31178266153E+02  0.17892666456E+02  0.44433048150E+02  0.10566000000E+00 0. -1.
         23    2    1    0    0    0 -0.12702967989E+02  0.16284244236E+02 -0.16636746597E+02  0.98479755971E+02  0.94841652203E+02 0.  0.
         13    1    3    3    0    0 -0.38819108794E+02 -0.14894021918E+02 -0.34529413053E+02  0.54046707821E+02  0.10566000000E+00 0.  1.
         22    1    1    0    0    0  0.12702967989E+02 -0.16284244236E+02  0.16636746597E+02  0.26520244029E+02  0.00000000000E+00 0.  1.
</event>
<event>
 5    1  0.6924836E-004  0.9118800E+02  0.7818608E-02  0.1130116E+00
         25   -1    0    0    0    0  0.00000000000E+00  0.00000000000E+00  0.99999998245E-14  0.12500000000E+03  0.12500000000E+03 0.  0.
        -13    1    3    3    0    0  0.21518383980E+01 -0.26629305039E+02 -0.19515108677E+02  0.33084753680E+02  0.10566000000E+00 0.  1.
         23    2    1    0    0    0  0.68293429687E+01  0.23700181700E+02  0.16654325728E+02  0.95239201901E+02  0.90469887119E+02 0.  0.
         13    1    3    3    0    0  0.46775045707E+01  0.50329486739E+02  0.36169434406E+02  0.62154448221E+02  0.10566000000E+00 0. -1.
         22    1    1    0    0    0 -0.68293429687E+01 -0.23700181700E+02 -0.16654325728E+02  0.29760798099E+02  0.00000000000E+00 0. -1.
</event>
<event>
 5    1  0.6924836E-004  0.9118800E+02  0.7818608E-02  0.1130116E+00
         25   -1    0    0    0    0  0.00000000000E+00  0.00000000000E+00  0.99999998245E-14  0.12500000000E+03  0.12500000000E+03 0.  0.
        -13    1    3    3    0    0  0.96091073967E+01 -0.42038157272E+02  0.56376845226E+01  0.43489496003E+02  0.10566000000E+00 0. -1.
         23    2    1    0    0    0 -0.59718270423E+01 -0.15277712327E+00 -0.26050301676E+02  0.98273528544E+02  0.94569456677E+02 0.  0.
         13    1    3    3    0    0 -0.15580934439E+02  0.41885380149E+02 -0.31687986198E+02  0.54784032542E+02  0.10566000000E+00 0.  1.
         22    1    1    0    0    0  0.59718270423E+01  0.15277712327E+00  0.26050301676E+02  0.26726471456E+02  0.00000000000E+00 0.  1.
</event>
<event>
 5    1  0.6924836E-004  0.9118800E+02  0.7818608E-02  0.1130116E+00
         25   -1    0    0    0    0  0.00000000000E+00  0.00000000000E+00  0.99999998245E-14  0.12500000000E+03  0.12500000000E+03 0.  0.
        -13    1    3    3    0    0 -0.42610418714E+02 -0.45042651558E+02  0.19944180347E+01  0.62036095216E+02  0.10566000000E+00 0.  1.
         23    2    1    0    0    0 -0.21959310464E+02 -0.18567865774E+02 -0.33969057089E+01  0.96042860572E+02  0.91573550455E+02 0.  0.
         13    1    3    3    0    0  0.20651108250E+02  0.26474785783E+02 -0.53913237435E+01  0.34006765356E+02  0.10566000000E+00 0. -1.
         22    1    1    0    0    0  0.21959310464E+02  0.18567865774E+02  0.33969057089E+01  0.28957139428E+02  0.00000000000E+00 0.  1.
</event>
<event>
 5    1  0.6924836E-004  0.9118800E+02  0.7818608E-02  0.1130116E+00
         25   -1    0    0    0    0  0.00000000000E+00  0.00000000000E+00  0.99999998245E-14  0.12500000000E+03  0.12500000000E+03 0.  0.
        -13    1    3    3    0    0 -0.16098824351E+02 -0.27165977129E+02 -0.49247108158E+02  0.58501720358E+02  0.10566000000E+00 0. -1.
         23    2    1    0    0    0  0.79550585005E+01 -0.10450699865E+02 -0.25902443439E+02  0.95958019015E+02  0.91457666457E+02 0.  0.
         13    1    3    3    0    0  0.24053882851E+02  0.16715277264E+02  0.23344664719E+02  0.37456298657E+02  0.10566000000E+00 0.  1.
         22    1    1    0    0    0 -0.79550585005E+01  0.10450699865E+02  0.25902443439E+02  0.29041980985E+02  0.00000000000E+00 0. -1.
</event>
<event>
 5    1  0.6924836E-004  0.9118800E+02  0.7818608E-02  0.1130116E+00
         25   -1    0    0    0    0  0.00000000000E+00  0.00000000000E+00  0.99999998245E-14  0.12500000000E+03  0.12500000000E+03 0.  0.
        -13    1    3    3    0    0  0.61855184723E+01  0.33231626111E+02  0.64705716585E+01  0.34416290828E+02  0.10566000000E+00 0. -1.
         23    2    1    0    0    0  0.12665335376E+02 -0.26467051355E+02 -0.40503819745E+01  0.95380392951E+02  0.90664757418E+02 0.  0.
         13    1    3    3    0    0  0.64798169034E+01 -0.59698677466E+02 -0.10520953633E+02  0.60964102123E+02  0.10566000000E+00 0.  1.
         22    1    1    0    0    0 -0.12665335376E+02  0.26467051355E+02  0.40503819745E+01  0.29619607049E+02  0.00000000000E+00 0.  1.
</event>
<event>
 5    1  0.6924836E-004  0.9118800E+02  0.7818608E-02  0.1130116E+00
         25   -1    0    0    0    0  0.00000000000E+00  0.00000000000E+00  0.99999998245E-14  0.12500000000E+03  0.12500000000E+03 0.  0.
        -13    1    3    3    0    0  0.28589022790E+02  0.47548602429E+02 -0.20518410099E+01  0.55519573419E+02  0.10566000000E+00 0.  1.
         23    2    1    0    0    0  0.28352049105E+02  0.87860176300E+01 -0.67303034247E+01  0.94564333777E+02  0.89532583143E+02 0.  0.
         13    1    3    3    0    0 -0.23697368510E+00 -0.38762584799E+02 -0.46784624148E+01  0.39044760358E+02  0.10566000000E+00 0. -1.
         22    1    1    0    0    0 -0.28352049105E+02 -0.87860176300E+01  0.67303034247E+01  0.30435666223E+02  0.00000000000E+00 0.  1.
</event>
<event>
 5    1  0.6924836E-004  0.9118800E+02  0.7818608E-02  0.1130116E+00
         25   -1    0    0    0    0  0.00000000000E+00  0.00000000000E+00  0.99999998245E-14  0.12500000000E+03  0.12500000000E+03 0.  0.
        -13    1    3    3    0    0  0.17430791447E+02 -0.34720101683E+02 -0.15154354316E+02  0.41701121929E+02  0.10566000000E+00 0. -1.
         23    2    1    0    0    0  0.97832791089E+01 -0.22489087139E+01  0.27426767809E+02  0.95793875078E+02  0.91233046477E+02 0.  0.
         13    1    3    3    0    0 -0.76475123379E+01  0.32471192970E+02  0.42581122125E+02  0.54092753149E+02  0.10566000000E+00 0.  1.
         22    1    1    0    0    0 -0.97832791089E+01  0.22489087139E+01 -0.27426767809E+02  0.29206124922E+02  0.00000000000E+00 0.  1.
</event>
<event>
 5    1  0.6924836E-004  0.9118800E+02  0.7818608E-02  0.1130116E+00
         25   -1    0    0    0    0  0.00000000000E+00  0.00000000000E+00  0.99999998245E-14  0.12500000000E+03  0.12500000000E+03 0.  0.
        -13    1    3    3    0    0 -0.29447305259E+02  0.18476499163E+02  0.23200456385E+02  0.41794702401E+02  0.10566000000E+00 0.  1.
         23    2    1    0    0    0 -0.10174862308E+02  0.22364216688E+01 -0.25953787884E+02  0.97033439425E+02  0.92915875157E+02 0.  0.
         13    1    3    3    0    0  0.19272442950E+02 -0.16240077494E+02 -0.49154244269E+02  0.55238737024E+02  0.10566000000E+00 0. -1.
         22    1    1    0    0    0  0.10174862308E+02 -0.22364216688E+01  0.25953787884E+02  0.27966560575E+02  0.00000000000E+00 0. -1.
</event>
<event>
 5    1  0.6924836E-004  0.9118800E+02  0.7818608E-02  0.1130116E+00
         25   -1    0    0    0    0  0.00000000000E+00  0.00000000000E+00  0.99999998245E-14  0.12500000000E+03  0.12500000000E+03 0.  0.
        -13    1    3    3    0    0 -0.22690602806E+02 -0.17857589896E+02  0.55200018077E+02  0.62296148615E+02  0.10566000000E+00 0. -1.
         23    2    1    0    0    0 -0.12908915928E+02 -0.11265282323E+02  0.25245988614E+02  0.94489237352E+02  0.89427676578E+02 0.  0.
         13    1    3    3    0    0  0.97816868782E+01  0.65923075722E+01 -0.29954029463E+02  0.32193088737E+02  0.10566000000E+00 0.  1.
         22    1    1    0    0    0  0.12908915928E+02  0.11265282323E+02 -0.25245988614E+02  0.30510762648E+02  0.00000000000E+00 0. -1.
</event>
<event>
 5    1  0.6924836E-004  0.9118800E+02  0.7818608E-02  0.1130116E+00
         25   -1    0    0    0    0  0.00000000000E+00  0.00000000000E+00  0.99999998245E-14  0.12500000000E+03  0.12500000000E+03 0.  0.
        -13    1    3    3    0    0 -0.73595232431E+01  0.11205114783E+02  0.38294387400E+02  0.40573247961E+02  0.10566000000E+00 0. -1.
         23    2    1    0    0    0 -0.23244229948E+02 -0.16674387183E+02 -0.64902826524E+01  0.95666517719E+02  0.91058384731E+02 0.  0.
         13    1    3    3    0    0 -0.15884706705E+02 -0.27879501966E+02 -0.44784670053E+02  0.55093269759E+02  0.10566000000E+00 0.  1.
         22    1    1    0    0    0  0.23244229948E+02  0.16674387183E+02  0.64902826524E+01  0.29333482281E+02  0.00000000000E+00 0.  1.
</event>
<event>
 5    1  0.6924836E-004  0.9118800E+02  0.7818608E-02  0.1130116E+00
         25   -1    0    0    0    0  0.00000000000E+00  0.00000000000E+00  0.99999998245E-14  0.12500000000E+03  0.12500000000E+03 0.  0.
        -13    1    3    3    0    0 -0.20178840870E+02  0.39951277724E+02  0.71405006310E+01  0.45324255360E+02  0.10566000000E+00 0. -1.
         23    2    1    0    0    0 -0.98814173068E+01 -0.48806851084E+01  0.27309016312E+02  0.95550961526E+02  0.90899617060E+02 0.  0.
         13    1    3    3    0    0  0.10297423564E+02 -0.44831962833E+02  0.20168515681E+02  0.50226706166E+02  0.10566000000E+00 0.  1.
         22    1    1    0    0    0  0.98814173068E+01  0.48806851084E+01 -0.27309016312E+02  0.29449038474E+02  0.00000000000E+00 0.  1.
</event>
<event>
 5    1  0.6924836E-004  0.9118800E+02  0.7818608E-02  0.1130116E+00
         25   -1    0    0    0    0  0.00000000000E+00  0.00000000000E+00  0.99999998245E-14  0.12500000000E+03  0.12500000000E+03 0.  0.
        -13    1    3    3    0    0 -0.15839667658E+02 -0.30515472642E+02  0.41191400508E+02  0.53654746127E+02  0.10566000000E+00 0. -1.
         23    2    1    0    0    0 -0.16764852747E+01 -0.29083090409E+02  0.14908182240E+01  0.95830507553E+02  0.91283223476E+02 0.  0.
         13    1    3    3    0    0  0.14163182383E+02  0.14323822330E+01 -0.39700582284E+02  0.42175761426E+02  0.10566000000E+00 0.  1.
         22    1    1    0    0    0  0.16764852747E+01  0.29083090409E+02 -0.14908182240E+01  0.29169492447E+02  0.00000000000E+00 0. -1.
</event>
<event>
 5    1  0.6924836E-004  0.9118800E+02  0.7818608E-02  0.1130116E+00
         25   -1    0    0    0    0  0.00000000000E+00  0.00000000000E+00  0.99999998245E-14  0.12500000000E+03  0.12500000000E+03 0.  0.
        -13    1    3    3    0    0  0.38193165841E+01  0.24083817261E+01  0.61791994514E+02  0.61956833616E+02  0.10566000000E+00 0.  1.
         23    2    1    0    0    0  0.18152825483E+01 -0.41789237752E+01  0.38076871142E+02  0.86651508888E+02  0.77703778685E+02 0.  0.
         13    1    3    3    0    0 -0.20040340358E+01 -0.65873055013E+01 -0.23715123372E+02  0.24694675271E+02  0.10566000000E+00 0. -1.
         22    1    1    0    0    0 -0.18152825483E+01  0.41789237752E+01 -0.38076871142E+02  0.38348491112E+02  0.00000000000E+00 0.  1.
</event>
<event>
 5    1  0.6924836E-004  0.9118800E+02  0.7818608E-02  0.1130116E+00
         25   -1    0    0    0    0  0.00000000000E+00  0.00000000000E+00  0.99999998245E-14  0.12500000000E+03  0.12500000000E+03 0.  0.
        -13    1    3    3    0    0  0.21173587975E+02 -0.37756214501E+01  0.27960130889E+02  0.35275433781E+02  0.10566000000E+00 0.  1.
         23    2    1    0    0    0 -0.29016042190E+02 -0.14818701121E+01 -0.52144106988E+01  0.95481925498E+02  0.90804633001E+02 0.  0.
         13    1    3    3    0    0 -0.50189630165E+02  0.22937513379E+01 -0.33174541588E+02  0.60206491717E+02  0.10566000000E+00 0. -1.
         22    1    1    0    0    0  0.29016042190E+02  0.14818701121E+01  0.52144106988E+01  0.29518074502E+02  0.00000000000E+00 0. -1.
</event>
<event>
 5    1  0.6924836E-004  0.9118800E+02  0.7818608E-02  0.1130116E+00
         25   -1    0    0    0    0  0.00000000000E+00  0.00000000000E+00  0.99999998245E-14  0.12500000000E+03  0.12500000000E+03 0.  0.
        -13    1    3    3    0    0 -0.43933615058E+02  0.50091162866E+01  0.34412793070E+02  0.56031288303E+02  0.10566000000E+00 0. -1.
         23    2    1    0    0    0 -0.27572347330E+02 -0.91174052486E+01  0.85721997763E+00  0.95946665565E+02  0.91442147783E+02 0.  0.
         13    1    3    3    0    0  0.16361267728E+02 -0.14126521535E+02 -0.33555573092E+02  0.39915377261E+02  0.10566000000E+00 0.  1.
         22    1    1    0    0    0  0.27572347330E+02  0.91174052486E+01 -0.85721997763E+00  0.29053334435E+02  0.00000000000E+00 0. -1.
</event>
<event>
 5    1  0.6924836E-004  0.9118800E+02  0.7818608E-02  0.1130116E+00
         25   -1    0    0    0    0  0.00000000000E+00  0.00000000000E+00  0.99999998245E-14  0.12500000000E+03  0.12500000000E+03 0.  0.
        -13    1    3    3    0    0  0.39447401090E+02  0.32675730278E+02  0.16466847272E+02  0.53804916366E+02  0.10566000000E+00 0. -1.
         23    2    1    0    0    0  0.38766055059E+01  0.28487557530E+02 -0.53688703753E+01  0.95752884358E+02  0.91176867074E+02 0.  0.
         13    1    3    3    0    0 -0.35570795584E+02 -0.41881727481E+01 -0.21835717647E+02  0.41947967992E+02  0.10566000000E+00 0.  1.
         22    1    1    0    0    0 -0.38766055059E+01 -0.28487557530E+02  0.53688703753E+01  0.29247115642E+02  0.00000000000E+00 0. -1.
</event>
<event>
 5    1  0.6924836E-004  0.9118800E+02  0.7818608E-02  0.1130116E+00
         25   -1    0    0    0    0  0.00000000000E+00  0.00000000000E+00  0.99999998245E-14  0.12500000000E+03  0.12500000000E+03 0.  0.
        -13    1    3    3    0    0 -0.20781835097E+02 -0.27704056335E+02 -0.39778002791E+02  0.52741824745E+02  0.10566000000E+00 0. -1.
         23    2    1    0    0    0  0.12596532022E+02 -0.53886033740E+01 -0.26736068805E+02  0.94957912182E+02  0.90080397677E+02 0.  0.
         13    1    3    3    0    0  0.33378367119E+02  0.22315452961E+02  0.13041933986E+02  0.42216087437E+02  0.10566000000E+00 0.  1.
         22    1    1    0    0    0 -0.12596532022E+02  0.53886033740E+01  0.26736068805E+02  0.30042087818E+02  0.00000000000E+00 0.  1.
</event>
<event>
 5    1  0.6924836E-004  0.9118800E+02  0.7818608E-02  0.1130116E+00
         25   -1    0    0    0    0  0.00000000000E+00  0.00000000000E+00  0.99999998245E-14  0.12500000000E+03  0.12500000000E+03 0.  0.
        -13    1    3    3    0    0 -0.17572229789E+02 -0.22513503775E+02 -0.20201287451E+02  0.34982056696E+02  0.10566000000E+00 0.  1.
         23    2    1    0    0    0  0.22593102215E+02 -0.30663645732E+01  0.19717392149E+02  0.94856569330E+02  0.89939659397E+02 0.  0.
         13    1    3    3    0    0  0.40165332004E+02  0.19447139202E+02  0.39918679599E+02  0.59874512634E+02  0.10566000000E+00 0. -1.
         22    1    1    0    0    0 -0.22593102215E+02  0.30663645732E+01 -0.19717392149E+02  0.30143430670E+02  0.00000000000E+00 0. -1.
</event>
<event>
 5    1  0.6924836E-004  0.9118800E+02  0.7818608E-02  0.1130116E+00
         25   -1    0    0    0    0  0.00000000000E+00  0.00000000000E+00  0.99999998245E-14  0.12500000000E+03  0.12500000000E+03 0.  0.
        -13    1    3    3    0    0 -0.33309925677E+02  0.29440557096E+01 -0.51033498126E+02  0.61013504306E+02  0.10566000000E+00 0. -1.
         23    2    1    0    0    0 -0.20810109451E+02  0.69656604357E+01 -0.17811740924E+02  0.96736256521E+02  0.92515210265E+02 0.  0.
         13    1    3    3    0    0  0.12499816226E+02  0.40216047261E+01  0.33221757202E+02  0.35722752216E+02  0.10566000000E+00 0.  1.
         22    1    1    0    0    0  0.20810109451E+02 -0.69656604357E+01  0.17811740924E+02  0.28263743479E+02  0.00000000000E+00 0. -1.
</event>
<event>
 5    1  0.6924836E-004  0.9118800E+02  0.7818608E-02  0.1130116E+00
         25   -1    0    0    0    0  0.00000000000E+00  0.00000000000E+00  0.99999998245E-14  0.12500000000E+03  0.12500000000E+03 0.  0.
        -13    1    3    3    0    0 -0.43573098419E+02 -0.14213685518E+02  0.26670803211E+02  0.53028168645E+02  0.10566000000E+00 0. -1.
         23    2    1    0    0    0 -0.52997844548E+01 -0.26087934905E+02  0.82687094546E+01  0.97124569619E+02  0.93038392102E+02 0.  0.
         13    1    3    3    0    0  0.38273313964E+02 -0.11874249386E+02 -0.18402093757E+02  0.44096400975E+02  0.10566000000E+00 0.  1.
         22    1    1    0    0    0  0.52997844548E+01  0.26087934905E+02 -0.82687094546E+01  0.27875430381E+02  0.00000000000E+00 0. -1.
</event>
<event>
 5    1  0.6924836E-004  0.9118800E+02  0.7818608E-02  0.1130116E+00
         25   -1    0    0    0    0  0.00000000000E+00  0.00000000000E+00  0.99999998245E-14  0.12500000000E+03  0.12500000000E+03 0.  0.
        -13    1    3    3    0    0  0.94366944219E+01  0.19852432065E+02  0.22063566628E+02  0.31144540403E+02  0.10566000000E+00 0.  1.
         23    2    1    0    0    0 -0.20704511333E+02 -0.22174396420E+02  0.28640107749E+02  0.83279064991E+02  0.72074726830E+02 0.  0.
         13    1    3    3    0    0 -0.30141205755E+02 -0.42026828485E+02  0.65765411210E+01  0.52134524588E+02  0.10566000000E+00 0. -1.
         22    1    1    0    0    0  0.20704511333E+02  0.22174396420E+02 -0.28640107749E+02  0.41720935009E+02  0.00000000000E+00 0. -1.
</event>
<event>
 5    1  0.6924836E-004  0.9118800E+02  0.7818608E-02  0.1130116E+00
         25   -1    0    0    0    0  0.00000000000E+00  0.00000000000E+00  0.99999998245E-14  0.12500000000E+03  0.12500000000E+03 0.  0.
        -13    1    3    3    0    0 -0.42318305126E+02  0.17111458573E+02  0.40639581431E+02  0.61116509276E+02  0.10566000000E+00 0. -1.
         23    2    1    0    0    0 -0.14142213068E+02  0.54935576726E+01  0.25928901931E+02  0.94958539954E+02  0.90081268799E+02 0.  0.
         13    1    3    3    0    0  0.28176092058E+02 -0.11617900901E+02 -0.14710679500E+02  0.33842030677E+02  0.10566000000E+00 0.  1.
         22    1    1    0    0    0  0.14142213068E+02 -0.54935576726E+01 -0.25928901931E+02  0.30041460046E+02  0.00000000000E+00 0. -1.
</event>
<event>
 5    1  0.6924836E-004  0.9118800E+02  0.7818608E-02  0.1130116E+00
         25   -1    0    0    0    0  0.00000000000E+00  0.00000000000E+00  0.99999998245E-14  0.12500000000E+03  0.12500000000E+03 0.  0.
        -13    1    3    3    0    0  0.88588949220E+01 -0.34033796702E+02  0.28730604143E+01  0.35285194876E+02  0.10566000000E+00 0. -1.
         23    2    1    0    0    0 -0.36453627318E+01  0.27024810234E+02  0.25444417943E+01  0.97611987628E+02  0.93690964916E+02 0.  0.
         13    1    3    3    0    0 -0.12504257654E+02  0.61058606937E+02 -0.32861862001E+00  0.62326792752E+02  0.10566000000E+00 0.  1.
         22    1    1    0    0    0  0.36453627318E+01 -0.27024810234E+02 -0.25444417943E+01  0.27388012372E+02  0.00000000000E+00 0.  1.
</event>
<event>
 5    1  0.6924836E-004  0.9118800E+02  0.7818608E-02  0.1130116E+00
         25   -1    0    0    0    0  0.00000000000E+00  0.00000000000E+00  0.99999998245E-14  0.12500000000E+03  0.12500000000E+03 0.  0.
        -13    1    3    3    0    0 -0.35650414634E+02  0.74305393988E+01  0.10077543874E+02  0.37785354754E+02  0.10566000000E+00 0. -1.
         23    2    1    0    0    0  0.89567076761E+01  0.33682710639E+02  0.31756211052E+01  0.90002397543E+02  0.82919234112E+02 0.  0.
         13    1    3    3    0    0  0.44607122310E+02  0.26252171240E+02 -0.69019227687E+01  0.52217042788E+02  0.10566000000E+00 0.  1.
         22    1    1    0    0    0 -0.89567076761E+01 -0.33682710639E+02 -0.31756211052E+01  0.34997602457E+02  0.00000000000E+00 0.  1.
</event>
<event>
 5    1  0.6924836E-004  0.9118800E+02  0.7818608E-02  0.1130116E+00
         25   -1    0    0    0    0  0.00000000000E+00  0.00000000000E+00  0.99999998245E-14  0.12500000000E+03  0.12500000000E+03 0.  0.
        -13    1    3    3    0    0  0.13939839726E+02 -0.46605041732E+02  0.78429139311E+01  0.49273436143E+02  0.10566000000E+00 0. -1.
         23    2    1    0    0    0 -0.20244389955E+02 -0.18476360891E+02 -0.82495344934E+01  0.96377175964E+02  0.92028767192E+02 0.  0.
         13    1    3    3    0    0 -0.34184229681E+02  0.28128680841E+02 -0.16092448425E+02  0.47103739820E+02  0.10566000000E+00 0.  1.
         22    1    1    0    0    0  0.20244389955E+02  0.18476360891E+02  0.82495344934E+01  0.28622824036E+02  0.00000000000E+00 0.  1.
</event>
<event>
 5    1  0.6924836E-004  0.9118800E+02  0.7818608E-02  0.1130116E+00
         25   -1    0    0    0    0  0.00000000000E+00  0.00000000000E+00  0.99999998245E-14  0.12500000000E+03  0.12500000000E+03 0.  0.
        -13    1    3    3    0    0  0.43930597040E+02 -0.21627176254E+01  0.23475125192E+01  0.44046528613E+02  0.10566000000E+00 0.  1.
         23    2    1    0    0    0  0.15617374279E+01  0.17609310848E+01  0.30074551056E+02  0.94833486723E+02  0.89907572989E+02 0.  0.
         13    1    3    3    0    0 -0.42368859612E+02  0.39236487102E+01  0.27727038536E+02  0.50786958110E+02  0.10566000000E+00 0. -1.
         22    1    1    0    0    0 -0.15617374279E+01 -0.17609310848E+01 -0.30074551056E+02  0.30166513277E+02  0.00000000000E+00 0. -1.
</event>
<event>
 5    1  0.6924836E-004  0.9118800E+02  0.7818608E-02  0.1130116E+00
         25   -1    0    0    0    0  0.00000000000E+00  0.00000000000E+00  0.99999998245E-14  0.12500000000E+03  0.12500000000E+03 0.  0.
        -13    1    3    3    0    0 -0.37916312688E+02  0.12250307914E+02  0.42111411471E+02  0.57974985570E+02  0.10566000000E+00 0. -1.
         23    2    1    0    0    0 -0.13325969017E+01  0.10705313486E+02  0.23701161024E+02  0.98959174644E+02  0.95471428506E+02 0.  0.
         13    1    3    3    0    0  0.36583715786E+02 -0.15449944284E+01 -0.18410250446E+02  0.40984189074E+02  0.10566000000E+00 0.  1.
         22    1    1    0    0    0  0.13325969017E+01 -0.10705313486E+02 -0.23701161024E+02  0.26040825356E+02  0.00000000000E+00 0. -1.
</event>
<event>
 5    1  0.6924836E-004  0.9118800E+02  0.7818608E-02  0.1130116E+00
         25   -1    0    0    0    0  0.00000000000E+00  0.00000000000E+00  0.99999998245E-14  0.12500000000E+03  0.12500000000E+03 0.  0.
        -13    1    3    3    0    0  0.52224584913E+02  0.86696454810E+01 -0.19847861432E+02  0.56537764278E+02  0.10566000000E+00 0.  1.
         23    2    1    0    0    0  0.19367365341E+02 -0.86679826486E+01 -0.22859248775E+02  0.93810674615E+02  0.88474112901E+02 0.  0.
         13    1    3    3    0    0 -0.32857219572E+02 -0.17337628130E+02 -0.30113873435E+01  0.37272910337E+02  0.10566000000E+00 0. -1.
         22    1    1    0    0    0 -0.19367365341E+02  0.86679826486E+01  0.22859248775E+02  0.31189325385E+02  0.00000000000E+00 0.  1.
</event>
<event>
 5    1  0.6924836E-004  0.9118800E+02  0.7818608E-02  0.1130116E+00
         25   -1    0    0    0    0  0.00000000000E+00  0.00000000000E+00  0.99999998245E-14  0.12500000000E+03  0.12500000000E+03 0.  0.
        -13    1    3    3    0    0 -0.38948951759E+02 -0.14357391484E+02  0.44047401374E+01  0.41744082611E+02  0.10566000000E+00 0.  1.
         23    2    1    0    0    0 -0.95104666601E+01  0.29089717329E+02  0.18801940199E+00  0.94394510596E+02  0.89295171476E+02 0.  0.
         13    1    3    3    0    0  0.29438485099E+02  0.43447108813E+02 -0.42167207354E+01  0.52650427984E+02  0.10566000000E+00 0. -1.
         22    1    1    0    0    0  0.95104666601E+01 -0.29089717329E+02 -0.18801940199E+00  0.30605489404E+02  0.00000000000E+00 0. -1.
</event>
<event>
 5    1  0.6924836E-004  0.9118800E+02  0.7818608E-02  0.1130116E+00
         25   -1    0    0    0    0  0.00000000000E+00  0.00000000000E+00  0.99999998245E-14  0.12500000000E+03  0.12500000000E+03 0.  0.
        -13    1    3    3    0    0 -0.57730882278E+01  0.35652681208E+02  0.58070517200E+01  0.36581077605E+02  0.10566000000E+00 0.  1.
         23    2    1    0    0    0  0.19314556812E+01 -0.10918841696E+02 -0.28159452704E+02  0.94736054428E+02  0.89772009039E+02 0.  0.
         13    1    3    3    0    0  0.77045439089E+01 -0.46571522904E+02 -0.33966504424E+02  0.58154976823E+02  0.10566000000E+00 0. -1.
         22    1    1    0    0    0 -0.19314556812E+01  0.10918841696E+02  0.28159452704E+02  0.30263945572E+02  0.00000000000E+00 0.  1.
</event>
<event>
 5    1  0.6924836E-004  0.9118800E+02  0.7818608E-02  0.1130116E+00
         25   -1    0    0    0    0  0.00000000000E+00  0.00000000000E+00  0.99999998245E-14  0.12500000000E+03  0.12500000000E+03 0.  0.
        -13    1    3    3    0    0  0.15887942036E+02  0.70928865010E+01  0.50904296983E+02  0.53795858172E+02  0.10566000000E+00 0.  1.
         23    2    1    0    0    0 -0.15857992286E+02  0.75679100103E+00  0.25567319367E+02  0.94904544004E+02  0.90006310896E+02 0.  0.
         13    1    3    3    0    0 -0.31745934322E+02 -0.63360955000E+01 -0.25336977616E+02  0.41108685833E+02  0.10566000000E+00 0. -1.
         22    1    1    0    0    0  0.15857992286E+02 -0.75679100103E+00 -0.25567319367E+02  0.30095455996E+02  0.00000000000E+00 0. -1.
</event>
<event>
 5    1  0.6924836E-004  0.9118800E+02  0.7818608E-02  0.1130116E+00
         25   -1    0    0    0    0  0.00000000000E+00  0.00000000000E+00  0.99999998245E-14  0.12500000000E+03  0.12500000000E+03 0.  0.
        -13    1    3    3    0    0 -0.28234176308E+02 -0.18434397493E+02 -0.63986693647E+01  0.34321274108E+02  0.10566000000E+00 0.  1.
         23    2    1    0    0    0  0.16232846360E+02  0.22551404711E+02 -0.11321673980E+02  0.94995809341E+02  0.90132970301E+02 0.  0.
         13    1    3    3    0    0  0.44467022668E+02  0.40985802204E+02 -0.49230046149E+01  0.60674535233E+02  0.10566000000E+00 0. -1.
         22    1    1    0    0    0 -0.16232846360E+02 -0.22551404711E+02  0.11321673980E+02  0.30004190659E+02  0.00000000000E+00 0. -1.
</event>
<event>
 5    1  0.6924836E-004  0.9118800E+02  0.7818608E-02  0.1130116E+00
         25   -1    0    0    0    0  0.00000000000E+00  0.00000000000E+00  0.99999998245E-14  0.12500000000E+03  0.12500000000E+03 0.  0.
        -13    1    3    3    0    0  0.45722975501E+00 -0.16901934469E+02 -0.41057850255E+02  0.44403183213E+02  0.10566000000E+00 0.  1.
         23    2    1    0    0    0 -0.24809434021E+02  0.13634110860E+02 -0.92639166949E+01  0.95213809443E+02  0.90434796183E+02 0.  0.
         13    1    3    3    0    0 -0.25266663776E+02  0.30536045328E+02  0.31793933560E+02  0.50810626230E+02  0.10566000000E+00 0. -1.
         22    1    1    0    0    0  0.24809434021E+02 -0.13634110860E+02  0.92639166949E+01  0.29786190557E+02  0.00000000000E+00 0. -1.
</event>
<event>
 5    1  0.6924836E-004  0.9118800E+02  0.7818608E-02  0.1130116E+00
         25   -1    0    0    0    0  0.00000000000E+00  0.00000000000E+00  0.99999998245E-14  0.12500000000E+03  0.12500000000E+03 0.  0.
        -13    1    3    3    0    0  0.25275156482E+02 -0.12537994805E+02  0.28149555020E+02  0.39855281466E+02  0.10566000000E+00 0. -1.
         23    2    1    0    0    0 -0.21675659198E+02 -0.15655711767E+02 -0.54981225641E+01  0.97702291959E+02  0.93811369192E+02 0.  0.
         13    1    3    3    0    0 -0.46950815680E+02 -0.31177169618E+01 -0.33647677584E+02  0.57847010492E+02  0.10566000000E+00 0.  1.
         22    1    1    0    0    0  0.21675659198E+02  0.15655711767E+02  0.54981225641E+01  0.27297708041E+02  0.00000000000E+00 0.  1.
</event>
<event>
 5    1  0.6924836E-004  0.9118800E+02  0.7818608E-02  0.1130116E+00
         25   -1    0    0    0    0  0.00000000000E+00  0.00000000000E+00  0.99999998245E-14  0.12500000000E+03  0.12500000000E+03 0.  0.
        -13    1    3    3    0    0 -0.22131479327E+01  0.50211342407E+02 -0.28169053220E+01  0.50339080739E+02  0.10566000000E+00 0. -1.
         23    2    1    0    0    0 -0.47092484895E+01  0.64742875036E+01 -0.24503804151E+02  0.99221523747E+02  0.95814304448E+02 0.  0.
         13    1    3    3    0    0 -0.24961005568E+01 -0.43737054903E+02 -0.21686898829E+02  0.48882443008E+02  0.10566000000E+00 0.  1.
         22    1    1    0    0    0  0.47092484895E+01 -0.64742875036E+01  0.24503804151E+02  0.25778476253E+02  0.00000000000E+00 0. -1.
</event>
<event>
 5    1  0.6924836E-004  0.9118800E+02  0.7818608E-02  0.1130116E+00
         25   -1    0    0    0    0  0.00000000000E+00  0.00000000000E+00  0.99999998245E-14  0.12500000000E+03  0.12500000000E+03 0.  0.
        -13    1    3    3    0    0 -0.32806466730E+02  0.48852900006E+02  0.27066553413E+01  0.58908464973E+02  0.10566000000E+00 0.  1.
         23    2    1    0    0    0 -0.10276572354E+02  0.31840341258E+02 -0.10300615240E+02  0.89992601567E+02  0.82904465451E+02 0.  0.
         13    1    3    3    0    0  0.22529894376E+02 -0.17012558748E+02 -0.13007270581E+02  0.31084136593E+02  0.10566000000E+00 0. -1.
         22    1    1    0    0    0  0.10276572354E+02 -0.31840341258E+02  0.10300615240E+02  0.35007398433E+02  0.00000000000E+00 0.  1.
</event>
<event>
 5    1  0.6924836E-004  0.9118800E+02  0.7818608E-02  0.1130116E+00
         25   -1    0    0    0    0  0.00000000000E+00  0.00000000000E+00  0.99999998245E-14  0.12500000000E+03  0.12500000000E+03 0.  0.
        -13    1    3    3    0    0 -0.45682636636E+02 -0.15472819165E+02  0.40474010375E+00  0.48233664607E+02  0.10566000000E+00 0.  1.
         23    2    1    0    0    0 -0.17388047096E+02 -0.18087637370E+02  0.27693916821E+02  0.87630763504E+02  0.79263427102E+02 0.  0.
         13    1    3    3    0    0  0.28294589540E+02 -0.26148182052E+01  0.27289176717E+02  0.39397098896E+02  0.10566000000E+00 0. -1.
         22    1    1    0    0    0  0.17388047096E+02  0.18087637370E+02 -0.27693916821E+02  0.37369236496E+02  0.00000000000E+00 0.  1.
</event>
<event>
 5    1  0.6924836E-004  0.9118800E+02  0.7818608E-02  0.1130116E+00
         25   -1    0    0    0    0  0.00000000000E+00  0.00000000000E+00  0.99999998245E-14  0.12500000000E+03  0.12500000000E+03 0.  0.
        -13    1    3    3    0    0 -0.50354246456E+02  0.19542318827E+02  0.17935019309E+02  0.56913341520E+02  0.10566000000E+00 0.  1.
         23    2    1    0    0    0 -0.15686692377E+02  0.16763108231E+01  0.23895239792E+02  0.96366718309E+02  0.92014561767E+02 0.  0.
         13    1    3    3    0    0  0.34667554079E+02 -0.17866008004E+02  0.59602204830E+01  0.39453376789E+02  0.10566000000E+00 0. -1.
         22    1    1    0    0    0  0.15686692377E+02 -0.16763108231E+01 -0.23895239792E+02  0.28633281691E+02  0.00000000000E+00 0. -1.
</event>
<event>
 5    1  0.6924836E-004  0.9118800E+02  0.7818608E-02  0.1130116E+00
         25   -1    0    0    0    0  0.00000000000E+00  0.00000000000E+00  0.99999998245E-14  0.12500000000E+03  0.12500000000E+03 0.  0.
        -13    1    3    3    0    0  0.24144513004E+02  0.41443182770E+02  0.91665577581E+01  0.48831668531E+02  0.10566000000E+00 0. -1.
         23    2    1    0    0    0 -0.69205140410E+01  0.22255833844E+02 -0.18986761301E+02  0.94938184363E+02  0.90053018222E+02 0.  0.
         13    1    3    3    0    0 -0.31065027045E+02 -0.19187348927E+02 -0.28153319059E+02  0.46106515833E+02  0.10566000000E+00 0.  1.
         22    1    1    0    0    0  0.69205140410E+01 -0.22255833844E+02  0.18986761301E+02  0.30061815637E+02  0.00000000000E+00 0.  1.
</event>
<event>
 5    1  0.6924836E-004  0.9118800E+02  0.7818608E-02  0.1130116E+00
         25   -1    0    0    0    0  0.00000000000E+00  0.00000000000E+00  0.99999998245E-14  0.12500000000E+03  0.12500000000E+03 0.  0.
        -13    1    3    3    0    0 -0.27960478073E+02 -0.40655662831E+02  0.37209822658E+02  0.61800107772E+02  0.10566000000E+00 0. -1.
         23    2    1    0    0    0 -0.17643095164E+02 -0.18637149337E+02  0.12550324677E+02  0.96431962058E+02  0.92103151490E+02 0.  0.
         13    1    3    3    0    0  0.10317382909E+02  0.22018513494E+02 -0.24659497981E+02  0.34631854286E+02  0.10566000000E+00 0.  1.
         22    1    1    0    0    0  0.17643095164E+02  0.18637149338E+02 -0.12550324677E+02  0.28568037942E+02  0.00000000000E+00 0. -1.
</event>
<event>
 5    1  0.6924836E-004  0.9118800E+02  0.7818608E-02  0.1130116E+00
         25   -1    0    0    0    0  0.00000000000E+00  0.00000000000E+00  0.99999998245E-14  0.12500000000E+03  0.12500000000E+03 0.  0.
        -13    1    3    3    0    0  0.91322850954E+01  0.33589732058E+02 -0.10260517974E+02  0.36289917663E+02  0.10566000000E+00 0. -1.
         23    2    1    0    0    0  0.20331547868E+02 -0.22842341259E+02 -0.32871935941E+01  0.94243699269E+02  0.89083807829E+02 0.  0.
         13    1    3    3    0    0  0.11199262772E+02 -0.56432073318E+02  0.69733243798E+01  0.57953781607E+02  0.10566000000E+00 0.  1.
         22    1    1    0    0    0 -0.20331547868E+02  0.22842341259E+02  0.32871935941E+01  0.30756300731E+02  0.00000000000E+00 0.  1.
</event>
<event>
 5    1  0.6924836E-004  0.9118800E+02  0.7818608E-02  0.1130116E+00
         25   -1    0    0    0    0  0.00000000000E+00  0.00000000000E+00  0.99999998245E-14  0.12500000000E+03  0.12500000000E+03 0.  0.
        -13    1    3    3    0    0 -0.15759741698E+02 -0.18651738337E+02  0.24003385252E+02  0.34240772027E+02  0.10566000000E+00 0. -1.
         23    2    1    0    0    0 -0.15837026753E+00  0.16352196013E+02 -0.24181847840E+02  0.95807857898E+02  0.91252202573E+02 0.  0.
         13    1    3    3    0    0  0.15601371431E+02  0.35003934350E+02 -0.48185233092E+02  0.61567085871E+02  0.10566000000E+00 0.  1.
         22    1    1    0    0    0  0.15837026753E+00 -0.16352196013E+02  0.24181847840E+02  0.29192142102E+02  0.00000000000E+00 0.  1.
</event>
<event>
 5    1  0.6924836E-004  0.9118800E+02  0.7818608E-02  0.1130116E+00
         25   -1    0    0    0    0  0.00000000000E+00  0.00000000000E+00  0.99999998245E-14  0.12500000000E+03  0.12500000000E+03 0.  0.
        -13    1    3    3    0    0 -0.26658555159E+02 -0.29825510712E+01  0.21203611201E+02  0.34193251762E+02  0.10566000000E+00 0. -1.
         23    2    1    0    0    0  0.26579956252E+02  0.82156136643E+01 -0.81493805909E+01  0.96010298617E+02  0.91529091847E+02 0.  0.
         13    1    3    3    0    0  0.53238511412E+02  0.11198164735E+02 -0.29352991791E+02  0.61817046855E+02  0.10566000000E+00 0.  1.
         22    1    1    0    0    0 -0.26579956252E+02 -0.82156136643E+01  0.81493805909E+01  0.28989701383E+02  0.00000000000E+00 0.  1.
</event>
<event>
 5    1  0.6924836E-004  0.9118800E+02  0.7818608E-02  0.1130116E+00
         25   -1    0    0    0    0  0.00000000000E+00  0.00000000000E+00  0.99999998245E-14  0.12500000000E+03  0.12500000000E+03 0.  0.
        -13    1    3    3    0    0 -0.36460719962E+01 -0.24053719505E+02 -0.49815595285E+02  0.55438975104E+02  0.10566000000E+00 0. -1.
         23    2    1    0    0    0 -0.10090201896E+02  0.71324611017E+01 -0.28982541117E+02  0.93493304438E+02  0.88024576735E+02 0.  0.
         13    1    3    3    0    0 -0.64441299000E+01  0.31186180607E+02  0.20833054168E+02  0.38054329333E+02  0.10566000000E+00 0.  1.
         22    1    1    0    0    0  0.10090201896E+02 -0.71324611017E+01  0.28982541117E+02  0.31506695562E+02  0.00000000000E+00 0. -1.
</event>
<event>
 5    1  0.6924836E-004  0.9118800E+02  0.7818608E-02  0.1130116E+00
         25   -1    0    0    0    0  0.00000000000E+00  0.00000000000E+00  0.99999998245E-14  0.12500000000E+03  0.12500000000E+03 0.  0.
        -13    1    3    3    0    0 -0.17818761538E+02  0.27578400426E+02 -0.21061329734E+02  0.39008552998E+02  0.10566000000E+00 0.  1.
         23    2    1    0    0    0  0.19666285622E+02 -0.13786595532E+02 -0.18129186676E+02  0.94908466040E+02  0.90011757621E+02 0.  0.
         13    1    3    3    0    0  0.37485047160E+02 -0.41364995958E+02  0.29321430580E+01  0.55899913042E+02  0.10566000000E+00 0. -1.
         22    1    1    0    0    0 -0.19666285622E+02  0.13786595532E+02  0.18129186676E+02  0.30091533960E+02  0.00000000000E+00 0. -1.
</event>
<event>
 5    1  0.6924836E-004  0.9118800E+02  0.7818608E-02  0.1130116E+00
         25   -1    0    0    0    0  0.00000000000E+00  0.00000000000E+00  0.99999998245E-14  0.12500000000E+03  0.12500000000E+03 0.  0.
        -13    1    3    3    0    0 -0.42221441926E+01  0.38887313806E+02  0.25247808888E+02  0.46556553720E+02  0.10566000000E+00 0. -1.
         23    2    1    0    0    0 -0.27947675071E+02  0.10843530299E+00  0.38970821202E+01  0.96781716049E+02  0.92576611583E+02 0.  0.
         13    1    3    3    0    0 -0.23725530878E+02 -0.38778878503E+02 -0.21350726767E+02  0.50225162329E+02  0.10566000000E+00 0.  1.
         22    1    1    0    0    0  0.27947675071E+02 -0.10843530299E+00 -0.38970821202E+01  0.28218283951E+02  0.00000000000E+00 0. -1.
</event>
<event>
 5    1  0.6924836E-004  0.9118800E+02  0.7818608E-02  0.1130116E+00
         25   -1    0    0    0    0  0.00000000000E+00  0.00000000000E+00  0.99999998245E-14  0.12500000000E+03  0.12500000000E+03 0.  0.
        -13    1    3    3    0    0  0.77226878440E+01 -0.50148854534E+02  0.22263520306E+01  0.50788929167E+02  0.10566000000E+00 0. -1.
         23    2    1    0    0    0 -0.22840187060E+02 -0.13793521111E+02  0.72356984944E+00  0.98308073825E+02  0.94615106914E+02 0.  0.
         13    1    3    3    0    0 -0.30562874904E+02  0.36355333423E+02 -0.15027821811E+01  0.47519144658E+02  0.10566000000E+00 0.  1.
         22    1    1    0    0    0  0.22840187060E+02  0.13793521111E+02 -0.72356984944E+00  0.26691926175E+02  0.00000000000E+00 0.  1.
</event>
<event>
 5    1  0.6924836E-004  0.9118800E+02  0.7818608E-02  0.1130116E+00
         25   -1    0    0    0    0  0.00000000000E+00  0.00000000000E+00  0.99999998245E-14  0.12500000000E+03  0.12500000000E+03 0.  0.
        -13    1    3    3    0    0 -0.29148365080E+02  0.28022191527E+02 -0.15871700588E+02  0.43437224225E+02  0.10566000000E+00 0. -1.
         23    2    1    0    0    0  0.15173710192E+02  0.26218650477E+02  0.78027649581E+01  0.93718339961E+02  0.88343562245E+02 0.  0.
         13    1    3    3    0    0  0.44322075272E+02 -0.18035410504E+01  0.23674465546E+02  0.50281115736E+02  0.10566000000E+00 0.  1.
         22    1    1    0    0    0 -0.15173710192E+02 -0.26218650477E+02 -0.78027649581E+01  0.31281660039E+02  0.00000000000E+00 0. -1.
</event>
<event>
 5    1  0.6924836E-004  0.9118800E+02  0.7818608E-02  0.1130116E+00
         25   -1    0    0    0    0  0.00000000000E+00  0.00000000000E+00  0.99999998245E-14  0.12500000000E+03  0.12500000000E+03 0.  0.
        -13    1    3    3    0    0 -0.33920238496E+02  0.10017591296E+02  0.29611767162E+02  0.46128111098E+02  0.10566000000E+00 0.  1.
         23    2    1    0    0    0  0.13000898621E+02  0.86881478253E+01  0.27801163339E+02  0.93103104217E+02  0.87468714717E+02 0.  0.
         13    1    3    3    0    0  0.46921137116E+02 -0.13294434710E+01 -0.18106038229E+01  0.46974993119E+02  0.10566000000E+00 0. -1.
         22    1    1    0    0    0 -0.13000898621E+02 -0.86881478253E+01 -0.27801163339E+02  0.31896895783E+02  0.00000000000E+00 0. -1.
</event>
<event>
 5    1  0.6924836E-004  0.9118800E+02  0.7818608E-02  0.1130116E+00
         25   -1    0    0    0    0  0.00000000000E+00  0.00000000000E+00  0.99999998245E-14  0.12500000000E+03  0.12500000000E+03 0.  0.
        -13    1    3    3    0    0  0.32093228250E+02 -0.46695613058E+02  0.85338531646E+01  0.57300029601E+02  0.10566000000E+00 0.  1.
         23    2    1    0    0    0  0.19952174132E+02 -0.17171918605E+02 -0.12833678946E+02  0.95714041650E+02  0.91123599647E+02 0.  0.
         13    1    3    3    0    0 -0.12141054119E+02  0.29523694452E+02 -0.21367532110E+02  0.38414012050E+02  0.10566000000E+00 0. -1.
         22    1    1    0    0    0 -0.19952174132E+02  0.17171918605E+02  0.12833678946E+02  0.29285958350E+02  0.00000000000E+00 0.  1.
</event>
<event>
 5    1  0.6924836E-004  0.9118800E+02  0.7818608E-02  0.1130116E+00
         25   -1    0    0    0    0  0.00000000000E+00  0.00000000000E+00  0.99999998245E-14  0.12500000000E+03  0.12500000000E+03 0.  0.
        -13    1    3    3    0    0 -0.28163247731E+02  0.78728995083E+01  0.22164105522E+02  0.36693457278E+02  0.10566000000E+00 0. -1.
         23    2    1    0    0    0  0.28413102293E+02  0.11893734510E+01  0.56785355160E+01  0.96000607649E+02  0.91515856070E+02 0.  0.
         13    1    3    3    0    0  0.56576350024E+02 -0.66835260573E+01 -0.16485570006E+02  0.59307150371E+02  0.10566000000E+00 0.  1.
         22    1    1    0    0    0 -0.28413102293E+02 -0.11893734510E+01 -0.56785355160E+01  0.28999392351E+02  0.00000000000E+00 0.  1.
</event>
<event>
 5    1  0.6924836E-004  0.9118800E+02  0.7818608E-02  0.1130116E+00
         25   -1    0    0    0    0  0.00000000000E+00  0.00000000000E+00  0.99999998245E-14  0.12500000000E+03  0.12500000000E+03 0.  0.
        -13    1    3    3    0    0  0.12525928920E+02  0.18441526996E+02 -0.57627720511E+02  0.61789595796E+02  0.10566000000E+00 0.  1.
         23    2    1    0    0    0  0.98770050816E+01  0.32579537249E+01 -0.26716847477E+02  0.96330165139E+02  0.91964891587E+02 0.  0.
         13    1    3    3    0    0 -0.26489238387E+01 -0.15183573272E+02  0.30910873034E+02  0.34540569343E+02  0.10566000000E+00 0. -1.
         22    1    1    0    0    0 -0.98770050816E+01 -0.32579537249E+01  0.26716847477E+02  0.28669834861E+02  0.00000000000E+00 0.  1.
</event>
<event>
 5    1  0.6924836E-004  0.9118800E+02  0.7818608E-02  0.1130116E+00
         25   -1    0    0    0    0  0.00000000000E+00  0.00000000000E+00  0.99999998245E-14  0.12500000000E+03  0.12500000000E+03 0.  0.
        -13    1    3    3    0    0 -0.49711617191E+02  0.27070231519E+02  0.55583184709E+01  0.56876606672E+02  0.10566000000E+00 0. -1.
         23    2    1    0    0    0 -0.25765560403E+02 -0.10735812737E+01  0.15199190906E+02  0.95066204988E+02  0.90230544978E+02 0.  0.
         13    1    3    3    0    0  0.23946056788E+02 -0.28143812792E+02  0.96408724348E+01  0.38189598316E+02  0.10566000000E+00 0.  1.
         22    1    1    0    0    0  0.25765560403E+02  0.10735812737E+01 -0.15199190906E+02  0.29933795012E+02  0.00000000000E+00 0. -1.
</event>
<event>
 5    1  0.6924836E-004  0.9118800E+02  0.7818608E-02  0.1130116E+00
         25   -1    0    0    0    0  0.00000000000E+00  0.00000000000E+00  0.99999998245E-14  0.12500000000E+03  0.12500000000E+03 0.  0.
        -13    1    3    3    0    0  0.37601499251E+02 -0.10995248840E+02 -0.24634734283E+01  0.39253638154E+02  0.10566000000E+00 0.  1.
         23    2    1    0    0    0 -0.98948628883E+01  0.23822751696E+02 -0.68553059750E+01  0.98308671259E+02  0.94615896205E+02 0.  0.
         13    1    3    3    0    0 -0.47496362139E+02  0.34818000536E+02 -0.43918325466E+01  0.59055033104E+02  0.10566000000E+00 0. -1.
         22    1    1    0    0    0  0.98948628883E+01 -0.23822751696E+02  0.68553059750E+01  0.26691328741E+02  0.00000000000E+00 0. -1.
</event>
<event>
 5    1  0.6924836E-004  0.9118800E+02  0.7818608E-02  0.1130116E+00
         25   -1    0    0    0    0  0.00000000000E+00  0.00000000000E+00  0.99999998245E-14  0.12500000000E+03  0.12500000000E+03 0.  0.
        -13    1    3    3    0    0 -0.23076169195E+02  0.27547567266E+02 -0.39792869293E+02  0.53617736409E+02  0.10566000000E+00 0.  1.
         23    2    1    0    0    0 -0.13520665958E+02 -0.20598690639E+01 -0.37810210801E+02  0.84792245657E+02  0.74652939756E+02 0.  0.
         13    1    3    3    0    0  0.95555032372E+01 -0.29607436330E+02  0.19826584918E+01  0.31174509248E+02  0.10566000000E+00 0. -1.
         22    1    1    0    0    0  0.13520665958E+02  0.20598690639E+01  0.37810210801E+02  0.40207754343E+02  0.00000000000E+00 0.  1.
</event>
<event>
 5    1  0.6924836E-004  0.9118800E+02  0.7818608E-02  0.1130116E+00
         25   -1    0    0    0    0  0.00000000000E+00  0.00000000000E+00  0.99999998245E-14  0.12500000000E+03  0.12500000000E+03 0.  0.
        -13    1    3    3    0    0  0.38297610470E+02  0.18213850080E+02  0.44190999563E+01  0.42637904627E+02  0.10566000000E+00 0.  1.
         23    2    1    0    0    0  0.10707898828E+02 -0.26648384411E+02 -0.41000276569E+01  0.95989558503E+02  0.91500762980E+02 0.  0.
         13    1    3    3    0    0 -0.27589711642E+02 -0.44862234491E+02 -0.85191276132E+01  0.53351653877E+02  0.10566000000E+00 0. -1.
         22    1    1    0    0    0 -0.10707898828E+02  0.26648384411E+02  0.41000276569E+01  0.29010441497E+02  0.00000000000E+00 0. -1.
</event>
<event>
 5    1  0.6924836E-004  0.9118800E+02  0.7818608E-02  0.1130116E+00
         25   -1    0    0    0    0  0.00000000000E+00  0.00000000000E+00  0.99999998245E-14  0.12500000000E+03  0.12500000000E+03 0.  0.
        -13    1    3    3    0    0  0.32184595998E+01 -0.12941555319E+02 -0.56680022475E+02  0.58227815072E+02  0.10566000000E+00 0.  1.
         23    2    1    0    0    0 -0.10824141797E+02 -0.16335838496E+02 -0.23603650100E+02  0.94321767277E+02  0.89193283487E+02 0.  0.
         13    1    3    3    0    0 -0.14042601396E+02 -0.33942831773E+01  0.33076372375E+02  0.36093952205E+02  0.10566000000E+00 0. -1.
         22    1    1    0    0    0  0.10824141797E+02  0.16335838496E+02  0.23603650100E+02  0.30678232723E+02  0.00000000000E+00 0.  1.
</event>
<event>
 5    1  0.6924836E-004  0.9118800E+02  0.7818608E-02  0.1130116E+00
         25   -1    0    0    0    0  0.00000000000E+00  0.00000000000E+00  0.99999998245E-14  0.12500000000E+03  0.12500000000E+03 0.  0.
        -13    1    3    3    0    0 -0.36288777236E+01  0.79521065639E+01  0.34980647065E+02  0.36056366781E+02  0.10566000000E+00 0.  1.
         23    2    1    0    0    0  0.94444986109E+01  0.20120528144E+02 -0.20758446151E+02  0.94587053852E+02  0.89564297926E+02 0.  0.
         13    1    3    3    0    0  0.13073376335E+02  0.12168421580E+02 -0.55739093215E+02  0.58530687071E+02  0.10566000000E+00 0. -1.
         22    1    1    0    0    0 -0.94444986109E+01 -0.20120528144E+02  0.20758446151E+02  0.30412946148E+02  0.00000000000E+00 0. -1.
</event>
<event>
 5    1  0.6924836E-004  0.9118800E+02  0.7818608E-02  0.1130116E+00
         25   -1    0    0    0    0  0.00000000000E+00  0.00000000000E+00  0.99999998245E-14  0.12500000000E+03  0.12500000000E+03 0.  0.
        -13    1    3    3    0    0  0.28410987648E+02 -0.26786959935E+02  0.54525681493E-01  0.39047913885E+02  0.10566000000E+00 0. -1.
         23    2    1    0    0    0 -0.17970988633E+02 -0.27789598015E+01 -0.22613185189E+02  0.95982157309E+02  0.91490651584E+02 0.  0.
         13    1    3    3    0    0 -0.46381976281E+02  0.24008000133E+02 -0.22667710871E+02  0.56934243424E+02  0.10566000000E+00 0.  1.
         22    1    1    0    0    0  0.17970988633E+02  0.27789598015E+01  0.22613185189E+02  0.29017842691E+02  0.00000000000E+00 0.  1.
</event>
<event>
 5    1  0.6924836E-004  0.9118800E+02  0.7818608E-02  0.1130116E+00
         25   -1    0    0    0    0  0.00000000000E+00  0.00000000000E+00  0.99999998245E-14  0.12500000000E+03  0.12500000000E+03 0.  0.
        -13    1    3    3    0    0  0.18312540911E+01 -0.22763757936E+02 -0.30337314815E+02  0.37972437387E+02  0.10566000000E+00 0. -1.
         23    2    1    0    0    0 -0.89234943537E+01  0.27522709619E+02 -0.38656657189E+01  0.95809733340E+02  0.91254771574E+02 0.  0.
         13    1    3    3    0    0 -0.10754748445E+02  0.50286467554E+02  0.26471649096E+02  0.57837295953E+02  0.10566000000E+00 0.  1.
         22    1    1    0    0    0  0.89234943537E+01 -0.27522709619E+02  0.38656657189E+01  0.29190266660E+02  0.00000000000E+00 0.  1.
</event>
<event>
 5    1  0.6924836E-004  0.9118800E+02  0.7818608E-02  0.1130116E+00
         25   -1    0    0    0    0  0.00000000000E+00  0.00000000000E+00  0.99999998245E-14  0.12500000000E+03  0.12500000000E+03 0.  0.
        -13    1    3    3    0    0  0.26206678667E+02 -0.24291996090E+02 -0.47617931974E+02  0.59534609181E+02  0.10566000000E+00 0.  1.
         23    2    1    0    0    0  0.11294166980E+02 -0.33630590389E+01 -0.34812889912E+02  0.88246691606E+02  0.80228878226E+02 0.  0.
         13    1    3    3    0    0 -0.14912511688E+02  0.20928937051E+02  0.12805042062E+02  0.28712082425E+02  0.10566000000E+00 0. -1.
         22    1    1    0    0    0 -0.11294166980E+02  0.33630590389E+01  0.34812889912E+02  0.36753308394E+02  0.00000000000E+00 0.  1.
</event>
<event>
 5    1  0.6924836E-004  0.9118800E+02  0.7818608E-02  0.1130116E+00
         25   -1    0    0    0    0  0.00000000000E+00  0.00000000000E+00  0.99999998245E-14  0.12500000000E+03  0.12500000000E+03 0.  0.
        -13    1    3    3    0    0  0.23079589737E+02  0.17855439673E+02 -0.16856201055E+02  0.33699063286E+02  0.10566000000E+00 0.  1.
         23    2    1    0    0    0 -0.15454956762E+02 -0.15638064742E+02  0.18880297852E+02  0.96019482331E+02  0.91541633058E+02 0.  0.
         13    1    3    3    0    0 -0.38534546499E+02 -0.33493504415E+02  0.35736498906E+02  0.62320419045E+02  0.10566000000E+00 0. -1.
         22    1    1    0    0    0  0.15454956762E+02  0.15638064742E+02 -0.18880297852E+02  0.28980517669E+02  0.00000000000E+00 0. -1.
</event>
<event>
 5    1  0.6924836E-004  0.9118800E+02  0.7818608E-02  0.1130116E+00
         25   -1    0    0    0    0  0.00000000000E+00  0.00000000000E+00  0.99999998245E-14  0.12500000000E+03  0.12500000000E+03 0.  0.
        -13    1    3    3    0    0 -0.40496881927E+01 -0.24122428996E+02  0.32612407384E+02  0.40766062288E+02  0.10566000000E+00 0.  1.
         23    2    1    0    0    0  0.60172197369E+01 -0.22858181618E+02 -0.19808806339E+02  0.94160217108E+02  0.88966590791E+02 0.  0.
         13    1    3    3    0    0  0.10066907930E+02  0.12642473778E+01 -0.52421213723E+02  0.53394154820E+02  0.10566000000E+00 0. -1.
         22    1    1    0    0    0 -0.60172197369E+01  0.22858181618E+02  0.19808806339E+02  0.30839782892E+02  0.00000000000E+00 0. -1.
</event>
<event>
 5    1  0.6924836E-004  0.9118800E+02  0.7818608E-02  0.1130116E+00
         25   -1    0    0    0    0  0.00000000000E+00  0.00000000000E+00  0.99999998245E-14  0.12500000000E+03  0.12500000000E+03 0.  0.
        -13    1    3    3    0    0  0.29244158945E+02 -0.24829694759E+02 -0.21832431141E+02  0.44140693105E+02  0.10566000000E+00 0.  1.
         23    2    1    0    0    0  0.15715426059E+02  0.23016603347E+02 -0.11054255843E+02  0.95017751617E+02  0.90163395589E+02 0.  0.
         13    1    3    3    0    0 -0.13528732886E+02  0.47846298107E+02  0.10778175298E+02  0.50877058512E+02  0.10566000000E+00 0. -1.
         22    1    1    0    0    0 -0.15715426059E+02 -0.23016603347E+02  0.11054255843E+02  0.29982248383E+02  0.00000000000E+00 0. -1.
</event>
<event>
 5    1  0.6924836E-004  0.9118800E+02  0.7818608E-02  0.1130116E+00
         25   -1    0    0    0    0  0.00000000000E+00  0.00000000000E+00  0.99999998245E-14  0.12500000000E+03  0.12500000000E+03 0.  0.
        -13    1    3    3    0    0 -0.11607429815E+02 -0.36072111201E+02  0.27276795171E+02  0.46690088373E+02  0.10566000000E+00 0.  1.
         23    2    1    0    0    0  0.23249150493E+02 -0.18109375292E+02 -0.17511838303E+01  0.95478158647E+02  0.90799447474E+02 0.  0.
         13    1    3    3    0    0  0.34856580308E+02  0.17962735910E+02 -0.29027979001E+02  0.48788070274E+02  0.10566000000E+00 0. -1.
         22    1    1    0    0    0 -0.23249150493E+02  0.18109375292E+02  0.17511838303E+01  0.29521841353E+02  0.00000000000E+00 0.  1.
</event>
<event>
 5    1  0.6924836E-004  0.9118800E+02  0.7818608E-02  0.1130116E+00
         25   -1    0    0    0    0  0.00000000000E+00  0.00000000000E+00  0.99999998245E-14  0.12500000000E+03  0.12500000000E+03 0.  0.
        -13    1    3    3    0    0 -0.35927741986E+02  0.38087679630E+01 -0.30035296067E+02  0.46983396339E+02  0.10566000000E+00 0.  1.
         23    2    1    0    0    0  0.10953537622E+02  0.17348966012E+02 -0.19050330508E+02  0.97002112569E+02  0.92873721484E+02 0.  0.
         13    1    3    3    0    0  0.46881279608E+02  0.13540198049E+02  0.10984965560E+02  0.50018716230E+02  0.10566000000E+00 0. -1.
         22    1    1    0    0    0 -0.10953537622E+02 -0.17348966012E+02  0.19050330508E+02  0.27997887431E+02  0.00000000000E+00 0. -1.
</event>
<event>
 5    1  0.6924836E-004  0.9118800E+02  0.7818608E-02  0.1130116E+00
         25   -1    0    0    0    0  0.00000000000E+00  0.00000000000E+00  0.99999998245E-14  0.12500000000E+03  0.12500000000E+03 0.  0.
        -13    1    3    3    0    0 -0.46026096643E+01  0.33483826034E+02 -0.18717141751E+02  0.38635387677E+02  0.10566000000E+00 0.  1.
         23    2    1    0    0    0  0.27226935916E+02 -0.81310137626E+01  0.50045794947E+01  0.96147526274E+02  0.91716310264E+02 0.  0.
         13    1    3    3    0    0  0.31829545580E+02 -0.41614839796E+02  0.23721721246E+02  0.57512138597E+02  0.10566000000E+00 0. -1.
         22    1    1    0    0    0 -0.27226935916E+02  0.81310137626E+01 -0.50045794947E+01  0.28852473726E+02  0.00000000000E+00 0. -1.
</event>
<event>
 5    1  0.6924836E-004  0.9118800E+02  0.7818608E-02  0.1130116E+00
         25   -1    0    0    0    0  0.00000000000E+00  0.00000000000E+00  0.99999998245E-14  0.12500000000E+03  0.12500000000E+03 0.  0.
        -13    1    3    3    0    0 -0.12930295064E+02  0.20732241446E+01 -0.53320981458E+02  0.54905637383E+02  0.10566000000E+00 0.  1.
         23    2    1    0    0    0 -0.98676049101E+01  0.21244826279E+02 -0.17113673944E+02  0.95989827540E+02  0.91501130512E+02 0.  0.
         13    1    3    3    0    0  0.30626901535E+01  0.19171602135E+02  0.36207307514E+02  0.41084190157E+02  0.10566000000E+00 0. -1.
         22    1    1    0    0    0  0.98676049101E+01 -0.21244826279E+02  0.17113673944E+02  0.29010172460E+02  0.00000000000E+00 0. -1.
</event>
<event>
 5    1  0.6924836E-004  0.9118800E+02  0.7818608E-02  0.1130116E+00
         25   -1    0    0    0    0  0.00000000000E+00  0.00000000000E+00  0.99999998245E-14  0.12500000000E+03  0.12500000000E+03 0.  0.
        -13    1    3    3    0    0 -0.46843629744E+02  0.21608126501E+02  0.34235729524E+02  0.61913917002E+02  0.10566000000E+00 0.  1.
         23    2    1    0    0    0 -0.24854905779E+02  0.58515804945E+01  0.12752883263E+02  0.96458041989E+02  0.92138539696E+02 0.  0.
         13    1    3    3    0    0  0.21988723964E+02 -0.15756546006E+02 -0.21482846261E+02  0.34544124987E+02  0.10566000000E+00 0. -1.
         22    1    1    0    0    0  0.24854905779E+02 -0.58515804945E+01 -0.12752883263E+02  0.28541958011E+02  0.00000000000E+00 0.  1.
</event>
<event>
 5    1  0.6924836E-004  0.9118800E+02  0.7818608E-02  0.1130116E+00
         25   -1    0    0    0    0  0.00000000000E+00  0.00000000000E+00  0.99999998245E-14  0.12500000000E+03  0.12500000000E+03 0.  0.
        -13    1    3    3    0    0  0.19099672953E+02 -0.10741135043E+01  0.25366715295E+02  0.31771569612E+02  0.10566000000E+00 0.  1.
         23    2    1    0    0    0 -0.24213705799E+02  0.27183172821E+02  0.19439634219E+01  0.88544445870E+02  0.80691458455E+02 0.  0.
         13    1    3    3    0    0 -0.43313378751E+02  0.28257286325E+02 -0.23422751873E+02  0.56772876258E+02  0.10566000000E+00 0. -1.
         22    1    1    0    0    0  0.24213705799E+02 -0.27183172821E+02 -0.19439634219E+01  0.36455554130E+02  0.00000000000E+00 0. -1.
</event>
<event>
 5    1  0.6924836E-004  0.9118800E+02  0.7818608E-02  0.1130116E+00
         25   -1    0    0    0    0  0.00000000000E+00  0.00000000000E+00  0.99999998245E-14  0.12500000000E+03  0.12500000000E+03 0.  0.
        -13    1    3    3    0    0 -0.67646389677E+01  0.85710873702E+01  0.43162395940E+02  0.44522213179E+02  0.10566000000E+00 0.  1.
         23    2    1    0    0    0  0.21236262278E+02 -0.19066472810E+02  0.19533561543E+02  0.90415765911E+02  0.83540059119E+02 0.  0.
         13    1    3    3    0    0  0.28000901246E+02 -0.27637560181E+02 -0.23628834397E+02  0.45893552731E+02  0.10566000000E+00 0. -1.
         22    1    1    0    0    0 -0.21236262278E+02  0.19066472810E+02 -0.19533561543E+02  0.34584234089E+02  0.00000000000E+00 0.  1.
</event>
<event>
 5    1  0.6924836E-004  0.9118800E+02  0.7818608E-02  0.1130116E+00
         25   -1    0    0    0    0  0.00000000000E+00  0.00000000000E+00  0.99999998245E-14  0.12500000000E+03  0.12500000000E+03 0.  0.
        -13    1    3    3    0    0  0.44687312389E+02  0.43210488468E+01  0.32214379301E+02  0.55257621641E+02  0.10566000000E+00 0.  1.
         23    2    1    0    0    0  0.38878212668E+02 -0.42616063071E+01  0.35618360327E+01  0.85727065497E+02  0.76202141533E+02 0.  0.
         13    1    3    3    0    0 -0.58090997207E+01 -0.85826551538E+01 -0.28652543268E+02  0.30469443855E+02  0.10566000000E+00 0. -1.
         22    1    1    0    0    0 -0.38878212668E+02  0.42616063071E+01 -0.35618360327E+01  0.39272934503E+02  0.00000000000E+00 0.  1.
</event>
<event>
 5    1  0.6924836E-004  0.9118800E+02  0.7818608E-02  0.1130116E+00
         25   -1    0    0    0    0  0.00000000000E+00  0.00000000000E+00  0.99999998245E-14  0.12500000000E+03  0.12500000000E+03 0.  0.
        -13    1    3    3    0    0  0.41133169873E+02 -0.14595440899E+02 -0.37316227970E+02  0.57423658824E+02  0.10566000000E+00 0.  1.
         23    2    1    0    0    0  0.11942204690E+02  0.68652622716E+01 -0.26331174643E+02  0.95283357575E+02  0.90530875361E+02 0.  0.
         13    1    3    3    0    0 -0.29190965183E+02  0.21460703170E+02  0.10985053326E+02  0.37859698751E+02  0.10566000000E+00 0. -1.
         22    1    1    0    0    0 -0.11942204690E+02 -0.68652622716E+01  0.26331174643E+02  0.29716642425E+02  0.00000000000E+00 0.  1.
</event>
<event>
 5    1  0.6924836E-004  0.9118800E+02  0.7818608E-02  0.1130116E+00
         25   -1    0    0    0    0  0.00000000000E+00  0.00000000000E+00  0.99999998245E-14  0.12500000000E+03  0.12500000000E+03 0.  0.
        -13    1    3    3    0    0 -0.96892211650E+01 -0.41185557269E+02 -0.31424287270E+02  0.52703207956E+02  0.10566000000E+00 0.  1.
         23    2    1    0    0    0 -0.19248086966E+02 -0.23398128594E+01 -0.25222689663E+02  0.93185731976E+02  0.87586716996E+02 0.  0.
         13    1    3    3    0    0 -0.95588658007E+01  0.38845744410E+02  0.62015976067E+01  0.40482524021E+02  0.10566000000E+00 0. -1.
         22    1    1    0    0    0  0.19248086966E+02  0.23398128594E+01  0.25222689663E+02  0.31814268024E+02  0.00000000000E+00 0.  1.
</event>
<event>
 5    1  0.6924836E-004  0.9118800E+02  0.7818608E-02  0.1130116E+00
         25   -1    0    0    0    0  0.00000000000E+00  0.00000000000E+00  0.99999998245E-14  0.12500000000E+03  0.12500000000E+03 0.  0.
        -13    1    3    3    0    0  0.16902521287E+02 -0.95799130229E+01 -0.30373366537E+02  0.36055825025E+02  0.10566000000E+00 0.  1.
         23    2    1    0    0    0 -0.22181883934E+02  0.15287974101E+02  0.87327128681E+01  0.96680070604E+02  0.92439264660E+02 0.  0.
         13    1    3    3    0    0 -0.39084405222E+02  0.24867887123E+02  0.39106079405E+02  0.60624245579E+02  0.10566000000E+00 0. -1.
         22    1    1    0    0    0  0.22181883934E+02 -0.15287974101E+02 -0.87327128681E+01  0.28319929396E+02  0.00000000000E+00 0. -1.
</event>
<event>
 5    1  0.6924836E-004  0.9118800E+02  0.7818608E-02  0.1130116E+00
         25   -1    0    0    0    0  0.00000000000E+00  0.00000000000E+00  0.99999998245E-14  0.12500000000E+03  0.12500000000E+03 0.  0.
        -13    1    3    3    0    0 -0.19860900396E+02  0.54016039183E+02 -0.20829536728E+02  0.61205135552E+02  0.10566000000E+00 0.  1.
         23    2    1    0    0    0 -0.51534579158E+01  0.29153905829E+02 -0.27878519996E+01  0.95263146227E+02  0.90502964353E+02 0.  0.
         13    1    3    3    0    0  0.14707442481E+02 -0.24862133354E+02  0.18041684729E+02  0.34058010675E+02  0.10566000000E+00 0. -1.
         22    1    1    0    0    0  0.51534579158E+01 -0.29153905829E+02  0.27878519996E+01  0.29736853773E+02  0.00000000000E+00 0.  1.
</event>
<event>
 5    1  0.6924836E-004  0.9118800E+02  0.7818608E-02  0.1130116E+00
         25   -1    0    0    0    0  0.00000000000E+00  0.00000000000E+00  0.99999998245E-14  0.12500000000E+03  0.12500000000E+03 0.  0.
        -13    1    3    3    0    0 -0.19877978502E+02  0.42800700540E+02 -0.40089555005E+02  0.61921059265E+02  0.10566000000E+00 0.  1.
         23    2    1    0    0    0 -0.61404404756E+01  0.26182025131E+02 -0.19076329509E+02  0.92028651881E+02  0.85919514491E+02 0.  0.
         13    1    3    3    0    0  0.13737538026E+02 -0.16618675408E+02  0.21013225496E+02  0.30107592616E+02  0.10566000000E+00 0. -1.
         22    1    1    0    0    0  0.61404404756E+01 -0.26182025131E+02  0.19076329509E+02  0.32971348119E+02  0.00000000000E+00 0.  1.
</event>
<event>
 5    1  0.6924836E-004  0.9118800E+02  0.7818608E-02  0.1130116E+00
         25   -1    0    0    0    0  0.00000000000E+00  0.00000000000E+00  0.99999998245E-14  0.12500000000E+03  0.12500000000E+03 0.  0.
        -13    1    3    3    0    0 -0.19913719390E+02 -0.16294360092E+02 -0.52747068195E+02  0.58688386908E+02  0.10566000000E+00 0. -1.
         23    2    1    0    0    0 -0.65761372748E+01 -0.22052589669E+02 -0.20008144763E+02  0.94505932554E+02  0.89451009712E+02 0.  0.
         13    1    3    3    0    0  0.13337582115E+02 -0.57582295772E+01  0.32738923432E+02  0.35817545646E+02  0.10566000000E+00 0.  1.
         22    1    1    0    0    0  0.65761372748E+01  0.22052589669E+02  0.20008144763E+02  0.30494067446E+02  0.00000000000E+00 0. -1.
</event>
<event>
 5    1  0.6924836E-004  0.9118800E+02  0.7818608E-02  0.1130116E+00
         25   -1    0    0    0    0  0.00000000000E+00  0.00000000000E+00  0.99999998245E-14  0.12500000000E+03  0.12500000000E+03 0.  0.
        -13    1    3    3    0    0 -0.17858107134E+02 -0.89781671073E+01 -0.40164362422E+02  0.44863199259E+02  0.10566000000E+00 0. -1.
         23    2    1    0    0    0 -0.23748037894E+02 -0.13492820919E+02  0.10254203529E+02  0.95825109938E+02  0.91275831874E+02 0.  0.
         13    1    3    3    0    0 -0.58899307599E+01 -0.45146538115E+01  0.50418565951E+02  0.50961910678E+02  0.10566000000E+00 0.  1.
         22    1    1    0    0    0  0.23748037894E+02  0.13492820919E+02 -0.10254203529E+02  0.29174890062E+02  0.00000000000E+00 0. -1.
</event>
<event>
 5    1  0.6924836E-004  0.9118800E+02  0.7818608E-02  0.1130116E+00
         25   -1    0    0    0    0  0.00000000000E+00  0.00000000000E+00  0.99999998245E-14  0.12500000000E+03  0.12500000000E+03 0.  0.
        -13    1    3    3    0    0  0.33767180837E+02 -0.56256387713E+01  0.43000810132E+02  0.54963179941E+02  0.10566000000E+00 0. -1.
         23    2    1    0    0    0 -0.37613499606E+01 -0.38119544201E+01  0.29700913754E+02  0.94820155271E+02  0.89889036138E+02 0.  0.
         13    1    3    3    0    0 -0.37528530798E+02  0.18136843512E+01 -0.13299896378E+02  0.39856975330E+02  0.10566000000E+00 0.  1.
         22    1    1    0    0    0  0.37613499606E+01  0.38119544201E+01 -0.29700913754E+02  0.30179844729E+02  0.00000000000E+00 0.  1.
</event>
<event>
 5    1  0.6924836E-004  0.9118800E+02  0.7818608E-02  0.1130116E+00
         25   -1    0    0    0    0  0.00000000000E+00  0.00000000000E+00  0.99999998245E-14  0.12500000000E+03  0.12500000000E+03 0.  0.
        -13    1    3    3    0    0  0.17328403177E+02  0.11203506148E+02  0.32799705614E+02  0.38750793012E+02  0.10566000000E+00 0. -1.
         23    2    1    0    0    0  0.62957808950E+01  0.29505888367E+02 -0.15144444703E+02  0.91242208148E+02  0.84767635551E+02 0.  0.
         13    1    3    3    0    0 -0.11032622282E+02  0.18302382219E+02 -0.47944150317E+02  0.52491415136E+02  0.10566000000E+00 0.  1.
         22    1    1    0    0    0 -0.62957808950E+01 -0.29505888367E+02  0.15144444703E+02  0.33757791852E+02  0.00000000000E+00 0.  1.
</event>
<event>
 5    1  0.6924836E-004  0.9118800E+02  0.7818608E-02  0.1130116E+00
         25   -1    0    0    0    0  0.00000000000E+00  0.00000000000E+00  0.99999998245E-14  0.12500000000E+03  0.12500000000E+03 0.  0.
        -13    1    3    3    0    0 -0.52529780272E+02 -0.85934930700E+01 -0.13546712335E+02  0.54924953506E+02  0.10566000000E+00 0. -1.
         23    2    1    0    0    0 -0.15521477372E+02  0.34763194405E+01 -0.24881745680E+02  0.95468621354E+02  0.90786316912E+02 0.  0.
         13    1    3    3    0    0  0.37008302900E+02  0.12069812510E+02 -0.11335033345E+02  0.40543667848E+02  0.10566000000E+00 0.  1.
         22    1    1    0    0    0  0.15521477372E+02 -0.34763194405E+01  0.24881745680E+02  0.29531378646E+02  0.00000000000E+00 0. -1.
</event>
<event>
 5    1  0.6924836E-004  0.9118800E+02  0.7818608E-02  0.1130116E+00
         25   -1    0    0    0    0  0.00000000000E+00  0.00000000000E+00  0.99999998245E-14  0.12500000000E+03  0.12500000000E+03 0.  0.
        -13    1    3    3    0    0  0.54564981923E+02 -0.25570104388E+02  0.15055640315E+02  0.62111600849E+02  0.10566000000E+00 0.  1.
         23    2    1    0    0    0  0.22674891104E+02 -0.16033380653E+02  0.71623576996E+01  0.96320401859E+02  0.91951620239E+02 0.  0.
         13    1    3    3    0    0 -0.31890090819E+02  0.95367237345E+01 -0.78932826158E+01  0.34208801010E+02  0.10566000000E+00 0. -1.
         22    1    1    0    0    0 -0.22674891104E+02  0.16033380653E+02 -0.71623576996E+01  0.28679598141E+02  0.00000000000E+00 0.  1.
</event>
<event>
 5    1  0.6924836E-004  0.9118800E+02  0.7818608E-02  0.1130116E+00
         25   -1    0    0    0    0  0.00000000000E+00  0.00000000000E+00  0.99999998245E-14  0.12500000000E+03  0.12500000000E+03 0.  0.
        -13    1    3    3    0    0 -0.50784502573E+01  0.18295183029E+02 -0.26674926801E+02  0.32742438257E+02  0.10566000000E+00 0. -1.
         23    2    1    0    0    0 -0.33490353342E+01 -0.13677412113E+02  0.26601991806E+02  0.94900936762E+02  0.90001301049E+02 0.  0.
         13    1    3    3    0    0  0.17294149231E+01 -0.31972595143E+02  0.53276918607E+02  0.62158498505E+02  0.10566000000E+00 0.  1.
         22    1    1    0    0    0  0.33490353342E+01  0.13677412113E+02 -0.26601991806E+02  0.30099063238E+02  0.00000000000E+00 0.  1.
</event>
<event>
 5    1  0.6924836E-004  0.9118800E+02  0.7818608E-02  0.1130116E+00
         25   -1    0    0    0    0  0.00000000000E+00  0.00000000000E+00  0.99999998245E-14  0.12500000000E+03  0.12500000000E+03 0.  0.
        -13    1    3    3    0    0  0.41966996339E+02 -0.14885512094E+02 -0.17822021519E+02  0.47962932219E+02  0.10566000000E+00 0.  1.
         23    2    1    0    0    0 -0.16803007065E+01 -0.25365083613E+01 -0.29933130071E+02  0.94912634529E+02  0.90017546246E+02 0.  0.
         13    1    3    3    0    0 -0.43647297045E+02  0.12349003733E+02 -0.12111108553E+02  0.46949702310E+02  0.10566000000E+00 0. -1.
         22    1    1    0    0    0  0.16803007065E+01  0.25365083613E+01  0.29933130071E+02  0.30087365471E+02  0.00000000000E+00 0.  1.
</event>
<event>
 5    1  0.6924836E-004  0.9118800E+02  0.7818608E-02  0.1130116E+00
         25   -1    0    0    0    0  0.00000000000E+00  0.00000000000E+00  0.99999998245E-14  0.12500000000E+03  0.12500000000E+03 0.  0.
        -13    1    3    3    0    0 -0.34197193218E+02  0.25523327309E+02 -0.24795861798E+02  0.49353157825E+02  0.10566000000E+00 0.  1.
         23    2    1    0    0    0  0.52679369450E+01  0.15476060669E+01 -0.28779001377E+02  0.95701925584E+02  0.91106977757E+02 0.  0.
         13    1    3    3    0    0  0.39465130163E+02 -0.23975721243E+02 -0.39831395789E+01  0.46348767759E+02  0.10566000000E+00 0. -1.
         22    1    1    0    0    0 -0.52679369450E+01 -0.15476060669E+01  0.28779001377E+02  0.29298074416E+02  0.00000000000E+00 0.  1.
</event>
<event>
 5    1  0.6924836E-004  0.9118800E+02  0.7818608E-02  0.1130116E+00
         25   -1    0    0    0    0  0.00000000000E+00  0.00000000000E+00  0.99999998245E-14  0.12500000000E+03  0.12500000000E+03 0.  0.
        -13    1    3    3    0    0  0.33158541898E+02 -0.24144413172E+02  0.12873522819E+02  0.42990468037E+02  0.10566000000E+00 0.  1.
         23    2    1    0    0    0 -0.19352413533E+02  0.25072279923E+01  0.12399366924E+02  0.10187974045E+03  0.99221646385E+02 0.  0.
         13    1    3    3    0    0 -0.52510955431E+02  0.26651641164E+02 -0.47415589472E+00  0.58889272409E+02  0.10566000000E+00 0. -1.
         22    1    1    0    0    0  0.19352413533E+02 -0.25072279923E+01 -0.12399366924E+02  0.23120259555E+02  0.00000000000E+00 0. -1.
</event>
<event>
 5    1  0.6924836E-004  0.9118800E+02  0.7818608E-02  0.1130116E+00
         25   -1    0    0    0    0  0.00000000000E+00  0.00000000000E+00  0.99999998245E-14  0.12500000000E+03  0.12500000000E+03 0.  0.
        -13    1    3    3    0    0 -0.63454529261E+01  0.43728937428E+02  0.10496340533E+02  0.45416616673E+02  0.10566000000E+00 0.  1.
         23    2    1    0    0    0 -0.31849841654E+02  0.54531579856E+01 -0.39896401322E+00  0.92684237319E+02  0.86868057016E+02 0.  0.
         13    1    3    3    0    0 -0.25504388728E+02 -0.38275779442E+02 -0.10895304547E+02  0.47267620646E+02  0.10566000000E+00 0. -1.
         22    1    1    0    0    0  0.31849841654E+02 -0.54531579856E+01  0.39896401322E+00  0.32315762681E+02  0.00000000000E+00 0.  1.
</event>
<event>
 5    1  0.6924836E-004  0.9118800E+02  0.7818608E-02  0.1130116E+00
         25   -1    0    0    0    0  0.00000000000E+00  0.00000000000E+00  0.99999998245E-14  0.12500000000E+03  0.12500000000E+03 0.  0.
        -13    1    3    3    0    0 -0.45946854740E+02  0.12799472803E+02  0.38231102045E+02  0.61127475754E+02  0.10566000000E+00 0.  1.
         23    2    1    0    0    0 -0.15418654636E+02  0.13606744715E+02  0.16961495804E+02  0.98343466984E+02  0.94661854756E+02 0.  0.
         13    1    3    3    0    0  0.30528200104E+02  0.80727191240E+00 -0.21269606240E+02  0.37215991229E+02  0.10566000000E+00 0. -1.
         22    1    1    0    0    0  0.15418654636E+02 -0.13606744715E+02 -0.16961495804E+02  0.26656533016E+02  0.00000000000E+00 0.  1.
</event>
<event>
 5    1  0.6924836E-004  0.9118800E+02  0.7818608E-02  0.1130116E+00
         25   -1    0    0    0    0  0.00000000000E+00  0.00000000000E+00  0.99999998245E-14  0.12500000000E+03  0.12500000000E+03 0.  0.
        -13    1    3    3    0    0  0.49676275909E+02  0.20422675275E+02 -0.10430262748E+02  0.54713979919E+02  0.10566000000E+00 0. -1.
         23    2    1    0    0    0  0.18166559869E+02 -0.17810456533E+01 -0.23343915109E+02  0.95366667523E+02  0.90645832120E+02 0.  0.
         13    1    3    3    0    0 -0.31509716040E+02 -0.22203720928E+02 -0.12913652362E+02  0.40652687603E+02  0.10566000000E+00 0.  1.
         22    1    1    0    0    0 -0.18166559869E+02  0.17810456533E+01  0.23343915109E+02  0.29633332477E+02  0.00000000000E+00 0.  1.
</event>
<event>
 5    1  0.6924836E-004  0.9118800E+02  0.7818608E-02  0.1130116E+00
         25   -1    0    0    0    0  0.00000000000E+00  0.00000000000E+00  0.99999998245E-14  0.12500000000E+03  0.12500000000E+03 0.  0.
        -13    1    3    3    0    0  0.46932508659E+02  0.17900811863E+02 -0.27223336611E+02  0.57133358510E+02  0.10566000000E+00 0.  1.
         23    2    1    0    0    0  0.18638678226E+02  0.23473464134E+02 -0.28498673189E+01  0.94891436630E+02  0.89988105645E+02 0.  0.
         13    1    3    3    0    0 -0.28293830433E+02  0.55726522712E+01  0.24373469292E+02  0.37758078120E+02  0.10566000000E+00 0. -1.
         22    1    1    0    0    0 -0.18638678226E+02 -0.23473464134E+02  0.28498673189E+01  0.30108563370E+02  0.00000000000E+00 0.  1.
</event>
<event>
 5    1  0.6924836E-004  0.9118800E+02  0.7818608E-02  0.1130116E+00
         25   -1    0    0    0    0  0.00000000000E+00  0.00000000000E+00  0.99999998245E-14  0.12500000000E+03  0.12500000000E+03 0.  0.
        -13    1    3    3    0    0  0.11015852272E+02 -0.39016567921E+02 -0.84337779399E+01  0.41409918474E+02  0.10566000000E+00 0. -1.
         23    2    1    0    0    0 -0.23046579030E+02 -0.15042364222E+01  0.15231729582E+02  0.97333899475E+02  0.93319209538E+02 0.  0.
         13    1    3    3    0    0 -0.34062431302E+02  0.37512331499E+02  0.23665507522E+02  0.55923981001E+02  0.10566000000E+00 0.  1.
         22    1    1    0    0    0  0.23046579030E+02  0.15042364222E+01 -0.15231729582E+02  0.27666100525E+02  0.00000000000E+00 0.  1.
</event>
<event>
 5    1  0.6924836E-004  0.9118800E+02  0.7818608E-02  0.1130116E+00
         25   -1    0    0    0    0  0.00000000000E+00  0.00000000000E+00  0.99999998245E-14  0.12500000000E+03  0.12500000000E+03 0.  0.
        -13    1    3    3    0    0 -0.20880620679E+02  0.41198867025E+02  0.14207486185E+02  0.48324018788E+02  0.10566000000E+00 0.  1.
         23    2    1    0    0    0 -0.39485660470E+02  0.17559555920E+02 -0.44084747864E+00  0.81783686722E+02  0.69432857355E+02 0.  0.
         13    1    3    3    0    0 -0.18605039791E+02 -0.23639311105E+02 -0.14648333664E+02  0.33459667935E+02  0.10566000000E+00 0. -1.
         22    1    1    0    0    0  0.39485660470E+02 -0.17559555920E+02  0.44084747864E+00  0.43216313278E+02  0.00000000000E+00 0.  1.
</event>
<event>
 5    1  0.6924836E-004  0.9118800E+02  0.7818608E-02  0.1130116E+00
         25   -1    0    0    0    0  0.00000000000E+00  0.00000000000E+00  0.99999998245E-14  0.12500000000E+03  0.12500000000E+03 0.  0.
        -13    1    3    3    0    0  0.25853804688E+02 -0.29105607410E+02  0.30219502433E+02  0.49282705799E+02  0.10566000000E+00 0.  1.
         23    2    1    0    0    0  0.29215458844E+02  0.50129356571E+01 -0.55435580888E+00  0.95352405329E+02  0.90626162516E+02 0.  0.
         13    1    3    3    0    0  0.33616541567E+01  0.34118543067E+02 -0.30773858242E+02  0.46069699530E+02  0.10566000000E+00 0. -1.
         22    1    1    0    0    0 -0.29215458844E+02 -0.50129356571E+01  0.55435580888E+00  0.29647594671E+02  0.00000000000E+00 0. -1.
</event>
<event>
 5    1  0.6924836E-004  0.9118800E+02  0.7818608E-02  0.1130116E+00
         25   -1    0    0    0    0  0.00000000000E+00  0.00000000000E+00  0.99999998245E-14  0.12500000000E+03  0.12500000000E+03 0.  0.
        -13    1    3    3    0    0  0.24806776915E+02 -0.26152697811E+01  0.28410658854E+02  0.37807307726E+02  0.10566000000E+00 0. -1.
         23    2    1    0    0    0 -0.28311937956E+02 -0.67390142830E+01  0.85526125655E+01  0.94666399389E+02  0.89674967785E+02 0.  0.
         13    1    3    3    0    0 -0.53118714871E+02 -0.41237445018E+01 -0.19858046289E+02  0.56859091663E+02  0.10566000000E+00 0.  1.
         22    1    1    0    0    0  0.28311937956E+02  0.67390142830E+01 -0.85526125655E+01  0.30333600611E+02  0.00000000000E+00 0.  1.
</event>
<event>
 5    1  0.6924836E-004  0.9118800E+02  0.7818608E-02  0.1130116E+00
         25   -1    0    0    0    0  0.00000000000E+00  0.00000000000E+00  0.99999998245E-14  0.12500000000E+03  0.12500000000E+03 0.  0.
        -13    1    3    3    0    0 -0.90274545787E+01  0.29503222347E+02 -0.13399646195E+02  0.33637728033E+02  0.10566000000E+00 0.  1.
         23    2    1    0    0    0  0.16300548486E+02 -0.23375657062E+02  0.68901178652E+01  0.95681013861E+02  0.91078282073E+02 0.  0.
         13    1    3    3    0    0  0.25328003064E+02 -0.52878879409E+02  0.20289764060E+02  0.62043285829E+02  0.10566000000E+00 0. -1.
         22    1    1    0    0    0 -0.16300548486E+02  0.23375657062E+02 -0.68901178652E+01  0.29318986139E+02  0.00000000000E+00 0. -1.
</event>
<event>
 5    1  0.6924836E-004  0.9118800E+02  0.7818608E-02  0.1130116E+00
         25   -1    0    0    0    0  0.00000000000E+00  0.00000000000E+00  0.99999998245E-14  0.12500000000E+03  0.12500000000E+03 0.  0.
        -13    1    3    3    0    0  0.12732004456E+02 -0.23642806445E+01  0.37854717448E+02  0.40008556054E+02  0.10566000000E+00 0. -1.
         23    2    1    0    0    0 -0.55938348612E+01  0.28668514656E+02 -0.43073510351E+01  0.95474959882E+02  0.90795043755E+02 0.  0.
         13    1    3    3    0    0 -0.18325839317E+02  0.31032795301E+02 -0.42162068483E+02  0.55466403828E+02  0.10566000000E+00 0.  1.
         22    1    1    0    0    0  0.55938348612E+01 -0.28668514656E+02  0.43073510351E+01  0.29525040118E+02  0.00000000000E+00 0.  1.
</event>
<event>
 5    1  0.6924836E-004  0.9118800E+02  0.7818608E-02  0.1130116E+00
         25   -1    0    0    0    0  0.00000000000E+00  0.00000000000E+00  0.99999998245E-14  0.12500000000E+03  0.12500000000E+03 0.  0.
        -13    1    3    3    0    0 -0.80684701501E+01 -0.40143347478E+02 -0.47153632749E+02  0.62450498819E+02  0.10566000000E+00 0.  1.
         23    2    1    0    0    0 -0.28236644295E+01 -0.19433724968E+02 -0.20458311959E+02  0.96641839355E+02  0.92387552402E+02 0.  0.
         13    1    3    3    0    0  0.52448057205E+01  0.20709622510E+02  0.26695320790E+02  0.34191340536E+02  0.10566000000E+00 0. -1.
         22    1    1    0    0    0  0.28236644295E+01  0.19433724968E+02  0.20458311959E+02  0.28358160645E+02  0.00000000000E+00 0.  1.
</event>
<event>
 5    1  0.6924836E-004  0.9118800E+02  0.7818608E-02  0.1130116E+00
         25   -1    0    0    0    0  0.00000000000E+00  0.00000000000E+00  0.99999998245E-14  0.12500000000E+03  0.12500000000E+03 0.  0.
        -13    1    3    3    0    0 -0.10685801480E+02  0.10204412171E+02  0.30968792918E+02  0.34313170647E+02  0.10566000000E+00 0. -1.
         23    2    1    0    0    0  0.80525568122E+01 -0.21398164827E+02 -0.18259488569E+02  0.95740231512E+02  0.91159518856E+02 0.  0.
         13    1    3    3    0    0  0.18738358292E+02 -0.31602576998E+02 -0.49228281486E+02  0.61427060865E+02  0.10566000000E+00 0.  1.
         22    1    1    0    0    0 -0.80525568122E+01  0.21398164827E+02  0.18259488569E+02  0.29259768488E+02  0.00000000000E+00 0.  1.
</event>
<event>
 5    1  0.6924836E-004  0.9118800E+02  0.7818608E-02  0.1130116E+00
         25   -1    0    0    0    0  0.00000000000E+00  0.00000000000E+00  0.99999998245E-14  0.12500000000E+03  0.12500000000E+03 0.  0.
        -13    1    3    3    0    0  0.42111505953E+02 -0.87291054198E+01 -0.42938425879E+02  0.60772492100E+02  0.10566000000E+00 0.  1.
         23    2    1    0    0    0  0.27807251355E+02 -0.11516095406E+02 -0.17243032820E+02  0.90313030369E+02  0.83386195454E+02 0.  0.
         13    1    3    3    0    0 -0.14304254598E+02 -0.27869899865E+01  0.25695393059E+02  0.29540538269E+02  0.10566000000E+00 0. -1.
         22    1    1    0    0    0 -0.27807251355E+02  0.11516095406E+02  0.17243032820E+02  0.34686969631E+02  0.00000000000E+00 0.  1.
</event>
<event>
 5    1  0.6924836E-004  0.9118800E+02  0.7818608E-02  0.1130116E+00
         25   -1    0    0    0    0  0.00000000000E+00  0.00000000000E+00  0.99999998245E-14  0.12500000000E+03  0.12500000000E+03 0.  0.
        -13    1    3    3    0    0 -0.36064115629E+02  0.39380064572E+02  0.25569470526E+02  0.59204889231E+02  0.10566000000E+00 0.  1.
         23    2    1    0    0    0 -0.38799205133E+01  0.24005240534E+02  0.15093774763E+02  0.96379598311E+02  0.92032057337E+02 0.  0.
         13    1    3    3    0    0  0.32184195115E+02 -0.15374824039E+02 -0.10475695763E+02  0.37174709080E+02  0.10566000000E+00 0. -1.
         22    1    1    0    0    0  0.38799205133E+01 -0.24005240534E+02 -0.15093774763E+02  0.28620401689E+02  0.00000000000E+00 0.  1.
</event>
<event>
 5    1  0.6924836E-004  0.9118800E+02  0.7818608E-02  0.1130116E+00
         25   -1    0    0    0    0  0.00000000000E+00  0.00000000000E+00  0.99999998245E-14  0.12500000000E+03  0.12500000000E+03 0.  0.
        -13    1    3    3    0    0 -0.51136830432E+02  0.91061993483E+01  0.14571701898E+02  0.53946676945E+02  0.10566000000E+00 0. -1.
         23    2    1    0    0    0 -0.18480719698E+02 -0.16591887713E+02  0.15877920081E+02  0.95522278166E+02  0.90860164767E+02 0.  0.
         13    1    3    3    0    0  0.32656110734E+02 -0.25698087061E+02  0.13062181832E+01  0.41575601221E+02  0.10566000000E+00 0.  1.
         22    1    1    0    0    0  0.18480719698E+02  0.16591887713E+02 -0.15877920081E+02  0.29477721834E+02  0.00000000000E+00 0. -1.
</event>
<event>
 5    1  0.6924836E-004  0.9118800E+02  0.7818608E-02  0.1130116E+00
         25   -1    0    0    0    0  0.00000000000E+00  0.00000000000E+00  0.99999998245E-14  0.12500000000E+03  0.12500000000E+03 0.  0.
        -13    1    3    3    0    0  0.21414774715E+02 -0.47336432566E+02  0.24845451591E+02  0.57590260053E+02  0.10566000000E+00 0. -1.
         23    2    1    0    0    0  0.90455337819E+01 -0.25141296349E+02 -0.60623736371E+01  0.97601846091E+02  0.93677433370E+02 0.  0.
         13    1    3    3    0    0 -0.12369240933E+02  0.22195136217E+02 -0.30907825228E+02  0.40011586038E+02  0.10566000000E+00 0.  1.
         22    1    1    0    0    0 -0.90455337819E+01  0.25141296349E+02  0.60623736371E+01  0.27398153909E+02  0.00000000000E+00 0. -1.
</event>
<event>
 5    1  0.6924836E-004  0.9118800E+02  0.7818608E-02  0.1130116E+00
         25   -1    0    0    0    0  0.00000000000E+00  0.00000000000E+00  0.99999998245E-14  0.12500000000E+03  0.12500000000E+03 0.  0.
        -13    1    3    3    0    0 -0.30710716203E+02 -0.41556159783E+02  0.21347438686E+02  0.55908736420E+02  0.10566000000E+00 0.  1.
         23    2    1    0    0    0 -0.22195564947E+02 -0.17883553469E+02 -0.87948217212E+01  0.95170258515E+02  0.90374579549E+02 0.  0.
         13    1    3    3    0    0  0.85151512560E+01  0.23672606315E+02 -0.30142260408E+02  0.39261522094E+02  0.10566000000E+00 0. -1.
         22    1    1    0    0    0  0.22195564947E+02  0.17883553469E+02  0.87948217212E+01  0.29829741485E+02  0.00000000000E+00 0.  1.
</event>
<event>
 5    1  0.6924836E-004  0.9118800E+02  0.7818608E-02  0.1130116E+00
         25   -1    0    0    0    0  0.00000000000E+00  0.00000000000E+00  0.99999998245E-14  0.12500000000E+03  0.12500000000E+03 0.  0.
        -13    1    3    3    0    0  0.11803727569E+02  0.43582864949E+02 -0.19500824709E+02  0.49184219320E+02  0.10566000000E+00 0. -1.
         23    2    1    0    0    0 -0.66369236070E+01  0.25095536027E+01 -0.28954136431E+02  0.95189118921E+02  0.90400662222E+02 0.  0.
         13    1    3    3    0    0 -0.18440651176E+02 -0.41073311347E+02 -0.94533117224E+01  0.46004899601E+02  0.10566000000E+00 0.  1.
         22    1    1    0    0    0  0.66369236070E+01 -0.25095536027E+01  0.28954136431E+02  0.29810881079E+02  0.00000000000E+00 0. -1.
</event>
<event>
 5    1  0.6924836E-004  0.9118800E+02  0.7818608E-02  0.1130116E+00
         25   -1    0    0    0    0  0.00000000000E+00  0.00000000000E+00  0.99999998245E-14  0.12500000000E+03  0.12500000000E+03 0.  0.
        -13    1    3    3    0    0 -0.37554925886E+02  0.16751466399E+02 -0.34228539455E+02  0.53503160300E+02  0.10566000000E+00 0.  1.
         23    2    1    0    0    0 -0.17705539687E+02 -0.13006535178E+02 -0.27332539321E+02  0.89932582093E+02  0.82813921071E+02 0.  0.
         13    1    3    3    0    0  0.19849386199E+02 -0.29758001577E+02  0.68960001335E+01  0.36429421793E+02  0.10566000000E+00 0. -1.
         22    1    1    0    0    0  0.17705539687E+02  0.13006535178E+02  0.27332539321E+02  0.35067417907E+02  0.00000000000E+00 0.  1.
</event>
<event>
 5    1  0.6924836E-004  0.9118800E+02  0.7818608E-02  0.1130116E+00
         25   -1    0    0    0    0  0.00000000000E+00  0.00000000000E+00  0.99999998245E-14  0.12500000000E+03  0.12500000000E+03 0.  0.
        -13    1    3    3    0    0  0.31779685882E+02 -0.36524696827E+02 -0.32963946254E+02  0.58571621369E+02  0.10566000000E+00 0. -1.
         23    2    1    0    0    0  0.10541098146E+01 -0.18979221115E+02 -0.22658286821E+02  0.95424335285E+02  0.90725320728E+02 0.  0.
         13    1    3    3    0    0 -0.30725576068E+02  0.17545475711E+02  0.10305659433E+02  0.36852713916E+02  0.10566000000E+00 0.  1.
         22    1    1    0    0    0 -0.10541098146E+01  0.18979221115E+02  0.22658286821E+02  0.29575664715E+02  0.00000000000E+00 0. -1.
</event>
<event>
 5    1  0.6924836E-004  0.9118800E+02  0.7818608E-02  0.1130116E+00
         25   -1    0    0    0    0  0.00000000000E+00  0.00000000000E+00  0.99999998245E-14  0.12500000000E+03  0.12500000000E+03 0.  0.
        -13    1    3    3    0    0  0.41295986132E+02 -0.14697726921E+02  0.17599325870E+02  0.47234829124E+02  0.10566000000E+00 0.  1.
         23    2    1    0    0    0  0.11096928635E+02  0.22157636024E+02  0.17111501543E+02  0.94885117560E+02  0.89979327571E+02 0.  0.
         13    1    3    3    0    0 -0.30199057496E+02  0.36855362945E+02 -0.48782432632E+00  0.47650288437E+02  0.10566000000E+00 0. -1.
         22    1    1    0    0    0 -0.11096928635E+02 -0.22157636024E+02 -0.17111501543E+02  0.30114882440E+02  0.00000000000E+00 0.  1.
</event>
<event>
 5    1  0.6924836E-004  0.9118800E+02  0.7818608E-02  0.1130116E+00
         25   -1    0    0    0    0  0.00000000000E+00  0.00000000000E+00  0.99999998245E-14  0.12500000000E+03  0.12500000000E+03 0.  0.
        -13    1    3    3    0    0 -0.31574713166E+02  0.18856512359E+02 -0.43596311729E+02  0.57036656023E+02  0.10566000000E+00 0. -1.
         23    2    1    0    0    0 -0.23899279318E+00 -0.94866048494E+01 -0.49527565489E+01  0.11429567440E+03  0.11379331527E+03 0.  0.
         13    1    3    3    0    0  0.31335720373E+02 -0.28343117208E+02  0.38643555181E+02  0.57259018376E+02  0.10566000000E+00 0.  1.
         22    1    1    0    0    0  0.23899279318E+00  0.94866048494E+01  0.49527565489E+01  0.10704325600E+02  0.00000000000E+00 0. -1.
</event>
<event>
 5    1  0.6924836E-004  0.9118800E+02  0.7818608E-02  0.1130116E+00
         25   -1    0    0    0    0  0.00000000000E+00  0.00000000000E+00  0.99999998245E-14  0.12500000000E+03  0.12500000000E+03 0.  0.
        -13    1    3    3    0    0  0.30000136040E+02 -0.71115593048E+01  0.25860822976E+02  0.40241468253E+02  0.10566000000E+00 0.  1.
         23    2    1    0    0    0 -0.23761757502E+02  0.43570484135E+01  0.15821297089E+02  0.96122354112E+02  0.91681996749E+02 0.  0.
         13    1    3    3    0    0 -0.53761893542E+02  0.11468607718E+02 -0.10039525887E+02  0.55880885858E+02  0.10566000000E+00 0. -1.
         22    1    1    0    0    0  0.23761757502E+02 -0.43570484135E+01 -0.15821297089E+02  0.28877645888E+02  0.00000000000E+00 0. -1.
</event>
<event>
 5    1  0.6924836E-004  0.9118800E+02  0.7818608E-02  0.1130116E+00
         25   -1    0    0    0    0  0.00000000000E+00  0.00000000000E+00  0.99999998245E-14  0.12500000000E+03  0.12500000000E+03 0.  0.
        -13    1    3    3    0    0 -0.57797498695E+02 -0.22724559257E+02  0.66680554384E-01  0.62104525271E+02  0.10566000000E+00 0.  1.
         23    2    1    0    0    0 -0.28488834392E+02 -0.65466948370E+01  0.24470523833E+01  0.95666385090E+02  0.91058202665E+02 0.  0.
         13    1    3    3    0    0  0.29308664303E+02  0.16177864420E+02  0.23803718290E+01  0.33561859819E+02  0.10566000000E+00 0. -1.
         22    1    1    0    0    0  0.28488834392E+02  0.65466948370E+01 -0.24470523833E+01  0.29333614910E+02  0.00000000000E+00 0.  1.
</event>
<event>
 5    1  0.6924836E-004  0.9118800E+02  0.7818608E-02  0.1130116E+00
         25   -1    0    0    0    0  0.00000000000E+00  0.00000000000E+00  0.99999998245E-14  0.12500000000E+03  0.12500000000E+03 0.  0.
        -13    1    3    3    0    0 -0.42092239010E+01  0.35377324693E+02 -0.34798413040E+01  0.35796551899E+02  0.10566000000E+00 0.  1.
         23    2    1    0    0    0  0.12434705015E+01 -0.21005679685E+02 -0.21180374470E+02  0.95143793599E+02  0.90337967654E+02 0.  0.
         13    1    3    3    0    0  0.54526944025E+01 -0.56383004379E+02 -0.17700533167E+02  0.59347241700E+02  0.10566000000E+00 0. -1.
         22    1    1    0    0    0 -0.12434705015E+01  0.21005679685E+02  0.21180374470E+02  0.29856206401E+02  0.00000000000E+00 0. -1.
</event>
<event>
 5    1  0.6924836E-004  0.9118800E+02  0.7818608E-02  0.1130116E+00
         25   -1    0    0    0    0  0.00000000000E+00  0.00000000000E+00  0.99999998245E-14  0.12500000000E+03  0.12500000000E+03 0.  0.
        -13    1    3    3    0    0  0.35257326906E+02  0.54206364232E+00  0.43055893523E+02  0.55652439880E+02  0.10566000000E+00 0. -1.
         23    2    1    0    0    0 -0.20856825669E+01  0.14319444605E+02  0.13259778926E+02  0.10537302105E+03  0.10352900686E+03 0.  0.
         13    1    3    3    0    0 -0.37343009473E+02  0.13777380963E+02 -0.29796114597E+02  0.49720581169E+02  0.10566000000E+00 0.  1.
         22    1    1    0    0    0  0.20856825669E+01 -0.14319444605E+02 -0.13259778926E+02  0.19626978950E+02  0.00000000000E+00 0.  1.
</event>
<event>
 5    1  0.6924836E-004  0.9118800E+02  0.7818608E-02  0.1130116E+00
         25   -1    0    0    0    0  0.00000000000E+00  0.00000000000E+00  0.99999998245E-14  0.12500000000E+03  0.12500000000E+03 0.  0.
        -13    1    3    3    0    0 -0.29664614233E+02  0.49828601781E+02 -0.79342179213E+01  0.58530691702E+02  0.10566000000E+00 0.  1.
         23    2    1    0    0    0 -0.20136428504E+02  0.22251962581E+02 -0.18711584697E+02  0.89634070160E+02  0.82362112284E+02 0.  0.
         13    1    3    3    0    0  0.95281857290E+01 -0.27576639200E+02 -0.10777366776E+02  0.31103378458E+02  0.10566000000E+00 0. -1.
         22    1    1    0    0    0  0.20136428504E+02 -0.22251962581E+02  0.18711584697E+02  0.35365929840E+02  0.00000000000E+00 0.  1.
</event>
<event>
 5    1  0.6924836E-004  0.9118800E+02  0.7818608E-02  0.1130116E+00
         25   -1    0    0    0    0  0.00000000000E+00  0.00000000000E+00  0.99999998245E-14  0.12500000000E+03  0.12500000000E+03 0.  0.
        -13    1    3    3    0    0 -0.28979679228E+02 -0.11943202885E+02  0.51236218462E+02  0.60063492653E+02  0.10566000000E+00 0. -1.
         23    2    1    0    0    0 -0.23415618593E+02 -0.38868593154E+01  0.16656429582E+02  0.96002836072E+02  0.91518899786E+02 0.  0.
         13    1    3    3    0    0  0.55640606357E+01  0.80563435694E+01 -0.34579788879E+02  0.35939343420E+02  0.10566000000E+00 0.  1.
         22    1    1    0    0    0  0.23415618593E+02  0.38868593154E+01 -0.16656429582E+02  0.28997163928E+02  0.00000000000E+00 0. -1.
</event>
<event>
 5    1  0.6924836E-004  0.9118800E+02  0.7818608E-02  0.1130116E+00
         25   -1    0    0    0    0  0.00000000000E+00  0.00000000000E+00  0.99999998245E-14  0.12500000000E+03  0.12500000000E+03 0.  0.
        -13    1    3    3    0    0 -0.46315785822E+02 -0.15456069278E+02  0.17426315706E+02  0.51843319116E+02  0.10566000000E+00 0.  1.
         23    2    1    0    0    0 -0.81110003873E+01  0.10130571057E+02  0.23430966395E+02  0.98215172515E+02  0.94492291372E+02 0.  0.
         13    1    3    3    0    0  0.38204785434E+02  0.25586640335E+02  0.60046506893E+01  0.46371853399E+02  0.10566000000E+00 0. -1.
         22    1    1    0    0    0  0.81110003873E+01 -0.10130571057E+02 -0.23430966395E+02  0.26784827485E+02  0.00000000000E+00 0. -1.
</event>
<event>
 5    1  0.6924836E-004  0.9118800E+02  0.7818608E-02  0.1130116E+00
         25   -1    0    0    0    0  0.00000000000E+00  0.00000000000E+00  0.99999998245E-14  0.12500000000E+03  0.12500000000E+03 0.  0.
        -13    1    3    3    0    0 -0.35686260076E+02  0.23685529493E+02 -0.13776001037E+02  0.44992253046E+02  0.10566000000E+00 0. -1.
         23    2    1    0    0    0  0.11921938857E+02  0.97519396762E+01 -0.24798529877E+02  0.95807534575E+02  0.91251759674E+02 0.  0.
         13    1    3    3    0    0  0.47608198932E+02 -0.13933589817E+02 -0.11022528840E+02  0.50815281529E+02  0.10566000000E+00 0.  1.
         22    1    1    0    0    0 -0.11921938857E+02 -0.97519396762E+01  0.24798529877E+02  0.29192465425E+02  0.00000000000E+00 0.  1.
</event>
<event>
 5    1  0.6924836E-004  0.9118800E+02  0.7818608E-02  0.1130116E+00
         25   -1    0    0    0    0  0.00000000000E+00  0.00000000000E+00  0.99999998245E-14  0.12500000000E+03  0.12500000000E+03 0.  0.
        -13    1    3    3    0    0 -0.22675298441E+02  0.37822303316E+02  0.40831689392E+01  0.44287461207E+02  0.10566000000E+00 0.  1.
         23    2    1    0    0    0  0.71151929407E+01  0.12805256644E+02 -0.27132850896E+02  0.94165082033E+02  0.88973425854E+02 0.  0.
         13    1    3    3    0    0  0.29790491382E+02 -0.25017046672E+02 -0.31216019835E+02  0.49877620826E+02  0.10566000000E+00 0. -1.
         22    1    1    0    0    0 -0.71151929407E+01 -0.12805256644E+02  0.27132850896E+02  0.30834917967E+02  0.00000000000E+00 0.  1.
</event>
<event>
 5    1  0.6924836E-004  0.9118800E+02  0.7818608E-02  0.1130116E+00
         25   -1    0    0    0    0  0.00000000000E+00  0.00000000000E+00  0.99999998245E-14  0.12500000000E+03  0.12500000000E+03 0.  0.
        -13    1    3    3    0    0  0.14876690856E+02  0.53931421450E+02  0.45298384321E+01  0.56128822816E+02  0.10566000000E+00 0. -1.
         23    2    1    0    0    0  0.24045521562E+02  0.14637425369E+02 -0.85777394574E+00  0.96836599907E+02  0.92650687945E+02 0.  0.
         13    1    3    3    0    0  0.91688307067E+01 -0.39293996081E+02 -0.53876123779E+01  0.40707777091E+02  0.10566000000E+00 0.  1.
         22    1    1    0    0    0 -0.24045521562E+02 -0.14637425369E+02  0.85777394574E+00  0.28163400093E+02  0.00000000000E+00 0. -1.
</event>
<event>
 5    1  0.6924836E-004  0.9118800E+02  0.7818608E-02  0.1130116E+00
         25   -1    0    0    0    0  0.00000000000E+00  0.00000000000E+00  0.99999998245E-14  0.12500000000E+03  0.12500000000E+03 0.  0.
        -13    1    3    3    0    0  0.32312257801E+02  0.96892949568E+01 -0.21346434216E+02  0.39920494220E+02  0.10566000000E+00 0. -1.
         23    2    1    0    0    0  0.42269716660E+01 -0.28204443334E+02  0.78844088427E+01  0.95410782098E+02  0.90706645427E+02 0.  0.
         13    1    3    3    0    0 -0.28085286135E+02 -0.37893738291E+02  0.29230843058E+02  0.55490287879E+02  0.10566000000E+00 0.  1.
         22    1    1    0    0    0 -0.42269716660E+01  0.28204443334E+02 -0.78844088427E+01  0.29589217902E+02  0.00000000000E+00 0.  1.
</event>
<event>
 5    1  0.6924836E-004  0.9118800E+02  0.7818608E-02  0.1130116E+00
         25   -1    0    0    0    0  0.00000000000E+00  0.00000000000E+00  0.99999998245E-14  0.12500000000E+03  0.12500000000E+03 0.  0.
        -13    1    3    3    0    0 -0.33643589264E+01 -0.18919748758E+02  0.26975384217E+02  0.33120361136E+02  0.10566000000E+00 0.  1.
         23    2    1    0    0    0 -0.32407821629E+02 -0.20938438875E+02 -0.14489634355E+02  0.83785504625E+02  0.72947763202E+02 0.  0.
         13    1    3    3    0    0 -0.29043462703E+02 -0.20186901165E+01 -0.41465018572E+02  0.50665143489E+02  0.10566000000E+00 0. -1.
         22    1    1    0    0    0  0.32407821629E+02  0.20938438875E+02  0.14489634355E+02  0.41214495375E+02  0.00000000000E+00 0. -1.
</event>
<event>
 5    1  0.6924836E-004  0.9118800E+02  0.7818608E-02  0.1130116E+00
         25   -1    0    0    0    0  0.00000000000E+00  0.00000000000E+00  0.99999998245E-14  0.12500000000E+03  0.12500000000E+03 0.  0.
        -13    1    3    3    0    0 -0.50401320734E+02 -0.14854539678E+02  0.24119350823E+02  0.57816128623E+02  0.10566000000E+00 0.  1.
         23    2    1    0    0    0 -0.12664282365E+02 -0.15636199557E+02  0.21349222785E+02  0.95662922812E+02  0.91053449704E+02 0.  0.
         13    1    3    3    0    0  0.37737038369E+02 -0.78165987908E+00 -0.27701280384E+01  0.37846794189E+02  0.10566000000E+00 0. -1.
         22    1    1    0    0    0  0.12664282365E+02  0.15636199557E+02 -0.21349222785E+02  0.29337077188E+02  0.00000000000E+00 0.  1.
</event>
<event>
 5    1  0.6924836E-004  0.9118800E+02  0.7818608E-02  0.1130116E+00
         25   -1    0    0    0    0  0.00000000000E+00  0.00000000000E+00  0.99999998245E-14  0.12500000000E+03  0.12500000000E+03 0.  0.
        -13    1    3    3    0    0 -0.12179591546E+02 -0.51308332947E+02 -0.28407059692E+02  0.59898745265E+02  0.10566000000E+00 0.  1.
         23    2    1    0    0    0  0.38907076232E+01 -0.19866174344E+02 -0.20711084505E+02  0.96038793012E+02  0.91567997974E+02 0.  0.
         13    1    3    3    0    0  0.16070299169E+02  0.31442158603E+02  0.76959751877E+01  0.36140047746E+02  0.10566000000E+00 0. -1.
         22    1    1    0    0    0 -0.38907076232E+01  0.19866174344E+02  0.20711084505E+02  0.28961206988E+02  0.00000000000E+00 0.  1.
</event>
<event>
 5    1  0.6924836E-004  0.9118800E+02  0.7818608E-02  0.1130116E+00
         25   -1    0    0    0    0  0.00000000000E+00  0.00000000000E+00  0.99999998245E-14  0.12500000000E+03  0.12500000000E+03 0.  0.
        -13    1    3    3    0    0 -0.26186508305E+02 -0.54722059664E+02  0.87104205782E+01  0.61287189704E+02  0.10566000000E+00 0.  1.
         23    2    1    0    0    0 -0.19005810843E+02 -0.32385854647E+02 -0.26512453037E+01  0.87355697261E+02  0.78828448642E+02 0.  0.
         13    1    3    3    0    0  0.71806974623E+01  0.22336205017E+02 -0.11361665882E+02  0.26068507557E+02  0.10566000000E+00 0. -1.
         22    1    1    0    0    0  0.19005810843E+02  0.32385854647E+02  0.26512453037E+01  0.37644302739E+02  0.00000000000E+00 0.  1.
</event>
<event>
 5    1  0.6924836E-004  0.9118800E+02  0.7818608E-02  0.1130116E+00
         25   -1    0    0    0    0  0.00000000000E+00  0.00000000000E+00  0.99999998245E-14  0.12500000000E+03  0.12500000000E+03 0.  0.
        -13    1    3    3    0    0 -0.71377615850E+01 -0.54655961354E+02  0.88682499897E+01  0.55829013728E+02  0.10566000000E+00 0.  1.
         23    2    1    0    0    0  0.19227291484E+01 -0.23696136869E+02 -0.15813735730E+02  0.96446926126E+02  0.92123458096E+02 0.  0.
         13    1    3    3    0    0  0.90604907334E+01  0.30959824485E+02 -0.24681985720E+02  0.40617912398E+02  0.10566000000E+00 0. -1.
         22    1    1    0    0    0 -0.19227291484E+01  0.23696136869E+02  0.15813735730E+02  0.28553073874E+02  0.00000000000E+00 0.  1.
</event>
<event>
 5    1  0.6924836E-004  0.9118800E+02  0.7818608E-02  0.1130116E+00
         25   -1    0    0    0    0  0.00000000000E+00  0.00000000000E+00  0.99999998245E-14  0.12500000000E+03  0.12500000000E+03 0.  0.
        -13    1    3    3    0    0 -0.41347146383E+02 -0.34557033907E+02  0.18852944756E+02  0.57089576952E+02  0.10566000000E+00 0. -1.
         23    2    1    0    0    0 -0.86691457392E+01 -0.17775536798E+02  0.23687819196E+02  0.94141669284E+02  0.88940526876E+02 0.  0.
         13    1    3    3    0    0  0.32678000644E+02  0.16781497110E+02  0.48348744406E+01  0.37052092333E+02  0.10566000000E+00 0.  1.
         22    1    1    0    0    0  0.86691457392E+01  0.17775536798E+02 -0.23687819196E+02  0.30858330716E+02  0.00000000000E+00 0. -1.
</event>
<event>
 5    1  0.6924836E-004  0.9118800E+02  0.7818608E-02  0.1130116E+00
         25   -1    0    0    0    0  0.00000000000E+00  0.00000000000E+00  0.99999998245E-14  0.12500000000E+03  0.12500000000E+03 0.  0.
        -13    1    3    3    0    0 -0.14991344953E+01 -0.21443871593E+02 -0.49415006562E+02  0.53888227570E+02  0.10566000000E+00 0.  1.
         23    2    1    0    0    0 -0.22299952243E+02 -0.12011029765E+02 -0.13916202811E+02  0.96099941060E+02  0.91651433513E+02 0.  0.
         13    1    3    3    0    0 -0.20800817748E+02  0.94328418272E+01  0.35498803751E+02  0.42211713490E+02  0.10566000000E+00 0. -1.
         22    1    1    0    0    0  0.22299952243E+02  0.12011029765E+02  0.13916202811E+02  0.28900058940E+02  0.00000000000E+00 0.  1.
</event>
<event>
 5    1  0.6924836E-004  0.9118800E+02  0.7818608E-02  0.1130116E+00
         25   -1    0    0    0    0  0.00000000000E+00  0.00000000000E+00  0.99999998245E-14  0.12500000000E+03  0.12500000000E+03 0.  0.
        -13    1    3    3    0    0  0.13264945153E+02 -0.57687546250E+02  0.22952460321E+01  0.59237581657E+02  0.10566000000E+00 0.  1.
         23    2    1    0    0    0 -0.64738529994E+01 -0.27558265613E+02  0.77065405825E+01  0.95661296143E+02  0.91051216553E+02 0.  0.
         13    1    3    3    0    0 -0.19738798152E+02  0.30129280637E+02  0.54112945504E+01  0.36423714486E+02  0.10566000000E+00 0. -1.
         22    1    1    0    0    0  0.64738529994E+01  0.27558265613E+02 -0.77065405825E+01  0.29338703857E+02  0.00000000000E+00 0.  1.
</event>
<event>
 5    1  0.6924836E-004  0.9118800E+02  0.7818608E-02  0.1130116E+00
         25   -1    0    0    0    0  0.00000000000E+00  0.00000000000E+00  0.99999998245E-14  0.12500000000E+03  0.12500000000E+03 0.  0.
        -13    1    3    3    0    0  0.30421113818E+02 -0.14080093545E+02 -0.21329366273E+02  0.39732181287E+02  0.10566000000E+00 0.  1.
         23    2    1    0    0    0 -0.22642411844E+02 -0.12983746492E+02 -0.18736387058E+02  0.92870439047E+02  0.87135582638E+02 0.  0.
         13    1    3    3    0    0 -0.53063525662E+02  0.10963470530E+01  0.25929792152E+01  0.53138257760E+02  0.10566000000E+00 0. -1.
         22    1    1    0    0    0  0.22642411844E+02  0.12983746492E+02  0.18736387058E+02  0.32129560953E+02  0.00000000000E+00 0. -1.
</event>
<event>
 5    1  0.6924836E-004  0.9118800E+02  0.7818608E-02  0.1130116E+00
         25   -1    0    0    0    0  0.00000000000E+00  0.00000000000E+00  0.99999998245E-14  0.12500000000E+03  0.12500000000E+03 0.  0.
        -13    1    3    3    0    0  0.20903849576E+02  0.36444123123E+02  0.35001930189E+02  0.54683556196E+02  0.10566000000E+00 0. -1.
         23    2    1    0    0    0  0.27072191622E+02  0.52887642595E+01  0.82513971166E+01  0.96208332091E+02  0.91799145000E+02 0.  0.
         13    1    3    3    0    0  0.61683420461E+01 -0.31155358863E+02 -0.26750533072E+02  0.41524775895E+02  0.10566000000E+00 0.  1.
         22    1    1    0    0    0 -0.27072191622E+02 -0.52887642595E+01 -0.82513971166E+01  0.28791667909E+02  0.00000000000E+00 0.  1.
</event>
<event>
 5    1  0.6924836E-004  0.9118800E+02  0.7818608E-02  0.1130116E+00
         25   -1    0    0    0    0  0.00000000000E+00  0.00000000000E+00  0.99999998245E-14  0.12500000000E+03  0.12500000000E+03 0.  0.
        -13    1    3    3    0    0  0.22035535133E+02  0.30066717474E+02 -0.18581131372E+02  0.41651433533E+02  0.10566000000E+00 0.  1.
         23    2    1    0    0    0 -0.71073305223E+01  0.15778267483E+02  0.24136431009E+02  0.95300923015E+02  0.90555125496E+02 0.  0.
         13    1    3    3    0    0 -0.29142865656E+02 -0.14288449991E+02  0.42717562381E+02  0.53649489481E+02  0.10566000000E+00 0. -1.
         22    1    1    0    0    0  0.71073305223E+01 -0.15778267483E+02 -0.24136431009E+02  0.29699076985E+02  0.00000000000E+00 0. -1.
</event>
<event>
 5    1  0.6924836E-004  0.9118800E+02  0.7818608E-02  0.1130116E+00
         25   -1    0    0    0    0  0.00000000000E+00  0.00000000000E+00  0.99999998245E-14  0.12500000000E+03  0.12500000000E+03 0.  0.
        -13    1    3    3    0    0  0.45809867793E+02 -0.39683753847E+02 -0.13411523033E+01  0.60623049743E+02  0.10566000000E+00 0.  1.
         23    2    1    0    0    0  0.19975602102E+02 -0.13425351736E+02 -0.10747394649E+02  0.98641486379E+02  0.95054571667E+02 0.  0.
         13    1    3    3    0    0 -0.25834265691E+02  0.26258402111E+02 -0.94062423452E+01  0.38018436637E+02  0.10566000000E+00 0. -1.
         22    1    1    0    0    0 -0.19975602102E+02  0.13425351736E+02  0.10747394649E+02  0.26358513621E+02  0.00000000000E+00 0.  1.
</event>
<event>
 5    1  0.6924836E-004  0.9118800E+02  0.7818608E-02  0.1130116E+00
         25   -1    0    0    0    0  0.00000000000E+00  0.00000000000E+00  0.99999998245E-14  0.12500000000E+03  0.12500000000E+03 0.  0.
        -13    1    3    3    0    0  0.19088814069E+02  0.20445548581E+02 -0.55657861114E+02  0.62291347290E+02  0.10566000000E+00 0.  1.
         23    2    1    0    0    0  0.60624233613E+01  0.11750700317E+02 -0.24918747076E+02  0.96790499990E+02  0.92588471191E+02 0.  0.
         13    1    3    3    0    0 -0.13026390708E+02 -0.86948482639E+01  0.30739114038E+02  0.34499152700E+02  0.10566000000E+00 0. -1.
         22    1    1    0    0    0 -0.60624233613E+01 -0.11750700317E+02  0.24918747076E+02  0.28209500010E+02  0.00000000000E+00 0.  1.
</event>
<event>
 5    1  0.6924836E-004  0.9118800E+02  0.7818608E-02  0.1130116E+00
         25   -1    0    0    0    0  0.00000000000E+00  0.00000000000E+00  0.99999998245E-14  0.12500000000E+03  0.12500000000E+03 0.  0.
        -13    1    3    3    0    0 -0.46672356259E+02  0.10705735882E+02  0.26124051816E+02  0.54547216858E+02  0.10566000000E+00 0. -1.
         23    2    1    0    0    0 -0.24097413402E+02 -0.13616484879E+02 -0.84509147319E+00  0.97308698609E+02  0.93285447162E+02 0.  0.
         13    1    3    3    0    0  0.22574942857E+02 -0.24322220761E+02 -0.26969143290E+02  0.42761481751E+02  0.10566000000E+00 0.  1.
         22    1    1    0    0    0  0.24097413402E+02  0.13616484879E+02  0.84509147319E+00  0.27691301391E+02  0.00000000000E+00 0. -1.
</event>
<event>
 5    1  0.6924836E-004  0.9118800E+02  0.7818608E-02  0.1130116E+00
         25   -1    0    0    0    0  0.00000000000E+00  0.00000000000E+00  0.99999998245E-14  0.12500000000E+03  0.12500000000E+03 0.  0.
        -13    1    3    3    0    0  0.18164884294E+02 -0.87854515839E+01 -0.44199849671E+02  0.48587910594E+02  0.10566000000E+00 0.  1.
         23    2    1    0    0    0  0.15106741246E+02  0.23245147812E+02 -0.10041250484E+02  0.95514796267E+02  0.90849871034E+02 0.  0.
         13    1    3    3    0    0 -0.30581430481E+01  0.32030599396E+02  0.34158599187E+02  0.46926885673E+02  0.10566000000E+00 0. -1.
         22    1    1    0    0    0 -0.15106741246E+02 -0.23245147812E+02  0.10041250484E+02  0.29485203733E+02  0.00000000000E+00 0.  1.
</event>
<event>
 5    1  0.6924836E-004  0.9118800E+02  0.7818608E-02  0.1130116E+00
         25   -1    0    0    0    0  0.00000000000E+00  0.00000000000E+00  0.99999998245E-14  0.12500000000E+03  0.12500000000E+03 0.  0.
        -13    1    3    3    0    0 -0.29280959067E+02 -0.80038649844E+01 -0.36787570779E+02  0.47694579843E+02  0.10566000000E+00 0. -1.
         23    2    1    0    0    0  0.17652447267E+02 -0.12590503399E+01 -0.20702300566E+02  0.97764373497E+02  0.93894053988E+02 0.  0.
         13    1    3    3    0    0  0.46933406334E+02  0.67448146445E+01  0.16085270213E+02  0.50069793654E+02  0.10566000000E+00 0.  1.
         22    1    1    0    0    0 -0.17652447267E+02  0.12590503399E+01  0.20702300566E+02  0.27235626503E+02  0.00000000000E+00 0.  1.
</event>
<event>
 5    1  0.6924836E-004  0.9118800E+02  0.7818608E-02  0.1130116E+00
         25   -1    0    0    0    0  0.00000000000E+00  0.00000000000E+00  0.99999998245E-14  0.12500000000E+03  0.12500000000E+03 0.  0.
        -13    1    3    3    0    0  0.26561141157E+02  0.33429750739E+02  0.29184836371E+02  0.51718548820E+02  0.10566000000E+00 0.  1.
         23    2    1    0    0    0  0.90743624650E+01 -0.63133254117E+01  0.27712909301E+02  0.95163655153E+02  0.90365445765E+02 0.  0.
         13    1    3    3    0    0 -0.17486778692E+02 -0.39743076151E+02 -0.14719270701E+01  0.43445106333E+02  0.10566000000E+00 0. -1.
         22    1    1    0    0    0 -0.90743624650E+01  0.63133254117E+01 -0.27712909301E+02  0.29836344847E+02  0.00000000000E+00 0.  1.
</event>
<event>
 5    1  0.6924836E-004  0.9118800E+02  0.7818608E-02  0.1130116E+00
         25   -1    0    0    0    0  0.00000000000E+00  0.00000000000E+00  0.99999998245E-14  0.12500000000E+03  0.12500000000E+03 0.  0.
        -13    1    3    3    0    0  0.30723949437E+02  0.40541129193E+01 -0.18673527642E+02  0.36181607194E+02  0.10566000000E+00 0. -1.
         23    2    1    0    0    0 -0.41369247259E+01  0.77450733500E+01  0.28627064858E+02  0.95056567502E+02  0.90217192793E+02 0.  0.
         13    1    3    3    0    0 -0.34860874162E+02  0.36909604306E+01  0.47300592500E+02  0.58874960307E+02  0.10566000000E+00 0.  1.
         22    1    1    0    0    0  0.41369247259E+01 -0.77450733500E+01 -0.28627064858E+02  0.29943432498E+02  0.00000000000E+00 0.  1.
</event>
<event>
 5    1  0.6924836E-004  0.9118800E+02  0.7818608E-02  0.1130116E+00
         25   -1    0    0    0    0  0.00000000000E+00  0.00000000000E+00  0.99999998245E-14  0.12500000000E+03  0.12500000000E+03 0.  0.
        -13    1    3    3    0    0  0.44807572332E+02 -0.37240246665E+02 -0.11117728167E+02  0.59314159807E+02  0.10566000000E+00 0. -1.
         23    2    1    0    0    0  0.10931741061E+02 -0.23732604938E+02 -0.12965760723E+02  0.95830659060E+02  0.91283430945E+02 0.  0.
         13    1    3    3    0    0 -0.33875831271E+02  0.13507641728E+02 -0.18480325559E+01  0.36516499253E+02  0.10566000000E+00 0.  1.
         22    1    1    0    0    0 -0.10931741061E+02  0.23732604938E+02  0.12965760723E+02  0.29169340940E+02  0.00000000000E+00 0. -1.
</event>
<event>
 5    1  0.6924836E-004  0.9118800E+02  0.7818608E-02  0.1130116E+00
         25   -1    0    0    0    0  0.00000000000E+00  0.00000000000E+00  0.99999998245E-14  0.12500000000E+03  0.12500000000E+03 0.  0.
        -13    1    3    3    0    0 -0.16717788044E+02 -0.40517736882E+02  0.12364231249E+02  0.45541813946E+02  0.10566000000E+00 0.  1.
         23    2    1    0    0    0 -0.14997773327E+01  0.37786090253E+01  0.29354107123E+02  0.95365715409E+02  0.90644519152E+02 0.  0.
         13    1    3    3    0    0  0.15218010711E+02  0.44296345907E+02  0.16989875874E+02  0.49823901463E+02  0.10566000000E+00 0. -1.
         22    1    1    0    0    0  0.14997773327E+01 -0.37786090253E+01 -0.29354107123E+02  0.29634284591E+02  0.00000000000E+00 0.  1.
</event>
<event>
 5    1  0.6924836E-004  0.9118800E+02  0.7818608E-02  0.1130116E+00
         25   -1    0    0    0    0  0.00000000000E+00  0.00000000000E+00  0.99999998245E-14  0.12500000000E+03  0.12500000000E+03 0.  0.
        -13    1    3    3    0    0  0.48899391002E+01 -0.18713268587E+02 -0.55680352780E+02  0.58944132663E+02  0.10566000000E+00 0. -1.
         23    2    1    0    0    0 -0.25626649362E+01 -0.21576719980E+02 -0.20130015403E+02  0.95380080743E+02  0.90664326974E+02 0.  0.
         13    1    3    3    0    0 -0.74526040364E+01 -0.28634513934E+01  0.35550337377E+02  0.36435948080E+02  0.10566000000E+00 0.  1.
         22    1    1    0    0    0  0.25626649362E+01  0.21576719980E+02  0.20130015403E+02  0.29619919257E+02  0.00000000000E+00 0. -1.
</event>
<event>
 5    1  0.6924836E-004  0.9118800E+02  0.7818608E-02  0.1130116E+00
         25   -1    0    0    0    0  0.00000000000E+00  0.00000000000E+00  0.99999998245E-14  0.12500000000E+03  0.12500000000E+03 0.  0.
        -13    1    3    3    0    0  0.42465588742E+02  0.10085912073E+02  0.34343965957E+02  0.55538914387E+02  0.10566000000E+00 0. -1.
         23    2    1    0    0    0  0.23568153154E+02  0.15940555249E+02 -0.15296201663E+01  0.96506160620E+02  0.92203796858E+02 0.  0.
         13    1    3    3    0    0 -0.18897435588E+02  0.58546431767E+01 -0.35873586124E+02  0.40967246233E+02  0.10566000000E+00 0.  1.
         22    1    1    0    0    0 -0.23568153154E+02 -0.15940555249E+02  0.15296201663E+01  0.28493839380E+02  0.00000000000E+00 0. -1.
</event>
<event>
 5    1  0.6924836E-004  0.9118800E+02  0.7818608E-02  0.1130116E+00
         25   -1    0    0    0    0  0.00000000000E+00  0.00000000000E+00  0.99999998245E-14  0.12500000000E+03  0.12500000000E+03 0.  0.
        -13    1    3    3    0    0 -0.72294825076E+01 -0.10440167541E+02 -0.35090388194E+02  0.37317677088E+02  0.10566000000E+00 0.  1.
         23    2    1    0    0    0 -0.13787133209E+02 -0.17502863140E+02  0.21091078569E+02  0.94319894795E+02  0.89190659257E+02 0.  0.
         13    1    3    3    0    0 -0.65576507011E+01 -0.70626955993E+01  0.56181466763E+02  0.57002217707E+02  0.10566000000E+00 0. -1.
         22    1    1    0    0    0  0.13787133209E+02  0.17502863140E+02 -0.21091078569E+02  0.30680105205E+02  0.00000000000E+00 0. -1.
</event>
<event>
 5    1  0.6924836E-004  0.9118800E+02  0.7818608E-02  0.1130116E+00
         25   -1    0    0    0    0  0.00000000000E+00  0.00000000000E+00  0.99999998245E-14  0.12500000000E+03  0.12500000000E+03 0.  0.
        -13    1    3    3    0    0 -0.14945937450E+02  0.58782003951E+02  0.74027746060E+01  0.61102514438E+02  0.10566000000E+00 0.  1.
         23    2    1    0    0    0 -0.63427529581E+01  0.28037837713E+02 -0.58416316934E+01  0.95666136983E+02  0.91057862075E+02 0.  0.
         13    1    3    3    0    0  0.86031844919E+01 -0.30744166239E+02 -0.13244406299E+02  0.34563622544E+02  0.10566000000E+00 0. -1.
         22    1    1    0    0    0  0.63427529581E+01 -0.28037837713E+02  0.58416316934E+01  0.29333863017E+02  0.00000000000E+00 0.  1.
</event>
<event>
 5    1  0.6924836E-004  0.9118800E+02  0.7818608E-02  0.1130116E+00
         25   -1    0    0    0    0  0.00000000000E+00  0.00000000000E+00  0.99999998245E-14  0.12500000000E+03  0.12500000000E+03 0.  0.
        -13    1    3    3    0    0 -0.15657848718E+02  0.15858787988E+02  0.34545132094E+02  0.41110177552E+02  0.10566000000E+00 0.  1.
         23    2    1    0    0    0  0.12511922171E+01 -0.27638674650E+02  0.36152075604E+01  0.97097821876E+02  0.93002448726E+02 0.  0.
         13    1    3    3    0    0  0.16909040935E+02 -0.43497462637E+02 -0.30929924534E+02  0.55987644324E+02  0.10566000000E+00 0. -1.
         22    1    1    0    0    0 -0.12511922171E+01  0.27638674650E+02 -0.36152075604E+01  0.27902178124E+02  0.00000000000E+00 0. -1.
</event>
<event>
 5    1  0.6924836E-004  0.9118800E+02  0.7818608E-02  0.1130116E+00
         25   -1    0    0    0    0  0.00000000000E+00  0.00000000000E+00  0.99999998245E-14  0.12500000000E+03  0.12500000000E+03 0.  0.
        -13    1    3    3    0    0  0.12475708607E+02 -0.29528496241E+02  0.19381219446E+02  0.37459554546E+02  0.10566000000E+00 0. -1.
         23    2    1    0    0    0  0.13982271873E+02  0.21452766500E+01 -0.27510028869E+02  0.94066073204E+02  0.88834218075E+02 0.  0.
         13    1    3    3    0    0  0.15065632658E+01  0.31673772891E+02 -0.46891248315E+02  0.56606518658E+02  0.10566000000E+00 0.  1.
         22    1    1    0    0    0 -0.13982271873E+02 -0.21452766500E+01  0.27510028869E+02  0.30933926796E+02  0.00000000000E+00 0.  1.
</event>
<event>
 5    1  0.6924836E-004  0.9118800E+02  0.7818608E-02  0.1130116E+00
         25   -1    0    0    0    0  0.00000000000E+00  0.00000000000E+00  0.99999998245E-14  0.12500000000E+03  0.12500000000E+03 0.  0.
        -13    1    3    3    0    0  0.29745128369E+02 -0.35743024854E+02  0.24634325357E+02  0.52623166355E+02  0.10566000000E+00 0. -1.
         23    2    1    0    0    0  0.23007323213E+02 -0.13357015606E+02 -0.11787203046E+02  0.95902148825E+02  0.91381273827E+02 0.  0.
         13    1    3    3    0    0 -0.67378051557E+01  0.22386009248E+02 -0.36421528403E+02  0.43278982470E+02  0.10566000000E+00 0.  1.
         22    1    1    0    0    0 -0.23007323213E+02  0.13357015606E+02  0.11787203046E+02  0.29097851175E+02  0.00000000000E+00 0. -1.
</event>
<event>
 5    1  0.6924836E-004  0.9118800E+02  0.7818608E-02  0.1130116E+00
         25   -1    0    0    0    0  0.00000000000E+00  0.00000000000E+00  0.99999998245E-14  0.12500000000E+03  0.12500000000E+03 0.  0.
        -13    1    3    3    0    0 -0.60883426121E+02 -0.82041879724E+01  0.10960530787E+01  0.61443573894E+02  0.10566000000E+00 0. -1.
         23    2    1    0    0    0 -0.29736772852E+02 -0.70003571412E+01 -0.70225371474E+01  0.93653601679E+02  0.88251914538E+02 0.  0.
         13    1    3    3    0    0  0.31146653269E+02  0.12038308312E+01 -0.81185902262E+01  0.32210027784E+02  0.10566000000E+00 0.  1.
         22    1    1    0    0    0  0.29736772852E+02  0.70003571412E+01  0.70225371474E+01  0.31346398321E+02  0.00000000000E+00 0. -1.
</event>
<event>
 5    1  0.6924836E-004  0.9118800E+02  0.7818608E-02  0.1130116E+00
         25   -1    0    0    0    0  0.00000000000E+00  0.00000000000E+00  0.99999998245E-14  0.12500000000E+03  0.12500000000E+03 0.  0.
        -13    1    3    3    0    0  0.94155533591E+01 -0.32447256651E+02 -0.94662711722E+01  0.35087014167E+02  0.10566000000E+00 0.  1.
         23    2    1    0    0    0  0.13857561080E+02  0.94142058309E+01  0.28607984912E+02  0.91847683773E+02  0.85655828425E+02 0.  0.
         13    1    3    3    0    0  0.44420077209E+01  0.41861462482E+02  0.38074256084E+02  0.56760669606E+02  0.10566000000E+00 0. -1.
         22    1    1    0    0    0 -0.13857561080E+02 -0.94142058309E+01 -0.28607984912E+02  0.33152316227E+02  0.00000000000E+00 0. -1.
</event>
<event>
 5    1  0.6924836E-004  0.9118800E+02  0.7818608E-02  0.1130116E+00
         25   -1    0    0    0    0  0.00000000000E+00  0.00000000000E+00  0.99999998245E-14  0.12500000000E+03  0.12500000000E+03 0.  0.
        -13    1    3    3    0    0  0.49212362182E+02  0.14865627044E+02 -0.12287937944E+02  0.52856863716E+02  0.10566000000E+00 0. -1.
         23    2    1    0    0    0  0.15118299152E+02  0.93193518695E+01 -0.28816646856E+02  0.91150148826E+02  0.84631774213E+02 0.  0.
         13    1    3    3    0    0 -0.34094063030E+02 -0.55462751749E+01 -0.16528708912E+02  0.38293285110E+02  0.10566000000E+00 0.  1.
         22    1    1    0    0    0 -0.15118299152E+02 -0.93193518695E+01  0.28816646856E+02  0.33849851174E+02  0.00000000000E+00 0. -1.
</event>
<event>
 5    1  0.6924836E-004  0.9118800E+02  0.7818608E-02  0.1130116E+00
         25   -1    0    0    0    0  0.00000000000E+00  0.00000000000E+00  0.99999998245E-14  0.12500000000E+03  0.12500000000E+03 0.  0.
        -13    1    3    3    0    0  0.23818757588E+01 -0.10984796117E+02 -0.30853356080E+02  0.32837171366E+02  0.10566000000E+00 0. -1.
         23    2    1    0    0    0 -0.12248456689E+02  0.17292236815E+01  0.27779511752E+02  0.94590853695E+02  0.89569601003E+02 0.  0.
         13    1    3    3    0    0 -0.14630332448E+02  0.12714019799E+02  0.58632867832E+02  0.61753682329E+02  0.10566000000E+00 0.  1.
         22    1    1    0    0    0  0.12248456689E+02 -0.17292236815E+01 -0.27779511752E+02  0.30409146305E+02  0.00000000000E+00 0.  1.
</event>
<event>
 5    1  0.6924836E-004  0.9118800E+02  0.7818608E-02  0.1130116E+00
         25   -1    0    0    0    0  0.00000000000E+00  0.00000000000E+00  0.99999998245E-14  0.12500000000E+03  0.12500000000E+03 0.  0.
        -13    1    3    3    0    0 -0.24353289705E+02 -0.32327801396E+01  0.35958046147E+02  0.43549119780E+02  0.10566000000E+00 0.  1.
         23    2    1    0    0    0 -0.23067165870E+02  0.19201178542E+02 -0.88783295928E+01  0.93701371675E+02  0.88319550037E+02 0.  0.
         13    1    3    3    0    0  0.12861238349E+01  0.22433958682E+02 -0.44836375740E+02  0.50152251895E+02  0.10566000000E+00 0. -1.
         22    1    1    0    0    0  0.23067165870E+02 -0.19201178542E+02  0.88783295928E+01  0.31298628325E+02  0.00000000000E+00 0.  1.
</event>
<event>
 5    1  0.6924836E-004  0.9118800E+02  0.7818608E-02  0.1130116E+00
         25   -1    0    0    0    0  0.00000000000E+00  0.00000000000E+00  0.99999998245E-14  0.12500000000E+03  0.12500000000E+03 0.  0.
        -13    1    3    3    0    0 -0.51369818575E+02 -0.25962542088E+02 -0.19075706639E+02  0.60636668773E+02  0.10566000000E+00 0. -1.
         23    2    1    0    0    0 -0.18863097422E+02 -0.64934925376E+00  0.20378297738E+00  0.10612462911E+03  0.10443254893E+03 0.  0.
         13    1    3    3    0    0  0.32506721152E+02  0.25313192834E+02  0.19279489616E+02  0.45487960335E+02  0.10566000000E+00 0.  1.
         22    1    1    0    0    0  0.18863097422E+02  0.64934925376E+00 -0.20378297738E+00  0.18875370892E+02  0.00000000000E+00 0. -1.
</event>
<event>
 5    1  0.6924836E-004  0.9118800E+02  0.7818608E-02  0.1130116E+00
         25   -1    0    0    0    0  0.00000000000E+00  0.00000000000E+00  0.99999998245E-14  0.12500000000E+03  0.12500000000E+03 0.  0.
        -13    1    3    3    0    0 -0.90674570485E+01 -0.31977029200E+02  0.35501092614E+01  0.33426989299E+02  0.10566000000E+00 0. -1.
         23    2    1    0    0    0  0.29191307716E+02  0.12747758332E+02 -0.44969899680E+01  0.92830749038E+02  0.87078626882E+02 0.  0.
         13    1    3    3    0    0  0.38258764765E+02  0.44724787532E+02 -0.80470992294E+01  0.59403759739E+02  0.10566000000E+00 0.  1.
         22    1    1    0    0    0 -0.29191307716E+02 -0.12747758332E+02  0.44969899680E+01  0.32169250962E+02  0.00000000000E+00 0.  1.
</event>
<event>
 5    1  0.6924836E-004  0.9118800E+02  0.7818608E-02  0.1130116E+00
         25   -1    0    0    0    0  0.00000000000E+00  0.00000000000E+00  0.99999998245E-14  0.12500000000E+03  0.12500000000E+03 0.  0.
        -13    1    3    3    0    0  0.57580923918E+02 -0.10775221349E+02  0.45678004918E+01  0.58758353957E+02  0.10566000000E+00 0.  1.
         23    2    1    0    0    0  0.27103712486E+02 -0.95611363292E+01 -0.12441480067E+02  0.93682002224E+02  0.88292131903E+02 0.  0.
         13    1    3    3    0    0 -0.30477211432E+02  0.12140850201E+01 -0.17009280559E+02  0.34923648267E+02  0.10566000000E+00 0. -1.
         22    1    1    0    0    0 -0.27103712486E+02  0.95611363292E+01  0.12441480067E+02  0.31317997776E+02  0.00000000000E+00 0.  1.
</event>
<event>
 5    1  0.6924836E-004  0.9118800E+02  0.7818608E-02  0.1130116E+00
         25   -1    0    0    0    0  0.00000000000E+00  0.00000000000E+00  0.99999998245E-14  0.12500000000E+03  0.12500000000E+03 0.  0.
        -13    1    3    3    0    0 -0.32264561348E+02 -0.32252489096E+02  0.53426273574E+01  0.45932339402E+02  0.10566000000E+00 0.  1.
         23    2    1    0    0    0 -0.15256826853E+02  0.57384868477E+01 -0.23375560978E+02  0.96502318551E+02  0.92198588046E+02 0.  0.
         13    1    3    3    0    0  0.17007734495E+02  0.37990975944E+02 -0.28718188335E+02  0.50569979149E+02  0.10566000000E+00 0. -1.
         22    1    1    0    0    0  0.15256826853E+02 -0.57384868477E+01  0.23375560978E+02  0.28497681449E+02  0.00000000000E+00 0. -1.
</event>
<event>
 5    1  0.6924836E-004  0.9118800E+02  0.7818608E-02  0.1130116E+00
         25   -1    0    0    0    0  0.00000000000E+00  0.00000000000E+00  0.99999998245E-14  0.12500000000E+03  0.12500000000E+03 0.  0.
        -13    1    3    3    0    0  0.21510566190E+02 -0.14489003340E+02 -0.22473897847E+02  0.34317967948E+02  0.10566000000E+00 0. -1.
         23    2    1    0    0    0 -0.63786075938E+01  0.16709524778E+02  0.22834495558E+02  0.95994672205E+02  0.91507748585E+02 0.  0.
         13    1    3    3    0    0 -0.27889173784E+02  0.31198528118E+02  0.45308393404E+02  0.61676704257E+02  0.10566000000E+00 0.  1.
         22    1    1    0    0    0  0.63786075938E+01 -0.16709524778E+02 -0.22834495558E+02  0.29005327795E+02  0.00000000000E+00 0.  1.
</event>
<event>
 5    1  0.6924836E-004  0.9118800E+02  0.7818608E-02  0.1130116E+00
         25   -1    0    0    0    0  0.00000000000E+00  0.00000000000E+00  0.99999998245E-14  0.12500000000E+03  0.12500000000E+03 0.  0.
        -13    1    3    3    0    0 -0.17259422911E+02 -0.46014158213E+02  0.22304371037E+02  0.53969311341E+02  0.10566000000E+00 0.  1.
         23    2    1    0    0    0  0.67361552019E+01 -0.12058036663E+02  0.25841861594E+02  0.95698569221E+02  0.91102372665E+02 0.  0.
         13    1    3    3    0    0  0.23995578113E+02  0.33956121550E+02  0.35374905573E+01  0.41729257880E+02  0.10566000000E+00 0. -1.
         22    1    1    0    0    0 -0.67361552019E+01  0.12058036663E+02 -0.25841861594E+02  0.29301430779E+02  0.00000000000E+00 0.  1.
</event>
<event>
 5    1  0.6924836E-004  0.9118800E+02  0.7818608E-02  0.1130116E+00
         25   -1    0    0    0    0  0.00000000000E+00  0.00000000000E+00  0.99999998245E-14  0.12500000000E+03  0.12500000000E+03 0.  0.
        -13    1    3    3    0    0 -0.36905853344E+01  0.27504262368E+02  0.30257958481E+02  0.41056790961E+02  0.10566000000E+00 0.  1.
         23    2    1    0    0    0  0.82216573940E+01  0.23218757283E+02 -0.20241241373E+02  0.93118748575E+02  0.87491068937E+02 0.  0.
         13    1    3    3    0    0  0.11912242728E+02 -0.42855050845E+01 -0.50499199855E+02  0.52061957614E+02  0.10566000000E+00 0. -1.
         22    1    1    0    0    0 -0.82216573940E+01 -0.23218757283E+02  0.20241241373E+02  0.31881251425E+02  0.00000000000E+00 0. -1.
</event>
<event>
 5    1  0.6924836E-004  0.9118800E+02  0.7818608E-02  0.1130116E+00
         25   -1    0    0    0    0  0.00000000000E+00  0.00000000000E+00  0.99999998245E-14  0.12500000000E+03  0.12500000000E+03 0.  0.
        -13    1    3    3    0    0 -0.27414461218E+02  0.27536937532E+02 -0.83627559442E+01  0.39746477373E+02  0.10566000000E+00 0.  1.
         23    2    1    0    0    0  0.24789122809E+02  0.12315293152E+02  0.73730413649E+01  0.96355126217E+02  0.91998812787E+02 0.  0.
         13    1    3    3    0    0  0.52203584028E+02 -0.15221644380E+02  0.15735797309E+02  0.56608648844E+02  0.10566000000E+00 0. -1.
         22    1    1    0    0    0 -0.24789122809E+02 -0.12315293152E+02 -0.73730413649E+01  0.28644873783E+02  0.00000000000E+00 0.  1.
</event>
<event>
 5    1  0.6924836E-004  0.9118800E+02  0.7818608E-02  0.1130116E+00
         25   -1    0    0    0    0  0.00000000000E+00  0.00000000000E+00  0.99999998245E-14  0.12500000000E+03  0.12500000000E+03 0.  0.
        -13    1    3    3    0    0  0.31397709870E+02  0.16117872073E+02 -0.22813059651E+02  0.42024383873E+02  0.10566000000E+00 0. -1.
         23    2    1    0    0    0 -0.22098523300E+02  0.13935838077E+02 -0.95504939965E+01  0.97183381757E+02  0.93117374529E+02 0.  0.
         13    1    3    3    0    0 -0.53496233170E+02 -0.21820339958E+01  0.13262565655E+02  0.55158997883E+02  0.10566000000E+00 0.  1.
         22    1    1    0    0    0  0.22098523300E+02 -0.13935838077E+02  0.95504939965E+01  0.27816618243E+02  0.00000000000E+00 0.  1.
</event>
<event>
 5    1  0.6924836E-004  0.9118800E+02  0.7818608E-02  0.1130116E+00
         25   -1    0    0    0    0  0.00000000000E+00  0.00000000000E+00  0.99999998245E-14  0.12500000000E+03  0.12500000000E+03 0.  0.
        -13    1    3    3    0    0 -0.14897975109E+00  0.55358256517E+00  0.48173408608E+02  0.48176935452E+02  0.10566000000E+00 0.  1.
         23    2    1    0    0    0 -0.23051352543E+02 -0.14242618331E+02  0.79675605121E+01  0.96756433449E+02  0.92542467885E+02 0.  0.
         13    1    3    3    0    0 -0.22902372792E+02 -0.14796200896E+02 -0.40205848096E+02  0.48579497997E+02  0.10566000000E+00 0. -1.
         22    1    1    0    0    0  0.23051352543E+02  0.14242618331E+02 -0.79675605121E+01  0.28243566551E+02  0.00000000000E+00 0. -1.
</event>
<event>
 5    1  0.6924836E-004  0.9118800E+02  0.7818608E-02  0.1130116E+00
         25   -1    0    0    0    0  0.00000000000E+00  0.00000000000E+00  0.99999998245E-14  0.12500000000E+03  0.12500000000E+03 0.  0.
        -13    1    3    3    0    0  0.23008484469E+02 -0.56561082875E+01  0.41756611197E+02  0.48010495324E+02  0.10566000000E+00 0.  1.
         23    2    1    0    0    0  0.17262354776E+02  0.23634784880E+02  0.50861758709E+01  0.95293752614E+02  0.90545227116E+02 0.  0.
         13    1    3    3    0    0 -0.57461296925E+01  0.29290893167E+02 -0.36670435326E+02  0.47283257291E+02  0.10566000000E+00 0. -1.
         22    1    1    0    0    0 -0.17262354776E+02 -0.23634784880E+02 -0.50861758709E+01  0.29706247386E+02  0.00000000000E+00 0. -1.
</event>
<event>
 5    1  0.6924836E-004  0.9118800E+02  0.7818608E-02  0.1130116E+00
         25   -1    0    0    0    0  0.00000000000E+00  0.00000000000E+00  0.99999998245E-14  0.12500000000E+03  0.12500000000E+03 0.  0.
        -13    1    3    3    0    0 -0.61221007852E+02 -0.34738332803E+01 -0.60335337040E+01  0.61615696158E+02  0.10566000000E+00 0.  1.
         23    2    1    0    0    0 -0.25447550012E+02 -0.70373556731E+01 -0.73594791649E+01  0.97590802455E+02  0.93662695956E+02 0.  0.
         13    1    3    3    0    0  0.35773457840E+02 -0.35635223928E+01 -0.13259454609E+01  0.35975106297E+02  0.10566000000E+00 0. -1.
         22    1    1    0    0    0  0.25447550012E+02  0.70373556731E+01  0.73594791649E+01  0.27409197545E+02  0.00000000000E+00 0.  1.
</event>
<event>
 5    1  0.6924836E-004  0.9118800E+02  0.7818608E-02  0.1130116E+00
         25   -1    0    0    0    0  0.00000000000E+00  0.00000000000E+00  0.99999998245E-14  0.12500000000E+03  0.12500000000E+03 0.  0.
        -13    1    3    3    0    0 -0.40112613117E+02  0.33545384159E+02  0.29730091046E+02  0.60151508768E+02  0.10566000000E+00 0. -1.
         23    2    1    0    0    0 -0.20898772425E+02  0.53698226149E+01  0.19908707048E+02  0.95641009893E+02  0.91023362239E+02 0.  0.
         13    1    3    3    0    0  0.19213840692E+02 -0.28175561544E+02 -0.98213839977E+01  0.35489501125E+02  0.10566000000E+00 0.  1.
         22    1    1    0    0    0  0.20898772425E+02 -0.53698226149E+01 -0.19908707048E+02  0.29358990107E+02  0.00000000000E+00 0. -1.
</event>
<event>
 5    1  0.6924836E-004  0.9118800E+02  0.7818608E-02  0.1130116E+00
         25   -1    0    0    0    0  0.00000000000E+00  0.00000000000E+00  0.99999998245E-14  0.12500000000E+03  0.12500000000E+03 0.  0.
        -13    1    3    3    0    0  0.32850347004E+02 -0.21449991382E+02 -0.72517745465E+01  0.39897955169E+02  0.10566000000E+00 0. -1.
         23    2    1    0    0    0 -0.19810634730E+02 -0.12475352008E+02 -0.19298518150E+02  0.94659788088E+02  0.89665751666E+02 0.  0.
         13    1    3    3    0    0 -0.52660981734E+02  0.89746393747E+01 -0.12046743603E+02  0.54761832918E+02  0.10566000000E+00 0.  1.
         22    1    1    0    0    0  0.19810634730E+02  0.12475352008E+02  0.19298518150E+02  0.30340211912E+02  0.00000000000E+00 0.  1.
</event>
<event>
 5    1  0.6924836E-004  0.9118800E+02  0.7818608E-02  0.1130116E+00
         25   -1    0    0    0    0  0.00000000000E+00  0.00000000000E+00  0.99999998245E-14  0.12500000000E+03  0.12500000000E+03 0.  0.
        -13    1    3    3    0    0 -0.23039278856E+02 -0.53768485210E+02  0.15789293235E+02  0.60590191590E+02  0.10566000000E+00 0. -1.
         23    2    1    0    0    0 -0.10134664759E+02 -0.23089908498E+02  0.18111639706E+02  0.93953473671E+02  0.88675635987E+02 0.  0.
         13    1    3    3    0    0  0.12904614097E+02  0.30678576712E+02  0.23223464718E+01  0.33363282081E+02  0.10566000000E+00 0.  1.
         22    1    1    0    0    0  0.10134664759E+02  0.23089908498E+02 -0.18111639706E+02  0.31046526329E+02  0.00000000000E+00 0. -1.
</event>
<event>
 5    1  0.6924836E-004  0.9118800E+02  0.7818608E-02  0.1130116E+00
         25   -1    0    0    0    0  0.00000000000E+00  0.00000000000E+00  0.99999998245E-14  0.12500000000E+03  0.12500000000E+03 0.  0.
        -13    1    3    3    0    0  0.28723057638E+02  0.15946550631E+02  0.47448705548E+01  0.33193846986E+02  0.10566000000E+00 0.  1.
         23    2    1    0    0    0 -0.22629196772E+02 -0.17418825068E+02 -0.71117782525E+01  0.95570874916E+02  0.90926996701E+02 0.  0.
         13    1    3    3    0    0 -0.51352254410E+02 -0.33365375699E+02 -0.11856648807E+02  0.62377027931E+02  0.10566000000E+00 0. -1.
         22    1    1    0    0    0  0.22629196772E+02  0.17418825068E+02  0.71117782525E+01  0.29429125084E+02  0.00000000000E+00 0. -1.
</event>
<event>
 5    1  0.6924836E-004  0.9118800E+02  0.7818608E-02  0.1130116E+00
         25   -1    0    0    0    0  0.00000000000E+00  0.00000000000E+00  0.99999998245E-14  0.12500000000E+03  0.12500000000E+03 0.  0.
        -13    1    3    3    0    0 -0.13075185038E+02  0.29751269019E+02  0.19944981022E+02  0.38130196747E+02  0.10566000000E+00 0. -1.
         23    2    1    0    0    0  0.51162661120E+01  0.58569269061E+01 -0.28681562594E+02  0.95282802882E+02  0.90530109469E+02 0.  0.
         13    1    3    3    0    0  0.18191451150E+02 -0.23894342113E+02 -0.48626543616E+02  0.57152606135E+02  0.10566000000E+00 0.  1.
         22    1    1    0    0    0 -0.51162661120E+01 -0.58569269061E+01  0.28681562594E+02  0.29717197118E+02  0.00000000000E+00 0.  1.
</event>
<event>
 5    1  0.6924836E-004  0.9118800E+02  0.7818608E-02  0.1130116E+00
         25   -1    0    0    0    0  0.00000000000E+00  0.00000000000E+00  0.99999998245E-14  0.12500000000E+03  0.12500000000E+03 0.  0.
        -13    1    3    3    0    0  0.48413406476E+00  0.35215569439E+02 -0.93330086224E+01  0.36434694052E+02  0.10566000000E+00 0.  1.
         23    2    1    0    0    0 -0.30831940650E+01 -0.11545106242E+02  0.26812974011E+02  0.95644742564E+02  0.91028488074E+02 0.  0.
         13    1    3    3    0    0 -0.35673281298E+01 -0.46760675681E+02  0.36145982634E+02  0.59210048512E+02  0.10566000000E+00 0. -1.
         22    1    1    0    0    0  0.30831940650E+01  0.11545106242E+02 -0.26812974011E+02  0.29355257436E+02  0.00000000000E+00 0. -1.
</event>
<event>
 5    1  0.6924836E-004  0.9118800E+02  0.7818608E-02  0.1130116E+00
         25   -1    0    0    0    0  0.00000000000E+00  0.00000000000E+00  0.99999998245E-14  0.12500000000E+03  0.12500000000E+03 0.  0.
        -13    1    3    3    0    0  0.41619350895E+02  0.82568617718E-01  0.95651955022E+01  0.42704581904E+02  0.10566000000E+00 0.  1.
         23    2    1    0    0    0  0.74833045303E+01 -0.94530509052E+01 -0.28099354692E+02  0.94423313583E+02  0.89335482289E+02 0.  0.
         13    1    3    3    0    0 -0.34136046365E+02 -0.95356195229E+01 -0.37664550195E+02  0.51718731679E+02  0.10566000000E+00 0. -1.
         22    1    1    0    0    0 -0.74833045303E+01  0.94530509052E+01  0.28099354692E+02  0.30576686417E+02  0.00000000000E+00 0. -1.
</event>
<event>
 5    1  0.6924836E-004  0.9118800E+02  0.7818608E-02  0.1130116E+00
         25   -1    0    0    0    0  0.00000000000E+00  0.00000000000E+00  0.99999998245E-14  0.12500000000E+03  0.12500000000E+03 0.  0.
        -13    1    3    3    0    0  0.38833430471E+02  0.17203544096E+02  0.29660061665E+02  0.51804707060E+02  0.10566000000E+00 0. -1.
         23    2    1    0    0    0  0.92444255293E+00 -0.89356932056E+01  0.25411108075E+02  0.98047715854E+02  0.94270509511E+02 0.  0.
         13    1    3    3    0    0 -0.37908987918E+02 -0.26139237302E+02 -0.42489535903E+01  0.46243008794E+02  0.10566000000E+00 0.  1.
         22    1    1    0    0    0 -0.92444255293E+00  0.89356932056E+01 -0.25411108075E+02  0.26952284146E+02  0.00000000000E+00 0.  1.
</event>
<event>
 5    1  0.6924836E-004  0.9118800E+02  0.7818608E-02  0.1130116E+00
         25   -1    0    0    0    0  0.00000000000E+00  0.00000000000E+00  0.99999998245E-14  0.12500000000E+03  0.12500000000E+03 0.  0.
        -13    1    3    3    0    0  0.13694236274E+02 -0.20413771259E+02 -0.28744412635E+02  0.37822038363E+02  0.10566000000E+00 0.  1.
         23    2    1    0    0    0  0.23788205403E+02 -0.23950045185E+02  0.18667811109E+02  0.86425778657E+02  0.77339800001E+02 0.  0.
         13    1    3    3    0    0  0.10093969129E+02 -0.35362739251E+01  0.47412223744E+02  0.48603740293E+02  0.10566000000E+00 0. -1.
         22    1    1    0    0    0 -0.23788205403E+02  0.23950045185E+02 -0.18667811109E+02  0.38574221343E+02  0.00000000000E+00 0. -1.
</event>
<event>
 5    1  0.6924836E-004  0.9118800E+02  0.7818608E-02  0.1130116E+00
         25   -1    0    0    0    0  0.00000000000E+00  0.00000000000E+00  0.99999998245E-14  0.12500000000E+03  0.12500000000E+03 0.  0.
        -13    1    3    3    0    0  0.23718851627E+02  0.40197345112E+01 -0.33666913849E+02  0.41378912990E+02  0.10566000000E+00 0.  1.
         23    2    1    0    0    0  0.90438511444E+01 -0.31544476990E+02 -0.49051454615E+00  0.92181013474E+02  0.86140892545E+02 0.  0.
         13    1    3    3    0    0 -0.14675000483E+02 -0.35564211501E+02  0.33176399303E+02  0.50802100484E+02  0.10566000000E+00 0. -1.
         22    1    1    0    0    0 -0.90438511444E+01  0.31544476990E+02  0.49051454615E+00  0.32818986526E+02  0.00000000000E+00 0. -1.
</event>
<event>
 5    1  0.6924836E-004  0.9118800E+02  0.7818608E-02  0.1130116E+00
         25   -1    0    0    0    0  0.00000000000E+00  0.00000000000E+00  0.99999998245E-14  0.12500000000E+03  0.12500000000E+03 0.  0.
        -13    1    3    3    0    0 -0.24969075930E+02 -0.55624896438E+02 -0.68815985407E+01  0.61359199954E+02  0.10566000000E+00 0.  1.
         23    2    1    0    0    0 -0.18955984798E+02 -0.22082182190E+02 -0.15017395228E+01  0.95858837506E+02  0.91322009266E+02 0.  0.
         13    1    3    3    0    0  0.60130911314E+01  0.33542714248E+02  0.53798590179E+01  0.34499637551E+02  0.10566000000E+00 0. -1.
         22    1    1    0    0    0  0.18955984798E+02  0.22082182190E+02  0.15017395228E+01  0.29141162494E+02  0.00000000000E+00 0.  1.
</event>
<event>
 5    1  0.6924836E-004  0.9118800E+02  0.7818608E-02  0.1130116E+00
         25   -1    0    0    0    0  0.00000000000E+00  0.00000000000E+00  0.99999998245E-14  0.12500000000E+03  0.12500000000E+03 0.  0.
        -13    1    3    3    0    0 -0.41632370992E+01  0.62175461142E+02 -0.14573661041E+01  0.62331818450E+02  0.10566000000E+00 0.  1.
         23    2    1    0    0    0 -0.39496506373E+01  0.28784984492E+02  0.18495699026E+01  0.95886498300E+02  0.91359863042E+02 0.  0.
         13    1    3    3    0    0  0.21358646191E+00 -0.33390476649E+02  0.33069360067E+01  0.33554679850E+02  0.10566000000E+00 0. -1.
         22    1    1    0    0    0  0.39496506373E+01 -0.28784984492E+02 -0.18495699026E+01  0.29113501700E+02  0.00000000000E+00 0.  1.
</event>
<event>
 5    1  0.6924836E-004  0.9118800E+02  0.7818608E-02  0.1130116E+00
         25   -1    0    0    0    0  0.00000000000E+00  0.00000000000E+00  0.99999998245E-14  0.12500000000E+03  0.12500000000E+03 0.  0.
        -13    1    3    3    0    0 -0.43751143307E+02 -0.34214513249E+02 -0.24933693199E+02  0.60880996034E+02  0.10566000000E+00 0.  1.
         23    2    1    0    0    0 -0.13815874411E+02 -0.14752282076E+02 -0.19346780963E+02  0.97021326947E+02  0.92899578776E+02 0.  0.
         13    1    3    3    0    0  0.29935268897E+02  0.19462231173E+02  0.55869122353E+01  0.36140330913E+02  0.10566000000E+00 0. -1.
         22    1    1    0    0    0  0.13815874411E+02  0.14752282076E+02  0.19346780963E+02  0.27978673053E+02  0.00000000000E+00 0.  1.
</event>
<event>
 5    1  0.6924836E-004  0.9118800E+02  0.7818608E-02  0.1130116E+00
         25   -1    0    0    0    0  0.00000000000E+00  0.00000000000E+00  0.99999998245E-14  0.12500000000E+03  0.12500000000E+03 0.  0.
        -13    1    3    3    0    0 -0.49221402205E+02 -0.23539738596E+02  0.22176852272E+02  0.58895582762E+02  0.10566000000E+00 0.  1.
         23    2    1    0    0    0 -0.13840339954E+02 -0.22992153556E+02  0.10899284493E+02  0.96034701148E+02  0.91562411976E+02 0.  0.
         13    1    3    3    0    0  0.35381062251E+02  0.54758504097E+00 -0.11277567779E+02  0.37139118385E+02  0.10566000000E+00 0. -1.
         22    1    1    0    0    0  0.13840339954E+02  0.22992153556E+02 -0.10899284493E+02  0.28965298852E+02  0.00000000000E+00 0.  1.
</event>
<event>
 5    1  0.6924836E-004  0.9118800E+02  0.7818608E-02  0.1130116E+00
         25   -1    0    0    0    0  0.00000000000E+00  0.00000000000E+00  0.99999998245E-14  0.12500000000E+03  0.12500000000E+03 0.  0.
        -13    1    3    3    0    0 -0.15206357095E+01  0.37780511656E+01 -0.35979039359E+02  0.36208955257E+02  0.10566000000E+00 0.  1.
         23    2    1    0    0    0  0.11011292756E+02 -0.37588137037E+01  0.24204710874E+02  0.98143989926E+02  0.94398079861E+02 0.  0.
         13    1    3    3    0    0  0.12531928465E+02 -0.75368648694E+01  0.60183750234E+02  0.61935034668E+02  0.10566000000E+00 0. -1.
         22    1    1    0    0    0 -0.11011292756E+02  0.37588137037E+01 -0.24204710874E+02  0.26856010074E+02  0.00000000000E+00 0. -1.
</event>
<event>
 5    1  0.6924836E-004  0.9118800E+02  0.7818608E-02  0.1130116E+00
         25   -1    0    0    0    0  0.00000000000E+00  0.00000000000E+00  0.99999998245E-14  0.12500000000E+03  0.12500000000E+03 0.  0.
        -13    1    3    3    0    0  0.17044481007E+02  0.21018834600E+01 -0.29981557297E+02  0.34551949133E+02  0.10566000000E+00 0.  1.
         23    2    1    0    0    0 -0.50497068118E+01  0.62918533783E+01  0.27534425190E+02  0.96307988423E+02  0.91934743735E+02 0.  0.
         13    1    3    3    0    0 -0.22094187819E+02  0.41899699182E+01  0.57515982487E+02  0.61756039290E+02  0.10566000000E+00 0. -1.
         22    1    1    0    0    0  0.50497068118E+01 -0.62918533783E+01 -0.27534425190E+02  0.28692011577E+02  0.00000000000E+00 0. -1.
</event>
<event>
 4    1  0.6924836E-004  0.9118800E+02  0.7818608E-02  0.1130116E+00
         25   -1    0    0    0    0  0.00000000000E+00  0.00000000000E+00  0.99999998245E-14  0.12500000000E+03  0.12500000000E+03 0.  0.
        -13    1    1    0    0    0 -0.48729245285E+02  0.12113974331E+02  0.18440103322E+02  0.53491460016E+02  0.10566000000E+00 0.  1.
         13    1    1    0    0    0 -0.24353925622E+00 -0.15604461895E+02  0.59307650051E+01  0.16695618586E+02  0.10566000000E+00 0. -1.
         22    1    1    0    0    0  0.48972784541E+02  0.34904875636E+01 -0.24370868327E+02  0.54812921397E+02  0.00000000000E+00 0.  1.
</event>
<event>
 5    1  0.6924836E-004  0.9118800E+02  0.7818608E-02  0.1130116E+00
         25   -1    0    0    0    0  0.00000000000E+00  0.00000000000E+00  0.99999998245E-14  0.12500000000E+03  0.12500000000E+03 0.  0.
        -13    1    3    3    0    0  0.27882061950E+02  0.46999679993E+02  0.18719990922E+01  0.54679930895E+02  0.10566000000E+00 0.  1.
         23    2    1    0    0    0  0.19955324710E+02  0.10494451049E+02  0.18753656148E+02  0.95673423214E+02  0.91067863725E+02 0.  0.
         13    1    3    3    0    0 -0.79267372405E+01 -0.36505228944E+02  0.16881657056E+02  0.40993492319E+02  0.10566000000E+00 0. -1.
         22    1    1    0    0    0 -0.19955324710E+02 -0.10494451049E+02 -0.18753656148E+02  0.29326576786E+02  0.00000000000E+00 0.  1.
</event>
<event>
 5    1  0.6924836E-004  0.9118800E+02  0.7818608E-02  0.1130116E+00
         25   -1    0    0    0    0  0.00000000000E+00  0.00000000000E+00  0.99999998245E-14  0.12500000000E+03  0.12500000000E+03 0.  0.
        -13    1    3    3    0    0  0.15957598293E+02  0.68574722082E+01  0.49442578191E+02  0.52404671267E+02  0.10566000000E+00 0.  1.
         23    2    1    0    0    0  0.42636931555E+01  0.26176767754E+02  0.12553659072E+02  0.95657256340E+02  0.91045670326E+02 0.  0.
         13    1    3    3    0    0 -0.11693905138E+02  0.19319295546E+02 -0.36888919119E+02  0.43252585074E+02  0.10566000000E+00 0. -1.
         22    1    1    0    0    0 -0.42636931555E+01 -0.26176767754E+02 -0.12553659072E+02  0.29342743660E+02  0.00000000000E+00 0.  1.
</event>
<event>
 5    1  0.6924836E-004  0.9118800E+02  0.7818608E-02  0.1130116E+00
         25   -1    0    0    0    0  0.00000000000E+00  0.00000000000E+00  0.99999998245E-14  0.12500000000E+03  0.12500000000E+03 0.  0.
        -13    1    3    3    0    0  0.40009827457E+02  0.11421648103E+02  0.25782388914E+02  0.48948780175E+02  0.10566000000E+00 0.  1.
         23    2    1    0    0    0  0.27356409290E+02 -0.14248611484E+01 -0.15163746271E+02  0.93689577462E+02  0.88302855931E+02 0.  0.
         13    1    3    3    0    0 -0.12653418167E+02 -0.12846509252E+02 -0.40946135185E+02  0.44740797287E+02  0.10566000000E+00 0. -1.
         22    1    1    0    0    0 -0.27356409290E+02  0.14248611484E+01  0.15163746271E+02  0.31310422538E+02  0.00000000000E+00 0.  1.
</event>
<event>
 5    1  0.6924836E-004  0.9118800E+02  0.7818608E-02  0.1130116E+00
         25   -1    0    0    0    0  0.00000000000E+00  0.00000000000E+00  0.99999998245E-14  0.12500000000E+03  0.12500000000E+03 0.  0.
        -13    1    3    3    0    0 -0.32889136803E+02 -0.95485601088E+01 -0.13760409994E+02  0.36908405100E+02  0.10566000000E+00 0.  1.
         23    2    1    0    0    0  0.21599551720E+02 -0.22215544890E+02 -0.30610660823E+01  0.93864149364E+02  0.88549632077E+02 0.  0.
         13    1    3    3    0    0  0.54488688524E+02 -0.12666984781E+02  0.10699343912E+02  0.56955744264E+02  0.10566000000E+00 0. -1.
         22    1    1    0    0    0 -0.21599551720E+02  0.22215544890E+02  0.30610660823E+01  0.31135850636E+02  0.00000000000E+00 0. -1.
</event>
<event>
 5    1  0.6924836E-004  0.9118800E+02  0.7818608E-02  0.1130116E+00
         25   -1    0    0    0    0  0.00000000000E+00  0.00000000000E+00  0.99999998245E-14  0.12500000000E+03  0.12500000000E+03 0.  0.
        -13    1    3    3    0    0  0.36379963521E+02 -0.15805514019E+02 -0.36302553937E+02  0.53769904273E+02  0.10566000000E+00 0.  1.
         23    2    1    0    0    0  0.48015146451E+01 -0.12168046490E+02  0.90070080468E+01  0.10911786878E+03  0.10795585762E+03 0.  0.
         13    1    3    3    0    0 -0.31578448876E+02  0.36374675290E+01  0.45309561984E+02  0.55347964503E+02  0.10566000000E+00 0. -1.
         22    1    1    0    0    0 -0.48015146451E+01  0.12168046490E+02 -0.90070080468E+01  0.15882131224E+02  0.00000000000E+00 0. -1.
</event>
<event>
 5    1  0.6924836E-004  0.9118800E+02  0.7818608E-02  0.1130116E+00
         25   -1    0    0    0    0  0.00000000000E+00  0.00000000000E+00  0.99999998245E-14  0.12500000000E+03  0.12500000000E+03 0.  0.
        -13    1    3    3    0    0  0.39405583785E+02  0.20954778304E+02  0.64100017939E+01  0.45088824050E+02  0.10566000000E+00 0. -1.
         23    2    1    0    0    0  0.16797576313E+02 -0.19771356589E+02 -0.13509511894E+02  0.95749837214E+02  0.91172689461E+02 0.  0.
         13    1    3    3    0    0 -0.22608007473E+02 -0.40726134893E+02 -0.19919513688E+02  0.50661013164E+02  0.10566000000E+00 0.  1.
         22    1    1    0    0    0 -0.16797576313E+02  0.19771356589E+02  0.13509511894E+02  0.29250162786E+02  0.00000000000E+00 0. -1.
</event>
<event>
 5    1  0.6924836E-004  0.9118800E+02  0.7818608E-02  0.1130116E+00
         25   -1    0    0    0    0  0.00000000000E+00  0.00000000000E+00  0.99999998245E-14  0.12500000000E+03  0.12500000000E+03 0.  0.
        -13    1    3    3    0    0 -0.16867026505E+02  0.17968434063E+02 -0.31456082743E+02  0.39960699586E+02  0.10566000000E+00 0.  1.
         23    2    1    0    0    0  0.60907273741E+01 -0.26820056035E+01  0.22175972344E+02  0.10184694700E+03  0.99180324404E+02 0.  0.
         13    1    3    3    0    0  0.22957753879E+02 -0.20650439667E+02  0.53632055087E+02  0.61886247410E+02  0.10566000000E+00 0. -1.
         22    1    1    0    0    0 -0.60907273741E+01  0.26820056035E+01 -0.22175972344E+02  0.23153053004E+02  0.00000000000E+00 0. -1.
</event>
<event>
 5    1  0.6924836E-004  0.9118800E+02  0.7818608E-02  0.1130116E+00
         25   -1    0    0    0    0  0.00000000000E+00  0.00000000000E+00  0.99999998245E-14  0.12500000000E+03  0.12500000000E+03 0.  0.
        -13    1    3    3    0    0  0.26005006183E+02  0.14248692388E+02 -0.21404480128E+02  0.36571143200E+02  0.10566000000E+00 0.  1.
         23    2    1    0    0    0 -0.51594580286E+01  0.61632623305E+00  0.27982551848E+02  0.96539095708E+02  0.92248435906E+02 0.  0.
         13    1    3    3    0    0 -0.31164464212E+02 -0.13632366155E+02  0.49387031976E+02  0.59967952508E+02  0.10566000000E+00 0. -1.
         22    1    1    0    0    0  0.51594580286E+01 -0.61632623305E+00 -0.27982551848E+02  0.28460904292E+02  0.00000000000E+00 0. -1.
</event>
<event>
 5    1  0.6924836E-004  0.9118800E+02  0.7818608E-02  0.1130116E+00
         25   -1    0    0    0    0  0.00000000000E+00  0.00000000000E+00  0.99999998245E-14  0.12500000000E+03  0.12500000000E+03 0.  0.
        -13    1    3    3    0    0 -0.22709151205E+02 -0.41987725412E+02  0.40218319444E+02  0.62419540343E+02  0.10566000000E+00 0.  1.
         23    2    1    0    0    0 -0.95764011204E+01 -0.18109299085E+02  0.20169840521E+02  0.96251493283E+02  0.91857897433E+02 0.  0.
         13    1    3    3    0    0  0.13132750084E+02  0.23878426327E+02 -0.20048478923E+02  0.33831952940E+02  0.10566000000E+00 0. -1.
         22    1    1    0    0    0  0.95764011204E+01  0.18109299085E+02 -0.20169840521E+02  0.28748506717E+02  0.00000000000E+00 0.  1.
</event>
<event>
 5    1  0.6924836E-004  0.9118800E+02  0.7818608E-02  0.1130116E+00
         25   -1    0    0    0    0  0.00000000000E+00  0.00000000000E+00  0.99999998245E-14  0.12500000000E+03  0.12500000000E+03 0.  0.
        -13    1    3    3    0    0 -0.15046409902E+02 -0.16583006040E+02 -0.36891662455E+02  0.43155491689E+02  0.10566000000E+00 0. -1.
         23    2    1    0    0    0 -0.14894840032E+02 -0.20032364390E+02  0.15470749239E+02  0.95631718391E+02  0.91010601568E+02 0.  0.
         13    1    3    3    0    0  0.15156986978E+00 -0.34493583504E+01  0.52362411694E+02  0.52476226702E+02  0.10566000000E+00 0.  1.
         22    1    1    0    0    0  0.14894840032E+02  0.20032364390E+02 -0.15470749239E+02  0.29368281609E+02  0.00000000000E+00 0.  1.
</event>
<event>
 5    1  0.6924836E-004  0.9118800E+02  0.7818608E-02  0.1130116E+00
         25   -1    0    0    0    0  0.00000000000E+00  0.00000000000E+00  0.99999998245E-14  0.12500000000E+03  0.12500000000E+03 0.  0.
        -13    1    3    3    0    0 -0.11988187278E+02  0.37677130483E+02  0.46018648668E+02  0.60671327535E+02  0.10566000000E+00 0.  1.
         23    2    1    0    0    0 -0.15069099109E+02  0.16308120864E+02  0.16071786160E+02  0.97589511780E+02  0.93660973436E+02 0.  0.
         13    1    3    3    0    0 -0.30809118316E+01 -0.21369009619E+02 -0.29946862508E+02  0.36918184245E+02  0.10566000000E+00 0. -1.
         22    1    1    0    0    0  0.15069099109E+02 -0.16308120864E+02 -0.16071786160E+02  0.27410488220E+02  0.00000000000E+00 0.  1.
</event>
<event>
 5    1  0.6924836E-004  0.9118800E+02  0.7818608E-02  0.1130116E+00
         25   -1    0    0    0    0  0.00000000000E+00  0.00000000000E+00  0.99999998245E-14  0.12500000000E+03  0.12500000000E+03 0.  0.
        -13    1    3    3    0    0  0.75462996042E+01 -0.40559631023E+02 -0.16817217455E+02  0.44551770710E+02  0.10566000000E+00 0. -1.
         23    2    1    0    0    0  0.27248941821E+02  0.54057088960E+01 -0.30190966570E+00  0.97218393343E+02  0.93164361940E+02 0.  0.
         13    1    3    3    0    0  0.19702642216E+02  0.45965339919E+02  0.16515307789E+02  0.52666622633E+02  0.10566000000E+00 0.  1.
         22    1    1    0    0    0 -0.27248941821E+02 -0.54057088960E+01  0.30190966570E+00  0.27781606657E+02  0.00000000000E+00 0.  1.
</event>
<event>
 5    1  0.6924836E-004  0.9118800E+02  0.7818608E-02  0.1130116E+00
         25   -1    0    0    0    0  0.00000000000E+00  0.00000000000E+00  0.99999998245E-14  0.12500000000E+03  0.12500000000E+03 0.  0.
        -13    1    3    3    0    0  0.37650135631E+02  0.20078357410E+02 -0.58000218576E+01  0.43061869059E+02  0.10566000000E+00 0. -1.
         23    2    1    0    0    0 -0.11781574972E+02  0.14349148086E+02 -0.22753205966E+02  0.95633148937E+02  0.91012566354E+02 0.  0.
         13    1    3    3    0    0 -0.49431710603E+02 -0.57292093235E+01 -0.16953184108E+02  0.52571279878E+02  0.10566000000E+00 0.  1.
         22    1    1    0    0    0  0.11781574972E+02 -0.14349148086E+02  0.22753205966E+02  0.29366851063E+02  0.00000000000E+00 0.  1.
</event>
<event>
 5    1  0.6924836E-004  0.9118800E+02  0.7818608E-02  0.1130116E+00
         25   -1    0    0    0    0  0.00000000000E+00  0.00000000000E+00  0.99999998245E-14  0.12500000000E+03  0.12500000000E+03 0.  0.
        -13    1    3    3    0    0 -0.18506150224E+02  0.28734045150E+02  0.45493188178E+02  0.56901355708E+02  0.10566000000E+00 0. -1.
         23    2    1    0    0    0  0.68527672436E+01  0.73305662134E+01  0.29696955704E+02  0.93653440412E+02  0.88251686120E+02 0.  0.
         13    1    3    3    0    0  0.25358917467E+02 -0.21403478937E+02 -0.15796232474E+02  0.36752084704E+02  0.10566000000E+00 0.  1.
         22    1    1    0    0    0 -0.68527672436E+01 -0.73305662134E+01 -0.29696955704E+02  0.31346559588E+02  0.00000000000E+00 0. -1.
</event>
<event>
 5    1  0.6924836E-004  0.9118800E+02  0.7818608E-02  0.1130116E+00
         25   -1    0    0    0    0  0.00000000000E+00  0.00000000000E+00  0.99999998245E-14  0.12500000000E+03  0.12500000000E+03 0.  0.
        -13    1    3    3    0    0 -0.31331812797E+02 -0.38869269650E+02 -0.35297784419E+02  0.61142843941E+02  0.10566000000E+00 0.  1.
         23    2    1    0    0    0 -0.71073586246E+01 -0.23380574355E+02 -0.15248451687E+02  0.96195814842E+02  0.91782099074E+02 0.  0.
         13    1    3    3    0    0  0.24224454173E+02  0.15488695296E+02  0.20049332732E+02  0.35052970901E+02  0.10566000000E+00 0. -1.
         22    1    1    0    0    0  0.71073586246E+01  0.23380574355E+02  0.15248451687E+02  0.28804185158E+02  0.00000000000E+00 0.  1.
</event>
<event>
 5    1  0.6924836E-004  0.9118800E+02  0.7818608E-02  0.1130116E+00
         25   -1    0    0    0    0  0.00000000000E+00  0.00000000000E+00  0.99999998245E-14  0.12500000000E+03  0.12500000000E+03 0.  0.
        -13    1    3    3    0    0 -0.12733816164E+02 -0.31595116544E+02  0.42405241794E+02  0.54393171991E+02  0.10566000000E+00 0.  1.
         23    2    1    0    0    0 -0.20451294661E+02 -0.20235953309E+02  0.30590444796E+01  0.96067198325E+02  0.91606766023E+02 0.  0.
         13    1    3    3    0    0 -0.77174784971E+01  0.11359163235E+02 -0.39346197315E+02  0.41674026334E+02  0.10566000000E+00 0. -1.
         22    1    1    0    0    0  0.20451294661E+02  0.20235953309E+02 -0.30590444796E+01  0.28932801675E+02  0.00000000000E+00 0.  1.
</event>
<event>
 5    1  0.6924836E-004  0.9118800E+02  0.7818608E-02  0.1130116E+00
         25   -1    0    0    0    0  0.00000000000E+00  0.00000000000E+00  0.99999998245E-14  0.12500000000E+03  0.12500000000E+03 0.  0.
        -13    1    3    3    0    0 -0.11798242214E+01 -0.45603866860E+02 -0.27888099293E+02  0.53468326175E+02  0.10566000000E+00 0. -1.
         23    2    1    0    0    0 -0.31885071529E+01 -0.35063749798E+01 -0.28986949977E+02  0.95628168046E+02  0.91005725158E+02 0.  0.
         13    1    3    3    0    0 -0.20086829315E+01  0.42097491880E+02 -0.10988506840E+01  0.42159841871E+02  0.10566000000E+00 0.  1.
         22    1    1    0    0    0  0.31885071529E+01  0.35063749798E+01  0.28986949977E+02  0.29371831954E+02  0.00000000000E+00 0. -1.
</event>
<event>
 5    1  0.6924836E-004  0.9118800E+02  0.7818608E-02  0.1130116E+00
         25   -1    0    0    0    0  0.00000000000E+00  0.00000000000E+00  0.99999998245E-14  0.12500000000E+03  0.12500000000E+03 0.  0.
        -13    1    3    3    0    0  0.18050628918E+02 -0.23473361798E+02  0.50986370841E+02  0.58961386466E+02  0.10566000000E+00 0. -1.
         23    2    1    0    0    0  0.19546955980E+02 -0.11469915379E+01  0.22981521619E+02  0.94808123384E+02  0.89872302997E+02 0.  0.
         13    1    3    3    0    0  0.14963270618E+01  0.22326370260E+02 -0.28004849223E+02  0.35846736918E+02  0.10566000000E+00 0.  1.
         22    1    1    0    0    0 -0.19546955980E+02  0.11469915379E+01 -0.22981521619E+02  0.30191876616E+02  0.00000000000E+00 0. -1.
</event>
<event>
 5    1  0.6924836E-004  0.9118800E+02  0.7818608E-02  0.1130116E+00
         25   -1    0    0    0    0  0.00000000000E+00  0.00000000000E+00  0.99999998245E-14  0.12500000000E+03  0.12500000000E+03 0.  0.
        -13    1    3    3    0    0 -0.30690936173E+02 -0.27188731131E+02 -0.96731605839E+01  0.42127685237E+02  0.10566000000E+00 0. -1.
         23    2    1    0    0    0  0.94415895884E+01  0.19462017880E+01 -0.28299754199E+02  0.95103388100E+02  0.90282041543E+02 0.  0.
         13    1    3    3    0    0  0.40132525761E+02  0.29134932919E+02 -0.18626593615E+02  0.52975702864E+02  0.10566000000E+00 0.  1.
         22    1    1    0    0    0 -0.94415895884E+01 -0.19462017880E+01  0.28299754199E+02  0.29896611900E+02  0.00000000000E+00 0.  1.
</event>
<event>
 5    1  0.6924836E-004  0.9118800E+02  0.7818608E-02  0.1130116E+00
         25   -1    0    0    0    0  0.00000000000E+00  0.00000000000E+00  0.99999998245E-14  0.12500000000E+03  0.12500000000E+03 0.  0.
        -13    1    3    3    0    0  0.36741273545E+02 -0.13942611256E+02  0.17303164665E+02  0.42938656963E+02  0.10566000000E+00 0.  1.
         23    2    1    0    0    0 -0.87575186882E+01  0.76629248505E+01 -0.17373454727E+02  0.10408944095E+03  0.10196744694E+03 0.  0.
         13    1    3    3    0    0 -0.45498792233E+02  0.21605536107E+02 -0.34676619392E+02  0.61150783982E+02  0.10566000000E+00 0. -1.
         22    1    1    0    0    0  0.87575186882E+01 -0.76629248505E+01  0.17373454727E+02  0.20910559055E+02  0.00000000000E+00 0. -1.
</event>
<event>
 5    1  0.6924836E-004  0.9118800E+02  0.7818608E-02  0.1130116E+00
         25   -1    0    0    0    0  0.00000000000E+00  0.00000000000E+00  0.99999998245E-14  0.12500000000E+03  0.12500000000E+03 0.  0.
        -13    1    3    3    0    0 -0.29234336445E+02 -0.90293400935E+00  0.52961835553E+02  0.60501478547E+02  0.10566000000E+00 0.  1.
         23    2    1    0    0    0 -0.85818432567E+01 -0.99710571695E+01  0.27486975340E+02  0.94526998373E+02  0.89480442519E+02 0.  0.
         13    1    3    3    0    0  0.20652493188E+02 -0.90681231601E+01 -0.25474860213E+02  0.34025519826E+02  0.10566000000E+00 0. -1.
         22    1    1    0    0    0  0.85818432567E+01  0.99710571695E+01 -0.27486975340E+02  0.30473001627E+02  0.00000000000E+00 0.  1.
</event>
<event>
 5    1  0.6924836E-004  0.9118800E+02  0.7818608E-02  0.1130116E+00
         25   -1    0    0    0    0  0.00000000000E+00  0.00000000000E+00  0.99999998245E-14  0.12500000000E+03  0.12500000000E+03 0.  0.
        -13    1    3    3    0    0  0.26695236354E+02 -0.47783710730E+02  0.25044966419E+02  0.60192858066E+02  0.10566000000E+00 0.  1.
         23    2    1    0    0    0  0.50570579363E+01 -0.20753043910E+02  0.20987169145E+02  0.95054650859E+02  0.90214537158E+02 0.  0.
         13    1    3    3    0    0 -0.21638178418E+02  0.27030666820E+02 -0.40577972746E+01  0.34861792793E+02  0.10566000000E+00 0. -1.
         22    1    1    0    0    0 -0.50570579363E+01  0.20753043910E+02 -0.20987169145E+02  0.29945349141E+02  0.00000000000E+00 0.  1.
</event>
<event>
 5    1  0.6924836E-004  0.9118800E+02  0.7818608E-02  0.1130116E+00
         25   -1    0    0    0    0  0.00000000000E+00  0.00000000000E+00  0.99999998245E-14  0.12500000000E+03  0.12500000000E+03 0.  0.
        -13    1    3    3    0    0 -0.28200843563E+01  0.53175881197E+02 -0.24356493462E+02  0.58556614952E+02  0.10566000000E+00 0. -1.
         23    2    1    0    0    0 -0.15714316635E+02  0.18962578885E+02 -0.14485314482E+02  0.96428274800E+02  0.92098147104E+02 0.  0.
         13    1    3    3    0    0 -0.12894232278E+02 -0.34213302312E+02  0.98711789803E+01  0.37871659848E+02  0.10566000000E+00 0.  1.
         22    1    1    0    0    0  0.15714316635E+02 -0.18962578885E+02  0.14485314482E+02  0.28571725200E+02  0.00000000000E+00 0. -1.
</event>
<event>
 5    1  0.6924836E-004  0.9118800E+02  0.7818608E-02  0.1130116E+00
         25   -1    0    0    0    0  0.00000000000E+00  0.00000000000E+00  0.99999998245E-14  0.12500000000E+03  0.12500000000E+03 0.  0.
        -13    1    3    3    0    0 -0.42717358861E+01 -0.11686665445E+02 -0.52056057637E+02  0.53522613702E+02  0.10566000000E+00 0.  1.
         23    2    1    0    0    0 -0.22282220364E+02 -0.13017282911E+02 -0.14012771645E+02  0.95634973729E+02  0.91015072555E+02 0.  0.
         13    1    3    3    0    0 -0.18010484478E+02 -0.13306174658E+01  0.38043285992E+02  0.42112360027E+02  0.10566000000E+00 0. -1.
         22    1    1    0    0    0  0.22282220364E+02  0.13017282911E+02  0.14012771645E+02  0.29365026271E+02  0.00000000000E+00 0.  1.
</event>
<event>
 5    1  0.6924836E-004  0.9118800E+02  0.7818608E-02  0.1130116E+00
         25   -1    0    0    0    0  0.00000000000E+00  0.00000000000E+00  0.99999998245E-14  0.12500000000E+03  0.12500000000E+03 0.  0.
        -13    1    3    3    0    0 -0.32423255806E+02 -0.87769140831E+00  0.10187954730E+02  0.33997697641E+02  0.10566000000E+00 0. -1.
         23    2    1    0    0    0  0.20630571016E+02 -0.11724411177E+02 -0.18158846311E+02  0.95119806272E+02  0.90304770461E+02 0.  0.
         13    1    3    3    0    0  0.53053826822E+02 -0.10846719769E+02 -0.28346801040E+02  0.61122108631E+02  0.10566000000E+00 0.  1.
         22    1    1    0    0    0 -0.20630571016E+02  0.11724411177E+02  0.18158846311E+02  0.29880193728E+02  0.00000000000E+00 0.  1.
</event>
<event>
 5    1  0.6924836E-004  0.9118800E+02  0.7818608E-02  0.1130116E+00
         25   -1    0    0    0    0  0.00000000000E+00  0.00000000000E+00  0.99999998245E-14  0.12500000000E+03  0.12500000000E+03 0.  0.
        -13    1    3    3    0    0 -0.48503999858E+02 -0.26739629008E+01  0.33200784412E+02  0.58839538828E+02  0.10566000000E+00 0. -1.
         23    2    1    0    0    0 -0.15002477407E+02  0.70293129336E+01  0.25551915079E+02  0.94546988115E+02  0.89508362898E+02 0.  0.
         13    1    3    3    0    0  0.33501522451E+02  0.97032758344E+01 -0.76488693326E+01  0.35707449287E+02  0.10566000000E+00 0.  1.
         22    1    1    0    0    0  0.15002477407E+02 -0.70293129336E+01 -0.25551915079E+02  0.30453011885E+02  0.00000000000E+00 0. -1.
</event>
<event>
 5    1  0.6924836E-004  0.9118800E+02  0.7818608E-02  0.1130116E+00
         25   -1    0    0    0    0  0.00000000000E+00  0.00000000000E+00  0.99999998245E-14  0.12500000000E+03  0.12500000000E+03 0.  0.
        -13    1    3    3    0    0 -0.16927062890E+02  0.11604431896E+02  0.37262195317E+02  0.42540224042E+02  0.10566000000E+00 0. -1.
         23    2    1    0    0    0  0.20856405740E+01  0.24964987471E+02 -0.12159880213E+02  0.97152860419E+02  0.93076393918E+02 0.  0.
         13    1    3    3    0    0  0.19012703464E+02  0.13360555575E+02 -0.49422075530E+02  0.54612636377E+02  0.10566000000E+00 0.  1.
         22    1    1    0    0    0 -0.20856405740E+01 -0.24964987471E+02  0.12159880213E+02  0.27847139581E+02  0.00000000000E+00 0. -1.
</event>
<event>
 5    1  0.6924836E-004  0.9118800E+02  0.7818608E-02  0.1130116E+00
         25   -1    0    0    0    0  0.00000000000E+00  0.00000000000E+00  0.99999998245E-14  0.12500000000E+03  0.12500000000E+03 0.  0.
        -13    1    3    3    0    0  0.32148153326E+02  0.36131957371E+01 -0.12210268419E+02  0.34578327962E+02  0.10566000000E+00 0.  1.
         23    2    1    0    0    0 -0.16864649786E+02 -0.91599278838E+01  0.22080852191E+02  0.95744492404E+02  0.91165361300E+02 0.  0.
         13    1    3    3    0    0 -0.49012803112E+02 -0.12773123621E+02  0.34291120609E+02  0.61166164442E+02  0.10566000000E+00 0. -1.
         22    1    1    0    0    0  0.16864649786E+02  0.91599278838E+01 -0.22080852191E+02  0.29255507596E+02  0.00000000000E+00 0. -1.
</event>
<event>
 5    1  0.6924836E-004  0.9118800E+02  0.7818608E-02  0.1130116E+00
         25   -1    0    0    0    0  0.00000000000E+00  0.00000000000E+00  0.99999998245E-14  0.12500000000E+03  0.12500000000E+03 0.  0.
        -13    1    3    3    0    0 -0.40482768351E+02 -0.25824985448E+02 -0.25277728040E+02  0.54265634666E+02  0.10566000000E+00 0.  1.
         23    2    1    0    0    0 -0.48742730152E+01 -0.28950285548E+02 -0.54546332697E+01  0.95139815894E+02  0.90332463564E+02 0.  0.
         13    1    3    3    0    0  0.35608495336E+02 -0.31253000993E+01  0.19823094771E+02  0.40874181229E+02  0.10566000000E+00 0. -1.
         22    1    1    0    0    0  0.48742730152E+01  0.28950285548E+02  0.54546332697E+01  0.29860184106E+02  0.00000000000E+00 0.  1.
</event>
<event>
 5    1  0.6924836E-004  0.9118800E+02  0.7818608E-02  0.1130116E+00
         25   -1    0    0    0    0  0.00000000000E+00  0.00000000000E+00  0.99999998245E-14  0.12500000000E+03  0.12500000000E+03 0.  0.
        -13    1    3    3    0    0  0.15831949601E+02 -0.20784546460E+02  0.53717775016E+02  0.59734901996E+02  0.10566000000E+00 0.  1.
         23    2    1    0    0    0  0.80169834776E+01  0.19057171042E+01  0.31503226540E+02  0.92436875699E+02  0.86511380320E+02 0.  0.
         13    1    3    3    0    0 -0.78149661229E+01  0.22690263564E+02 -0.22214548476E+02  0.32701973704E+02  0.10566000000E+00 0. -1.
         22    1    1    0    0    0 -0.80169834776E+01 -0.19057171042E+01 -0.31503226540E+02  0.32563124301E+02  0.00000000000E+00 0.  1.
</event>
<event>
 5    1  0.6924836E-004  0.9118800E+02  0.7818608E-02  0.1130116E+00
         25   -1    0    0    0    0  0.00000000000E+00  0.00000000000E+00  0.99999998245E-14  0.12500000000E+03  0.12500000000E+03 0.  0.
        -13    1    3    3    0    0  0.20338231630E+02  0.27740423059E+02  0.29308138428E+02  0.45190185655E+02  0.10566000000E+00 0. -1.
         23    2    1    0    0    0  0.27170649637E+02 -0.56008854567E+01 -0.84271114418E+01  0.96006374376E+02  0.91523732408E+02 0.  0.
         13    1    3    3    0    0  0.68324180069E+01 -0.33341308516E+02 -0.37735249870E+02  0.50816188721E+02  0.10566000000E+00 0.  1.
         22    1    1    0    0    0 -0.27170649637E+02  0.56008854567E+01  0.84271114418E+01  0.28993625624E+02  0.00000000000E+00 0.  1.
</event>
<event>
 5    1  0.6924836E-004  0.9118800E+02  0.7818608E-02  0.1130116E+00
         25   -1    0    0    0    0  0.00000000000E+00  0.00000000000E+00  0.99999998245E-14  0.12500000000E+03  0.12500000000E+03 0.  0.
        -13    1    3    3    0    0  0.33901922215E+02 -0.89273989254E+00  0.89064529259E+01  0.35063847224E+02  0.10566000000E+00 0.  1.
         23    2    1    0    0    0 -0.19044677814E+02  0.20112407979E+02 -0.10702480522E+02  0.95305694198E+02  0.90561711277E+02 0.  0.
         13    1    3    3    0    0 -0.52946600029E+02  0.21005147872E+02 -0.19608933448E+02  0.60241846973E+02  0.10566000000E+00 0. -1.
         22    1    1    0    0    0  0.19044677814E+02 -0.20112407979E+02  0.10702480522E+02  0.29694305802E+02  0.00000000000E+00 0. -1.
</event>
<event>
 5    1  0.6924836E-004  0.9118800E+02  0.7818608E-02  0.1130116E+00
         25   -1    0    0    0    0  0.00000000000E+00  0.00000000000E+00  0.99999998245E-14  0.12500000000E+03  0.12500000000E+03 0.  0.
        -13    1    3    3    0    0  0.29492042246E+02 -0.22814262703E+02 -0.35107288573E+02  0.51213318712E+02  0.10566000000E+00 0. -1.
         23    2    1    0    0    0  0.73709145214E+00 -0.28725605881E+02 -0.95441702173E+00  0.96249093077E+02  0.91854631180E+02 0.  0.
         13    1    3    3    0    0 -0.28754950794E+02 -0.59113431784E+01  0.34152871552E+02  0.45035774364E+02  0.10566000000E+00 0.  1.
         22    1    1    0    0    0 -0.73709145214E+00  0.28725605881E+02  0.95441702173E+00  0.28750906923E+02  0.00000000000E+00 0.  1.
</event>
<event>
 5    1  0.6924836E-004  0.9118800E+02  0.7818608E-02  0.1130116E+00
         25   -1    0    0    0    0  0.00000000000E+00  0.00000000000E+00  0.99999998245E-14  0.12500000000E+03  0.12500000000E+03 0.  0.
        -13    1    3    3    0    0  0.30829661963E+02  0.28853586445E+02  0.15967757303E+02  0.45143969086E+02  0.10566000000E+00 0.  1.
         23    2    1    0    0    0 -0.73853254137E+01 -0.47299669960E+01  0.26490332362E+02  0.97095639626E+02  0.92999515625E+02 0.  0.
         13    1    3    3    0    0 -0.38214987377E+02 -0.33583553441E+02  0.10522575058E+02  0.51951670540E+02  0.10566000000E+00 0. -1.
         22    1    1    0    0    0  0.73853254137E+01  0.47299669960E+01 -0.26490332362E+02  0.27904360374E+02  0.00000000000E+00 0. -1.
</event>
<event>
 5    1  0.6924836E-004  0.9118800E+02  0.7818608E-02  0.1130116E+00
         25   -1    0    0    0    0  0.00000000000E+00  0.00000000000E+00  0.99999998245E-14  0.12500000000E+03  0.12500000000E+03 0.  0.
        -13    1    3    3    0    0  0.15606978495E+02  0.45525922110E+02  0.17943603784E+02  0.51363133106E+02  0.10566000000E+00 0.  1.
         23    2    1    0    0    0  0.22308298461E+02 -0.63866156980E+00  0.15011323272E+02  0.98103756857E+02  0.94344789015E+02 0.  0.
         13    1    3    3    0    0  0.67013199657E+01 -0.46164583680E+02 -0.29322805115E+01  0.46740623751E+02  0.10566000000E+00 0. -1.
         22    1    1    0    0    0 -0.22308298461E+02  0.63866156980E+00 -0.15011323272E+02  0.26896243143E+02  0.00000000000E+00 0.  1.
</event>
<event>
 5    1  0.6924836E-004  0.9118800E+02  0.7818608E-02  0.1130116E+00
         25   -1    0    0    0    0  0.00000000000E+00  0.00000000000E+00  0.99999998245E-14  0.12500000000E+03  0.12500000000E+03 0.  0.
        -13    1    3    3    0    0  0.16110493387E+02 -0.58461906294E+01  0.22799575196E+02  0.28522933495E+02  0.10566000000E+00 0. -1.
         23    2    1    0    0    0 -0.23673569478E+02  0.29106787474E+02 -0.28662018665E+01  0.87372110317E+02  0.78854470889E+02 0.  0.
         13    1    3    3    0    0 -0.39784062865E+02  0.34952978103E+02 -0.25665777062E+02  0.58849176821E+02  0.10566000000E+00 0.  1.
         22    1    1    0    0    0  0.23673569478E+02 -0.29106787474E+02  0.28662018665E+01  0.37627889683E+02  0.00000000000E+00 0.  1.
</event>
<event>
 5    1  0.6924836E-004  0.9118800E+02  0.7818608E-02  0.1130116E+00
         25   -1    0    0    0    0  0.00000000000E+00  0.00000000000E+00  0.99999998245E-14  0.12500000000E+03  0.12500000000E+03 0.  0.
        -13    1    3    3    0    0  0.14464479797E+01  0.22658538925E+02 -0.36990590490E+02  0.43402955508E+02  0.10566000000E+00 0.  1.
         23    2    1    0    0    0  0.25993773532E+02 -0.82027507328E+01  0.39252319513E+00  0.97739855898E+02  0.93861408334E+02 0.  0.
         13    1    3    3    0    0  0.24547325552E+02 -0.30861289658E+02  0.37383113685E+02  0.54336900390E+02  0.10566000000E+00 0. -1.
         22    1    1    0    0    0 -0.25993773532E+02  0.82027507328E+01 -0.39252319513E+00  0.27260144102E+02  0.00000000000E+00 0. -1.
</event>
<event>
 5    1  0.6924836E-004  0.9118800E+02  0.7818608E-02  0.1130116E+00
         25   -1    0    0    0    0  0.00000000000E+00  0.00000000000E+00  0.99999998245E-14  0.12500000000E+03  0.12500000000E+03 0.  0.
        -13    1    3    3    0    0  0.36951146557E+02 -0.24025808122E+02 -0.18524409851E+02  0.47809953066E+02  0.10566000000E+00 0. -1.
         23    2    1    0    0    0  0.13881374176E+02 -0.16431575339E+02  0.21474398593E+02  0.94605279865E+02  0.89589731367E+02 0.  0.
         13    1    3    3    0    0 -0.23069772381E+02  0.75942327826E+01  0.39998808444E+02  0.46795326800E+02  0.10566000000E+00 0.  1.
         22    1    1    0    0    0 -0.13881374176E+02  0.16431575339E+02 -0.21474398593E+02  0.30394720135E+02  0.00000000000E+00 0.  1.
</event>
<event>
 5    1  0.6924836E-004  0.9118800E+02  0.7818608E-02  0.1130116E+00
         25   -1    0    0    0    0  0.00000000000E+00  0.00000000000E+00  0.99999998245E-14  0.12500000000E+03  0.12500000000E+03 0.  0.
        -13    1    3    3    0    0  0.31992327128E+02  0.26388474565E+02 -0.23887174061E+02  0.47858842795E+02  0.10566000000E+00 0. -1.
         23    2    1    0    0    0 -0.14033947904E+02  0.19173846672E+02 -0.18754689960E+02  0.94729114888E+02  0.89762345791E+02 0.  0.
         13    1    3    3    0    0 -0.46026275033E+02 -0.72146278932E+01  0.51324841014E+01  0.46870272093E+02  0.10566000000E+00 0.  1.
         22    1    1    0    0    0  0.14033947904E+02 -0.19173846672E+02  0.18754689960E+02  0.30270885112E+02  0.00000000000E+00 0.  1.
</event>
<event>
 5    1  0.6924836E-004  0.9118800E+02  0.7818608E-02  0.1130116E+00
         25   -1    0    0    0    0  0.00000000000E+00  0.00000000000E+00  0.99999998245E-14  0.12500000000E+03  0.12500000000E+03 0.  0.
        -13    1    3    3    0    0 -0.11983898027E+02  0.26206896275E+02 -0.19810758563E+02  0.34969880515E+02  0.10566000000E+00 0.  1.
         23    2    1    0    0    0  0.34130967919E+02  0.65959216892E+01 -0.19621997318E+02  0.85081934756E+02  0.75136433833E+02 0.  0.
         13    1    3    3    0    0  0.46114865947E+02 -0.19610974586E+02  0.18876124540E+00  0.50112054242E+02  0.10566000000E+00 0. -1.
         22    1    1    0    0    0 -0.34130967919E+02 -0.65959216892E+01  0.19621997318E+02  0.39918065244E+02  0.00000000000E+00 0. -1.
</event>
<event>
 5    1  0.6924836E-004  0.9118800E+02  0.7818608E-02  0.1130116E+00
         25   -1    0    0    0    0  0.00000000000E+00  0.00000000000E+00  0.99999998245E-14  0.12500000000E+03  0.12500000000E+03 0.  0.
        -13    1    3    3    0    0 -0.16413935790E+01 -0.48837292241E+02 -0.51005351269E+01  0.49130458058E+02  0.10566000000E+00 0. -1.
         23    2    1    0    0    0  0.12024397222E+02 -0.86104028348E+01 -0.24928532627E+02  0.96014539775E+02  0.91534883753E+02 0.  0.
         13    1    3    3    0    0  0.13665790801E+02  0.40226889407E+02 -0.19827997500E+02  0.46884081717E+02  0.10566000000E+00 0.  1.
         22    1    1    0    0    0 -0.12024397222E+02  0.86104028348E+01  0.24928532627E+02  0.28985460225E+02  0.00000000000E+00 0. -1.
</event>
<event>
 5    1  0.6924836E-004  0.9118800E+02  0.7818608E-02  0.1130116E+00
         25   -1    0    0    0    0  0.00000000000E+00  0.00000000000E+00  0.99999998245E-14  0.12500000000E+03  0.12500000000E+03 0.  0.
        -13    1    3    3    0    0 -0.46124323344E+02  0.29758390962E+02  0.35079509223E+01  0.55003017375E+02  0.10566000000E+00 0.  1.
         23    2    1    0    0    0 -0.27223714872E+02 -0.53401556988E+01 -0.73131107076E+01  0.96309766425E+02  0.91937161183E+02 0.  0.
         13    1    3    3    0    0  0.18900608471E+02 -0.35098546661E+02 -0.10821061630E+02  0.41306749051E+02  0.10566000000E+00 0. -1.
         22    1    1    0    0    0  0.27223714872E+02  0.53401556988E+01  0.73131107076E+01  0.28690233575E+02  0.00000000000E+00 0. -1.
</event>
<event>
 5    1  0.6924836E-004  0.9118800E+02  0.7818608E-02  0.1130116E+00
         25   -1    0    0    0    0  0.00000000000E+00  0.00000000000E+00  0.99999998245E-14  0.12500000000E+03  0.12500000000E+03 0.  0.
        -13    1    3    3    0    0  0.26788587343E+02 -0.31135021640E+02  0.40446669046E+02  0.57645140170E+02  0.10566000000E+00 0. -1.
         23    2    1    0    0    0  0.15410070326E+02 -0.24531888374E+02  0.48096067843E+01  0.95633077586E+02  0.91012468357E+02 0.  0.
         13    1    3    3    0    0 -0.11378517017E+02  0.66031332655E+01 -0.35637062261E+02  0.37987937415E+02  0.10566000000E+00 0.  1.
         22    1    1    0    0    0 -0.15410070326E+02  0.24531888374E+02 -0.48096067843E+01  0.29366922414E+02  0.00000000000E+00 0. -1.
</event>
<event>
 5    1  0.6924836E-004  0.9118800E+02  0.7818608E-02  0.1130116E+00
         25   -1    0    0    0    0  0.00000000000E+00  0.00000000000E+00  0.99999998245E-14  0.12500000000E+03  0.12500000000E+03 0.  0.
        -13    1    3    3    0    0 -0.17992649352E+02  0.38508460739E+02 -0.47505302901E+01  0.42769331083E+02  0.10566000000E+00 0. -1.
         23    2    1    0    0    0 -0.25759333796E+01 -0.59160310202E+01 -0.28730125119E+02  0.95554203269E+02  0.90904074811E+02 0.  0.
         13    1    3    3    0    0  0.15416715973E+02 -0.44424491760E+02 -0.23979594828E+02  0.52784872186E+02  0.10566000000E+00 0.  1.
         22    1    1    0    0    0  0.25759333796E+01  0.59160310202E+01  0.28730125119E+02  0.29445796731E+02  0.00000000000E+00 0.  1.
</event>
<event>
 5    1  0.6924836E-004  0.9118800E+02  0.7818608E-02  0.1130116E+00
         25   -1    0    0    0    0  0.00000000000E+00  0.00000000000E+00  0.99999998245E-14  0.12500000000E+03  0.12500000000E+03 0.  0.
        -13    1    3    3    0    0  0.77554918368E+01 -0.22795942698E+02  0.43584055384E+02  0.49793410255E+02  0.10566000000E+00 0. -1.
         23    2    1    0    0    0  0.93132390763E+01 -0.25046641407E+02 -0.44537837150E+01  0.97909284667E+02  0.94086774664E+02 0.  0.
         13    1    3    3    0    0  0.15577472395E+01 -0.22506987094E+01 -0.48037839099E+02  0.48115874412E+02  0.10566000000E+00 0.  1.
         22    1    1    0    0    0 -0.93132390763E+01  0.25046641407E+02  0.44537837150E+01  0.27090715333E+02  0.00000000000E+00 0. -1.
</event>
<event>
 5    1  0.6924836E-004  0.9118800E+02  0.7818608E-02  0.1130116E+00
         25   -1    0    0    0    0  0.00000000000E+00  0.00000000000E+00  0.99999998245E-14  0.12500000000E+03  0.12500000000E+03 0.  0.
        -13    1    3    3    0    0 -0.10999646319E+02  0.12269918663E+02 -0.39222928460E+02  0.42544005502E+02  0.10566000000E+00 0. -1.
         23    2    1    0    0    0  0.20063511057E+02 -0.19087156176E+02 -0.96462182586E+01  0.95675717681E+02  0.91071013062E+02 0.  0.
         13    1    3    3    0    0  0.31063157376E+02 -0.31357074839E+02  0.29576710201E+02  0.53131712179E+02  0.10566000000E+00 0.  1.
         22    1    1    0    0    0 -0.20063511057E+02  0.19087156176E+02  0.96462182586E+01  0.29324282319E+02  0.00000000000E+00 0.  1.
</event>
<event>
 5    1  0.6924836E-004  0.9118800E+02  0.7818608E-02  0.1130116E+00
         25   -1    0    0    0    0  0.00000000000E+00  0.00000000000E+00  0.99999998245E-14  0.12500000000E+03  0.12500000000E+03 0.  0.
        -13    1    3    3    0    0 -0.12230308598E+02 -0.34820201417E+02  0.14387686410E+02  0.39611154482E+02  0.10566000000E+00 0.  1.
         23    2    1    0    0    0 -0.17111372645E+02  0.68870824249E+01 -0.22779425354E+02  0.95689025987E+02  0.91089277617E+02 0.  0.
         13    1    3    3    0    0 -0.48810640471E+01  0.41707283842E+02 -0.37167111763E+02  0.56077871506E+02  0.10566000000E+00 0. -1.
         22    1    1    0    0    0  0.17111372645E+02 -0.68870824249E+01  0.22779425354E+02  0.29310974013E+02  0.00000000000E+00 0. -1.
</event>
<event>
 5    1  0.6924836E-004  0.9118800E+02  0.7818608E-02  0.1130116E+00
         25   -1    0    0    0    0  0.00000000000E+00  0.00000000000E+00  0.99999998245E-14  0.12500000000E+03  0.12500000000E+03 0.  0.
        -13    1    3    3    0    0 -0.85694804238E+01 -0.32780435830E+02 -0.17839986619E+02  0.38291895416E+02  0.10566000000E+00 0. -1.
         23    2    1    0    0    0  0.82578910518E+01 -0.34179286440E+01  0.28191760195E+02  0.95425511945E+02  0.90726941899E+02 0.  0.
         13    1    3    3    0    0  0.16827371476E+02  0.29362507186E+02  0.46031746813E+02  0.57133616530E+02  0.10566000000E+00 0.  1.
         22    1    1    0    0    0 -0.82578910518E+01  0.34179286440E+01 -0.28191760195E+02  0.29574488055E+02  0.00000000000E+00 0.  1.
</event>
<event>
 5    1  0.6924836E-004  0.9118800E+02  0.7818608E-02  0.1130116E+00
         25   -1    0    0    0    0  0.00000000000E+00  0.00000000000E+00  0.99999998245E-14  0.12500000000E+03  0.12500000000E+03 0.  0.
        -13    1    3    3    0    0 -0.29157315678E+02  0.27554629096E+02  0.97714853406E+01  0.41290431482E+02  0.10566000000E+00 0.  1.
         23    2    1    0    0    0 -0.33342045962E+01  0.42847260002E+02 -0.14239898824E+02  0.79725511285E+02  0.65622997654E+02 0.  0.
         13    1    3    3    0    0  0.25823111081E+02  0.15292630905E+02 -0.24011384164E+02  0.38435079803E+02  0.10566000000E+00 0. -1.
         22    1    1    0    0    0  0.33342045962E+01 -0.42847260002E+02  0.14239898824E+02  0.45274488715E+02  0.00000000000E+00 0. -1.
</event>
<event>
 5    1  0.6924836E-004  0.9118800E+02  0.7818608E-02  0.1130116E+00
         25   -1    0    0    0    0  0.00000000000E+00  0.00000000000E+00  0.99999998245E-14  0.12500000000E+03  0.12500000000E+03 0.  0.
        -13    1    3    3    0    0 -0.14506992750E+02  0.51553469910E+02 -0.17058725373E+02  0.56206977981E+02  0.10566000000E+00 0. -1.
         23    2    1    0    0    0 -0.85792836803E+01  0.25821819800E+02  0.11816192610E+02  0.95335325823E+02  0.90602601815E+02 0.  0.
         13    1    3    3    0    0  0.59277090696E+01 -0.25731650110E+02  0.28874917984E+02  0.39128347842E+02  0.10566000000E+00 0.  1.
         22    1    1    0    0    0  0.85792836803E+01 -0.25821819800E+02 -0.11816192610E+02  0.29664674177E+02  0.00000000000E+00 0. -1.
</event>
<event>
 5    1  0.6924836E-004  0.9118800E+02  0.7818608E-02  0.1130116E+00
         25   -1    0    0    0    0  0.00000000000E+00  0.00000000000E+00  0.99999998245E-14  0.12500000000E+03  0.12500000000E+03 0.  0.
        -13    1    3    3    0    0  0.55495320864E+02  0.16618810009E+02 -0.11364060521E+02  0.59034468910E+02  0.10566000000E+00 0. -1.
         23    2    1    0    0    0  0.25478790230E+02  0.11642528361E+02  0.89187777960E+01  0.95601669850E+02  0.90969321546E+02 0.  0.
         13    1    3    3    0    0 -0.30016530634E+02 -0.49762816479E+01  0.20282838317E+02  0.36567200940E+02  0.10566000000E+00 0.  1.
         22    1    1    0    0    0 -0.25478790230E+02 -0.11642528361E+02 -0.89187777960E+01  0.29398330150E+02  0.00000000000E+00 0. -1.
</event>
<event>
 5    1  0.6924836E-004  0.9118800E+02  0.7818608E-02  0.1130116E+00
         25   -1    0    0    0    0  0.00000000000E+00  0.00000000000E+00  0.99999998245E-14  0.12500000000E+03  0.12500000000E+03 0.  0.
        -13    1    3    3    0    0 -0.23291052673E+02  0.35659100630E+01 -0.24718517816E+02  0.34149745771E+02  0.10566000000E+00 0.  1.
         23    2    1    0    0    0  0.23448167667E+02  0.90284259269E+01  0.15007096539E+02  0.95733261402E+02  0.91149960782E+02 0.  0.
         13    1    3    3    0    0  0.46739220340E+02  0.54625158639E+01  0.39725614355E+02  0.61583515631E+02  0.10566000000E+00 0. -1.
         22    1    1    0    0    0 -0.23448167667E+02 -0.90284259269E+01 -0.15007096539E+02  0.29266738598E+02  0.00000000000E+00 0. -1.
</event>
<event>
 5    1  0.6924836E-004  0.9118800E+02  0.7818608E-02  0.1130116E+00
         25   -1    0    0    0    0  0.00000000000E+00  0.00000000000E+00  0.99999998245E-14  0.12500000000E+03  0.12500000000E+03 0.  0.
        -13    1    3    3    0    0  0.39659820239E+02 -0.26174803742E+02 -0.11611951342E+01  0.47532948894E+02  0.10566000000E+00 0.  1.
         23    2    1    0    0    0  0.12255494627E+02  0.54534586613E+01 -0.25674107653E+02  0.96032826101E+02  0.91559852147E+02 0.  0.
         13    1    3    3    0    0 -0.27404325612E+02  0.31628262404E+02 -0.24512912519E+02  0.48499877207E+02  0.10566000000E+00 0. -1.
         22    1    1    0    0    0 -0.12255494627E+02 -0.54534586613E+01  0.25674107653E+02  0.28967173899E+02  0.00000000000E+00 0. -1.
</event>
<event>
 5    1  0.6924836E-004  0.9118800E+02  0.7818608E-02  0.1130116E+00
         25   -1    0    0    0    0  0.00000000000E+00  0.00000000000E+00  0.99999998245E-14  0.12500000000E+03  0.12500000000E+03 0.  0.
        -13    1    3    3    0    0  0.43578673585E+02  0.17116905644E+02 -0.31380707170E+01  0.46924917710E+02  0.10566000000E+00 0.  1.
         23    2    1    0    0    0 -0.19039068075E+01  0.29135108108E+02  0.68332281737E+01  0.95013796625E+02  0.90157912333E+02 0.  0.
         13    1    3    3    0    0 -0.45482580393E+02  0.12018202463E+02  0.99712988908E+01  0.48088878914E+02  0.10566000000E+00 0. -1.
         22    1    1    0    0    0  0.19039068075E+01 -0.29135108108E+02 -0.68332281737E+01  0.29986203375E+02  0.00000000000E+00 0.  1.
</event>
<event>
 5    1  0.6924836E-004  0.9118800E+02  0.7818608E-02  0.1130116E+00
         25   -1    0    0    0    0  0.00000000000E+00  0.00000000000E+00  0.99999998245E-14  0.12500000000E+03  0.12500000000E+03 0.  0.
        -13    1    3    3    0    0 -0.26718412074E+00 -0.36121738997E+02 -0.28991918853E+01  0.36239038248E+02  0.10566000000E+00 0. -1.
         23    2    1    0    0    0  0.18213742324E+02  0.19309445746E+02  0.10945338907E+02  0.96287710850E+02  0.91907168994E+02 0.  0.
         13    1    3    3    0    0  0.18480926445E+02  0.55431184743E+02  0.13844530792E+02  0.60048672601E+02  0.10566000000E+00 0.  1.
         22    1    1    0    0    0 -0.18213742324E+02 -0.19309445746E+02 -0.10945338907E+02  0.28712289150E+02  0.00000000000E+00 0.  1.
</event>
<event>
 5    1  0.6924836E-004  0.9118800E+02  0.7818608E-02  0.1130116E+00
         25   -1    0    0    0    0  0.00000000000E+00  0.00000000000E+00  0.99999998245E-14  0.12500000000E+03  0.12500000000E+03 0.  0.
        -13    1    3    3    0    0 -0.34764936014E+02  0.33630262974E+02 -0.21668088944E+02  0.53001062313E+02  0.10566000000E+00 0. -1.
         23    2    1    0    0    0  0.27019021080E+01  0.12506690651E+02 -0.25790879706E+02  0.96209601217E+02  0.91800873113E+02 0.  0.
         13    1    3    3    0    0  0.37466838122E+02 -0.21123572323E+02 -0.41227907620E+01  0.43208538904E+02  0.10566000000E+00 0.  1.
         22    1    1    0    0    0 -0.27019021080E+01 -0.12506690651E+02  0.25790879706E+02  0.28790398783E+02  0.00000000000E+00 0. -1.
</event>
<event>
 5    1  0.6924836E-004  0.9118800E+02  0.7818608E-02  0.1130116E+00
         25   -1    0    0    0    0  0.00000000000E+00  0.00000000000E+00  0.99999998245E-14  0.12500000000E+03  0.12500000000E+03 0.  0.
        -13    1    3    3    0    0  0.21125772002E+01 -0.50219842942E+02  0.32580402399E+02  0.59899827980E+02  0.10566000000E+00 0. -1.
         23    2    1    0    0    0  0.99927520205E+01 -0.27789057107E+02  0.73482964923E+01  0.94568367622E+02  0.89538214778E+02 0.  0.
         13    1    3    3    0    0  0.78801748203E+01  0.22430785835E+02 -0.25232105907E+02  0.34668539642E+02  0.10566000000E+00 0.  1.
         22    1    1    0    0    0 -0.99927520205E+01  0.27789057107E+02 -0.73482964923E+01  0.30431632378E+02  0.00000000000E+00 0. -1.
</event>
<event>
 5    1  0.6924836E-004  0.9118800E+02  0.7818608E-02  0.1130116E+00
         25   -1    0    0    0    0  0.00000000000E+00  0.00000000000E+00  0.99999998245E-14  0.12500000000E+03  0.12500000000E+03 0.  0.
        -13    1    3    3    0    0 -0.32451294137E+02  0.10669127257E+02 -0.19196568512E+01  0.34214222395E+02  0.10566000000E+00 0.  1.
         23    2    1    0    0    0  0.24662648900E+02 -0.41816765070E+01  0.15286090546E+02  0.95684522290E+02  0.91083097074E+02 0.  0.
         13    1    3    3    0    0  0.57113943037E+02 -0.14850803764E+02  0.17205747397E+02  0.61470299896E+02  0.10566000000E+00 0. -1.
         22    1    1    0    0    0 -0.24662648900E+02  0.41816765070E+01 -0.15286090546E+02  0.29315477710E+02  0.00000000000E+00 0. -1.
</event>
<event>
 5    1  0.6924836E-004  0.9118800E+02  0.7818608E-02  0.1130116E+00
         25   -1    0    0    0    0  0.00000000000E+00  0.00000000000E+00  0.99999998245E-14  0.12500000000E+03  0.12500000000E+03 0.  0.
        -13    1    3    3    0    0  0.36617099657E+02  0.13493193794E+01 -0.32253411719E+01  0.36783782294E+02  0.10566000000E+00 0. -1.
         23    2    1    0    0    0 -0.18321974327E+02 -0.16047237365E+02  0.13969810596E+02  0.96922176395E+02  0.92766071917E+02 0.  0.
         13    1    3    3    0    0 -0.54939073984E+02 -0.17396556744E+02  0.17195151768E+02  0.60138394102E+02  0.10566000000E+00 0.  1.
         22    1    1    0    0    0  0.18321974327E+02  0.16047237365E+02 -0.13969810596E+02  0.28077823605E+02  0.00000000000E+00 0.  1.
</event>
<event>
 5    1  0.6924836E-004  0.9118800E+02  0.7818608E-02  0.1130116E+00
         25   -1    0    0    0    0  0.00000000000E+00  0.00000000000E+00  0.99999998245E-14  0.12500000000E+03  0.12500000000E+03 0.  0.
        -13    1    3    3    0    0 -0.23943005599E+02  0.41957831518E+02  0.35692527402E+02  0.60064089265E+02  0.10566000000E+00 0.  1.
         23    2    1    0    0    0 -0.20773256473E+02  0.15029488850E+02  0.98142854505E+01  0.97545785051E+02  0.93602597521E+02 0.  0.
         13    1    3    3    0    0  0.31697491263E+01 -0.26928342669E+02 -0.25878241952E+02  0.37481695785E+02  0.10566000000E+00 0. -1.
         22    1    1    0    0    0  0.20773256473E+02 -0.15029488850E+02 -0.98142854505E+01  0.27454214949E+02  0.00000000000E+00 0.  1.
</event>
<event>
 5    1  0.6924836E-004  0.9118800E+02  0.7818608E-02  0.1130116E+00
         25   -1    0    0    0    0  0.00000000000E+00  0.00000000000E+00  0.99999998245E-14  0.12500000000E+03  0.12500000000E+03 0.  0.
        -13    1    3    3    0    0 -0.61856005868E+01  0.27945331978E+02  0.45547666110E+02  0.53794091554E+02  0.10566000000E+00 0. -1.
         23    2    1    0    0    0 -0.17544890264E+02 -0.54178477946E+01  0.22729716366E+02  0.95779865585E+02  0.91213849806E+02 0.  0.
         13    1    3    3    0    0 -0.11359289677E+02 -0.33363179773E+02 -0.22817949744E+02  0.41985774032E+02  0.10566000000E+00 0.  1.
         22    1    1    0    0    0  0.17544890264E+02  0.54178477946E+01 -0.22729716366E+02  0.29220134415E+02  0.00000000000E+00 0. -1.
</event>
<event>
 5    1  0.6924836E-004  0.9118800E+02  0.7818608E-02  0.1130116E+00
         25   -1    0    0    0    0  0.00000000000E+00  0.00000000000E+00  0.99999998245E-14  0.12500000000E+03  0.12500000000E+03 0.  0.
        -13    1    3    3    0    0  0.56845310870E+02 -0.16908326484E+02  0.83404776938E+01  0.59890363203E+02  0.10566000000E+00 0.  1.
         23    2    1    0    0    0  0.23816299271E+02 -0.16449388399E+02 -0.52029007091E+01  0.95591350500E+02  0.90955140728E+02 0.  0.
         13    1    3    3    0    0 -0.33029011599E+02  0.45893808551E+00 -0.13543378403E+02  0.35700987297E+02  0.10566000000E+00 0. -1.
         22    1    1    0    0    0 -0.23816299271E+02  0.16449388399E+02  0.52029007091E+01  0.29408649500E+02  0.00000000000E+00 0.  1.
</event>
<event>
 5    1  0.6924836E-004  0.9118800E+02  0.7818608E-02  0.1130116E+00
         25   -1    0    0    0    0  0.00000000000E+00  0.00000000000E+00  0.99999998245E-14  0.12500000000E+03  0.12500000000E+03 0.  0.
        -13    1    3    3    0    0 -0.42029183068E+02  0.28927322500E+02  0.32293150339E+02  0.60382952389E+02  0.10566000000E+00 0.  1.
         23    2    1    0    0    0 -0.17401765656E+02  0.24138877641E+02  0.11050484224E+02  0.93256968272E+02  0.87688323441E+02 0.  0.
         13    1    3    3    0    0  0.24627417412E+02 -0.47884448585E+01 -0.21242666115E+02  0.32874015883E+02  0.10566000000E+00 0. -1.
         22    1    1    0    0    0  0.17401765656E+02 -0.24138877641E+02 -0.11050484224E+02  0.31743031728E+02  0.00000000000E+00 0.  1.
</event>
<event>
 5    1  0.6924836E-004  0.9118800E+02  0.7818608E-02  0.1130116E+00
         25   -1    0    0    0    0  0.00000000000E+00  0.00000000000E+00  0.99999998245E-14  0.12500000000E+03  0.12500000000E+03 0.  0.
        -13    1    3    3    0    0 -0.20437841503E+02 -0.93621750351E+01  0.32144509907E+02  0.39225455611E+02  0.10566000000E+00 0. -1.
         23    2    1    0    0    0 -0.35889793408E+02 -0.14329131329E+02 -0.10583483904E+02  0.84932414509E+02  0.74887272799E+02 0.  0.
         13    1    3    3    0    0 -0.15451951905E+02 -0.49669562941E+01 -0.42727993811E+02  0.45706958898E+02  0.10566000000E+00 0.  1.
         22    1    1    0    0    0  0.35889793408E+02  0.14329131329E+02  0.10583483904E+02  0.40067585491E+02  0.00000000000E+00 0. -1.
</event>
<event>
 5    1  0.6924836E-004  0.9118800E+02  0.7818608E-02  0.1130116E+00
         25   -1    0    0    0    0  0.00000000000E+00  0.00000000000E+00  0.99999998245E-14  0.12500000000E+03  0.12500000000E+03 0.  0.
        -13    1    3    3    0    0  0.15151629717E+02 -0.14208707399E+02 -0.56813107263E+02  0.60491318137E+02  0.10566000000E+00 0.  1.
         23    2    1    0    0    0  0.13802246148E+02  0.22987547544E+01 -0.25871259639E+02  0.95587275756E+02  0.90949540620E+02 0.  0.
         13    1    3    3    0    0 -0.13493835689E+01  0.16507462153E+02  0.30941847624E+02  0.35095957619E+02  0.10566000000E+00 0. -1.
         22    1    1    0    0    0 -0.13802246148E+02 -0.22987547544E+01  0.25871259639E+02  0.29412724244E+02  0.00000000000E+00 0.  1.
</event>
<event>
 5    1  0.6924836E-004  0.9118800E+02  0.7818608E-02  0.1130116E+00
         25   -1    0    0    0    0  0.00000000000E+00  0.00000000000E+00  0.99999998245E-14  0.12500000000E+03  0.12500000000E+03 0.  0.
        -13    1    3    3    0    0 -0.30764774702E+02 -0.22984501947E+02  0.32747200151E+02  0.50469287433E+02  0.10566000000E+00 0.  1.
         23    2    1    0    0    0 -0.25957260970E+02 -0.81987782485E+01 -0.10034048243E+02  0.95988252621E+02  0.91498978985E+02 0.  0.
         13    1    3    3    0    0  0.48075137318E+01  0.14785723699E+02 -0.42781248394E+02  0.45518965188E+02  0.10566000000E+00 0. -1.
         22    1    1    0    0    0  0.25957260970E+02  0.81987782485E+01  0.10034048243E+02  0.29011747379E+02  0.00000000000E+00 0.  1.
</event>
<event>
 5    1  0.6924836E-004  0.9118800E+02  0.7818608E-02  0.1130116E+00
         25   -1    0    0    0    0  0.00000000000E+00  0.00000000000E+00  0.99999998245E-14  0.12500000000E+03  0.12500000000E+03 0.  0.
        -13    1    3    3    0    0  0.27789026519E+02  0.22010865306E+02  0.87364359897E+01  0.36510884189E+02  0.10566000000E+00 0.  1.
         23    2    1    0    0    0 -0.13939863935E+02 -0.19634517863E+02  0.16261251104E+02  0.95943806414E+02  0.91438239285E+02 0.  0.
         13    1    3    3    0    0 -0.41728890454E+02 -0.41645383169E+02  0.75248151147E+01  0.59432922226E+02  0.10566000000E+00 0. -1.
         22    1    1    0    0    0  0.13939863935E+02  0.19634517863E+02 -0.16261251104E+02  0.29056193586E+02  0.00000000000E+00 0. -1.
</event>
<event>
 5    1  0.6924836E-004  0.9118800E+02  0.7818608E-02  0.1130116E+00
         25   -1    0    0    0    0  0.00000000000E+00  0.00000000000E+00  0.99999998245E-14  0.12500000000E+03  0.12500000000E+03 0.  0.
        -13    1    3    3    0    0  0.15693935047E+02  0.51043834157E+01  0.47402862753E+02  0.50193594099E+02  0.10566000000E+00 0. -1.
         23    2    1    0    0    0 -0.20633132524E+02 -0.11944232869E+01  0.20952529276E+02  0.95569381797E+02  0.90924944043E+02 0.  0.
         13    1    3    3    0    0 -0.36327067571E+02 -0.62988067026E+01 -0.26450333477E+02  0.45375787699E+02  0.10566000000E+00 0.  1.
         22    1    1    0    0    0  0.20633132524E+02  0.11944232869E+01 -0.20952529276E+02  0.29430618203E+02  0.00000000000E+00 0.  1.
</event>
<event>
 5    1  0.6924836E-004  0.9118800E+02  0.7818608E-02  0.1130116E+00
         25   -1    0    0    0    0  0.00000000000E+00  0.00000000000E+00  0.99999998245E-14  0.12500000000E+03  0.12500000000E+03 0.  0.
        -13    1    3    3    0    0 -0.43220804889E+01  0.18017295343E+02 -0.55907775426E+02  0.58898164898E+02  0.10566000000E+00 0.  1.
         23    2    1    0    0    0 -0.34128132349E+01  0.21821168094E+02 -0.19435228367E+02  0.95579959673E+02  0.90939484924E+02 0.  0.
         13    1    3    3    0    0  0.90926725399E+00  0.38038727514E+01  0.36472547059E+02  0.36681794775E+02  0.10566000000E+00 0. -1.
         22    1    1    0    0    0  0.34128132349E+01 -0.21821168094E+02  0.19435228367E+02  0.29420040327E+02  0.00000000000E+00 0.  1.
</event>
<event>
 5    1  0.6924836E-004  0.9118800E+02  0.7818608E-02  0.1130116E+00
         25   -1    0    0    0    0  0.00000000000E+00  0.00000000000E+00  0.99999998245E-14  0.12500000000E+03  0.12500000000E+03 0.  0.
        -13    1    3    3    0    0  0.10308120738E+02  0.34514723749E+02 -0.47367061154E+02  0.59507757100E+02  0.10566000000E+00 0. -1.
         23    2    1    0    0    0  0.16031548190E+02  0.81928982677E+01 -0.15422019280E+02  0.10129403455E+03  0.98481006478E+02 0.  0.
         13    1    3    3    0    0  0.57234274519E+01 -0.26321825482E+02  0.31945041875E+02  0.41786277447E+02  0.10566000000E+00 0.  1.
         22    1    1    0    0    0 -0.16031548190E+02 -0.81928982677E+01  0.15422019280E+02  0.23705965453E+02  0.00000000000E+00 0. -1.
</event>
<event>
 5    1  0.6924836E-004  0.9118800E+02  0.7818608E-02  0.1130116E+00
         25   -1    0    0    0    0  0.00000000000E+00  0.00000000000E+00  0.99999998245E-14  0.12500000000E+03  0.12500000000E+03 0.  0.
        -13    1    3    3    0    0  0.10186671097E+02 -0.34596348279E+02 -0.30921503201E+02  0.47506063892E+02  0.10566000000E+00 0. -1.
         23    2    1    0    0    0 -0.90882446828E+01  0.11632530445E+02 -0.22190903286E+02  0.98347642794E+02  0.94667368710E+02 0.  0.
         13    1    3    3    0    0 -0.19274915779E+02  0.46228878724E+02  0.87305999144E+01  0.50841578902E+02  0.10566000000E+00 0.  1.
         22    1    1    0    0    0  0.90882446828E+01 -0.11632530445E+02  0.22190903286E+02  0.26652357206E+02  0.00000000000E+00 0.  1.
</event>
<event>
 5    1  0.6924836E-004  0.9118800E+02  0.7818608E-02  0.1130116E+00
         25   -1    0    0    0    0  0.00000000000E+00  0.00000000000E+00  0.99999998245E-14  0.12500000000E+03  0.12500000000E+03 0.  0.
        -13    1    3    3    0    0 -0.50984512039E+02 -0.21495774556E+02  0.12080420844E+02  0.56634234553E+02  0.10566000000E+00 0.  1.
         23    2    1    0    0    0 -0.24570883640E+02 -0.55037239568E+01 -0.13226648319E+02  0.96557715879E+02  0.92273663468E+02 0.  0.
         13    1    3    3    0    0  0.26413628398E+02  0.15992050600E+02 -0.25307069163E+02  0.39923481326E+02  0.10566000000E+00 0. -1.
         22    1    1    0    0    0  0.24570883640E+02  0.55037239568E+01  0.13226648319E+02  0.28442284121E+02  0.00000000000E+00 0.  1.
</event>
<event>
 5    1  0.6924836E-004  0.9118800E+02  0.7818608E-02  0.1130116E+00
         25   -1    0    0    0    0  0.00000000000E+00  0.00000000000E+00  0.99999998245E-14  0.12500000000E+03  0.12500000000E+03 0.  0.
        -13    1    3    3    0    0  0.28510187656E+02  0.38533451865E+02  0.40189110826E+01  0.48102188340E+02  0.10566000000E+00 0.  1.
         23    2    1    0    0    0 -0.11692826763E+02  0.29679539065E+02  0.13524000850E+02  0.90351827815E+02  0.83444334461E+02 0.  0.
         13    1    3    3    0    0 -0.40203014419E+02 -0.88539127998E+01  0.95050897669E+01  0.42249639475E+02  0.10566000000E+00 0. -1.
         22    1    1    0    0    0  0.11692826763E+02 -0.29679539065E+02 -0.13524000850E+02  0.34648172185E+02  0.00000000000E+00 0. -1.
</event>
<event>
 5    1  0.6924836E-004  0.9118800E+02  0.7818608E-02  0.1130116E+00
         25   -1    0    0    0    0  0.00000000000E+00  0.00000000000E+00  0.99999998245E-14  0.12500000000E+03  0.12500000000E+03 0.  0.
        -13    1    3    3    0    0 -0.17137667794E+02  0.43697726484E+02  0.14659770656E+02  0.49174292034E+02  0.10566000000E+00 0. -1.
         23    2    1    0    0    0  0.17557748661E+02  0.21640144866E+02 -0.78524962388E+01  0.96047761657E+02  0.91580240305E+02 0.  0.
         13    1    3    3    0    0  0.34695416454E+02 -0.22057581618E+02 -0.22512266895E+02  0.46873469624E+02  0.10566000000E+00 0.  1.
         22    1    1    0    0    0 -0.17557748661E+02 -0.21640144866E+02  0.78524962388E+01  0.28952238343E+02  0.00000000000E+00 0. -1.
</event>
<event>
 5    1  0.6924836E-004  0.9118800E+02  0.7818608E-02  0.1130116E+00
         25   -1    0    0    0    0  0.00000000000E+00  0.00000000000E+00  0.99999998245E-14  0.12500000000E+03  0.12500000000E+03 0.  0.
        -13    1    3    3    0    0 -0.56357725905E+01 -0.31461983299E+02 -0.40352969118E+02  0.51478069180E+02  0.10566000000E+00 0.  1.
         23    2    1    0    0    0 -0.10179106683E+02  0.10381341975E+02 -0.24611521296E+02  0.96414803577E+02  0.92079861502E+02 0.  0.
         13    1    3    3    0    0 -0.45433340927E+01  0.41843325274E+02  0.15741447822E+02  0.44936734397E+02  0.10566000000E+00 0. -1.
         22    1    1    0    0    0  0.10179106683E+02 -0.10381341975E+02  0.24611521296E+02  0.28585196423E+02  0.00000000000E+00 0.  1.
</event>
<event>
 5    1  0.6924836E-004  0.9118800E+02  0.7818608E-02  0.1130116E+00
         25   -1    0    0    0    0  0.00000000000E+00  0.00000000000E+00  0.99999998245E-14  0.12500000000E+03  0.12500000000E+03 0.  0.
        -13    1    3    3    0    0 -0.15310609385E+02  0.35831023768E+01  0.50933267796E+02  0.53305368536E+02  0.10566000000E+00 0. -1.
         23    2    1    0    0    0 -0.27366711740E+02 -0.80085660693E+01  0.15365885563E+02  0.92608882683E+02  0.86759556653E+02 0.  0.
         13    1    3    3    0    0 -0.12056102355E+02 -0.11591668446E+02 -0.35567382233E+02  0.39303514147E+02  0.10566000000E+00 0.  1.
         22    1    1    0    0    0  0.27366711740E+02  0.80085660693E+01 -0.15365885563E+02  0.32391117317E+02  0.00000000000E+00 0.  1.
</event>
<event>
 5    1  0.6924836E-004  0.9118800E+02  0.7818608E-02  0.1130116E+00
         25   -1    0    0    0    0  0.00000000000E+00  0.00000000000E+00  0.99999998245E-14  0.12500000000E+03  0.12500000000E+03 0.  0.
        -13    1    3    3    0    0  0.24403229166E+02  0.93277723967E+00 -0.31308246402E+02  0.39706487177E+02  0.10566000000E+00 0.  1.
         23    2    1    0    0    0 -0.19843181600E+02 -0.11485415831E+02  0.85408473504E+01  0.10053343697E+03  0.97510816034E+02 0.  0.
         13    1    3    3    0    0 -0.44246410766E+02 -0.12418193070E+02  0.39849093752E+02  0.60826949798E+02  0.10566000000E+00 0. -1.
         22    1    1    0    0    0  0.19843181600E+02  0.11485415831E+02 -0.85408473504E+01  0.24466563025E+02  0.00000000000E+00 0. -1.
</event>
<event>
 5    1  0.6924836E-004  0.9118800E+02  0.7818608E-02  0.1130116E+00
         25   -1    0    0    0    0  0.00000000000E+00  0.00000000000E+00  0.99999998245E-14  0.12500000000E+03  0.12500000000E+03 0.  0.
        -13    1    3    3    0    0  0.39425509652E+02 -0.59257289029E+01  0.13930517024E+02  0.42232162423E+02  0.10566000000E+00 0.  1.
         23    2    1    0    0    0 -0.14331709339E+02 -0.19662598754E+02  0.12289460257E+02  0.97741120424E+02  0.93863092352E+02 0.  0.
         13    1    3    3    0    0 -0.53757218991E+02 -0.13736869851E+02 -0.16410567674E+01  0.55508958001E+02  0.10566000000E+00 0. -1.
         22    1    1    0    0    0  0.14331709339E+02  0.19662598754E+02 -0.12289460257E+02  0.27258879576E+02  0.00000000000E+00 0. -1.
</event>
<event>
 5    1  0.6924836E-004  0.9118800E+02  0.7818608E-02  0.1130116E+00
         25   -1    0    0    0    0  0.00000000000E+00  0.00000000000E+00  0.99999998245E-14  0.12500000000E+03  0.12500000000E+03 0.  0.
        -13    1    3    3    0    0 -0.14849770520E+02 -0.38940501955E+02 -0.30749542228E+02  0.51792121875E+02  0.10566000000E+00 0. -1.
         23    2    1    0    0    0 -0.10015606075E+02 -0.26283094990E+02  0.10320543502E+02  0.95039575012E+02  0.90193645857E+02 0.  0.
         13    1    3    3    0    0  0.48341644447E+01  0.12657406965E+02  0.41070085730E+02  0.43247453137E+02  0.10566000000E+00 0.  1.
         22    1    1    0    0    0  0.10015606075E+02  0.26283094990E+02 -0.10320543502E+02  0.29960424988E+02  0.00000000000E+00 0. -1.
</event>
<event>
 5    1  0.6924836E-004  0.9118800E+02  0.7818608E-02  0.1130116E+00
         25   -1    0    0    0    0  0.00000000000E+00  0.00000000000E+00  0.99999998245E-14  0.12500000000E+03  0.12500000000E+03 0.  0.
        -13    1    3    3    0    0 -0.51416943248E+02 -0.19318529018E+02 -0.13709010336E+02  0.56611445351E+02  0.10566000000E+00 0.  1.
         23    2    1    0    0    0 -0.16813921135E+02  0.18873490909E+01  0.11641426926E+02  0.10446240395E+03  0.10242363491E+03 0.  0.
         13    1    3    3    0    0  0.34603022113E+02  0.21205878109E+02  0.25350437262E+02  0.47850958602E+02  0.10566000000E+00 0. -1.
         22    1    1    0    0    0  0.16813921135E+02 -0.18873490909E+01 -0.11641426926E+02  0.20537596047E+02  0.00000000000E+00 0. -1.
</event>
<event>
 5    1  0.6924836E-004  0.9118800E+02  0.7818608E-02  0.1130116E+00
         25   -1    0    0    0    0  0.00000000000E+00  0.00000000000E+00  0.99999998245E-14  0.12500000000E+03  0.12500000000E+03 0.  0.
        -13    1    3    3    0    0 -0.22711459522E+02 -0.11486230587E+02  0.26781402980E+02  0.36945887407E+02  0.10566000000E+00 0.  1.
         23    2    1    0    0    0  0.27822025953E+02  0.68358530053E+01  0.15963543277E+01  0.96306057058E+02  0.91932117698E+02 0.  0.
         13    1    3    3    0    0  0.50533485474E+02  0.18322083592E+02 -0.25185048652E+02  0.59360169651E+02  0.10566000000E+00 0. -1.
         22    1    1    0    0    0 -0.27822025953E+02 -0.68358530053E+01 -0.15963543277E+01  0.28693942942E+02  0.00000000000E+00 0. -1.
</event>
<event>
 5    1  0.6924836E-004  0.9118800E+02  0.7818608E-02  0.1130116E+00
         25   -1    0    0    0    0  0.00000000000E+00  0.00000000000E+00  0.99999998245E-14  0.12500000000E+03  0.12500000000E+03 0.  0.
        -13    1    3    3    0    0  0.47037327232E+02 -0.11071802983E+02  0.29548308801E+01  0.48413192045E+02  0.10566000000E+00 0. -1.
         23    2    1    0    0    0  0.49419846940E+01 -0.13732979359E+02 -0.22869336307E+02  0.97870228937E+02  0.94034872437E+02 0.  0.
         13    1    3    3    0    0 -0.42095342538E+02 -0.26611763767E+01 -0.25824167187E+02  0.49457036892E+02  0.10566000000E+00 0.  1.
         22    1    1    0    0    0 -0.49419846940E+01  0.13732979359E+02  0.22869336307E+02  0.27129771063E+02  0.00000000000E+00 0.  1.
</event>
<event>
 5    1  0.6924836E-004  0.9118800E+02  0.7818608E-02  0.1130116E+00
         25   -1    0    0    0    0  0.00000000000E+00  0.00000000000E+00  0.99999998245E-14  0.12500000000E+03  0.12500000000E+03 0.  0.
        -13    1    3    3    0    0 -0.33697183492E+02 -0.20458027022E+02  0.33297040696E+01  0.39561713034E+02  0.10566000000E+00 0. -1.
         23    2    1    0    0    0  0.15876989617E+01  0.16266352800E+02 -0.22914156897E+02  0.96854421170E+02  0.92674728445E+02 0.  0.
         13    1    3    3    0    0  0.35284882454E+02  0.36724379821E+02 -0.26243860967E+02  0.57292708136E+02  0.10566000000E+00 0.  1.
         22    1    1    0    0    0 -0.15876989617E+01 -0.16266352800E+02  0.22914156897E+02  0.28145578830E+02  0.00000000000E+00 0.  1.
</event>
<event>
 5    1  0.6924836E-004  0.9118800E+02  0.7818608E-02  0.1130116E+00
         25   -1    0    0    0    0  0.00000000000E+00  0.00000000000E+00  0.99999998245E-14  0.12500000000E+03  0.12500000000E+03 0.  0.
        -13    1    3    3    0    0  0.28540981768E+02 -0.40294058094E+02  0.84754381860E+01  0.50100329085E+02  0.10566000000E+00 0.  1.
         23    2    1    0    0    0 -0.11544200102E+02 -0.31045172623E+02  0.13569733051E+01  0.91850148179E+02  0.85659424728E+02 0.  0.
         13    1    3    3    0    0 -0.40085181870E+02  0.92488854707E+01 -0.71184648810E+01  0.41749819093E+02  0.10566000000E+00 0. -1.
         22    1    1    0    0    0  0.11544200102E+02  0.31045172623E+02 -0.13569733051E+01  0.33149851821E+02  0.00000000000E+00 0.  1.
</event>
<event>
 5    1  0.6924836E-004  0.9118800E+02  0.7818608E-02  0.1130116E+00
         25   -1    0    0    0    0  0.00000000000E+00  0.00000000000E+00  0.99999998245E-14  0.12500000000E+03  0.12500000000E+03 0.  0.
        -13    1    3    3    0    0  0.12889458920E+02  0.24859575155E+02 -0.27184266524E+02  0.39027325537E+02  0.10566000000E+00 0.  1.
         23    2    1    0    0    0  0.10377731683E+02  0.11113409159E+02  0.26471095864E+02  0.94472568168E+02  0.89404373729E+02 0.  0.
         13    1    3    3    0    0 -0.25117272372E+01 -0.13746165996E+02  0.53655362388E+02  0.55445242630E+02  0.10566000000E+00 0. -1.
         22    1    1    0    0    0 -0.10377731683E+02 -0.11113409159E+02 -0.26471095864E+02  0.30527431832E+02  0.00000000000E+00 0. -1.
</event>
<event>
 5    1  0.6924836E-004  0.9118800E+02  0.7818608E-02  0.1130116E+00
         25   -1    0    0    0    0  0.00000000000E+00  0.00000000000E+00  0.99999998245E-14  0.12500000000E+03  0.12500000000E+03 0.  0.
        -13    1    3    3    0    0 -0.14522949088E+02  0.48086787196E+02 -0.19799800676E+02  0.53993503534E+02  0.10566000000E+00 0. -1.
         23    2    1    0    0    0  0.16459151634E+02  0.23225350893E+02 -0.82403198412E+01  0.95365164625E+02  0.90643759610E+02 0.  0.
         13    1    3    3    0    0  0.30982100722E+02 -0.24861436303E+02  0.11559480834E+02  0.41371661091E+02  0.10566000000E+00 0.  1.
         22    1    1    0    0    0 -0.16459151634E+02 -0.23225350893E+02  0.82403198412E+01  0.29634835375E+02  0.00000000000E+00 0. -1.
</event>
<event>
 5    1  0.6924836E-004  0.9118800E+02  0.7818608E-02  0.1130116E+00
         25   -1    0    0    0    0  0.00000000000E+00  0.00000000000E+00  0.99999998245E-14  0.12500000000E+03  0.12500000000E+03 0.  0.
        -13    1    3    3    0    0 -0.48620347407E+02  0.11335625172E+02  0.20347221895E+01  0.49965846720E+02  0.10566000000E+00 0.  1.
         23    2    1    0    0    0 -0.66631224630E+01  0.28798888135E+02  0.68303288781E+00  0.95432455416E+02  0.90736507835E+02 0.  0.
         13    1    3    3    0    0  0.41957224944E+02  0.17463262963E+02 -0.13516893017E+01  0.45466608696E+02  0.10566000000E+00 0. -1.
         22    1    1    0    0    0  0.66631224630E+01 -0.28798888135E+02 -0.68303288781E+00  0.29567544584E+02  0.00000000000E+00 0. -1.
</event>
<event>
 5    1  0.6924836E-004  0.9118800E+02  0.7818608E-02  0.1130116E+00
         25   -1    0    0    0    0  0.00000000000E+00  0.00000000000E+00  0.99999998245E-14  0.12500000000E+03  0.12500000000E+03 0.  0.
        -13    1    3    3    0    0 -0.21047887903E+02 -0.44400688872E+02 -0.32979476844E+02  0.59178474249E+02  0.10566000000E+00 0. -1.
         23    2    1    0    0    0 -0.15821456808E+02 -0.94511043912E+01 -0.22247835679E+02  0.96110416027E+02  0.91665718820E+02 0.  0.
         13    1    3    3    0    0  0.52264310951E+01  0.34949584481E+02  0.10731641165E+02  0.36931941778E+02  0.10566000000E+00 0.  1.
         22    1    1    0    0    0  0.15821456808E+02  0.94511043912E+01  0.22247835679E+02  0.28889583973E+02  0.00000000000E+00 0. -1.
</event>
<event>
 5    1  0.6924836E-004  0.9118800E+02  0.7818608E-02  0.1130116E+00
         25   -1    0    0    0    0  0.00000000000E+00  0.00000000000E+00  0.99999998245E-14  0.12500000000E+03  0.12500000000E+03 0.  0.
        -13    1    3    3    0    0 -0.14733024139E+02  0.30169869664E+02  0.50549865388E+02  0.60684290311E+02  0.10566000000E+00 0. -1.
         23    2    1    0    0    0 -0.91048460992E+01  0.21687812714E+02  0.16383342302E+02  0.96335154844E+02  0.91971673417E+02 0.  0.
         13    1    3    3    0    0  0.56281780397E+01 -0.84820569500E+01 -0.34166523086E+02  0.35650864533E+02  0.10566000000E+00 0.  1.
         22    1    1    0    0    0  0.91048460992E+01 -0.21687812714E+02 -0.16383342302E+02  0.28664845156E+02  0.00000000000E+00 0. -1.
</event>
<event>
 5    1  0.6924836E-004  0.9118800E+02  0.7818608E-02  0.1130116E+00
         25   -1    0    0    0    0  0.00000000000E+00  0.00000000000E+00  0.99999998245E-14  0.12500000000E+03  0.12500000000E+03 0.  0.
        -13    1    3    3    0    0 -0.63330821283E+01 -0.12680185968E+02  0.29775989766E+02  0.32977504090E+02  0.10566000000E+00 0.  1.
         23    2    1    0    0    0 -0.27567241304E+01  0.13792799931E+02 -0.26346831834E+02  0.95133691130E+02  0.90323987857E+02 0.  0.
         13    1    3    3    0    0  0.35763579979E+01  0.26472985899E+02 -0.56122821600E+02  0.62156187040E+02  0.10566000000E+00 0. -1.
         22    1    1    0    0    0  0.27567241304E+01 -0.13792799931E+02  0.26346831834E+02  0.29866308870E+02  0.00000000000E+00 0. -1.
</event>
<event>
 5    1  0.6924836E-004  0.9118800E+02  0.7818608E-02  0.1130116E+00
         25   -1    0    0    0    0  0.00000000000E+00  0.00000000000E+00  0.99999998245E-14  0.12500000000E+03  0.12500000000E+03 0.  0.
        -13    1    3    3    0    0  0.20379616753E+02 -0.44875899671E+02 -0.43969266146E+00  0.49288737496E+02  0.10566000000E+00 0. -1.
         23    2    1    0    0    0 -0.19675685876E+02 -0.22265779451E+02 -0.10317463724E+00  0.95286228879E+02  0.90534839812E+02 0.  0.
         13    1    3    3    0    0 -0.40055302629E+02  0.22610120220E+02  0.33651802422E+00  0.45997491383E+02  0.10566000000E+00 0.  1.
         22    1    1    0    0    0  0.19675685876E+02  0.22265779451E+02  0.10317463724E+00  0.29713771121E+02  0.00000000000E+00 0. -1.
</event>
<event>
 5    1  0.6924836E-004  0.9118800E+02  0.7818608E-02  0.1130116E+00
         25   -1    0    0    0    0  0.00000000000E+00  0.00000000000E+00  0.99999998245E-14  0.12500000000E+03  0.12500000000E+03 0.  0.
        -13    1    3    3    0    0  0.42919814534E+02  0.12468422403E+02 -0.35216983693E+02  0.56901837767E+02  0.10566000000E+00 0.  1.
         23    2    1    0    0    0 -0.31763918388E+01  0.47455705681E+01 -0.17002086829E+02  0.10706453620E+03  0.10555157057E+03 0.  0.
         13    1    3    3    0    0 -0.46096206373E+02 -0.77228518349E+01  0.18214896864E+02  0.50162698434E+02  0.10566000000E+00 0. -1.
         22    1    1    0    0    0  0.31763918388E+01 -0.47455705681E+01  0.17002086829E+02  0.17935463799E+02  0.00000000000E+00 0.  1.
</event>
<event>
 5    1  0.6924836E-004  0.9118800E+02  0.7818608E-02  0.1130116E+00
         25   -1    0    0    0    0  0.00000000000E+00  0.00000000000E+00  0.99999998245E-14  0.12500000000E+03  0.12500000000E+03 0.  0.
        -13    1    3    3    0    0 -0.27611516970E+02  0.28553508687E+02 -0.40061744985E+02  0.56415009554E+02  0.10566000000E+00 0.  1.
         23    2    1    0    0    0  0.48569551553E+01  0.59934724564E+01 -0.25187998758E+02  0.98657126070E+02  0.95075136169E+02 0.  0.
         13    1    3    3    0    0  0.32468472126E+02 -0.22560036230E+02  0.14873746227E+02  0.42242116516E+02  0.10566000000E+00 0. -1.
         22    1    1    0    0    0 -0.48569551553E+01 -0.59934724564E+01  0.25187998758E+02  0.26342873930E+02  0.00000000000E+00 0.  1.
</event>
<event>
 5    1  0.6924836E-004  0.9118800E+02  0.7818608E-02  0.1130116E+00
         25   -1    0    0    0    0  0.00000000000E+00  0.00000000000E+00  0.99999998245E-14  0.12500000000E+03  0.12500000000E+03 0.  0.
        -13    1    3    3    0    0  0.17138598394E+02  0.23470942638E+02 -0.14238023217E+02  0.32362774485E+02  0.10566000000E+00 0.  1.
         23    2    1    0    0    0 -0.33310257787E+02 -0.10612264710E+01 -0.14970154405E+02  0.88465016787E+02  0.80568320057E+02 0.  0.
         13    1    3    3    0    0 -0.50448856181E+02 -0.24532169109E+02 -0.73213118760E+00  0.56102242302E+02  0.10566000000E+00 0. -1.
         22    1    1    0    0    0  0.33310257787E+02  0.10612264710E+01  0.14970154405E+02  0.36534983213E+02  0.00000000000E+00 0. -1.
</event>
<event>
 5    1  0.6924836E-004  0.9118800E+02  0.7818608E-02  0.1130116E+00
         25   -1    0    0    0    0  0.00000000000E+00  0.00000000000E+00  0.99999998245E-14  0.12500000000E+03  0.12500000000E+03 0.  0.
        -13    1    3    3    0    0  0.35024640071E+02  0.91343782311E+01  0.42928136912E+02  0.56151566145E+02  0.10566000000E+00 0.  1.
         23    2    1    0    0    0  0.10363331224E+01 -0.25444688232E+01  0.30793931025E+02  0.94083750294E+02  0.88859088300E+02 0.  0.
         13    1    3    3    0    0 -0.33988306949E+02 -0.11678847054E+02 -0.12134205888E+02  0.37932184149E+02  0.10566000000E+00 0. -1.
         22    1    1    0    0    0 -0.10363331224E+01  0.25444688232E+01 -0.30793931025E+02  0.30916249706E+02  0.00000000000E+00 0.  1.
</event>
<event>
 5    1  0.6924836E-004  0.9118800E+02  0.7818608E-02  0.1130116E+00
         25   -1    0    0    0    0  0.00000000000E+00  0.00000000000E+00  0.99999998245E-14  0.12500000000E+03  0.12500000000E+03 0.  0.
        -13    1    3    3    0    0  0.13730838116E+02  0.13764941092E+02 -0.28020942943E+02  0.34105628950E+02  0.10566000000E+00 0.  1.
         23    2    1    0    0    0 -0.71423635697E+01 -0.24695815369E+02  0.14804273978E+02  0.95334141136E+02  0.90600967346E+02 0.  0.
         13    1    3    3    0    0 -0.20873201686E+02 -0.38460756461E+02  0.42825216921E+02  0.61228512186E+02  0.10566000000E+00 0. -1.
         22    1    1    0    0    0  0.71423635697E+01  0.24695815369E+02 -0.14804273978E+02  0.29665858864E+02  0.00000000000E+00 0. -1.
</event>
<event>
 5    1  0.6924836E-004  0.9118800E+02  0.7818608E-02  0.1130116E+00
         25   -1    0    0    0    0  0.00000000000E+00  0.00000000000E+00  0.99999998245E-14  0.12500000000E+03  0.12500000000E+03 0.  0.
        -13    1    3    3    0    0 -0.27977275929E+02 -0.15917289956E+02  0.24880522098E+02  0.40683407328E+02  0.10566000000E+00 0. -1.
         23    2    1    0    0    0 -0.38442871589E+01 -0.42537786597E+02  0.43465855042E+01  0.82068256058E+02  0.69943291420E+02 0.  0.
         13    1    3    3    0    0  0.24132988770E+02 -0.26620496640E+02 -0.20533936593E+02  0.41384848730E+02  0.10566000000E+00 0.  1.
         22    1    1    0    0    0  0.38442871589E+01  0.42537786597E+02 -0.43465855042E+01  0.42931743942E+02  0.00000000000E+00 0.  1.
</event>
<event>
 5    1  0.6924836E-004  0.9118800E+02  0.7818608E-02  0.1130116E+00
         25   -1    0    0    0    0  0.00000000000E+00  0.00000000000E+00  0.99999998245E-14  0.12500000000E+03  0.12500000000E+03 0.  0.
        -13    1    3    3    0    0 -0.23085845066E+02 -0.25886753134E+02  0.15769039423E+02  0.38101889698E+02  0.10566000000E+00 0. -1.
         23    2    1    0    0    0  0.26449189133E+02  0.47772296764E+01  0.84945082746E+01  0.96812446009E+02  0.92618094896E+02 0.  0.
         13    1    3    3    0    0  0.49535034199E+02  0.30663982810E+02 -0.72745311480E+01  0.58710556311E+02  0.10566000000E+00 0.  1.
         22    1    1    0    0    0 -0.26449189133E+02 -0.47772296764E+01 -0.84945082746E+01  0.28187553991E+02  0.00000000000E+00 0.  1.
</event>
<event>
 5    1  0.6924836E-004  0.9118800E+02  0.7818608E-02  0.1130116E+00
         25   -1    0    0    0    0  0.00000000000E+00  0.00000000000E+00  0.99999998245E-14  0.12500000000E+03  0.12500000000E+03 0.  0.
        -13    1    3    3    0    0  0.15363020735E+02 -0.39774775929E+02 -0.53505695274E+00  0.42642146478E+02  0.10566000000E+00 0.  1.
         23    2    1    0    0    0  0.15997384698E+02  0.11104468456E+02  0.19605668516E+02  0.97366546093E+02  0.93362929063E+02 0.  0.
         13    1    3    3    0    0  0.63436396330E+00  0.50879244384E+02  0.20140725469E+02  0.54724399615E+02  0.10566000000E+00 0. -1.
         22    1    1    0    0    0 -0.15997384698E+02 -0.11104468456E+02 -0.19605668516E+02  0.27633453907E+02  0.00000000000E+00 0. -1.
</event>
<event>
 5    1  0.6924836E-004  0.9118800E+02  0.7818608E-02  0.1130116E+00
         25   -1    0    0    0    0  0.00000000000E+00  0.00000000000E+00  0.99999998245E-14  0.12500000000E+03  0.12500000000E+03 0.  0.
        -13    1    3    3    0    0 -0.37371521683E+02  0.16832840376E+02 -0.16735894970E+02  0.44272751129E+02  0.10566000000E+00 0. -1.
         23    2    1    0    0    0  0.13921534443E+02  0.19173062584E+02 -0.17366183170E+02  0.95623142306E+02  0.90998821841E+02 0.  0.
         13    1    3    3    0    0  0.51293056126E+02  0.23402222081E+01 -0.63028820037E+00  0.51350391177E+02  0.10566000000E+00 0.  1.
         22    1    1    0    0    0 -0.13921534443E+02 -0.19173062584E+02  0.17366183170E+02  0.29376857694E+02  0.00000000000E+00 0. -1.
</event>
<event>
 5    1  0.6924836E-004  0.9118800E+02  0.7818608E-02  0.1130116E+00
         25   -1    0    0    0    0  0.00000000000E+00  0.00000000000E+00  0.99999998245E-14  0.12500000000E+03  0.12500000000E+03 0.  0.
        -13    1    3    3    0    0  0.28755425010E+02  0.73531979173E+01 -0.15940272834E+02  0.33690465256E+02  0.10566000000E+00 0.  1.
         23    2    1    0    0    0 -0.18935735662E+02  0.18529905712E+02  0.17721914601E+02  0.93125468665E+02  0.87500669518E+02 0.  0.
         13    1    3    3    0    0 -0.47691160671E+02  0.11176707794E+02  0.33662187435E+02  0.59435003409E+02  0.10566000000E+00 0. -1.
         22    1    1    0    0    0  0.18935735662E+02 -0.18529905712E+02 -0.17721914601E+02  0.31874531335E+02  0.00000000000E+00 0. -1.
</event>
<event>
 5    1  0.6924836E-004  0.9118800E+02  0.7818608E-02  0.1130116E+00
         25   -1    0    0    0    0  0.00000000000E+00  0.00000000000E+00  0.99999998245E-14  0.12500000000E+03  0.12500000000E+03 0.  0.
        -13    1    3    3    0    0 -0.31657138972E+01  0.40186492314E+02 -0.11344954731E+02  0.41877142582E+02  0.10566000000E+00 0. -1.
         23    2    1    0    0    0 -0.22392663259E+01 -0.12057716014E+02 -0.26090924163E+02  0.96170515911E+02  0.91747637450E+02 0.  0.
         13    1    3    3    0    0  0.92644757127E+00 -0.52244208328E+02 -0.14745969433E+02  0.54293373329E+02  0.10566000000E+00 0.  1.
         22    1    1    0    0    0  0.22392663259E+01  0.12057716014E+02  0.26090924163E+02  0.28829484089E+02  0.00000000000E+00 0. -1.
</event>
<event>
 5    1  0.6924836E-004  0.9118800E+02  0.7818608E-02  0.1130116E+00
         25   -1    0    0    0    0  0.00000000000E+00  0.00000000000E+00  0.99999998245E-14  0.12500000000E+03  0.12500000000E+03 0.  0.
        -13    1    3    3    0    0  0.17098503018E+02  0.21943049704E+02 -0.25869734038E+02  0.37988294763E+02  0.10566000000E+00 0.  1.
         23    2    1    0    0    0  0.46740796615E+01 -0.24744603206E+02  0.97331436528E+01  0.98002287248E+02  0.94210253221E+02 0.  0.
         13    1    3    3    0    0 -0.12424423357E+02 -0.46687652910E+02  0.35602877691E+02  0.60013992484E+02  0.10566000000E+00 0. -1.
         22    1    1    0    0    0 -0.46740796615E+01  0.24744603206E+02 -0.97331436528E+01  0.26997712752E+02  0.00000000000E+00 0. -1.
</event>
<event>
 5    1  0.6924836E-004  0.9118800E+02  0.7818608E-02  0.1130116E+00
         25   -1    0    0    0    0  0.00000000000E+00  0.00000000000E+00  0.99999998245E-14  0.12500000000E+03  0.12500000000E+03 0.  0.
        -13    1    3    3    0    0  0.76564082661E+01  0.29247062408E+02  0.11650477312E+02  0.32399938776E+02  0.10566000000E+00 0.  1.
         23    2    1    0    0    0 -0.10144647981E+02 -0.24389203726E+02 -0.14717386103E+02  0.94761802390E+02  0.89807853762E+02 0.  0.
         13    1    3    3    0    0 -0.17801056247E+02 -0.53636266134E+02 -0.26367863415E+02  0.62361863614E+02  0.10566000000E+00 0. -1.
         22    1    1    0    0    0  0.10144647981E+02  0.24389203726E+02  0.14717386103E+02  0.30238197610E+02  0.00000000000E+00 0. -1.
</event>
<event>
 5    1  0.6924836E-004  0.9118800E+02  0.7818608E-02  0.1130116E+00
         25   -1    0    0    0    0  0.00000000000E+00  0.00000000000E+00  0.99999998245E-14  0.12500000000E+03  0.12500000000E+03 0.  0.
        -13    1    3    3    0    0  0.46106728901E+02  0.28737652239E+02 -0.29040072549E+02  0.61603734334E+02  0.10566000000E+00 0. -1.
         23    2    1    0    0    0  0.16763606554E+02  0.19116860380E+02 -0.14415168163E+02  0.95772103588E+02  0.91203212098E+02 0.  0.
         13    1    3    3    0    0 -0.29343122348E+02 -0.96207918590E+01  0.14624904386E+02  0.34168369254E+02  0.10566000000E+00 0.  1.
         22    1    1    0    0    0 -0.16763606554E+02 -0.19116860380E+02  0.14415168163E+02  0.29227896412E+02  0.00000000000E+00 0. -1.
</event>
<event>
 5    1  0.6924836E-004  0.9118800E+02  0.7818608E-02  0.1130116E+00
         25   -1    0    0    0    0  0.00000000000E+00  0.00000000000E+00  0.99999998245E-14  0.12500000000E+03  0.12500000000E+03 0.  0.
        -13    1    3    3    0    0  0.22178998927E+02  0.18694784738E+02 -0.14843059572E+02  0.32584207084E+02  0.10566000000E+00 0.  1.
         23    2    1    0    0    0 -0.68705246285E+01 -0.31853117820E+02 -0.91023931164E+01  0.91166898103E+02  0.84656509058E+02 0.  0.
         13    1    3    3    0    0 -0.29049523556E+02 -0.50547902557E+02  0.57406664551E+01  0.58582691020E+02  0.10566000000E+00 0. -1.
         22    1    1    0    0    0  0.68705246285E+01  0.31853117820E+02  0.91023931164E+01  0.33833101897E+02  0.00000000000E+00 0. -1.
</event>
<event>
 5    1  0.6924836E-004  0.9118800E+02  0.7818608E-02  0.1130116E+00
         25   -1    0    0    0    0  0.00000000000E+00  0.00000000000E+00  0.99999998245E-14  0.12500000000E+03  0.12500000000E+03 0.  0.
        -13    1    3    3    0    0  0.18702083882E+02 -0.59020176146E+02  0.73147931388E+00  0.61916842295E+02  0.10566000000E+00 0.  1.
         23    2    1    0    0    0  0.10766187591E+02 -0.28282594999E+02 -0.54281417670E+01  0.94254582486E+02  0.89099077556E+02 0.  0.
         13    1    3    3    0    0 -0.79358962908E+01  0.30737581147E+02 -0.61596210809E+01  0.32337740190E+02  0.10566000000E+00 0. -1.
         22    1    1    0    0    0 -0.10766187591E+02  0.28282594999E+02  0.54281417670E+01  0.30745417514E+02  0.00000000000E+00 0.  1.
</event>
<event>
 5    1  0.6924836E-004  0.9118800E+02  0.7818608E-02  0.1130116E+00
         25   -1    0    0    0    0  0.00000000000E+00  0.00000000000E+00  0.99999998245E-14  0.12500000000E+03  0.12500000000E+03 0.  0.
        -13    1    3    3    0    0  0.12652399591E+02  0.36234861920E+02 -0.84776223107E+01  0.39305593468E+02  0.10566000000E+00 0. -1.
         23    2    1    0    0    0 -0.63544818484E+01 -0.78711331470E+01  0.25121073796E+02  0.97918594474E+02  0.94099142497E+02 0.  0.
         13    1    3    3    0    0 -0.19006881440E+02 -0.44105995067E+02  0.33598696107E+02  0.58613001007E+02  0.10566000000E+00 0.  1.
         22    1    1    0    0    0  0.63544818484E+01  0.78711331470E+01 -0.25121073796E+02  0.27081405526E+02  0.00000000000E+00 0.  1.
</event>
<event>
 5    1  0.6924836E-004  0.9118800E+02  0.7818608E-02  0.1130116E+00
         25   -1    0    0    0    0  0.00000000000E+00  0.00000000000E+00  0.99999998245E-14  0.12500000000E+03  0.12500000000E+03 0.  0.
        -13    1    3    3    0    0  0.13945017804E+02 -0.25996276129E+02  0.46329947844E+02  0.54924904418E+02  0.10566000000E+00 0.  1.
         23    2    1    0    0    0  0.15655845062E+02  0.79306992792E+01  0.22706639328E+02  0.96301690900E+02  0.91926180846E+02 0.  0.
         13    1    3    3    0    0  0.17108272579E+01  0.33926975408E+02 -0.23623308516E+02  0.41376786481E+02  0.10566000000E+00 0. -1.
         22    1    1    0    0    0 -0.15655845062E+02 -0.79306992792E+01 -0.22706639328E+02  0.28698309100E+02  0.00000000000E+00 0.  1.
</event>
<event>
 5    1  0.6924836E-004  0.9118800E+02  0.7818608E-02  0.1130116E+00
         25   -1    0    0    0    0  0.00000000000E+00  0.00000000000E+00  0.99999998245E-14  0.12500000000E+03  0.12500000000E+03 0.  0.
        -13    1    3    3    0    0  0.69675556511E+01 -0.24766430558E+02  0.31610901260E+02  0.40757614709E+02  0.10566000000E+00 0. -1.
         23    2    1    0    0    0 -0.25694885883E+02  0.10980982810E+02  0.32640417812E+01  0.96867045787E+02  0.92691755009E+02 0.  0.
         13    1    3    3    0    0 -0.32662441534E+02  0.35747413368E+02 -0.28346859478E+02  0.56109431077E+02  0.10566000000E+00 0.  1.
         22    1    1    0    0    0  0.25694885883E+02 -0.10980982810E+02 -0.32640417812E+01  0.28132954213E+02  0.00000000000E+00 0.  1.
</event>
<event>
 5    1  0.6924836E-004  0.9118800E+02  0.7818608E-02  0.1130116E+00
         25   -1    0    0    0    0  0.00000000000E+00  0.00000000000E+00  0.99999998245E-14  0.12500000000E+03  0.12500000000E+03 0.  0.
        -13    1    3    3    0    0  0.22818539478E+02 -0.66706016417E+00  0.23336623159E+02  0.32645671347E+02  0.10566000000E+00 0. -1.
         23    2    1    0    0    0 -0.19733271656E+02 -0.99469291982E+01 -0.20799975044E+02  0.94652308613E+02  0.89655324176E+02 0.  0.
         13    1    3    3    0    0 -0.42551811134E+02 -0.92798690341E+01 -0.44136598202E+02  0.62006637266E+02  0.10566000000E+00 0.  1.
         22    1    1    0    0    0  0.19733271656E+02  0.99469291982E+01  0.20799975044E+02  0.30347691387E+02  0.00000000000E+00 0.  1.
</event>
<event>
 5    1  0.6924836E-004  0.9118800E+02  0.7818608E-02  0.1130116E+00
         25   -1    0    0    0    0  0.00000000000E+00  0.00000000000E+00  0.99999998245E-14  0.12500000000E+03  0.12500000000E+03 0.  0.
        -13    1    3    3    0    0  0.26045617310E+02 -0.14898712053E+02  0.37886599575E+02  0.48329611971E+02  0.10566000000E+00 0.  1.
         23    2    1    0    0    0  0.94355744155E+01  0.23225993842E+02  0.14275525492E+02  0.96150953524E+02  0.91720981138E+02 0.  0.
         13    1    3    3    0    0 -0.16610042895E+02  0.38124705895E+02 -0.23611074082E+02  0.47821341553E+02  0.10566000000E+00 0. -1.
         22    1    1    0    0    0 -0.94355744155E+01 -0.23225993842E+02 -0.14275525492E+02  0.28849046476E+02  0.00000000000E+00 0.  1.
</event>
<event>
 5    1  0.6924836E-004  0.9118800E+02  0.7818608E-02  0.1130116E+00
         25   -1    0    0    0    0  0.00000000000E+00  0.00000000000E+00  0.99999998245E-14  0.12500000000E+03  0.12500000000E+03 0.  0.
        -13    1    3    3    0    0 -0.20947859977E+02 -0.18934127796E+02  0.54693443190E+02  0.61552399831E+02  0.10566000000E+00 0. -1.
         23    2    1    0    0    0 -0.14158578034E+02 -0.25401385980E+01  0.25859509519E+02  0.95408922483E+02  0.90704082713E+02 0.  0.
         13    1    3    3    0    0  0.67892819427E+01  0.16393989198E+02 -0.28833933671E+02  0.33856522652E+02  0.10566000000E+00 0.  1.
         22    1    1    0    0    0  0.14158578034E+02  0.25401385980E+01 -0.25859509519E+02  0.29591077517E+02  0.00000000000E+00 0. -1.
</event>
<event>
 5    1  0.6924836E-004  0.9118800E+02  0.7818608E-02  0.1130116E+00
         25   -1    0    0    0    0  0.00000000000E+00  0.00000000000E+00  0.99999998245E-14  0.12500000000E+03  0.12500000000E+03 0.  0.
        -13    1    3    3    0    0  0.41673137124E+02  0.12666307641E+02  0.44468822247E+02  0.62246068334E+02  0.10566000000E+00 0.  1.
         23    2    1    0    0    0  0.22490600556E+02  0.53886844771E+01  0.18243394758E+02  0.95543481433E+02  0.90889330277E+02 0.  0.
         13    1    3    3    0    0 -0.19182536567E+02 -0.72776231638E+01 -0.26225427489E+02  0.33297413099E+02  0.10566000000E+00 0. -1.
         22    1    1    0    0    0 -0.22490600556E+02 -0.53886844771E+01 -0.18243394758E+02  0.29456518567E+02  0.00000000000E+00 0.  1.
</event>
<event>
 5    1  0.6924836E-004  0.9118800E+02  0.7818608E-02  0.1130116E+00
         25   -1    0    0    0    0  0.00000000000E+00  0.00000000000E+00  0.99999998245E-14  0.12500000000E+03  0.12500000000E+03 0.  0.
        -13    1    3    3    0    0  0.22315632643E+01  0.31063011240E+02 -0.41609023582E+02  0.51973190679E+02  0.10566000000E+00 0.  1.
         23    2    1    0    0    0 -0.20307761407E+02 -0.34106424343E+00 -0.21022327932E+02  0.95768856166E+02  0.91198761183E+02 0.  0.
         13    1    3    3    0    0 -0.22539324671E+02 -0.31404075483E+02  0.20586695650E+02  0.43795665486E+02  0.10566000000E+00 0. -1.
         22    1    1    0    0    0  0.20307761407E+02  0.34106424343E+00  0.21022327932E+02  0.29231143834E+02  0.00000000000E+00 0.  1.
</event>
<event>
 5    1  0.6924836E-004  0.9118800E+02  0.7818608E-02  0.1130116E+00
         25   -1    0    0    0    0  0.00000000000E+00  0.00000000000E+00  0.99999998245E-14  0.12500000000E+03  0.12500000000E+03 0.  0.
        -13    1    3    3    0    0  0.36703954922E+02 -0.10014931857E+02  0.80361708979E+01  0.38885349089E+02  0.10566000000E+00 0. -1.
         23    2    1    0    0    0 -0.18953816285E+02 -0.20869283603E+02 -0.29777090586E+01  0.96651439170E+02  0.92400540001E+02 0.  0.
         13    1    3    3    0    0 -0.55657771207E+02 -0.10854351746E+02 -0.11013879956E+02  0.57766090082E+02  0.10566000000E+00 0.  1.
         22    1    1    0    0    0  0.18953816285E+02  0.20869283603E+02  0.29777090586E+01  0.28348560830E+02  0.00000000000E+00 0.  1.
</event>
<event>
 5    1  0.6924836E-004  0.9118800E+02  0.7818608E-02  0.1130116E+00
         25   -1    0    0    0    0  0.00000000000E+00  0.00000000000E+00  0.99999998245E-14  0.12500000000E+03  0.12500000000E+03 0.  0.
        -13    1    3    3    0    0 -0.39985774204E+02 -0.31323685068E+02 -0.14269245516E+02  0.52760382074E+02  0.10566000000E+00 0.  1.
         23    2    1    0    0    0 -0.22538729067E+02 -0.58358288294E+01  0.16582176241E+02  0.96416442227E+02  0.92082085971E+02 0.  0.
         13    1    3    3    0    0  0.17447045137E+02  0.25487856238E+02  0.30851421757E+02  0.43656060154E+02  0.10566000000E+00 0. -1.
         22    1    1    0    0    0  0.22538729067E+02  0.58358288294E+01 -0.16582176241E+02  0.28583557773E+02  0.00000000000E+00 0. -1.
</event>
<event>
 5    1  0.6924836E-004  0.9118800E+02  0.7818608E-02  0.1130116E+00
         25   -1    0    0    0    0  0.00000000000E+00  0.00000000000E+00  0.99999998245E-14  0.12500000000E+03  0.12500000000E+03 0.  0.
        -13    1    3    3    0    0  0.39483785435E+02  0.16521737422E+02  0.14075722349E+02  0.45056345206E+02  0.10566000000E+00 0.  1.
         23    2    1    0    0    0  0.19437912132E+02  0.17262871008E+02  0.39667273994E+02  0.77572879387E+02  0.61385827736E+02 0.  0.
         13    1    3    3    0    0 -0.20045873303E+02  0.74113358599E+00  0.25591551646E+02  0.32516534181E+02  0.10566000000E+00 0. -1.
         22    1    1    0    0    0 -0.19437912132E+02 -0.17262871008E+02 -0.39667273994E+02  0.47427120613E+02  0.00000000000E+00 0.  1.
</event>
<event>
 5    1  0.6924836E-004  0.9118800E+02  0.7818608E-02  0.1130116E+00
         25   -1    0    0    0    0  0.00000000000E+00  0.00000000000E+00  0.99999998245E-14  0.12500000000E+03  0.12500000000E+03 0.  0.
        -13    1    3    3    0    0  0.27413666426E+02  0.21042073514E+02 -0.47174085322E+02  0.58478059601E+02  0.10566000000E+00 0. -1.
         23    2    1    0    0    0  0.19161616860E+02 -0.47299312133E+01 -0.22097075217E+02  0.95371963563E+02  0.90653135030E+02 0.  0.
         13    1    3    3    0    0 -0.82520495661E+01 -0.25772004727E+02  0.25077010105E+02  0.36893903962E+02  0.10566000000E+00 0.  1.
         22    1    1    0    0    0 -0.19161616860E+02  0.47299312133E+01  0.22097075217E+02  0.29628036437E+02  0.00000000000E+00 0. -1.
</event>
<event>
 5    1  0.6924836E-004  0.9118800E+02  0.7818608E-02  0.1130116E+00
         25   -1    0    0    0    0  0.00000000000E+00  0.00000000000E+00  0.99999998245E-14  0.12500000000E+03  0.12500000000E+03 0.  0.
        -13    1    3    3    0    0  0.13429895011E+02  0.30260083288E+02  0.20988756671E+02  0.39199155491E+02  0.10566000000E+00 0. -1.
         23    2    1    0    0    0 -0.27617566495E+02 -0.19224907658E+00 -0.56120898920E+01  0.96817337036E+02  0.92624695729E+02 0.  0.
         13    1    3    3    0    0 -0.41047461506E+02 -0.30452332365E+02 -0.26600846563E+02  0.57618181544E+02  0.10566000000E+00 0.  1.
         22    1    1    0    0    0  0.27617566495E+02  0.19224907658E+00  0.56120898920E+01  0.28182662964E+02  0.00000000000E+00 0.  1.
</event>
<event>
 5    1  0.6924836E-004  0.9118800E+02  0.7818608E-02  0.1130116E+00
         25   -1    0    0    0    0  0.00000000000E+00  0.00000000000E+00  0.99999998245E-14  0.12500000000E+03  0.12500000000E+03 0.  0.
        -13    1    3    3    0    0  0.17934754248E+02 -0.34324914922E+01  0.27512993621E+02  0.33021408054E+02  0.10566000000E+00 0.  1.
         23    2    1    0    0    0  0.22802206495E+02  0.78861009197E+01 -0.26930803953E+02  0.88842021485E+02  0.81151126741E+02 0.  0.
         13    1    3    3    0    0  0.48674522464E+01  0.11318592412E+02 -0.54443797574E+02  0.55820613432E+02  0.10566000000E+00 0. -1.
         22    1    1    0    0    0 -0.22802206495E+02 -0.78861009197E+01  0.26930803953E+02  0.36157978515E+02  0.00000000000E+00 0. -1.
</event>
<event>
 5    1  0.6924836E-004  0.9118800E+02  0.7818608E-02  0.1130116E+00
         25   -1    0    0    0    0  0.00000000000E+00  0.00000000000E+00  0.99999998245E-14  0.12500000000E+03  0.12500000000E+03 0.  0.
        -13    1    3    3    0    0 -0.27764262305E+02  0.30103263089E+02 -0.76514477063E+01  0.41660731223E+02  0.10566000000E+00 0.  1.
         23    2    1    0    0    0 -0.21996126492E+01 -0.13726927301E+02 -0.25917531455E+02  0.95589368153E+02  0.90952416341E+02 0.  0.
         13    1    3    3    0    0  0.25564649656E+02 -0.43830190390E+02 -0.18266083749E+02  0.53928636930E+02  0.10566000000E+00 0. -1.
         22    1    1    0    0    0  0.21996126492E+01  0.13726927301E+02  0.25917531455E+02  0.29410631847E+02  0.00000000000E+00 0. -1.
</event>
<event>
 5    1  0.6924836E-004  0.9118800E+02  0.7818608E-02  0.1130116E+00
         25   -1    0    0    0    0  0.00000000000E+00  0.00000000000E+00  0.99999998245E-14  0.12500000000E+03  0.12500000000E+03 0.  0.
        -13    1    3    3    0    0 -0.32359818400E+02  0.23674946879E+02 -0.23172510543E+02  0.46310229599E+02  0.10566000000E+00 0.  1.
         23    2    1    0    0    0 -0.35735968353E+02 -0.12781725684E+02 -0.66909493740E+01  0.86461697636E+02  0.77397832069E+02 0.  0.
         13    1    3    3    0    0 -0.33761499529E+01 -0.36456672563E+02  0.16481561169E+02  0.40151468037E+02  0.10566000000E+00 0. -1.
         22    1    1    0    0    0  0.35735968353E+02  0.12781725684E+02  0.66909493740E+01  0.38538302364E+02  0.00000000000E+00 0.  1.
</event>
<event>
 5    1  0.6924836E-004  0.9118800E+02  0.7818608E-02  0.1130116E+00
         25   -1    0    0    0    0  0.00000000000E+00  0.00000000000E+00  0.99999998245E-14  0.12500000000E+03  0.12500000000E+03 0.  0.
        -13    1    3    3    0    0 -0.49900085119E+02 -0.52753134676E+01 -0.20147715478E+02  0.54072072552E+02  0.10566000000E+00 0.  1.
         23    2    1    0    0    0 -0.14287225194E+02  0.14585394063E+02 -0.22121583282E+02  0.94896462490E+02  0.89995086657E+02 0.  0.
         13    1    3    3    0    0  0.35612859925E+02  0.19860707530E+02 -0.19738678048E+01  0.40824389938E+02  0.10566000000E+00 0. -1.
         22    1    1    0    0    0  0.14287225194E+02 -0.14585394063E+02  0.22121583282E+02  0.30103537510E+02  0.00000000000E+00 0. -1.
</event>
<event>
 5    1  0.6924836E-004  0.9118800E+02  0.7818608E-02  0.1130116E+00
         25   -1    0    0    0    0  0.00000000000E+00  0.00000000000E+00  0.99999998245E-14  0.12500000000E+03  0.12500000000E+03 0.  0.
        -13    1    3    3    0    0  0.16245252892E+02  0.24339326918E+02 -0.19683480270E+02  0.35267004919E+02  0.10566000000E+00 0.  1.
         23    2    1    0    0    0  0.44863440912E+01 -0.12884348663E+02  0.26170255457E+02  0.95487019898E+02  0.90811645589E+02 0.  0.
         13    1    3    3    0    0 -0.11758908801E+02 -0.37223675581E+02  0.45853735727E+02  0.60220014980E+02  0.10566000000E+00 0. -1.
         22    1    1    0    0    0 -0.44863440912E+01  0.12884348663E+02 -0.26170255457E+02  0.29512980102E+02  0.00000000000E+00 0. -1.
</event>
<event>
 5    1  0.6924836E-004  0.9118800E+02  0.7818608E-02  0.1130116E+00
         25   -1    0    0    0    0  0.00000000000E+00  0.00000000000E+00  0.99999998245E-14  0.12500000000E+03  0.12500000000E+03 0.  0.
        -13    1    3    3    0    0 -0.67630593656E+01 -0.18846067804E+02 -0.33781402598E+02  0.39269677477E+02  0.10566000000E+00 0.  1.
         23    2    1    0    0    0 -0.55139948587E+01 -0.18138337091E+02  0.22504831559E+02  0.95574316402E+02  0.90931727689E+02 0.  0.
         13    1    3    3    0    0  0.12490645069E+01  0.70773071343E+00  0.56286234156E+02  0.56304638925E+02  0.10566000000E+00 0. -1.
         22    1    1    0    0    0  0.55139948587E+01  0.18138337091E+02 -0.22504831559E+02  0.29425683598E+02  0.00000000000E+00 0. -1.
</event>
<event>
 5    1  0.6924836E-004  0.9118800E+02  0.7818608E-02  0.1130116E+00
         25   -1    0    0    0    0  0.00000000000E+00  0.00000000000E+00  0.99999998245E-14  0.12500000000E+03  0.12500000000E+03 0.  0.
        -13    1    3    3    0    0 -0.24256419501E+02 -0.46065027351E+02 -0.32030467436E+02  0.61125466379E+02  0.10566000000E+00 0. -1.
         23    2    1    0    0    0 -0.18444316513E+02 -0.21030328634E+02 -0.90559868351E+01  0.95597985926E+02  0.90964259363E+02 0.  0.
         13    1    3    3    0    0  0.58121029885E+01  0.25034698717E+02  0.22974480601E+02  0.34472519547E+02  0.10566000000E+00 0.  1.
         22    1    1    0    0    0  0.18444316513E+02  0.21030328634E+02  0.90559868351E+01  0.29402014074E+02  0.00000000000E+00 0. -1.
</event>
<event>
 5    1  0.6924836E-004  0.9118800E+02  0.7818608E-02  0.1130116E+00
         25   -1    0    0    0    0  0.00000000000E+00  0.00000000000E+00  0.99999998245E-14  0.12500000000E+03  0.12500000000E+03 0.  0.
        -13    1    3    3    0    0 -0.40894545679E+02 -0.38115805739E+02 -0.78195535541E+01  0.56447631441E+02  0.10566000000E+00 0.  1.
         23    2    1    0    0    0 -0.13508372690E+02 -0.25176558468E+02  0.13412051312E+02  0.93437073181E+02  0.87944688840E+02 0.  0.
         13    1    3    3    0    0  0.27386172990E+02  0.12939247272E+02  0.21231604866E+02  0.36989441740E+02  0.10566000000E+00 0. -1.
         22    1    1    0    0    0  0.13508372690E+02  0.25176558468E+02 -0.13412051312E+02  0.31562926819E+02  0.00000000000E+00 0.  1.
</event>
<event>
 5    1  0.6924836E-004  0.9118800E+02  0.7818608E-02  0.1130116E+00
         25   -1    0    0    0    0  0.00000000000E+00  0.00000000000E+00  0.99999998245E-14  0.12500000000E+03  0.12500000000E+03 0.  0.
        -13    1    3    3    0    0  0.48443074128E+02 -0.19119435657E+02 -0.61399026013E+01  0.52440383473E+02  0.10566000000E+00 0.  1.
         23    2    1    0    0    0  0.40576874130E+01 -0.25761968484E+02 -0.89998295480E+01  0.97411220049E+02  0.93422722141E+02 0.  0.
         13    1    3    3    0    0 -0.44385386715E+02 -0.66425328269E+01 -0.28599269468E+01  0.44970836576E+02  0.10566000000E+00 0. -1.
         22    1    1    0    0    0 -0.40576874130E+01  0.25761968484E+02  0.89998295480E+01  0.27588779951E+02  0.00000000000E+00 0.  1.
</event>
<event>
 5    1  0.6924836E-004  0.9118800E+02  0.7818608E-02  0.1130116E+00
         25   -1    0    0    0    0  0.00000000000E+00  0.00000000000E+00  0.99999998245E-14  0.12500000000E+03  0.12500000000E+03 0.  0.
        -13    1    3    3    0    0  0.45714584230E+02 -0.37509433693E+02  0.18598188162E+02  0.61989390981E+02  0.10566000000E+00 0. -1.
         23    2    1    0    0    0  0.19963492477E+02 -0.22363581085E+02  0.59209851572E+01  0.94443022793E+02  0.89363055555E+02 0.  0.
         13    1    3    3    0    0 -0.25751091753E+02  0.15145852608E+02 -0.12677203005E+02  0.32453631811E+02  0.10566000000E+00 0.  1.
         22    1    1    0    0    0 -0.19963492477E+02  0.22363581085E+02 -0.59209851572E+01  0.30556977207E+02  0.00000000000E+00 0. -1.
</event>
<event>
 5    1  0.6924836E-004  0.9118800E+02  0.7818608E-02  0.1130116E+00
         25   -1    0    0    0    0  0.00000000000E+00  0.00000000000E+00  0.99999998245E-14  0.12500000000E+03  0.12500000000E+03 0.  0.
        -13    1    3    3    0    0 -0.58107371993E+02 -0.16223678915E+02  0.74501193142E+01  0.60788073495E+02  0.10566000000E+00 0.  1.
         23    2    1    0    0    0 -0.16247858124E+02 -0.13332038750E+02 -0.22748764397E+01  0.10385972532E+03  0.10168545289E+03 0.  0.
         13    1    3    3    0    0  0.41859513869E+02  0.28916401646E+01 -0.97249957540E+01  0.43071651822E+02  0.10566000000E+00 0. -1.
         22    1    1    0    0    0  0.16247858124E+02  0.13332038750E+02  0.22748764397E+01  0.21140274683E+02  0.00000000000E+00 0.  1.
</event>
<event>
 5    1  0.6924836E-004  0.9118800E+02  0.7818608E-02  0.1130116E+00
         25   -1    0    0    0    0  0.00000000000E+00  0.00000000000E+00  0.99999998245E-14  0.12500000000E+03  0.12500000000E+03 0.  0.
        -13    1    3    3    0    0 -0.20281966703E+02 -0.34770408636E+02 -0.64123873084E+01  0.40761125660E+02  0.10566000000E+00 0.  1.
         23    2    1    0    0    0 -0.42772550616E+01  0.13893294595E+02 -0.25678509066E+02  0.95492299761E+02  0.90818912899E+02 0.  0.
         13    1    3    3    0    0  0.16004711641E+02  0.48663703231E+02 -0.19266121758E+02  0.54731174101E+02  0.10566000000E+00 0. -1.
         22    1    1    0    0    0  0.42772550616E+01 -0.13893294595E+02  0.25678509066E+02  0.29507700239E+02  0.00000000000E+00 0. -1.
</event>
<event>
 5    1  0.6924836E-004  0.9118800E+02  0.7818608E-02  0.1130116E+00
         25   -1    0    0    0    0  0.00000000000E+00  0.00000000000E+00  0.99999998245E-14  0.12500000000E+03  0.12500000000E+03 0.  0.
        -13    1    3    3    0    0  0.62025420580E+01 -0.37976759901E+02  0.35802479004E+02  0.52559818183E+02  0.10566000000E+00 0. -1.
         23    2    1    0    0    0 -0.20947016393E+02 -0.15019448339E+02  0.70709502877E+01  0.98272492407E+02  0.94568087121E+02 0.  0.
         13    1    3    3    0    0 -0.27149558451E+02  0.22957311562E+02 -0.28731528716E+02  0.45712674223E+02  0.10566000000E+00 0.  1.
         22    1    1    0    0    0  0.20947016393E+02  0.15019448339E+02 -0.70709502877E+01  0.26727507593E+02  0.00000000000E+00 0.  1.
</event>
<event>
 5    1  0.6924836E-004  0.9118800E+02  0.7818608E-02  0.1130116E+00
         25   -1    0    0    0    0  0.00000000000E+00  0.00000000000E+00  0.99999998245E-14  0.12500000000E+03  0.12500000000E+03 0.  0.
        -13    1    3    3    0    0  0.35047205876E+02 -0.41979989283E+02 -0.16121590122E+02  0.57013533236E+02  0.10566000000E+00 0.  1.
         23    2    1    0    0    0  0.13780340622E+01 -0.24272471817E+02  0.44853496054E+01  0.10027814273E+03  0.97183000991E+02 0.  0.
         13    1    3    3    0    0 -0.33669171814E+02  0.17707517467E+02  0.20606939727E+02  0.43264609491E+02  0.10566000000E+00 0. -1.
         22    1    1    0    0    0 -0.13780340622E+01  0.24272471817E+02 -0.44853496054E+01  0.24721857273E+02  0.00000000000E+00 0.  1.
</event>
<event>
 5    1  0.6924836E-004  0.9118800E+02  0.7818608E-02  0.1130116E+00
         25   -1    0    0    0    0  0.00000000000E+00  0.00000000000E+00  0.99999998245E-14  0.12500000000E+03  0.12500000000E+03 0.  0.
        -13    1    3    3    0    0  0.59001287484E+01  0.29222853057E+02 -0.19861376630E+02  0.35822787520E+02  0.10566000000E+00 0.  1.
         23    2    1    0    0    0  0.19578768427E+02 -0.15462319016E+02  0.16546785211E+02  0.95063273671E+02  0.90226484015E+02 0.  0.
         13    1    3    3    0    0  0.13678639678E+02 -0.44685172073E+02  0.36408161841E+02  0.59240486151E+02  0.10566000000E+00 0. -1.
         22    1    1    0    0    0 -0.19578768427E+02  0.15462319016E+02 -0.16546785211E+02  0.29936726329E+02  0.00000000000E+00 0. -1.
</event>
<event>
 5    1  0.6924836E-004  0.9118800E+02  0.7818608E-02  0.1130116E+00
         25   -1    0    0    0    0  0.00000000000E+00  0.00000000000E+00  0.99999998245E-14  0.12500000000E+03  0.12500000000E+03 0.  0.
        -13    1    3    3    0    0  0.60158688979E+02 -0.14962942634E+02 -0.49866517580E+01  0.62191923686E+02  0.10566000000E+00 0. -1.
         23    2    1    0    0    0  0.27410993453E+02 -0.52114805423E+01 -0.63367129323E+01  0.96387484865E+02  0.92042768409E+02 0.  0.
         13    1    3    3    0    0 -0.32747695526E+02  0.97514620920E+01 -0.13500611744E+01  0.34195561179E+02  0.10566000000E+00 0.  1.
         22    1    1    0    0    0 -0.27410993453E+02  0.52114805423E+01  0.63367129323E+01  0.28612515135E+02  0.00000000000E+00 0. -1.
</event>
<event>
 5    1  0.6924836E-004  0.9118800E+02  0.7818608E-02  0.1130116E+00
         25   -1    0    0    0    0  0.00000000000E+00  0.00000000000E+00  0.99999998245E-14  0.12500000000E+03  0.12500000000E+03 0.  0.
        -13    1    3    3    0    0 -0.28117587357E+02  0.40804465093E+02  0.24819900603E+02  0.55422393671E+02  0.10566000000E+00 0.  1.
         23    2    1    0    0    0 -0.24903055753E+02  0.18716069295E+02 -0.57979400475E+01  0.93312943582E+02  0.87768080162E+02 0.  0.
         13    1    3    3    0    0  0.32145316042E+01 -0.22088395798E+02 -0.30617840651E+02  0.37890549910E+02  0.10566000000E+00 0. -1.
         22    1    1    0    0    0  0.24903055753E+02 -0.18716069295E+02  0.57979400475E+01  0.31687056418E+02  0.00000000000E+00 0. -1.
</event>
<event>
 5    1  0.6924836E-004  0.9118800E+02  0.7818608E-02  0.1130116E+00
         25   -1    0    0    0    0  0.00000000000E+00  0.00000000000E+00  0.99999998245E-14  0.12500000000E+03  0.12500000000E+03 0.  0.
        -13    1    3    3    0    0  0.18709202377E+02  0.28935758165E+02  0.89473152508E+01  0.35600252364E+02  0.10566000000E+00 0. -1.
         23    2    1    0    0    0 -0.31078862559E+02  0.33352238921E+00  0.74504321069E+01  0.93038838042E+02  0.87376824791E+02 0.  0.
         13    1    3    3    0    0 -0.49788064936E+02 -0.28602235776E+02 -0.14968831439E+01  0.57438585678E+02  0.10566000000E+00 0.  1.
         22    1    1    0    0    0  0.31078862559E+02 -0.33352238921E+00 -0.74504321069E+01  0.31961161958E+02  0.00000000000E+00 0.  1.
</event>
<event>
 5    1  0.6924836E-004  0.9118800E+02  0.7818608E-02  0.1130116E+00
         25   -1    0    0    0    0  0.00000000000E+00  0.00000000000E+00  0.99999998245E-14  0.12500000000E+03  0.12500000000E+03 0.  0.
        -13    1    3    3    0    0 -0.29110488416E+02 -0.24981994700E+02 -0.36913539270E+02  0.53236652228E+02  0.10566000000E+00 0.  1.
         23    2    1    0    0    0 -0.10321589640E+02  0.11658708227E+02 -0.23999670415E+02  0.96391524503E+02  0.92048254333E+02 0.  0.
         13    1    3    3    0    0  0.18788898776E+02  0.36640702927E+02  0.12913868855E+02  0.43154872275E+02  0.10566000000E+00 0. -1.
         22    1    1    0    0    0  0.10321589640E+02 -0.11658708227E+02  0.23999670415E+02  0.28608475497E+02  0.00000000000E+00 0.  1.
</event>
<event>
 5    1  0.6924836E-004  0.9118800E+02  0.7818608E-02  0.1130116E+00
         25   -1    0    0    0    0  0.00000000000E+00  0.00000000000E+00  0.99999998245E-14  0.12500000000E+03  0.12500000000E+03 0.  0.
        -13    1    3    3    0    0 -0.39586299318E+02 -0.16954515021E+02  0.20222327888E+02  0.47576090450E+02  0.10566000000E+00 0. -1.
         23    2    1    0    0    0 -0.54230694705E+01 -0.20828577839E+02 -0.16498644969E+02  0.97880917732E+02  0.94049079915E+02 0.  0.
         13    1    3    3    0    0  0.34163229847E+02 -0.38740628175E+01 -0.36720972856E+02  0.50304827282E+02  0.10566000000E+00 0.  1.
         22    1    1    0    0    0  0.54230694705E+01  0.20828577839E+02  0.16498644969E+02  0.27119082268E+02  0.00000000000E+00 0.  1.
</event>
<event>
 5    1  0.6924836E-004  0.9118800E+02  0.7818608E-02  0.1130116E+00
         25   -1    0    0    0    0  0.00000000000E+00  0.00000000000E+00  0.99999998245E-14  0.12500000000E+03  0.12500000000E+03 0.  0.
        -13    1    3    3    0    0 -0.14516218056E+02 -0.13619770025E+02  0.29940353315E+02  0.35953506684E+02  0.10566000000E+00 0. -1.
         23    2    1    0    0    0 -0.26840276597E+01 -0.27681290430E+01 -0.28336943614E+02  0.96401942089E+02  0.92062400155E+02 0.  0.
         13    1    3    3    0    0  0.11832190397E+02  0.10851640983E+02 -0.58277296929E+02  0.60448435405E+02  0.10566000000E+00 0.  1.
         22    1    1    0    0    0  0.26840276597E+01  0.27681290430E+01  0.28336943614E+02  0.28598057911E+02  0.00000000000E+00 0.  1.
</event>
<event>
 5    1  0.6924836E-004  0.9118800E+02  0.7818608E-02  0.1130116E+00
         25   -1    0    0    0    0  0.00000000000E+00  0.00000000000E+00  0.99999998245E-14  0.12500000000E+03  0.12500000000E+03 0.  0.
        -13    1    3    3    0    0 -0.15857860813E+02 -0.28493767911E+02  0.38781079431E+01  0.32839266810E+02  0.10566000000E+00 0.  1.
         23    2    1    0    0    0  0.31046736740E+02  0.74966528291E+01 -0.51572737485E+01  0.92647300911E+02  0.86814890587E+02 0.  0.
         13    1    3    3    0    0  0.46904597553E+02  0.35990420740E+02 -0.90353816916E+01  0.59808034101E+02  0.10566000000E+00 0. -1.
         22    1    1    0    0    0 -0.31046736740E+02 -0.74966528291E+01  0.51572737485E+01  0.32352699089E+02  0.00000000000E+00 0. -1.
</event>
<event>
 5    1  0.6924836E-004  0.9118800E+02  0.7818608E-02  0.1130116E+00
         25   -1    0    0    0    0  0.00000000000E+00  0.00000000000E+00  0.99999998245E-14  0.12500000000E+03  0.12500000000E+03 0.  0.
        -13    1    3    3    0    0 -0.10682395314E+02  0.38040582607E+02 -0.53185791182E+01  0.39868508156E+02  0.10566000000E+00 0.  1.
         23    2    1    0    0    0  0.30315729098E+02  0.57069868674E+01  0.66645022467E+01  0.93440077312E+02  0.87948958652E+02 0.  0.
         13    1    3    3    0    0  0.40998124412E+02 -0.32333595740E+02  0.11983081365E+02  0.53571569156E+02  0.10566000000E+00 0. -1.
         22    1    1    0    0    0 -0.30315729098E+02 -0.57069868674E+01 -0.66645022467E+01  0.31559922688E+02  0.00000000000E+00 0. -1.
</event>
<event>
 5    1  0.6924836E-004  0.9118800E+02  0.7818608E-02  0.1130116E+00
         25   -1    0    0    0    0  0.00000000000E+00  0.00000000000E+00  0.99999998245E-14  0.12500000000E+03  0.12500000000E+03 0.  0.
        -13    1    3    3    0    0  0.13811664345E+02 -0.54178349967E+02  0.23452054625E+02  0.60630567433E+02  0.10566000000E+00 0.  1.
         23    2    1    0    0    0  0.80377388919E+01 -0.18845823095E+02  0.19613309291E+02  0.96637133503E+02  0.92381185182E+02 0.  0.
         13    1    3    3    0    0 -0.57739254535E+01  0.35332526872E+02 -0.38387453344E+01  0.36006566069E+02  0.10566000000E+00 0. -1.
         22    1    1    0    0    0 -0.80377388919E+01  0.18845823095E+02 -0.19613309291E+02  0.28362866497E+02  0.00000000000E+00 0.  1.
</event>
<event>
 5    1  0.6924836E-004  0.9118800E+02  0.7818608E-02  0.1130116E+00
         25   -1    0    0    0    0  0.00000000000E+00  0.00000000000E+00  0.99999998245E-14  0.12500000000E+03  0.12500000000E+03 0.  0.
        -13    1    3    3    0    0 -0.17174500283E+02 -0.29253676566E+02 -0.33820606987E+02  0.47901833719E+02  0.10566000000E+00 0. -1.
         23    2    1    0    0    0 -0.15551749454E+02  0.15835197446E+02 -0.20090101161E+02  0.95063023635E+02  0.90226137614E+02 0.  0.
         13    1    3    3    0    0  0.16227508292E+01  0.45088874013E+02  0.13730505827E+02  0.47161189916E+02  0.10566000000E+00 0.  1.
         22    1    1    0    0    0  0.15551749454E+02 -0.15835197446E+02  0.20090101161E+02  0.29936976365E+02  0.00000000000E+00 0.  1.
</event>
<event>
 5    1  0.6924836E-004  0.9118800E+02  0.7818608E-02  0.1130116E+00
         25   -1    0    0    0    0  0.00000000000E+00  0.00000000000E+00  0.99999998245E-14  0.12500000000E+03  0.12500000000E+03 0.  0.
        -13    1    3    3    0    0 -0.22069519966E+01  0.27807740949E+02  0.42016757768E+01  0.28210039652E+02  0.10566000000E+00 0.  1.
         23    2    1    0    0    0  0.17283822901E+02 -0.30151138183E+02 -0.44313492686E+01  0.89964895831E+02  0.82862681333E+02 0.  0.
         13    1    3    3    0    0  0.19490774898E+02 -0.57958879131E+02 -0.86330250454E+01  0.61754856179E+02  0.10566000000E+00 0. -1.
         22    1    1    0    0    0 -0.17283822901E+02  0.30151138183E+02  0.44313492686E+01  0.35035104169E+02  0.00000000000E+00 0. -1.
</event>
<event>
 5    1  0.6924836E-004  0.9118800E+02  0.7818608E-02  0.1130116E+00
         25   -1    0    0    0    0  0.00000000000E+00  0.00000000000E+00  0.99999998245E-14  0.12500000000E+03  0.12500000000E+03 0.  0.
        -13    1    3    3    0    0  0.52065338707E+01 -0.41130425166E+02 -0.16927932677E+02  0.44781535681E+02  0.10566000000E+00 0.  1.
         23    2    1    0    0    0 -0.23251252884E+02 -0.18341996161E+02  0.13674193390E+02  0.92380479024E+02  0.86429854541E+02 0.  0.
         13    1    3    3    0    0 -0.28457786755E+02  0.22788429004E+02  0.30602126066E+02  0.47598943342E+02  0.10566000000E+00 0. -1.
         22    1    1    0    0    0  0.23251252884E+02  0.18341996161E+02 -0.13674193390E+02  0.32619520976E+02  0.00000000000E+00 0.  1.
</event>
<event>
 5    1  0.6924836E-004  0.9118800E+02  0.7818608E-02  0.1130116E+00
         25   -1    0    0    0    0  0.00000000000E+00  0.00000000000E+00  0.99999998245E-14  0.12500000000E+03  0.12500000000E+03 0.  0.
        -13    1    3    3    0    0 -0.20833724082E+02  0.52003917532E+02  0.21735892019E+02  0.60090861732E+02  0.10566000000E+00 0.  1.
         23    2    1    0    0    0 -0.20799433081E+02  0.19687493238E+02  0.75622899482E+01  0.95379027096E+02  0.90662874287E+02 0.  0.
         13    1    3    3    0    0  0.34291000104E-01 -0.32316424295E+02 -0.14173602071E+02  0.35288165364E+02  0.10566000000E+00 0. -1.
         22    1    1    0    0    0  0.20799433081E+02 -0.19687493238E+02 -0.75622899482E+01  0.29620972904E+02  0.00000000000E+00 0.  1.
</event>
<event>
 5    1  0.6924836E-004  0.9118800E+02  0.7818608E-02  0.1130116E+00
         25   -1    0    0    0    0  0.00000000000E+00  0.00000000000E+00  0.99999998245E-14  0.12500000000E+03  0.12500000000E+03 0.  0.
        -13    1    3    3    0    0  0.40403049150E+02 -0.62568902736E+01 -0.39346461141E+02  0.56742490471E+02  0.10566000000E+00 0.  1.
         23    2    1    0    0    0  0.24839593449E+02  0.41848684479E+01 -0.57782634388E+00  0.99803722301E+02  0.96570857795E+02 0.  0.
         13    1    3    3    0    0 -0.15563455701E+02  0.10441758722E+02  0.38768634797E+02  0.43061231829E+02  0.10566000000E+00 0. -1.
         22    1    1    0    0    0 -0.24839593449E+02 -0.41848684479E+01  0.57782634388E+00  0.25196277699E+02  0.00000000000E+00 0.  1.
</event>
<event>
 5    1  0.6924836E-004  0.9118800E+02  0.7818608E-02  0.1130116E+00
         25   -1    0    0    0    0  0.00000000000E+00  0.00000000000E+00  0.99999998245E-14  0.12500000000E+03  0.12500000000E+03 0.  0.
        -13    1    3    3    0    0 -0.82254961526E+01 -0.31583562771E+02 -0.89912350032E+01  0.33853119431E+02  0.10566000000E+00 0.  1.
         23    2    1    0    0    0  0.17021268389E+02  0.21080360777E+02  0.11248151029E+02  0.95663570605E+02  0.91054339003E+02 0.  0.
         13    1    3    3    0    0  0.25246764542E+02  0.52663923548E+02  0.20239386032E+02  0.61810451174E+02  0.10566000000E+00 0. -1.
         22    1    1    0    0    0 -0.17021268389E+02 -0.21080360777E+02 -0.11248151029E+02  0.29336429395E+02  0.00000000000E+00 0. -1.
</event>
<event>
 5    1  0.6924836E-004  0.9118800E+02  0.7818608E-02  0.1130116E+00
         25   -1    0    0    0    0  0.00000000000E+00  0.00000000000E+00  0.99999998245E-14  0.12500000000E+03  0.12500000000E+03 0.  0.
        -13    1    3    3    0    0  0.36232211072E+02  0.70792575194E+00 -0.34311804944E+00  0.36240904680E+02  0.10566000000E+00 0. -1.
         23    2    1    0    0    0 -0.14102541865E+02 -0.27314785980E+02  0.39324085271E+01  0.94008984253E+02  0.88753850977E+02 0.  0.
         13    1    3    3    0    0 -0.50334752936E+02 -0.28022711732E+02  0.42755265766E+01  0.57768079573E+02  0.10566000000E+00 0.  1.
         22    1    1    0    0    0  0.14102541865E+02  0.27314785980E+02 -0.39324085271E+01  0.30991015747E+02  0.00000000000E+00 0.  1.
</event>
<event>
 5    1  0.6924836E-004  0.9118800E+02  0.7818608E-02  0.1130116E+00
         25   -1    0    0    0    0  0.00000000000E+00  0.00000000000E+00  0.99999998245E-14  0.12500000000E+03  0.12500000000E+03 0.  0.
        -13    1    3    3    0    0  0.28831626636E+02 -0.36634819442E+02  0.15946746240E+01  0.46646830988E+02  0.10566000000E+00 0. -1.
         23    2    1    0    0    0 -0.18543855678E+02 -0.20803437261E+02 -0.37396564643E+01  0.96881632057E+02  0.92711423321E+02 0.  0.
         13    1    3    3    0    0 -0.47375482314E+02  0.15831382181E+02 -0.53343310883E+01  0.50234801069E+02  0.10566000000E+00 0.  1.
         22    1    1    0    0    0  0.18543855678E+02  0.20803437261E+02  0.37396564643E+01  0.28118367943E+02  0.00000000000E+00 0.  1.
</event>
<event>
 5    1  0.6924836E-004  0.9118800E+02  0.7818608E-02  0.1130116E+00
         25   -1    0    0    0    0  0.00000000000E+00  0.00000000000E+00  0.99999998245E-14  0.12500000000E+03  0.12500000000E+03 0.  0.
        -13    1    3    3    0    0 -0.22737277084E+02  0.35873412354E+02  0.94479175623E+01  0.43510456139E+02  0.10566000000E+00 0. -1.
         23    2    1    0    0    0 -0.34190791095E+02  0.71443577283E+01 -0.18743833862E+02  0.85359322018E+02  0.75596497964E+02 0.  0.
         13    1    3    3    0    0 -0.11453514011E+02 -0.28729054626E+02 -0.28191751425E+02  0.41848865879E+02  0.10566000000E+00 0.  1.
         22    1    1    0    0    0  0.34190791095E+02 -0.71443577283E+01  0.18743833862E+02  0.39640677982E+02  0.00000000000E+00 0. -1.
</event>
<event>
 5    1  0.6924836E-004  0.9118800E+02  0.7818608E-02  0.1130116E+00
         25   -1    0    0    0    0  0.00000000000E+00  0.00000000000E+00  0.99999998245E-14  0.12500000000E+03  0.12500000000E+03 0.  0.
        -13    1    3    3    0    0  0.13837703713E+01 -0.46218336292E+02 -0.27413154959E+02  0.53754457107E+02  0.10566000000E+00 0. -1.
         23    2    1    0    0    0  0.14486384413E+02 -0.27930876912E+02  0.49295721172E+01  0.93152081705E+02  0.87538679601E+02 0.  0.
         13    1    3    3    0    0  0.13102614041E+02  0.18287459379E+02  0.32342727076E+02  0.39397624599E+02  0.10566000000E+00 0.  1.
         22    1    1    0    0    0 -0.14486384413E+02  0.27930876912E+02 -0.49295721172E+01  0.31847918295E+02  0.00000000000E+00 0. -1.
</event>
<event>
 5    1  0.6924836E-004  0.9118800E+02  0.7818608E-02  0.1130116E+00
         25   -1    0    0    0    0  0.00000000000E+00  0.00000000000E+00  0.99999998245E-14  0.12500000000E+03  0.12500000000E+03 0.  0.
        -13    1    3    3    0    0  0.51121774484E+02 -0.26126349473E+02  0.16010076085E+02  0.59601641450E+02  0.10566000000E+00 0.  1.
         23    2    1    0    0    0  0.15652814123E+02 -0.22628117907E+02  0.98758937378E+01  0.95766875173E+02  0.91196045930E+02 0.  0.
         13    1    3    3    0    0 -0.35468960361E+02  0.34982315654E+01 -0.61341823474E+01  0.36165233724E+02  0.10566000000E+00 0. -1.
         22    1    1    0    0    0 -0.15652814123E+02  0.22628117907E+02 -0.98758937378E+01  0.29233124827E+02  0.00000000000E+00 0.  1.
</event>
<event>
 5    1  0.6924836E-004  0.9118800E+02  0.7818608E-02  0.1130116E+00
         25   -1    0    0    0    0  0.00000000000E+00  0.00000000000E+00  0.99999998245E-14  0.12500000000E+03  0.12500000000E+03 0.  0.
        -13    1    3    3    0    0  0.55021459310E+02  0.20325090791E+02 -0.27760160023E+00  0.58656274404E+02  0.10566000000E+00 0. -1.
         23    2    1    0    0    0  0.27773542279E+02 -0.55475624534E+01 -0.39233697761E+01  0.96407379793E+02  0.92069783036E+02 0.  0.
         13    1    3    3    0    0 -0.27247917031E+02 -0.25872653245E+02 -0.36457681758E+01  0.37751105389E+02  0.10566000000E+00 0.  1.
         22    1    1    0    0    0 -0.27773542279E+02  0.55475624534E+01  0.39233697761E+01  0.28592620207E+02  0.00000000000E+00 0. -1.
</event>
<event>
 5    1  0.6924836E-004  0.9118800E+02  0.7818608E-02  0.1130116E+00
         25   -1    0    0    0    0  0.00000000000E+00  0.00000000000E+00  0.99999998245E-14  0.12500000000E+03  0.12500000000E+03 0.  0.
        -13    1    3    3    0    0  0.18077147729E+02 -0.18291412430E+02 -0.36094507728E+02  0.44319112027E+02  0.10566000000E+00 0.  1.
         23    2    1    0    0    0 -0.25304172215E+02 -0.15977915374E+01 -0.16412735018E+02  0.94796822352E+02  0.89856583442E+02 0.  0.
         13    1    3    3    0    0 -0.43381319944E+02  0.16693620892E+02  0.19681772710E+02  0.50477710325E+02  0.10566000000E+00 0. -1.
         22    1    1    0    0    0  0.25304172215E+02  0.15977915374E+01  0.16412735018E+02  0.30203177648E+02  0.00000000000E+00 0. -1.
</event>
<event>
 5    1  0.6924836E-004  0.9118800E+02  0.7818608E-02  0.1130116E+00
         25   -1    0    0    0    0  0.00000000000E+00  0.00000000000E+00  0.99999998245E-14  0.12500000000E+03  0.12500000000E+03 0.  0.
        -13    1    3    3    0    0  0.40629415967E+02 -0.17950102442E+02  0.35355430391E+02  0.56771236041E+02  0.10566000000E+00 0. -1.
         23    2    1    0    0    0  0.89396312576E+01  0.38494371710E+01  0.27228234421E+02  0.96084400002E+02  0.91630235188E+02 0.  0.
         13    1    3    3    0    0 -0.31689784710E+02  0.21799539613E+02 -0.81271959702E+01  0.39313163961E+02  0.10566000000E+00 0.  1.
         22    1    1    0    0    0 -0.89396312576E+01 -0.38494371710E+01 -0.27228234421E+02  0.28915599998E+02  0.00000000000E+00 0. -1.
</event>
<event>
 5    1  0.6924836E-004  0.9118800E+02  0.7818608E-02  0.1130116E+00
         25   -1    0    0    0    0  0.00000000000E+00  0.00000000000E+00  0.99999998245E-14  0.12500000000E+03  0.12500000000E+03 0.  0.
        -13    1    3    3    0    0 -0.34262869199E+02  0.48052586124E+02  0.68505479365E+01  0.59413267962E+02  0.10566000000E+00 0. -1.
         23    2    1    0    0    0 -0.42556529987E+01  0.23842012409E+02  0.11390988944E+02  0.98236092077E+02  0.94519960957E+02 0.  0.
         13    1    3    3    0    0  0.30007216200E+02 -0.24210573715E+02  0.45404410078E+01  0.38822824115E+02  0.10566000000E+00 0.  1.
         22    1    1    0    0    0  0.42556529987E+01 -0.23842012409E+02 -0.11390988944E+02  0.26763907923E+02  0.00000000000E+00 0. -1.
</event>
<event>
 5    1  0.6924836E-004  0.9118800E+02  0.7818608E-02  0.1130116E+00
         25   -1    0    0    0    0  0.00000000000E+00  0.00000000000E+00  0.99999998245E-14  0.12500000000E+03  0.12500000000E+03 0.  0.
        -13    1    3    3    0    0  0.27070573775E+02 -0.26050019204E+02 -0.89451182135E+01  0.38619240916E+02  0.10566000000E+00 0.  1.
         23    2    1    0    0    0 -0.75258765007E+01  0.75762366229E+01  0.25136773567E+02  0.97688911339E+02  0.93793538343E+02 0.  0.
         13    1    3    3    0    0 -0.34596450276E+02  0.33626255827E+02  0.34081891780E+02  0.59069670424E+02  0.10566000000E+00 0. -1.
         22    1    1    0    0    0  0.75258765007E+01 -0.75762366229E+01 -0.25136773567E+02  0.27311088661E+02  0.00000000000E+00 0. -1.
</event>
<event>
 4    1  0.6924836E-004  0.9118800E+02  0.7818608E-02  0.1130116E+00
         25   -1    0    0    0    0  0.00000000000E+00  0.00000000000E+00  0.99999998245E-14  0.12500000000E+03  0.12500000000E+03 0.  0.
        -13    1    1    0    0    0 -0.17084669380E+02 -0.14753635498E+02 -0.51626473628E+00  0.22579490285E+02  0.10566000000E+00 0. -1.
         13    1    1    0    0    0  0.31605214727E+02 -0.33859862452E+02 -0.16094274601E+02  0.49034852117E+02  0.10566000000E+00 0.  1.
         22    1    1    0    0    0 -0.14520545347E+02  0.48613497950E+02  0.16610539337E+02  0.53385657598E+02  0.00000000000E+00 0.  1.
</event>
<event>
 5    1  0.6924836E-004  0.9118800E+02  0.7818608E-02  0.1130116E+00
         25   -1    0    0    0    0  0.00000000000E+00  0.00000000000E+00  0.99999998245E-14  0.12500000000E+03  0.12500000000E+03 0.  0.
        -13    1    3    3    0    0  0.33651192619E+02 -0.12828852480E+02  0.37313583191E+02  0.51858431091E+02  0.10566000000E+00 0.  1.
         23    2    1    0    0    0  0.60946973970E+01  0.84234219834E+01  0.36902582675E+02  0.86660725329E+02  0.77718603514E+02 0.  0.
         13    1    3    3    0    0 -0.27556495222E+02  0.21252274463E+02 -0.41100051618E+00  0.34802294238E+02  0.10566000000E+00 0. -1.
         22    1    1    0    0    0 -0.60946973970E+01 -0.84234219834E+01 -0.36902582675E+02  0.38339274671E+02  0.00000000000E+00 0. -1.
</event>
<event>
 5    1  0.6924836E-004  0.9118800E+02  0.7818608E-02  0.1130116E+00
         25   -1    0    0    0    0  0.00000000000E+00  0.00000000000E+00  0.99999998245E-14  0.12500000000E+03  0.12500000000E+03 0.  0.
        -13    1    3    3    0    0  0.81677739150E+01 -0.19019715936E+02 -0.25983644982E+02  0.33220823223E+02  0.10566000000E+00 0.  1.
         23    2    1    0    0    0 -0.14776047726E+02  0.14602682808E+02  0.21051737332E+02  0.95423901943E+02  0.90724723674E+02 0.  0.
         13    1    3    3    0    0 -0.22943821641E+02  0.33622398743E+02  0.47035382314E+02  0.62203078720E+02  0.10566000000E+00 0. -1.
         22    1    1    0    0    0  0.14776047726E+02 -0.14602682808E+02 -0.21051737332E+02  0.29576098057E+02  0.00000000000E+00 0. -1.
</event>
<event>
 5    1  0.6924836E-004  0.9118800E+02  0.7818608E-02  0.1130116E+00
         25   -1    0    0    0    0  0.00000000000E+00  0.00000000000E+00  0.99999998245E-14  0.12500000000E+03  0.12500000000E+03 0.  0.
        -13    1    3    3    0    0 -0.85391207366E+00  0.34927954739E+02  0.12731854567E+02  0.37186052128E+02  0.10566000000E+00 0.  1.
         23    2    1    0    0    0  0.23426216750E+02 -0.95240049938E+01 -0.15663911609E+02  0.95253530811E+02  0.90489682852E+02 0.  0.
         13    1    3    3    0    0  0.24280128824E+02 -0.44451959733E+02 -0.28395766176E+02  0.58067478683E+02  0.10566000000E+00 0. -1.
         22    1    1    0    0    0 -0.23426216750E+02  0.95240049938E+01  0.15663911609E+02  0.29746469189E+02  0.00000000000E+00 0. -1.
</event>
<event>
 5    1  0.6924836E-004  0.9118800E+02  0.7818608E-02  0.1130116E+00
         25   -1    0    0    0    0  0.00000000000E+00  0.00000000000E+00  0.99999998245E-14  0.12500000000E+03  0.12500000000E+03 0.  0.
        -13    1    3    3    0    0 -0.52800716120E+02 -0.28357981951E+02 -0.49264762499E+01  0.60136279361E+02  0.10566000000E+00 0. -1.
         23    2    1    0    0    0 -0.18649298760E+02 -0.19841174715E+02  0.62430462431E+01  0.97063568862E+02  0.92956399541E+02 0.  0.
         13    1    3    3    0    0  0.34151417360E+02  0.85168072357E+01  0.11169522493E+02  0.36927289502E+02  0.10566000000E+00 0.  1.
         22    1    1    0    0    0  0.18649298760E+02  0.19841174715E+02 -0.62430462431E+01  0.27936431138E+02  0.00000000000E+00 0. -1.
</event>
<event>
 5    1  0.6924836E-004  0.9118800E+02  0.7818608E-02  0.1130116E+00
         25   -1    0    0    0    0  0.00000000000E+00  0.00000000000E+00  0.99999998245E-14  0.12500000000E+03  0.12500000000E+03 0.  0.
        -13    1    3    3    0    0  0.25120304012E+02  0.29168569687E+02  0.43130990685E+02  0.57811146441E+02  0.10566000000E+00 0.  1.
         23    2    1    0    0    0 -0.20592183261E+01  0.75166881887E+01  0.28392598870E+02  0.95557162976E+02  0.90908144541E+02 0.  0.
         13    1    3    3    0    0 -0.27179522338E+02 -0.21651881498E+02 -0.14738391815E+02  0.37746016535E+02  0.10566000000E+00 0. -1.
         22    1    1    0    0    0  0.20592183261E+01 -0.75166881887E+01 -0.28392598870E+02  0.29442837024E+02  0.00000000000E+00 0.  1.
</event>
<event>
 5    1  0.6924836E-004  0.9118800E+02  0.7818608E-02  0.1130116E+00
         25   -1    0    0    0    0  0.00000000000E+00  0.00000000000E+00  0.99999998245E-14  0.12500000000E+03  0.12500000000E+03 0.  0.
        -13    1    3    3    0    0 -0.12735491159E+02  0.23187981697E+02  0.29454947001E+02  0.39591416963E+02  0.10566000000E+00 0.  1.
         23    2    1    0    0    0 -0.13734359033E+02  0.71413103864E+01 -0.24571125123E+02  0.95959147363E+02  0.91459208616E+02 0.  0.
         13    1    3    3    0    0 -0.99886787373E+00 -0.16046671311E+02 -0.54026072125E+02  0.56367730400E+02  0.10566000000E+00 0. -1.
         22    1    1    0    0    0  0.13734359033E+02 -0.71413103864E+01  0.24571125123E+02  0.29040852637E+02  0.00000000000E+00 0. -1.
</event>
<event>
 5    1  0.6924836E-004  0.9118800E+02  0.7818608E-02  0.1130116E+00
         25   -1    0    0    0    0  0.00000000000E+00  0.00000000000E+00  0.99999998245E-14  0.12500000000E+03  0.12500000000E+03 0.  0.
        -13    1    3    3    0    0  0.13725066180E+02 -0.59950705159E+02 -0.30187350640E+00  0.61502575413E+02  0.10566000000E+00 0. -1.
         23    2    1    0    0    0  0.48530474416E+01 -0.25527967699E+02 -0.78741866923E+01  0.97847983125E+02  0.94005296560E+02 0.  0.
         13    1    3    3    0    0 -0.88720187388E+01  0.34422737461E+02 -0.75723131859E+01  0.36345407713E+02  0.10566000000E+00 0.  1.
         22    1    1    0    0    0 -0.48530474416E+01  0.25527967699E+02  0.78741866923E+01  0.27152016875E+02  0.00000000000E+00 0. -1.
</event>
<event>
 5    1  0.6924836E-004  0.9118800E+02  0.7818608E-02  0.1130116E+00
         25   -1    0    0    0    0  0.00000000000E+00  0.00000000000E+00  0.99999998245E-14  0.12500000000E+03  0.12500000000E+03 0.  0.
        -13    1    3    3    0    0  0.18476752309E+02  0.41747693858E+02  0.75575602681E+01  0.46275135867E+02  0.10566000000E+00 0.  1.
         23    2    1    0    0    0  0.76734704792E+01  0.16091239447E+02  0.35223051396E+02  0.85522493927E+02  0.75865825519E+02 0.  0.
         13    1    3    3    0    0 -0.10803281830E+02 -0.25656454411E+02  0.27665491128E+02  0.39247358059E+02  0.10566000000E+00 0. -1.
         22    1    1    0    0    0 -0.76734704792E+01 -0.16091239447E+02 -0.35223051396E+02  0.39477506073E+02  0.00000000000E+00 0. -1.
</event>
<event>
 5    1  0.6924836E-004  0.9118800E+02  0.7818608E-02  0.1130116E+00
         25   -1    0    0    0    0  0.00000000000E+00  0.00000000000E+00  0.99999998245E-14  0.12500000000E+03  0.12500000000E+03 0.  0.
        -13    1    3    3    0    0 -0.24969716706E+02  0.33091734326E+01  0.32167378864E+02  0.40855707168E+02  0.10566000000E+00 0.  1.
         23    2    1    0    0    0  0.19303411165E+02  0.21056561731E+02  0.42587292832E+01  0.96118565658E+02  0.91676831394E+02 0.  0.
         13    1    3    3    0    0  0.44273127871E+02  0.17747388299E+02 -0.27908649581E+02  0.55262858489E+02  0.10566000000E+00 0. -1.
         22    1    1    0    0    0 -0.19303411165E+02 -0.21056561731E+02 -0.42587292832E+01  0.28881434342E+02  0.00000000000E+00 0.  1.
</event>
<event>
 5    1  0.6924836E-004  0.9118800E+02  0.7818608E-02  0.1130116E+00
         25   -1    0    0    0    0  0.00000000000E+00  0.00000000000E+00  0.99999998245E-14  0.12500000000E+03  0.12500000000E+03 0.  0.
        -13    1    3    3    0    0 -0.28653270811E+02 -0.14573303321E+02  0.20246068723E+02  0.37990861541E+02  0.10566000000E+00 0.  1.
         23    2    1    0    0    0 -0.98920400072E+01  0.65577159005E+01 -0.28383819916E+02  0.94234803327E+02  0.89071324407E+02 0.  0.
         13    1    3    3    0    0  0.18761230804E+02  0.21131019221E+02 -0.48629888638E+02  0.56243941786E+02  0.10566000000E+00 0. -1.
         22    1    1    0    0    0  0.98920400072E+01 -0.65577159005E+01  0.28383819916E+02  0.30765196673E+02  0.00000000000E+00 0. -1.
</event>
<event>
 5    1  0.6924836E-004  0.9118800E+02  0.7818608E-02  0.1130116E+00
         25   -1    0    0    0    0  0.00000000000E+00  0.00000000000E+00  0.99999998245E-14  0.12500000000E+03  0.12500000000E+03 0.  0.
        -13    1    3    3    0    0  0.20859718357E+02  0.48013544739E+02 -0.21107697059E+02  0.56444436107E+02  0.10566000000E+00 0. -1.
         23    2    1    0    0    0 -0.43962113210E+01  0.27440549599E+02  0.31110603945E+01  0.97035931393E+02  0.92919227548E+02 0.  0.
         13    1    3    3    0    0 -0.25255929678E+02 -0.20572995139E+02  0.24218757453E+02  0.40591495285E+02  0.10566000000E+00 0.  1.
         22    1    1    0    0    0  0.43962113210E+01 -0.27440549599E+02 -0.31110603945E+01  0.27964068607E+02  0.00000000000E+00 0. -1.
</event>
<event>
 5    1  0.6924836E-004  0.9118800E+02  0.7818608E-02  0.1130116E+00
         25   -1    0    0    0    0  0.00000000000E+00  0.00000000000E+00  0.99999998245E-14  0.12500000000E+03  0.12500000000E+03 0.  0.
        -13    1    3    3    0    0  0.16113302611E+02 -0.55257355974E+02  0.25151387683E+01  0.57613809085E+02  0.10566000000E+00 0.  1.
         23    2    1    0    0    0 -0.64525607353E+01 -0.38962831789E+02  0.20899530294E+01  0.85451223727E+02  0.75748306461E+02 0.  0.
         13    1    3    3    0    0 -0.22565863346E+02  0.16294524185E+02 -0.42518573894E+00  0.27837414641E+02  0.10566000000E+00 0. -1.
         22    1    1    0    0    0  0.64525607353E+01  0.38962831789E+02 -0.20899530294E+01  0.39548776273E+02  0.00000000000E+00 0.  1.
</event>
<event>
 5    1  0.6924836E-004  0.9118800E+02  0.7818608E-02  0.1130116E+00
         25   -1    0    0    0    0  0.00000000000E+00  0.00000000000E+00  0.99999998245E-14  0.12500000000E+03  0.12500000000E+03 0.  0.
        -13    1    3    3    0    0  0.16156362194E+02  0.34730540869E+02  0.11444943599E+02  0.39977949002E+02  0.10566000000E+00 0.  1.
         23    2    1    0    0    0 -0.17869589261E+02 -0.10544951325E+02  0.18688647004E+02  0.97075391755E+02  0.92972296619E+02 0.  0.
         13    1    3    3    0    0 -0.34025951456E+02 -0.45275492194E+02  0.72437034050E+01  0.57097442753E+02  0.10566000000E+00 0. -1.
         22    1    1    0    0    0  0.17869589261E+02  0.10544951325E+02 -0.18688647004E+02  0.27924608245E+02  0.00000000000E+00 0. -1.
</event>
<event>
 5    1  0.6924836E-004  0.9118800E+02  0.7818608E-02  0.1130116E+00
         25   -1    0    0    0    0  0.00000000000E+00  0.00000000000E+00  0.99999998245E-14  0.12500000000E+03  0.12500000000E+03 0.  0.
        -13    1    3    3    0    0  0.27486804871E+02  0.15296785371E+02 -0.20911156349E+02  0.37773055325E+02  0.10566000000E+00 0. -1.
         23    2    1    0    0    0 -0.18972324348E+02  0.23273397684E+01  0.17229789909E+02  0.99266145608E+02  0.95872500760E+02 0.  0.
         13    1    3    3    0    0 -0.46459129219E+02 -0.12969445602E+02  0.38140946258E+02  0.61493090283E+02  0.10566000000E+00 0.  1.
         22    1    1    0    0    0  0.18972324348E+02 -0.23273397684E+01 -0.17229789909E+02  0.25733854392E+02  0.00000000000E+00 0.  1.
</event>
<event>
 5    1  0.6924836E-004  0.9118800E+02  0.7818608E-02  0.1130116E+00
         25   -1    0    0    0    0  0.00000000000E+00  0.00000000000E+00  0.99999998245E-14  0.12500000000E+03  0.12500000000E+03 0.  0.
        -13    1    3    3    0    0 -0.47595305590E+02  0.10242202093E+02 -0.27236023125E+02  0.55785553126E+02  0.10566000000E+00 0. -1.
         23    2    1    0    0    0 -0.29589274481E+02  0.33567696473E+01  0.63875744445E+01  0.94543569250E+02  0.89503588266E+02 0.  0.
         13    1    3    3    0    0  0.18006031110E+02 -0.68854324455E+01  0.33623597569E+02  0.38758016123E+02  0.10566000000E+00 0.  1.
         22    1    1    0    0    0  0.29589274481E+02 -0.33567696473E+01 -0.63875744445E+01  0.30456430750E+02  0.00000000000E+00 0. -1.
</event>
<event>
 5    1  0.6924836E-004  0.9118800E+02  0.7818608E-02  0.1130116E+00
         25   -1    0    0    0    0  0.00000000000E+00  0.00000000000E+00  0.99999998245E-14  0.12500000000E+03  0.12500000000E+03 0.  0.
        -13    1    3    3    0    0 -0.42590468843E+01  0.33384316058E+02  0.18147530607E+02  0.38236057200E+02  0.10566000000E+00 0. -1.
         23    2    1    0    0    0  0.47848195576E+01 -0.25123224597E+02  0.70693257065E+01  0.98466129602E+02  0.94823691135E+02 0.  0.
         13    1    3    3    0    0  0.90438664419E+01 -0.58507540655E+02 -0.11078204901E+02  0.60230072402E+02  0.10566000000E+00 0.  1.
         22    1    1    0    0    0 -0.47848195576E+01  0.25123224597E+02 -0.70693257065E+01  0.26533870398E+02  0.00000000000E+00 0.  1.
</event>
<event>
 5    1  0.6924836E-004  0.9118800E+02  0.7818608E-02  0.1130116E+00
         25   -1    0    0    0    0  0.00000000000E+00  0.00000000000E+00  0.99999998245E-14  0.12500000000E+03  0.12500000000E+03 0.  0.
        -13    1    3    3    0    0 -0.53107495912E+02  0.63112395377E+01 -0.58130215825E+01  0.53796284727E+02  0.10566000000E+00 0.  1.
         23    2    1    0    0    0 -0.23421032224E+02  0.16992553530E+02 -0.21423151588E+02  0.88996624466E+02  0.81388918880E+02 0.  0.
         13    1    3    3    0    0  0.29686463688E+02  0.10681313992E+02 -0.15610130005E+02  0.35200339739E+02  0.10566000000E+00 0. -1.
         22    1    1    0    0    0  0.23421032224E+02 -0.16992553530E+02  0.21423151588E+02  0.36003375534E+02  0.00000000000E+00 0.  1.
</event>
<event>
 5    1  0.6924836E-004  0.9118800E+02  0.7818608E-02  0.1130116E+00
         25   -1    0    0    0    0  0.00000000000E+00  0.00000000000E+00  0.99999998245E-14  0.12500000000E+03  0.12500000000E+03 0.  0.
        -13    1    3    3    0    0 -0.14489838807E+02  0.23069759516E+02 -0.30703632810E+02  0.41047453813E+02  0.10566000000E+00 0.  1.
         23    2    1    0    0    0 -0.15980853953E+02 -0.24060274574E+02 -0.24628941917E+01  0.96011202967E+02  0.91530326897E+02 0.  0.
         13    1    3    3    0    0 -0.14910151456E+01 -0.47130034089E+02  0.28240738618E+02  0.54963749155E+02  0.10566000000E+00 0. -1.
         22    1    1    0    0    0  0.15980853953E+02  0.24060274574E+02  0.24628941917E+01  0.28988797033E+02  0.00000000000E+00 0. -1.
</event>
<event>
 5    1  0.6924836E-004  0.9118800E+02  0.7818608E-02  0.1130116E+00
         25   -1    0    0    0    0  0.00000000000E+00  0.00000000000E+00  0.99999998245E-14  0.12500000000E+03  0.12500000000E+03 0.  0.
        -13    1    3    3    0    0 -0.27389230608E+02  0.13806928545E+02  0.34517258494E+02  0.46176330811E+02  0.10566000000E+00 0. -1.
         23    2    1    0    0    0  0.19825769269E+02  0.53327456240E+01  0.20106570753E+02  0.96263725181E+02  0.91874541062E+02 0.  0.
         13    1    3    3    0    0  0.47214999877E+02 -0.84741829209E+01 -0.14410687741E+02  0.50087394370E+02  0.10566000000E+00 0.  1.
         22    1    1    0    0    0 -0.19825769269E+02 -0.53327456240E+01 -0.20106570753E+02  0.28736274819E+02  0.00000000000E+00 0. -1.
</event>
<event>
 5    1  0.6924836E-004  0.9118800E+02  0.7818608E-02  0.1130116E+00
         25   -1    0    0    0    0  0.00000000000E+00  0.00000000000E+00  0.99999998245E-14  0.12500000000E+03  0.12500000000E+03 0.  0.
        -13    1    3    3    0    0 -0.32570188446E+02  0.15684544700E+02  0.12500411115E+02  0.38250406010E+02  0.10566000000E+00 0. -1.
         23    2    1    0    0    0  0.25586237911E+02  0.90632936047E+01  0.14451504627E+01  0.97817518118E+02  0.93964778132E+02 0.  0.
         13    1    3    3    0    0  0.58156426357E+02 -0.66212510954E+01 -0.11055260653E+02  0.59567112108E+02  0.10566000000E+00 0.  1.
         22    1    1    0    0    0 -0.25586237911E+02 -0.90632936047E+01 -0.14451504627E+01  0.27182481882E+02  0.00000000000E+00 0.  1.
</event>
<event>
 5    1  0.6924836E-004  0.9118800E+02  0.7818608E-02  0.1130116E+00
         25   -1    0    0    0    0  0.00000000000E+00  0.00000000000E+00  0.99999998245E-14  0.12500000000E+03  0.12500000000E+03 0.  0.
        -13    1    3    3    0    0 -0.56602128099E+02  0.37601727234E+01  0.19467950102E+02  0.59974595034E+02  0.10566000000E+00 0. -1.
         23    2    1    0    0    0 -0.22055949007E+02 -0.86846010079E+01  0.53034004694E+00  0.10128990844E+03  0.98475769150E+02 0.  0.
         13    1    3    3    0    0  0.34546179092E+02 -0.12444773731E+02 -0.18937610055E+02  0.41315313405E+02  0.10566000000E+00 0.  1.
         22    1    1    0    0    0  0.22055949007E+02  0.86846010079E+01 -0.53034004694E+00  0.23710091561E+02  0.00000000000E+00 0. -1.
</event>
<event>
 5    1  0.6924836E-004  0.9118800E+02  0.7818608E-02  0.1130116E+00
         25   -1    0    0    0    0  0.00000000000E+00  0.00000000000E+00  0.99999998245E-14  0.12500000000E+03  0.12500000000E+03 0.  0.
        -13    1    3    3    0    0  0.44804502012E+02 -0.12115383702E+02 -0.13401405958E+01  0.46433103102E+02  0.10566000000E+00 0.  1.
         23    2    1    0    0    0 -0.16057471814E+01 -0.28683060702E+02 -0.49690754255E+01  0.95845444510E+02  0.91303675323E+02 0.  0.
         13    1    3    3    0    0 -0.46410249194E+02 -0.16567677000E+02 -0.36289348297E+01  0.49412341408E+02  0.10566000000E+00 0. -1.
         22    1    1    0    0    0  0.16057471814E+01  0.28683060702E+02  0.49690754255E+01  0.29154555490E+02  0.00000000000E+00 0. -1.
</event>
<event>
 5    1  0.6924836E-004  0.9118800E+02  0.7818608E-02  0.1130116E+00
         25   -1    0    0    0    0  0.00000000000E+00  0.00000000000E+00  0.99999998245E-14  0.12500000000E+03  0.12500000000E+03 0.  0.
        -13    1    3    3    0    0  0.19194107185E+02  0.21534851068E+01  0.44385282606E+02  0.48405740618E+02  0.10566000000E+00 0.  1.
         23    2    1    0    0    0 -0.73607324947E+01 -0.23934749638E+02  0.15217176548E+02  0.95697865519E+02  0.91101407122E+02 0.  0.
         13    1    3    3    0    0 -0.26554839679E+02 -0.26088234745E+02 -0.29168106059E+02  0.47292124900E+02  0.10566000000E+00 0. -1.
         22    1    1    0    0    0  0.73607324947E+01  0.23934749638E+02 -0.15217176548E+02  0.29302134481E+02  0.00000000000E+00 0.  1.
</event>
<event>
 5    1  0.6924836E-004  0.9118800E+02  0.7818608E-02  0.1130116E+00
         25   -1    0    0    0    0  0.00000000000E+00  0.00000000000E+00  0.99999998245E-14  0.12500000000E+03  0.12500000000E+03 0.  0.
        -13    1    3    3    0    0 -0.20403094099E+02  0.13159625115E+02  0.26417907484E+02  0.35880063849E+02  0.10566000000E+00 0.  1.
         23    2    1    0    0    0  0.92150080045E+01 -0.26917845951E+02 -0.67702364165E+01  0.95754095940E+02  0.91178528092E+02 0.  0.
         13    1    3    3    0    0  0.29618102103E+02 -0.40077471065E+02 -0.33188143900E+02  0.59874032091E+02  0.10566000000E+00 0. -1.
         22    1    1    0    0    0 -0.92150080045E+01  0.26917845951E+02  0.67702364165E+01  0.29245904060E+02  0.00000000000E+00 0. -1.
</event>
<event>
 5    1  0.6924836E-004  0.9118800E+02  0.7818608E-02  0.1130116E+00
         25   -1    0    0    0    0  0.00000000000E+00  0.00000000000E+00  0.99999998245E-14  0.12500000000E+03  0.12500000000E+03 0.  0.
        -13    1    3    3    0    0 -0.13007706319E+02  0.54732847526E+01 -0.35707479775E+02  0.38395215139E+02  0.10566000000E+00 0.  1.
         23    2    1    0    0    0 -0.95615220885E+01 -0.23648495808E+02  0.13846308140E+02  0.95975970167E+02  0.91482197950E+02 0.  0.
         13    1    3    3    0    0  0.34461842303E+01 -0.29121780560E+02  0.49553787916E+02  0.57580755028E+02  0.10566000000E+00 0. -1.
         22    1    1    0    0    0  0.95615220885E+01  0.23648495808E+02 -0.13846308140E+02  0.29024029833E+02  0.00000000000E+00 0. -1.
</event>
<event>
 5    1  0.6924836E-004  0.9118800E+02  0.7818608E-02  0.1130116E+00
         25   -1    0    0    0    0  0.00000000000E+00  0.00000000000E+00  0.99999998245E-14  0.12500000000E+03  0.12500000000E+03 0.  0.
        -13    1    3    3    0    0 -0.32084243668E+02 -0.13599964206E+02 -0.16019149202E+02  0.38353383467E+02  0.10566000000E+00 0. -1.
         23    2    1    0    0    0  0.21886216783E+00  0.23622933847E+02  0.15398227649E+02  0.96800774498E+02  0.92602341355E+02 0.  0.
         13    1    3    3    0    0  0.32303105836E+02  0.37222898053E+02  0.31417376851E+02  0.58447391031E+02  0.10566000000E+00 0.  1.
         22    1    1    0    0    0 -0.21886216783E+00 -0.23622933847E+02 -0.15398227649E+02  0.28199225502E+02  0.00000000000E+00 0.  1.
</event>
<event>
 5    1  0.6924836E-004  0.9118800E+02  0.7818608E-02  0.1130116E+00
         25   -1    0    0    0    0  0.00000000000E+00  0.00000000000E+00  0.99999998245E-14  0.12500000000E+03  0.12500000000E+03 0.  0.
        -13    1    3    3    0    0 -0.66838748152E+01 -0.81940898519E+01 -0.42613658143E+02  0.43906176279E+02  0.10566000000E+00 0. -1.
         23    2    1    0    0    0  0.26875424844E+02  0.10457406078E+02 -0.94131547850E+01  0.94664323224E+02  0.89672073725E+02 0.  0.
         13    1    3    3    0    0  0.33559299659E+02  0.18651495930E+02  0.33200503358E+02  0.50758146945E+02  0.10566000000E+00 0.  1.
         22    1    1    0    0    0 -0.26875424844E+02 -0.10457406078E+02  0.94131547850E+01  0.30335676776E+02  0.00000000000E+00 0.  1.
</event>
<event>
 5    1  0.6924836E-004  0.9118800E+02  0.7818608E-02  0.1130116E+00
         25   -1    0    0    0    0  0.00000000000E+00  0.00000000000E+00  0.99999998245E-14  0.12500000000E+03  0.12500000000E+03 0.  0.
        -13    1    3    3    0    0 -0.20335047874E+02 -0.24617813613E+02 -0.13686815157E+02  0.34740336675E+02  0.10566000000E+00 0.  1.
         23    2    1    0    0    0 -0.97841595047E+01  0.17849580234E+02  0.24730296981E+02  0.92969937863E+02  0.87278201550E+02 0.  0.
         13    1    3    3    0    0  0.10550888369E+02  0.42467393846E+02  0.38417112138E+02  0.58229601188E+02  0.10566000000E+00 0. -1.
         22    1    1    0    0    0  0.97841595047E+01 -0.17849580234E+02 -0.24730296981E+02  0.32030062137E+02  0.00000000000E+00 0. -1.
</event>
<event>
 5    1  0.6924836E-004  0.9118800E+02  0.7818608E-02  0.1130116E+00
         25   -1    0    0    0    0  0.00000000000E+00  0.00000000000E+00  0.99999998245E-14  0.12500000000E+03  0.12500000000E+03 0.  0.
        -13    1    3    3    0    0 -0.62725603859E+01 -0.42155845529E+02 -0.38086405253E+02  0.57158076902E+02  0.10566000000E+00 0.  1.
         23    2    1    0    0    0 -0.13716587167E+02 -0.61853917268E+01 -0.24351734015E+02  0.96374647882E+02  0.92025333309E+02 0.  0.
         13    1    3    3    0    0 -0.74440267809E+01  0.35970453802E+02  0.13734671238E+02  0.39216570980E+02  0.10566000000E+00 0. -1.
         22    1    1    0    0    0  0.13716587167E+02  0.61853917268E+01  0.24351734015E+02  0.28625352118E+02  0.00000000000E+00 0.  1.
</event>
<event>
 5    1  0.6924836E-004  0.9118800E+02  0.7818608E-02  0.1130116E+00
         25   -1    0    0    0    0  0.00000000000E+00  0.00000000000E+00  0.99999998245E-14  0.12500000000E+03  0.12500000000E+03 0.  0.
        -13    1    3    3    0    0  0.11675196345E+02 -0.17078379237E+02 -0.38905013483E+02  0.44063505140E+02  0.10566000000E+00 0. -1.
         23    2    1    0    0    0  0.35151276682E+01  0.26384299510E+02 -0.12237210347E+02  0.95704322841E+02  0.91110266766E+02 0.  0.
         13    1    3    3    0    0 -0.81600686771E+01  0.43462678746E+02  0.26667803137E+02  0.51640817701E+02  0.10566000000E+00 0.  1.
         22    1    1    0    0    0 -0.35151276682E+01 -0.26384299510E+02  0.12237210347E+02  0.29295677159E+02  0.00000000000E+00 0.  1.
</event>
<event>
 5    1  0.6924836E-004  0.9118800E+02  0.7818608E-02  0.1130116E+00
         25   -1    0    0    0    0  0.00000000000E+00  0.00000000000E+00  0.99999998245E-14  0.12500000000E+03  0.12500000000E+03 0.  0.
        -13    1    3    3    0    0  0.11198936921E+02  0.46271751879E+02  0.25802929085E+02  0.54150655800E+02  0.10566000000E+00 0.  1.
         23    2    1    0    0    0  0.41390260849E+01  0.29168917869E+02 -0.95305554613E+01  0.94035685152E+02  0.88791448282E+02 0.  0.
         13    1    3    3    0    0 -0.70599108357E+01 -0.17102834010E+02 -0.35333484547E+02  0.39885029352E+02  0.10566000000E+00 0. -1.
         22    1    1    0    0    0 -0.41390260849E+01 -0.29168917869E+02  0.95305554613E+01  0.30964314848E+02  0.00000000000E+00 0.  1.
</event>
<event>
 4    1  0.6924836E-004  0.9118800E+02  0.7818608E-02  0.1130116E+00
         25   -1    0    0    0    0  0.00000000000E+00  0.00000000000E+00  0.99999998245E-14  0.12500000000E+03  0.12500000000E+03 0.  0.
        -13    1    1    0    0    0 -0.26007811947E+02  0.38659132204E+01 -0.13756622738E+02  0.29675029916E+02  0.10566000000E+00 0. -1.
         13    1    1    0    0    0 -0.12947056414E+02  0.23066202081E+02  0.34624924131E+02  0.43572611619E+02  0.10566000000E+00 0.  1.
         22    1    1    0    0    0  0.38954868361E+02 -0.26932115301E+02 -0.20868301393E+02  0.51752358464E+02  0.00000000000E+00 0.  1.
</event>
<event>
 5    1  0.6924836E-004  0.9118800E+02  0.7818608E-02  0.1130116E+00
         25   -1    0    0    0    0  0.00000000000E+00  0.00000000000E+00  0.99999998245E-14  0.12500000000E+03  0.12500000000E+03 0.  0.
        -13    1    3    3    0    0  0.30110211507E+02 -0.16484852701E+02  0.44255170982E+02  0.56008093417E+02  0.10566000000E+00 0. -1.
         23    2    1    0    0    0  0.22878801051E+02  0.95285712516E+01  0.14093544586E+02  0.96489279093E+02  0.92180907857E+02 0.  0.
         13    1    3    3    0    0 -0.72314104565E+01  0.26013423952E+02 -0.30161626395E+02  0.40481185676E+02  0.10566000000E+00 0.  1.
         22    1    1    0    0    0 -0.22878801051E+02 -0.95285712516E+01 -0.14093544586E+02  0.28510720907E+02  0.00000000000E+00 0. -1.
</event>
<event>
 5    1  0.6924836E-004  0.9118800E+02  0.7818608E-02  0.1130116E+00
         25   -1    0    0    0    0  0.00000000000E+00  0.00000000000E+00  0.99999998245E-14  0.12500000000E+03  0.12500000000E+03 0.  0.
        -13    1    3    3    0    0 -0.15424881823E+02 -0.22307606394E+02 -0.23240081201E+02  0.35716506276E+02  0.10566000000E+00 0. -1.
         23    2    1    0    0    0  0.22566594791E+01  0.30565416674E+01  0.28638807694E+02  0.96110274056E+02  0.91665525221E+02 0.  0.
         13    1    3    3    0    0  0.17681541302E+02  0.25364148062E+02  0.51878888895E+02  0.60393767780E+02  0.10566000000E+00 0.  1.
         22    1    1    0    0    0 -0.22566594791E+01 -0.30565416674E+01 -0.28638807694E+02  0.28889725944E+02  0.00000000000E+00 0.  1.
</event>
<event>
 5    1  0.6924836E-004  0.9118800E+02  0.7818608E-02  0.1130116E+00
         25   -1    0    0    0    0  0.00000000000E+00  0.00000000000E+00  0.99999998245E-14  0.12500000000E+03  0.12500000000E+03 0.  0.
        -13    1    3    3    0    0  0.58931128034E+02  0.48861081257E+00 -0.17304046207E+02  0.61421150844E+02  0.10566000000E+00 0. -1.
         23    2    1    0    0    0  0.28734431949E+02 -0.37483169730E+01 -0.98649166884E+00  0.96005334536E+02  0.91522312220E+02 0.  0.
         13    1    3    3    0    0 -0.30196696085E+02 -0.42369277855E+01  0.16317554538E+02  0.34584183692E+02  0.10566000000E+00 0.  1.
         22    1    1    0    0    0 -0.28734431949E+02  0.37483169730E+01  0.98649166884E+00  0.28994665464E+02  0.00000000000E+00 0. -1.
</event>
<event>
 5    1  0.6924836E-004  0.9118800E+02  0.7818608E-02  0.1130116E+00
         25   -1    0    0    0    0  0.00000000000E+00  0.00000000000E+00  0.99999998245E-14  0.12500000000E+03  0.12500000000E+03 0.  0.
        -13    1    3    3    0    0  0.11637988971E+02 -0.27056051976E+02 -0.48498695185E+02  0.56741583821E+02  0.10566000000E+00 0. -1.
         23    2    1    0    0    0  0.18790525047E+02 -0.21601031032E+02 -0.12653736629E+02  0.93698156223E+02  0.88314999042E+02 0.  0.
         13    1    3    3    0    0  0.71525360759E+01  0.54550209440E+01  0.35844958556E+02  0.36956572402E+02  0.10566000000E+00 0.  1.
         22    1    1    0    0    0 -0.18790525047E+02  0.21601031032E+02  0.12653736629E+02  0.31301843777E+02  0.00000000000E+00 0. -1.
</event>
<event>
 5    1  0.6924836E-004  0.9118800E+02  0.7818608E-02  0.1130116E+00
         25   -1    0    0    0    0  0.00000000000E+00  0.00000000000E+00  0.99999998245E-14  0.12500000000E+03  0.12500000000E+03 0.  0.
        -13    1    3    3    0    0 -0.20026117623E+02  0.34949905831E+02  0.33472961738E+02  0.52373577653E+02  0.10566000000E+00 0. -1.
         23    2    1    0    0    0 -0.13931927322E+02 -0.63677996218E+01  0.26031099139E+02  0.94796265242E+02  0.89855808441E+02 0.  0.
         13    1    3    3    0    0  0.60941903015E+01 -0.41317705452E+02 -0.74418625988E+01  0.42422687589E+02  0.10566000000E+00 0.  1.
         22    1    1    0    0    0  0.13931927322E+02  0.63677996218E+01 -0.26031099139E+02  0.30203734758E+02  0.00000000000E+00 0. -1.
</event>
<event>
 5    1  0.6924836E-004  0.9118800E+02  0.7818608E-02  0.1130116E+00
         25   -1    0    0    0    0  0.00000000000E+00  0.00000000000E+00  0.99999998245E-14  0.12500000000E+03  0.12500000000E+03 0.  0.
        -13    1    3    3    0    0 -0.14351924931E+02 -0.15397011545E+02 -0.50733511774E+02  0.54926733879E+02  0.10566000000E+00 0.  1.
         23    2    1    0    0    0  0.56819701533E+01  0.10733469533E+02 -0.26625161084E+02  0.95735834955E+02  0.91153489998E+02 0.  0.
         13    1    3    3    0    0  0.20033895084E+02  0.26130481078E+02  0.24108350690E+02  0.40809101076E+02  0.10566000000E+00 0. -1.
         22    1    1    0    0    0 -0.56819701533E+01 -0.10733469533E+02  0.26625161084E+02  0.29264165045E+02  0.00000000000E+00 0.  1.
</event>
<event>
 5    1  0.6924836E-004  0.9118800E+02  0.7818608E-02  0.1130116E+00
         25   -1    0    0    0    0  0.00000000000E+00  0.00000000000E+00  0.99999998245E-14  0.12500000000E+03  0.12500000000E+03 0.  0.
        -13    1    3    3    0    0  0.42120293866E+01  0.31329358920E+02  0.19516661498E+01  0.31671597476E+02  0.10566000000E+00 0.  1.
         23    2    1    0    0    0  0.44843890548E+01 -0.27515783195E+02 -0.15566551427E+02  0.93069675960E+02  0.87420929930E+02 0.  0.
         13    1    3    3    0    0  0.27235966817E+00 -0.58845142115E+02 -0.17518217576E+02  0.61398078483E+02  0.10566000000E+00 0. -1.
         22    1    1    0    0    0 -0.44843890548E+01  0.27515783195E+02  0.15566551427E+02  0.31930324040E+02  0.00000000000E+00 0. -1.
</event>
<event>
 5    1  0.6924836E-004  0.9118800E+02  0.7818608E-02  0.1130116E+00
         25   -1    0    0    0    0  0.00000000000E+00  0.00000000000E+00  0.99999998245E-14  0.12500000000E+03  0.12500000000E+03 0.  0.
        -13    1    3    3    0    0 -0.41853118882E+02  0.13690596083E+02  0.15944093225E+01  0.44064376614E+02  0.10566000000E+00 0.  1.
         23    2    1    0    0    0 -0.78470271219E+01 -0.17349792097E+02  0.23251598077E+02  0.94946249260E+02  0.90064212176E+02 0.  0.
         13    1    3    3    0    0  0.34006091760E+02 -0.31040388179E+02  0.21657188754E+02  0.50881872645E+02  0.10566000000E+00 0. -1.
         22    1    1    0    0    0  0.78470271219E+01  0.17349792097E+02 -0.23251598077E+02  0.30053750740E+02  0.00000000000E+00 0. -1.
</event>
<event>
 5    1  0.6924836E-004  0.9118800E+02  0.7818608E-02  0.1130116E+00
         25   -1    0    0    0    0  0.00000000000E+00  0.00000000000E+00  0.99999998245E-14  0.12500000000E+03  0.12500000000E+03 0.  0.
        -13    1    3    3    0    0  0.56338357477E+02  0.14844224857E+02  0.10396725078E+02  0.59181623763E+02  0.10566000000E+00 0.  1.
         23    2    1    0    0    0  0.27792745262E+02  0.19582633326E+01 -0.86359012372E+01  0.95830662080E+02  0.91283435080E+02 0.  0.
         13    1    3    3    0    0 -0.28545612215E+02 -0.12885961524E+02 -0.19032626315E+02  0.36649038317E+02  0.10566000000E+00 0. -1.
         22    1    1    0    0    0 -0.27792745262E+02 -0.19582633326E+01  0.86359012372E+01  0.29169337920E+02  0.00000000000E+00 0.  1.
</event>
<event>
 5    1  0.6924836E-004  0.9118800E+02  0.7818608E-02  0.1130116E+00
         25   -1    0    0    0    0  0.00000000000E+00  0.00000000000E+00  0.99999998245E-14  0.12500000000E+03  0.12500000000E+03 0.  0.
        -13    1    3    3    0    0  0.39168787159E+02  0.23045871160E+02 -0.40192016453E+02  0.60668899905E+02  0.10566000000E+00 0. -1.
         23    2    1    0    0    0  0.11276736329E+02  0.18868403815E+02 -0.18969533505E+02  0.95965113292E+02  0.91467362064E+02 0.  0.
         13    1    3    3    0    0 -0.27892050831E+02 -0.41774673441E+01  0.21222482948E+02  0.35296213387E+02  0.10566000000E+00 0.  1.
         22    1    1    0    0    0 -0.11276736329E+02 -0.18868403815E+02  0.18969533505E+02  0.29034886708E+02  0.00000000000E+00 0. -1.
</event>
<event>
 5    1  0.6924836E-004  0.9118800E+02  0.7818608E-02  0.1130116E+00
         25   -1    0    0    0    0  0.00000000000E+00  0.00000000000E+00  0.99999998245E-14  0.12500000000E+03  0.12500000000E+03 0.  0.
        -13    1    3    3    0    0  0.18664174472E+02  0.45012635890E+02  0.24650538473E+02  0.54609056112E+02  0.10566000000E+00 0.  1.
         23    2    1    0    0    0  0.20826706596E+02  0.22715363341E+00  0.10806797871E+02  0.10153534175E+03  0.98786818140E+02 0.  0.
         13    1    3    3    0    0  0.21625321242E+01 -0.44785482256E+02 -0.13843740601E+02  0.46926285640E+02  0.10566000000E+00 0. -1.
         22    1    1    0    0    0 -0.20826706596E+02 -0.22715363341E+00 -0.10806797871E+02  0.23464658247E+02  0.00000000000E+00 0.  1.
</event>
<event>
 5    1  0.6924836E-004  0.9118800E+02  0.7818608E-02  0.1130116E+00
         25   -1    0    0    0    0  0.00000000000E+00  0.00000000000E+00  0.99999998245E-14  0.12500000000E+03  0.12500000000E+03 0.  0.
        -13    1    3    3    0    0 -0.19119443597E+02  0.62259088644E+01 -0.49304481696E+02  0.53247142120E+02  0.10566000000E+00 0.  1.
         23    2    1    0    0    0 -0.26871438482E+02  0.72283745265E+01 -0.69479051621E+01  0.96319048298E+02  0.91949780176E+02 0.  0.
         13    1    3    3    0    0 -0.77519948849E+01  0.10024656621E+01  0.42356576533E+02  0.43071906178E+02  0.10566000000E+00 0. -1.
         22    1    1    0    0    0  0.26871438482E+02 -0.72283745265E+01  0.69479051621E+01  0.28680951702E+02  0.00000000000E+00 0.  1.
</event>
<event>
 5    1  0.6924836E-004  0.9118800E+02  0.7818608E-02  0.1130116E+00
         25   -1    0    0    0    0  0.00000000000E+00  0.00000000000E+00  0.99999998245E-14  0.12500000000E+03  0.12500000000E+03 0.  0.
        -13    1    3    3    0    0 -0.14686710814E+01 -0.45988926003E+02 -0.36946834494E+02  0.59010321579E+02  0.10566000000E+00 0.  1.
         23    2    1    0    0    0 -0.11667546655E+02 -0.11657156152E+02 -0.21215462571E+02  0.98127769229E+02  0.94376598303E+02 0.  0.
         13    1    3    3    0    0 -0.10198875574E+02  0.34331769851E+02  0.15731371923E+02  0.39117447650E+02  0.10566000000E+00 0. -1.
         22    1    1    0    0    0  0.11667546655E+02  0.11657156152E+02  0.21215462571E+02  0.26872230771E+02  0.00000000000E+00 0.  1.
</event>
<event>
 5    1  0.6924836E-004  0.9118800E+02  0.7818608E-02  0.1130116E+00
         25   -1    0    0    0    0  0.00000000000E+00  0.00000000000E+00  0.99999998245E-14  0.12500000000E+03  0.12500000000E+03 0.  0.
        -13    1    3    3    0    0 -0.55562402829E+02 -0.10287330745E+02 -0.11258750990E+02  0.57617535698E+02  0.10566000000E+00 0.  1.
         23    2    1    0    0    0 -0.26405265096E+02  0.18908227545E+01  0.11066644772E+02  0.96307076448E+02  0.91933503751E+02 0.  0.
         13    1    3    3    0    0  0.29157137733E+02  0.12178153500E+02  0.22325395762E+02  0.38689540750E+02  0.10566000000E+00 0. -1.
         22    1    1    0    0    0  0.26405265096E+02 -0.18908227545E+01 -0.11066644772E+02  0.28692923552E+02  0.00000000000E+00 0.  1.
</event>
<event>
 5    1  0.6924836E-004  0.9118800E+02  0.7818608E-02  0.1130116E+00
         25   -1    0    0    0    0  0.00000000000E+00  0.00000000000E+00  0.99999998245E-14  0.12500000000E+03  0.12500000000E+03 0.  0.
        -13    1    3    3    0    0 -0.32880242520E+02  0.13447931292E+02 -0.83324277596E+01  0.36488323072E+02  0.10566000000E+00 0.  1.
         23    2    1    0    0    0  0.11861227400E+02 -0.25838382311E+02 -0.31516827615E+00  0.96567447407E+02  0.92286845497E+02 0.  0.
         13    1    3    3    0    0  0.44741469920E+02 -0.39286313604E+02  0.80172594834E+01  0.60079124335E+02  0.10566000000E+00 0. -1.
         22    1    1    0    0    0 -0.11861227400E+02  0.25838382311E+02  0.31516827615E+00  0.28432552593E+02  0.00000000000E+00 0. -1.
</event>
<event>
 5    1  0.6924836E-004  0.9118800E+02  0.7818608E-02  0.1130116E+00
         25   -1    0    0    0    0  0.00000000000E+00  0.00000000000E+00  0.99999998245E-14  0.12500000000E+03  0.12500000000E+03 0.  0.
        -13    1    3    3    0    0 -0.11997797884E+02 -0.56744374295E+02 -0.15881274232E+02  0.60133993742E+02  0.10566000000E+00 0. -1.
         23    2    1    0    0    0 -0.29269739286E+01 -0.27895198830E+02  0.44865110620E+01  0.96595104724E+02  0.92324298974E+02 0.  0.
         13    1    3    3    0    0  0.90708239551E+01  0.28849175465E+02  0.20367785294E+02  0.36461110982E+02  0.10566000000E+00 0.  1.
         22    1    1    0    0    0  0.29269739286E+01  0.27895198830E+02 -0.44865110620E+01  0.28404895276E+02  0.00000000000E+00 0. -1.
</event>
<event>
 5    1  0.6924836E-004  0.9118800E+02  0.7818608E-02  0.1130116E+00
         25   -1    0    0    0    0  0.00000000000E+00  0.00000000000E+00  0.99999998245E-14  0.12500000000E+03  0.12500000000E+03 0.  0.
        -13    1    3    3    0    0 -0.12598949318E+02 -0.49778329915E+02  0.30390991673E+02  0.59667739960E+02  0.10566000000E+00 0. -1.
         23    2    1    0    0    0 -0.13907991390E+02 -0.26203408609E+02  0.40221141307E+01  0.95062928511E+02  0.90226005829E+02 0.  0.
         13    1    3    3    0    0 -0.13090420720E+01  0.23574921306E+02 -0.26368877542E+02  0.35395188551E+02  0.10566000000E+00 0.  1.
         22    1    1    0    0    0  0.13907991390E+02  0.26203408609E+02 -0.40221141307E+01  0.29937071489E+02  0.00000000000E+00 0. -1.
</event>
<event>
 5    1  0.6924836E-004  0.9118800E+02  0.7818608E-02  0.1130116E+00
         25   -1    0    0    0    0  0.00000000000E+00  0.00000000000E+00  0.99999998245E-14  0.12500000000E+03  0.12500000000E+03 0.  0.
        -13    1    3    3    0    0 -0.16901078966E+02  0.53144718553E+02  0.11050003199E+02  0.56851748566E+02  0.10566000000E+00 0.  1.
         23    2    1    0    0    0 -0.11618186040E+02  0.17058225307E+02  0.21904429620E+02  0.94903998032E+02  0.90005552652E+02 0.  0.
         13    1    3    3    0    0  0.52828929259E+01 -0.36086493246E+02  0.10854426421E+02  0.38052249466E+02  0.10566000000E+00 0. -1.
         22    1    1    0    0    0  0.11618186040E+02 -0.17058225307E+02 -0.21904429620E+02  0.30096001968E+02  0.00000000000E+00 0.  1.
</event>
<event>
 5    1  0.6924836E-004  0.9118800E+02  0.7818608E-02  0.1130116E+00
         25   -1    0    0    0    0  0.00000000000E+00  0.00000000000E+00  0.99999998245E-14  0.12500000000E+03  0.12500000000E+03 0.  0.
        -13    1    3    3    0    0 -0.14776820047E+02 -0.35054039202E+02  0.36306670518E+02  0.52586362902E+02  0.10566000000E+00 0.  1.
         23    2    1    0    0    0 -0.27357726678E+02 -0.13287580239E+02  0.28265700425E+01  0.94455041401E+02  0.89379865464E+02 0.  0.
         13    1    3    3    0    0 -0.12580906631E+02  0.21766458963E+02 -0.33480100476E+02  0.41868678500E+02  0.10566000000E+00 0. -1.
         22    1    1    0    0    0  0.27357726678E+02  0.13287580239E+02 -0.28265700425E+01  0.30544958599E+02  0.00000000000E+00 0.  1.
</event>
<event>
 5    1  0.6924836E-004  0.9118800E+02  0.7818608E-02  0.1130116E+00
         25   -1    0    0    0    0  0.00000000000E+00  0.00000000000E+00  0.99999998245E-14  0.12500000000E+03  0.12500000000E+03 0.  0.
        -13    1    3    3    0    0 -0.32807437359E+02  0.17763804857E+01  0.47946735122E+02  0.58123868132E+02  0.10566000000E+00 0.  1.
         23    2    1    0    0    0 -0.25147411700E+01 -0.92195160436E+01  0.26486639070E+02  0.96842133453E+02  0.92658153248E+02 0.  0.
         13    1    3    3    0    0  0.30292696189E+02 -0.10995896529E+02 -0.21460096052E+02  0.38718265321E+02  0.10566000000E+00 0. -1.
         22    1    1    0    0    0  0.25147411700E+01  0.92195160436E+01 -0.26486639070E+02  0.28157866547E+02  0.00000000000E+00 0.  1.
</event>
<event>
 5    1  0.6924836E-004  0.9118800E+02  0.7818608E-02  0.1130116E+00
         25   -1    0    0    0    0  0.00000000000E+00  0.00000000000E+00  0.99999998245E-14  0.12500000000E+03  0.12500000000E+03 0.  0.
        -13    1    3    3    0    0  0.26057603489E+02  0.21780215474E+02 -0.23650869064E+00  0.33962384870E+02  0.10566000000E+00 0.  1.
         23    2    1    0    0    0 -0.23405156697E+02 -0.12765502507E+02 -0.12542528326E+02  0.95536897124E+02  0.90880274434E+02 0.  0.
         13    1    3    3    0    0 -0.49462760186E+02 -0.34545717981E+02 -0.12306019635E+02  0.61574512254E+02  0.10566000000E+00 0. -1.
         22    1    1    0    0    0  0.23405156697E+02  0.12765502507E+02  0.12542528326E+02  0.29463102876E+02  0.00000000000E+00 0. -1.
</event>
<event>
 5    1  0.6924836E-004  0.9118800E+02  0.7818608E-02  0.1130116E+00
         25   -1    0    0    0    0  0.00000000000E+00  0.00000000000E+00  0.99999998245E-14  0.12500000000E+03  0.12500000000E+03 0.  0.
        -13    1    3    3    0    0 -0.39786970812E+01 -0.58801597466E+01  0.37602576073E+02  0.38267103372E+02  0.10566000000E+00 0. -1.
         23    2    1    0    0    0  0.28475584570E+02 -0.16362059022E+01 -0.88888806214E+01  0.95124453393E+02  0.90311202783E+02 0.  0.
         13    1    3    3    0    0  0.32454281652E+02  0.42439538444E+01 -0.46491456695E+02  0.56857350021E+02  0.10566000000E+00 0.  1.
         22    1    1    0    0    0 -0.28475584570E+02  0.16362059022E+01  0.88888806214E+01  0.29875546607E+02  0.00000000000E+00 0.  1.
</event>
<event>
 5    1  0.6924836E-004  0.9118800E+02  0.7818608E-02  0.1130116E+00
         25   -1    0    0    0    0  0.00000000000E+00  0.00000000000E+00  0.99999998245E-14  0.12500000000E+03  0.12500000000E+03 0.  0.
        -13    1    3    3    0    0 -0.30430145351E+02 -0.13199765371E+02  0.13297492700E+02  0.35736004646E+02  0.10566000000E+00 0.  1.
         23    2    1    0    0    0  0.15274145661E+02  0.24599236277E+02  0.46855266078E+01  0.95667831470E+02  0.91060188159E+02 0.  0.
         13    1    3    3    0    0  0.45704291012E+02  0.37799001648E+02 -0.86119660924E+01  0.59931826824E+02  0.10566000000E+00 0. -1.
         22    1    1    0    0    0 -0.15274145661E+02 -0.24599236277E+02 -0.46855266078E+01  0.29332168530E+02  0.00000000000E+00 0. -1.
</event>
<event>
 5    1  0.6924836E-004  0.9118800E+02  0.7818608E-02  0.1130116E+00
         25   -1    0    0    0    0  0.00000000000E+00  0.00000000000E+00  0.99999998245E-14  0.12500000000E+03  0.12500000000E+03 0.  0.
        -13    1    3    3    0    0  0.26923296621E+02  0.50667801878E+01 -0.20685970644E+02  0.34328657240E+02  0.10566000000E+00 0. -1.
         23    2    1    0    0    0 -0.22600057103E+02 -0.12094923805E+02  0.12620335310E+02  0.96428639755E+02  0.92098642437E+02 0.  0.
         13    1    3    3    0    0 -0.49523353724E+02 -0.17161703993E+02  0.33306305954E+02  0.62099982515E+02  0.10566000000E+00 0.  1.
         22    1    1    0    0    0  0.22600057103E+02  0.12094923805E+02 -0.12620335310E+02  0.28571360245E+02  0.00000000000E+00 0.  1.
</event>
<event>
 5    1  0.6924836E-004  0.9118800E+02  0.7818608E-02  0.1130116E+00
         25   -1    0    0    0    0  0.00000000000E+00  0.00000000000E+00  0.99999998245E-14  0.12500000000E+03  0.12500000000E+03 0.  0.
        -13    1    3    3    0    0 -0.33034284765E+02  0.40511955413E+02  0.28233556006E+02  0.59410666973E+02  0.10566000000E+00 0.  1.
         23    2    1    0    0    0 -0.25814722812E+02  0.17986402971E+02  0.39850489026E+01  0.93285788352E+02  0.87729396943E+02 0.  0.
         13    1    3    3    0    0  0.72195619534E+01 -0.22525552443E+02 -0.24248507104E+02  0.33875121379E+02  0.10566000000E+00 0. -1.
         22    1    1    0    0    0  0.25814722812E+02 -0.17986402971E+02 -0.39850489026E+01  0.31714211648E+02  0.00000000000E+00 0.  1.
</event>
<event>
 5    1  0.6924836E-004  0.9118800E+02  0.7818608E-02  0.1130116E+00
         25   -1    0    0    0    0  0.00000000000E+00  0.00000000000E+00  0.99999998245E-14  0.12500000000E+03  0.12500000000E+03 0.  0.
        -13    1    3    3    0    0 -0.49795934468E+02  0.88787920359E+01  0.13051139072E+02  0.52238026692E+02  0.10566000000E+00 0.  1.
         23    2    1    0    0    0 -0.89929807305E+01  0.46910497330E+01  0.27470980759E+02  0.95716311129E+02  0.91126712781E+02 0.  0.
         13    1    3    3    0    0  0.40802953737E+02 -0.41877423028E+01  0.14419841688E+02  0.43478284437E+02  0.10566000000E+00 0. -1.
         22    1    1    0    0    0  0.89929807305E+01 -0.46910497330E+01 -0.27470980759E+02  0.29283688871E+02  0.00000000000E+00 0. -1.
</event>
<event>
 5    1  0.6924836E-004  0.9118800E+02  0.7818608E-02  0.1130116E+00
         25   -1    0    0    0    0  0.00000000000E+00  0.00000000000E+00  0.99999998245E-14  0.12500000000E+03  0.12500000000E+03 0.  0.
        -13    1    3    3    0    0 -0.17958069708E+02  0.24685733095E+02 -0.31465452522E+02  0.43840204750E+02  0.10566000000E+00 0.  1.
         23    2    1    0    0    0  0.24380923150E+02 -0.17977618694E+01 -0.14463812419E+02  0.96594661927E+02  0.92323699458E+02 0.  0.
         13    1    3    3    0    0  0.42338992857E+02 -0.26483494965E+02  0.17001640104E+02  0.52754457177E+02  0.10566000000E+00 0. -1.
         22    1    1    0    0    0 -0.24380923150E+02  0.17977618694E+01  0.14463812419E+02  0.28405338073E+02  0.00000000000E+00 0. -1.
</event>
<event>
 5    1  0.6924836E-004  0.9118800E+02  0.7818608E-02  0.1130116E+00
         25   -1    0    0    0    0  0.00000000000E+00  0.00000000000E+00  0.99999998245E-14  0.12500000000E+03  0.12500000000E+03 0.  0.
        -13    1    3    3    0    0 -0.27559789547E+02  0.18559197147E+02  0.36962558959E+02  0.49701385569E+02  0.10566000000E+00 0.  1.
         23    2    1    0    0    0 -0.18485445179E+02 -0.18919523330E+02  0.10151362331E+02  0.96667859176E+02  0.92422750413E+02 0.  0.
         13    1    3    3    0    0  0.90743443682E+01 -0.37478720478E+02 -0.26811196628E+02  0.46966473606E+02  0.10566000000E+00 0. -1.
         22    1    1    0    0    0  0.18485445179E+02  0.18919523330E+02 -0.10151362331E+02  0.28332140824E+02  0.00000000000E+00 0.  1.
</event>
<event>
 5    1  0.6924836E-004  0.9118800E+02  0.7818608E-02  0.1130116E+00
         25   -1    0    0    0    0  0.00000000000E+00  0.00000000000E+00  0.99999998245E-14  0.12500000000E+03  0.12500000000E+03 0.  0.
        -13    1    3    3    0    0 -0.13812242317E+02 -0.20876002106E+02  0.34790174839E+02  0.42859688883E+02  0.10566000000E+00 0. -1.
         23    2    1    0    0    0 -0.14881636957E+02 -0.29245196076E+02 -0.11740406031E+02  0.90149149999E+02  0.83140167788E+02 0.  0.
         13    1    3    3    0    0 -0.10693946394E+01 -0.83691939699E+01 -0.46530580870E+02  0.47289461117E+02  0.10566000000E+00 0.  1.
         22    1    1    0    0    0  0.14881636957E+02  0.29245196076E+02  0.11740406031E+02  0.34850850001E+02  0.00000000000E+00 0. -1.
</event>
<event>
 5    1  0.6924836E-004  0.9118800E+02  0.7818608E-02  0.1130116E+00
         25   -1    0    0    0    0  0.00000000000E+00  0.00000000000E+00  0.99999998245E-14  0.12500000000E+03  0.12500000000E+03 0.  0.
        -13    1    3    3    0    0  0.37486095189E+02 -0.24177396666E+02 -0.52747671388E+01  0.44917570888E+02  0.10566000000E+00 0.  1.
         23    2    1    0    0    0 -0.12959298850E+02 -0.22740013698E+02 -0.12667615919E+02  0.95922170942E+02  0.91408657880E+02 0.  0.
         13    1    3    3    0    0 -0.50445394039E+02  0.14373829677E+01 -0.73928487799E+01  0.51004600054E+02  0.10566000000E+00 0. -1.
         22    1    1    0    0    0  0.12959298850E+02  0.22740013698E+02  0.12667615919E+02  0.29077829058E+02  0.00000000000E+00 0. -1.
</event>
<event>
 5    1  0.6924836E-004  0.9118800E+02  0.7818608E-02  0.1130116E+00
         25   -1    0    0    0    0  0.00000000000E+00  0.00000000000E+00  0.99999998245E-14  0.12500000000E+03  0.12500000000E+03 0.  0.
        -13    1    3    3    0    0 -0.17790345916E+02 -0.21907476944E+02  0.27961877900E+02  0.39727971677E+02  0.10566000000E+00 0.  1.
         23    2    1    0    0    0 -0.19771508276E+02  0.20042441092E+02 -0.87599438414E+01  0.95515281915E+02  0.90850539232E+02 0.  0.
         13    1    3    3    0    0 -0.19811623608E+01  0.41949918036E+02 -0.36721821741E+02  0.55787310238E+02  0.10566000000E+00 0. -1.
         22    1    1    0    0    0  0.19771508276E+02 -0.20042441092E+02  0.87599438414E+01  0.29484718085E+02  0.00000000000E+00 0. -1.
</event>
<event>
 5    1  0.6924836E-004  0.9118800E+02  0.7818608E-02  0.1130116E+00
         25   -1    0    0    0    0  0.00000000000E+00  0.00000000000E+00  0.99999998245E-14  0.12500000000E+03  0.12500000000E+03 0.  0.
        -13    1    3    3    0    0  0.36093237891E+02  0.39370379512E+02  0.28853912642E+02  0.60706738037E+02  0.10566000000E+00 0.  1.
         23    2    1    0    0    0  0.15020682912E+02  0.12460570069E+02 -0.72905570479E-01  0.10548354446E+03  0.10366236595E+03 0.  0.
         13    1    3    3    0    0 -0.21072554980E+02 -0.26909809443E+02 -0.28926818212E+02  0.44776806424E+02  0.10566000000E+00 0. -1.
         22    1    1    0    0    0 -0.15020682912E+02 -0.12460570069E+02  0.72905570479E-01  0.19516455539E+02  0.00000000000E+00 0.  1.
</event>
<event>
 5    1  0.6924836E-004  0.9118800E+02  0.7818608E-02  0.1130116E+00
         25   -1    0    0    0    0  0.00000000000E+00  0.00000000000E+00  0.99999998245E-14  0.12500000000E+03  0.12500000000E+03 0.  0.
        -13    1    3    3    0    0  0.14268055779E+02 -0.50221277302E+01  0.73707520948E+01  0.16826714864E+02  0.10566000000E+00 0.  1.
         23    2    1    0    0    0 -0.97580751728E+01  0.21327930991E+02 -0.41503962082E+02  0.77327371166E+02  0.60883846721E+02 0.  0.
         13    1    3    3    0    0 -0.24026130951E+02  0.26350058721E+02 -0.48874714176E+02  0.60500656302E+02  0.10566000000E+00 0. -1.
         22    1    1    0    0    0  0.97580751728E+01 -0.21327930991E+02  0.41503962082E+02  0.47672628834E+02  0.00000000000E+00 0. -1.
</event>
<event>
 5    1  0.6924836E-004  0.9118800E+02  0.7818608E-02  0.1130116E+00
         25   -1    0    0    0    0  0.00000000000E+00  0.00000000000E+00  0.99999998245E-14  0.12500000000E+03  0.12500000000E+03 0.  0.
        -13    1    3    3    0    0 -0.41119402943E+02  0.85519955835E+00  0.31882078189E+01  0.41251818116E+02  0.10566000000E+00 0.  1.
         23    2    1    0    0    0  0.61971119058E+01  0.27215181452E+02 -0.66624165910E+01  0.96304040489E+02  0.91929375730E+02 0.  0.
         13    1    3    3    0    0  0.47316514849E+02  0.26359981894E+02 -0.98506244100E+01  0.55052222373E+02  0.10566000000E+00 0. -1.
         22    1    1    0    0    0 -0.61971119058E+01 -0.27215181452E+02  0.66624165910E+01  0.28695959511E+02  0.00000000000E+00 0.  1.
</event>
<event>
 5    1  0.6924836E-004  0.9118800E+02  0.7818608E-02  0.1130116E+00
         25   -1    0    0    0    0  0.00000000000E+00  0.00000000000E+00  0.99999998245E-14  0.12500000000E+03  0.12500000000E+03 0.  0.
        -13    1    3    3    0    0  0.47954244801E+02 -0.21463589040E+02 -0.26802308071E+01  0.52606939182E+02  0.10566000000E+00 0. -1.
         23    2    1    0    0    0  0.70707367785E+01 -0.25762039948E+02  0.11251529833E+02  0.96012503653E+02  0.91532103184E+02 0.  0.
         13    1    3    3    0    0 -0.40883508023E+02 -0.42984509078E+01  0.13931760640E+02  0.43405564471E+02  0.10566000000E+00 0.  1.
         22    1    1    0    0    0 -0.70707367785E+01  0.25762039948E+02 -0.11251529833E+02  0.28987496347E+02  0.00000000000E+00 0. -1.
</event>
<event>
 5    1  0.6924836E-004  0.9118800E+02  0.7818608E-02  0.1130116E+00
         25   -1    0    0    0    0  0.00000000000E+00  0.00000000000E+00  0.99999998245E-14  0.12500000000E+03  0.12500000000E+03 0.  0.
        -13    1    3    3    0    0  0.26210277868E+02 -0.18627731146E+02  0.12318827093E+02  0.34434513189E+02  0.10566000000E+00 0.  1.
         23    2    1    0    0    0 -0.17681866941E+02  0.30024338072E+01 -0.23760712907E+02  0.95230308952E+02  0.90457599116E+02 0.  0.
         13    1    3    3    0    0 -0.43892144809E+02  0.21630164953E+02 -0.36079539999E+02  0.60795795763E+02  0.10566000000E+00 0. -1.
         22    1    1    0    0    0  0.17681866941E+02 -0.30024338072E+01  0.23760712907E+02  0.29769691048E+02  0.00000000000E+00 0. -1.
</event>
<event>
 5    1  0.6924836E-004  0.9118800E+02  0.7818608E-02  0.1130116E+00
         25   -1    0    0    0    0  0.00000000000E+00  0.00000000000E+00  0.99999998245E-14  0.12500000000E+03  0.12500000000E+03 0.  0.
        -13    1    3    3    0    0  0.41675084663E+01 -0.17650299569E+02 -0.36521890309E+02  0.40776964545E+02  0.10566000000E+00 0. -1.
         23    2    1    0    0    0  0.24691812887E+02 -0.51215351607E+01  0.13585794062E+02  0.96355811299E+02  0.91999743613E+02 0.  0.
         13    1    3    3    0    0  0.20524304420E+02  0.12528764409E+02  0.50107684371E+02  0.55578846755E+02  0.10566000000E+00 0.  1.
         22    1    1    0    0    0 -0.24691812887E+02  0.51215351607E+01 -0.13585794062E+02  0.28644188701E+02  0.00000000000E+00 0.  1.
</event>
<event>
 5    1  0.6924836E-004  0.9118800E+02  0.7818608E-02  0.1130116E+00
         25   -1    0    0    0    0  0.00000000000E+00  0.00000000000E+00  0.99999998245E-14  0.12500000000E+03  0.12500000000E+03 0.  0.
        -13    1    3    3    0    0  0.32588830351E+02  0.17854232972E+02 -0.69541115160E+01  0.37804448543E+02  0.10566000000E+00 0. -1.
         23    2    1    0    0    0 -0.10559402419E+02 -0.16615099218E+02 -0.22428083108E+02  0.95157389301E+02  0.90356777971E+02 0.  0.
         13    1    3    3    0    0 -0.43148232770E+02 -0.34469332189E+02 -0.15473971592E+02  0.57352940758E+02  0.10566000000E+00 0.  1.
         22    1    1    0    0    0  0.10559402419E+02  0.16615099218E+02  0.22428083108E+02  0.29842610699E+02  0.00000000000E+00 0.  1.
</event>
<event>
 5    1  0.6924836E-004  0.9118800E+02  0.7818608E-02  0.1130116E+00
         25   -1    0    0    0    0  0.00000000000E+00  0.00000000000E+00  0.99999998245E-14  0.12500000000E+03  0.12500000000E+03 0.  0.
        -13    1    3    3    0    0 -0.26651411626E+02 -0.16826010541E+02 -0.24928628755E+02  0.40185321549E+02  0.10566000000E+00 0.  1.
         23    2    1    0    0    0  0.13749642371E+02  0.20066743899E+02  0.83713847935E+00  0.10066016276E+03  0.97673131873E+02 0.  0.
         13    1    3    3    0    0  0.40401053997E+02  0.36892754440E+02  0.25765767234E+02  0.60474841211E+02  0.10566000000E+00 0. -1.
         22    1    1    0    0    0 -0.13749642371E+02 -0.20066743899E+02 -0.83713847935E+00  0.24339837240E+02  0.00000000000E+00 0. -1.
</event>
<event>
 5    1  0.6924836E-004  0.9118800E+02  0.7818608E-02  0.1130116E+00
         25   -1    0    0    0    0  0.00000000000E+00  0.00000000000E+00  0.99999998245E-14  0.12500000000E+03  0.12500000000E+03 0.  0.
        -13    1    3    3    0    0 -0.99862056935E+01  0.22010019377E+02 -0.38311042364E+02  0.45298039562E+02  0.10566000000E+00 0.  1.
         23    2    1    0    0    0  0.21135113743E+02 -0.11300148574E+02 -0.16979329264E+02  0.95628517011E+02  0.91006204474E+02 0.  0.
         13    1    3    3    0    0  0.31121319437E+02 -0.33310167951E+02  0.21331713100E+02  0.50330477449E+02  0.10566000000E+00 0. -1.
         22    1    1    0    0    0 -0.21135113743E+02  0.11300148574E+02  0.16979329264E+02  0.29371482989E+02  0.00000000000E+00 0. -1.
</event>
<event>
 5    1  0.6924836E-004  0.9118800E+02  0.7818608E-02  0.1130116E+00
         25   -1    0    0    0    0  0.00000000000E+00  0.00000000000E+00  0.99999998245E-14  0.12500000000E+03  0.12500000000E+03 0.  0.
        -13    1    3    3    0    0 -0.19444524954E+02  0.53147546857E+01  0.27865735799E+02  0.34392536453E+02  0.10566000000E+00 0. -1.
         23    2    1    0    0    0  0.19099417329E+02 -0.16800342532E+02 -0.14441784572E+02  0.95749283887E+02  0.91171930833E+02 0.  0.
         13    1    3    3    0    0  0.38543942283E+02 -0.22115097218E+02 -0.42307520371E+02  0.61356747434E+02  0.10566000000E+00 0.  1.
         22    1    1    0    0    0 -0.19099417329E+02  0.16800342532E+02  0.14441784572E+02  0.29250716113E+02  0.00000000000E+00 0.  1.
</event>
<event>
 5    1  0.6924836E-004  0.9118800E+02  0.7818608E-02  0.1130116E+00
         25   -1    0    0    0    0  0.00000000000E+00  0.00000000000E+00  0.99999998245E-14  0.12500000000E+03  0.12500000000E+03 0.  0.
        -13    1    3    3    0    0 -0.12616699330E+02  0.34822415063E+02 -0.10890342021E+01  0.37053729264E+02  0.10566000000E+00 0. -1.
         23    2    1    0    0    0  0.46850170329E+01 -0.16183712663E+02  0.23355245470E+02  0.96201919662E+02  0.91790412983E+02 0.  0.
         13    1    3    3    0    0  0.17301716362E+02 -0.51006127727E+02  0.24444279672E+02  0.59148190399E+02  0.10566000000E+00 0.  1.
         22    1    1    0    0    0 -0.46850170329E+01  0.16183712663E+02 -0.23355245470E+02  0.28798080338E+02  0.00000000000E+00 0.  1.
</event>
<event>
 5    1  0.6924836E-004  0.9118800E+02  0.7818608E-02  0.1130116E+00
         25   -1    0    0    0    0  0.00000000000E+00  0.00000000000E+00  0.99999998245E-14  0.12500000000E+03  0.12500000000E+03 0.  0.
        -13    1    3    3    0    0  0.51507318587E+02 -0.27689219403E+01  0.90848646405E+01  0.52375726499E+02  0.10566000000E+00 0.  1.
         23    2    1    0    0    0  0.13814871710E+02  0.19227265226E+02  0.15808086185E+02  0.96531877524E+02  0.92238654485E+02 0.  0.
         13    1    3    3    0    0 -0.37692446877E+02  0.21996187166E+02  0.67232215449E+01  0.44156151026E+02  0.10566000000E+00 0. -1.
         22    1    1    0    0    0 -0.13814871710E+02 -0.19227265226E+02 -0.15808086185E+02  0.28468122476E+02  0.00000000000E+00 0.  1.
</event>
<event>
 5    1  0.6924836E-004  0.9118800E+02  0.7818608E-02  0.1130116E+00
         25   -1    0    0    0    0  0.00000000000E+00  0.00000000000E+00  0.99999998245E-14  0.12500000000E+03  0.12500000000E+03 0.  0.
        -13    1    3    3    0    0  0.99760546619E+01 -0.41028370816E+02  0.26075035199E+02  0.49626278352E+02  0.10566000000E+00 0.  1.
         23    2    1    0    0    0 -0.22076304662E+02 -0.20903882777E+02  0.18940916037E+01  0.94538169364E+02  0.89496046510E+02 0.  0.
         13    1    3    3    0    0 -0.32052359324E+02  0.20124488039E+02 -0.24180943595E+02  0.44911891012E+02  0.10566000000E+00 0. -1.
         22    1    1    0    0    0  0.22076304662E+02  0.20903882777E+02 -0.18940916037E+01  0.30461830636E+02  0.00000000000E+00 0. -1.
</event>
<event>
 5    1  0.6924836E-004  0.9118800E+02  0.7818608E-02  0.1130116E+00
         25   -1    0    0    0    0  0.00000000000E+00  0.00000000000E+00  0.99999998245E-14  0.12500000000E+03  0.12500000000E+03 0.  0.
        -13    1    3    3    0    0 -0.85840560518E+01  0.30023004166E+02 -0.21481904464E+02  0.37901849307E+02  0.10566000000E+00 0.  1.
         23    2    1    0    0    0  0.29137348059E+02 -0.72339178823E+01 -0.35209816115E+00  0.94976033024E+02  0.90105539542E+02 0.  0.
         13    1    3    3    0    0  0.37721404111E+02 -0.37256922048E+02  0.21129806303E+02  0.57074183717E+02  0.10566000000E+00 0. -1.
         22    1    1    0    0    0 -0.29137348059E+02  0.72339178823E+01  0.35209816115E+00  0.30023966976E+02  0.00000000000E+00 0. -1.
</event>
<event>
 5    1  0.6924836E-004  0.9118800E+02  0.7818608E-02  0.1130116E+00
         25   -1    0    0    0    0  0.00000000000E+00  0.00000000000E+00  0.99999998245E-14  0.12500000000E+03  0.12500000000E+03 0.  0.
        -13    1    3    3    0    0 -0.39828093252E+02  0.16521038165E+02 -0.30970929686E+02  0.53088900570E+02  0.10566000000E+00 0.  1.
         23    2    1    0    0    0 -0.12870627251E+02  0.25954929731E+02  0.10674945624E+01  0.96009467617E+02  0.91527956955E+02 0.  0.
         13    1    3    3    0    0  0.26957466001E+02  0.94338915667E+01  0.32038424248E+02  0.42920567047E+02  0.10566000000E+00 0. -1.
         22    1    1    0    0    0  0.12870627251E+02 -0.25954929731E+02 -0.10674945624E+01  0.28990532383E+02  0.00000000000E+00 0.  1.
</event>
<event>
 5    1  0.6924836E-004  0.9118800E+02  0.7818608E-02  0.1130116E+00
         25   -1    0    0    0    0  0.00000000000E+00  0.00000000000E+00  0.99999998245E-14  0.12500000000E+03  0.12500000000E+03 0.  0.
        -13    1    3    3    0    0  0.57213281720E+02  0.78301825643E+01  0.11191438918E+02  0.58821176742E+02  0.10566000000E+00 0.  1.
         23    2    1    0    0    0  0.21446727803E+02  0.17674575518E+02  0.81297909737E+01  0.96044063571E+02  0.91575192562E+02 0.  0.
         13    1    3    3    0    0 -0.35766553917E+02  0.98443929538E+01 -0.30616479446E+01  0.37222886829E+02  0.10566000000E+00 0. -1.
         22    1    1    0    0    0 -0.21446727803E+02 -0.17674575518E+02 -0.81297909737E+01  0.28955936429E+02  0.00000000000E+00 0.  1.
</event>
<event>
 5    1  0.6924836E-004  0.9118800E+02  0.7818608E-02  0.1130116E+00
         25   -1    0    0    0    0  0.00000000000E+00  0.00000000000E+00  0.99999998245E-14  0.12500000000E+03  0.12500000000E+03 0.  0.
        -13    1    3    3    0    0 -0.30766489259E+02 -0.10176711817E+02  0.17977869732E+02  0.37058835503E+02  0.10566000000E+00 0. -1.
         23    2    1    0    0    0  0.18315601390E+02 -0.22503534592E+02 -0.92771543754E+01  0.94537959413E+02  0.89495753269E+02 0.  0.
         13    1    3    3    0    0  0.49082090649E+02 -0.12326822775E+02 -0.27255024108E+02  0.57479123909E+02  0.10566000000E+00 0.  1.
         22    1    1    0    0    0 -0.18315601390E+02  0.22503534592E+02  0.92771543754E+01  0.30462040587E+02  0.00000000000E+00 0. -1.
</event>
<event>
 5    1  0.6924836E-004  0.9118800E+02  0.7818608E-02  0.1130116E+00
         25   -1    0    0    0    0  0.00000000000E+00  0.00000000000E+00  0.99999998245E-14  0.12500000000E+03  0.12500000000E+03 0.  0.
        -13    1    3    3    0    0  0.35691521039E+02 -0.35540709175E+02  0.34098682934E+02  0.60825636245E+02  0.10566000000E+00 0.  1.
         23    2    1    0    0    0  0.24470391168E+02 -0.12965331200E+02  0.10422917085E+02  0.95410524547E+02  0.90706290502E+02 0.  0.
         13    1    3    3    0    0 -0.11221129871E+02  0.22575377975E+02 -0.23675765849E+02  0.34584888302E+02  0.10566000000E+00 0. -1.
         22    1    1    0    0    0 -0.24470391168E+02  0.12965331200E+02 -0.10422917085E+02  0.29589475453E+02  0.00000000000E+00 0.  1.
</event>
<event>
 5    1  0.6924836E-004  0.9118800E+02  0.7818608E-02  0.1130116E+00
         25   -1    0    0    0    0  0.00000000000E+00  0.00000000000E+00  0.99999998245E-14  0.12500000000E+03  0.12500000000E+03 0.  0.
        -13    1    3    3    0    0 -0.45846999211E+02  0.10675803601E+01  0.12619642696E+02  0.47564205136E+02  0.10566000000E+00 0.  1.
         23    2    1    0    0    0 -0.97040571324E+01 -0.26014341370E+02 -0.62971863043E+01  0.96529502339E+02  0.92235435624E+02 0.  0.
         13    1    3    3    0    0  0.36142942078E+02 -0.27081921730E+02 -0.18916829000E+02  0.48965297202E+02  0.10566000000E+00 0. -1.
         22    1    1    0    0    0  0.97040571324E+01  0.26014341370E+02  0.62971863043E+01  0.28470497661E+02  0.00000000000E+00 0.  1.
</event>
<event>
 5    1  0.6924836E-004  0.9118800E+02  0.7818608E-02  0.1130116E+00
         25   -1    0    0    0    0  0.00000000000E+00  0.00000000000E+00  0.99999998245E-14  0.12500000000E+03  0.12500000000E+03 0.  0.
        -13    1    3    3    0    0  0.21317853667E+02 -0.29850025528E+01 -0.13685818065E+02  0.25508310515E+02  0.10566000000E+00 0. -1.
         23    2    1    0    0    0 -0.26180872861E+02 -0.16120510090E+02  0.22712928046E+02  0.86774536631E+02  0.77901438740E+02 0.  0.
         13    1    3    3    0    0 -0.47498726528E+02 -0.13135507537E+02  0.36398746111E+02  0.61266226116E+02  0.10566000000E+00 0.  1.
         22    1    1    0    0    0  0.26180872861E+02  0.16120510090E+02 -0.22712928046E+02  0.38225463369E+02  0.00000000000E+00 0.  1.
</event>
<event>
 5    1  0.6924836E-004  0.9118800E+02  0.7818608E-02  0.1130116E+00
         25   -1    0    0    0    0  0.00000000000E+00  0.00000000000E+00  0.99999998245E-14  0.12500000000E+03  0.12500000000E+03 0.  0.
        -13    1    3    3    0    0 -0.54336963024E+02 -0.29420838815E+01  0.41562355557E+01  0.54575148798E+02  0.10566000000E+00 0.  1.
         23    2    1    0    0    0 -0.18225047837E+02 -0.18176195667E+02 -0.11535764966E+02  0.96793611877E+02  0.92592672330E+02 0.  0.
         13    1    3    3    0    0  0.36111915187E+02 -0.15234111786E+02 -0.15692000522E+02  0.42218463079E+02  0.10566000000E+00 0. -1.
         22    1    1    0    0    0  0.18225047837E+02  0.18176195667E+02  0.11535764966E+02  0.28206388123E+02  0.00000000000E+00 0. -1.
</event>
<event>
 5    1  0.6924836E-004  0.9118800E+02  0.7818608E-02  0.1130116E+00
         25   -1    0    0    0    0  0.00000000000E+00  0.00000000000E+00  0.99999998245E-14  0.12500000000E+03  0.12500000000E+03 0.  0.
        -13    1    3    3    0    0  0.41640989442E+02 -0.18515120298E+02 -0.32483442014E+02  0.55963978150E+02  0.10566000000E+00 0. -1.
         23    2    1    0    0    0  0.10674343553E+02 -0.26434063043E+02 -0.11168819499E+02  0.94382295510E+02  0.89278070530E+02 0.  0.
         13    1    3    3    0    0 -0.30966645889E+02 -0.79189427450E+01  0.21314622514E+02  0.38418317360E+02  0.10566000000E+00 0.  1.
         22    1    1    0    0    0 -0.10674343553E+02  0.26434063043E+02  0.11168819499E+02  0.30617704490E+02  0.00000000000E+00 0. -1.
</event>
<event>
 5    1  0.6924836E-004  0.9118800E+02  0.7818608E-02  0.1130116E+00
         25   -1    0    0    0    0  0.00000000000E+00  0.00000000000E+00  0.99999998245E-14  0.12500000000E+03  0.12500000000E+03 0.  0.
        -13    1    3    3    0    0  0.46219074141E+02 -0.23387762139E+02 -0.16758265195E+02  0.54443005508E+02  0.10566000000E+00 0. -1.
         23    2    1    0    0    0  0.54202996725E+01 -0.18087828693E+02 -0.22101992467E+02  0.95930303298E+02  0.91419778081E+02 0.  0.
         13    1    3    3    0    0 -0.40798774469E+02  0.52999334466E+01 -0.53437272724E+01  0.41487297790E+02  0.10566000000E+00 0.  1.
         22    1    1    0    0    0 -0.54202996725E+01  0.18087828693E+02  0.22101992467E+02  0.29069696702E+02  0.00000000000E+00 0. -1.
</event>
<event>
 5    1  0.6924836E-004  0.9118800E+02  0.7818608E-02  0.1130116E+00
         25   -1    0    0    0    0  0.00000000000E+00  0.00000000000E+00  0.99999998245E-14  0.12500000000E+03  0.12500000000E+03 0.  0.
        -13    1    3    3    0    0  0.46931916637E+02 -0.20524207934E+01 -0.18518251410E+02  0.50495089164E+02  0.10566000000E+00 0.  1.
         23    2    1    0    0    0  0.53791690516E+01 -0.19763144175E+02 -0.20912097778E+02  0.95728287361E+02  0.91143139293E+02 0.  0.
         13    1    3    3    0    0 -0.41552747586E+02 -0.17710723381E+02 -0.23938463685E+01  0.45233198197E+02  0.10566000000E+00 0. -1.
         22    1    1    0    0    0 -0.53791690516E+01  0.19763144175E+02  0.20912097778E+02  0.29271712639E+02  0.00000000000E+00 0. -1.
</event>
<event>
 5    1  0.6924836E-004  0.9118800E+02  0.7818608E-02  0.1130116E+00
         25   -1    0    0    0    0  0.00000000000E+00  0.00000000000E+00  0.99999998245E-14  0.12500000000E+03  0.12500000000E+03 0.  0.
        -13    1    3    3    0    0 -0.23561180590E+02 -0.11213460610E+02  0.43152439455E+02  0.50428316695E+02  0.10566000000E+00 0.  1.
         23    2    1    0    0    0 -0.27056977124E+02 -0.69569455720E+01 -0.29944870413E+01  0.96902917315E+02  0.92740117148E+02 0.  0.
         13    1    3    3    0    0 -0.34957965335E+01  0.42565150377E+01 -0.46146926497E+02  0.46474600620E+02  0.10566000000E+00 0. -1.
         22    1    1    0    0    0  0.27056977124E+02  0.69569455720E+01  0.29944870413E+01  0.28097082685E+02  0.00000000000E+00 0.  1.
</event>
<event>
 5    1  0.6924836E-004  0.9118800E+02  0.7818608E-02  0.1130116E+00
         25   -1    0    0    0    0  0.00000000000E+00  0.00000000000E+00  0.99999998245E-14  0.12500000000E+03  0.12500000000E+03 0.  0.
        -13    1    3    3    0    0 -0.36884679517E+01  0.27592428036E+02 -0.48476350705E+02  0.55900935792E+02  0.10566000000E+00 0.  1.
         23    2    1    0    0    0  0.16608892484E+02  0.17367037670E+02 -0.14018033174E+02  0.97179601709E+02  0.93112300086E+02 0.  0.
         13    1    3    3    0    0  0.20297360436E+02 -0.10225390366E+02  0.34458317531E+02  0.41278665917E+02  0.10566000000E+00 0. -1.
         22    1    1    0    0    0 -0.16608892484E+02 -0.17367037670E+02  0.14018033174E+02  0.27820398291E+02  0.00000000000E+00 0.  1.
</event>
<event>
 5    1  0.6924836E-004  0.9118800E+02  0.7818608E-02  0.1130116E+00
         25   -1    0    0    0    0  0.00000000000E+00  0.00000000000E+00  0.99999998245E-14  0.12500000000E+03  0.12500000000E+03 0.  0.
        -13    1    3    3    0    0 -0.65722563207E+01 -0.14485303263E+02 -0.53062894085E+02  0.55395852340E+02  0.10566000000E+00 0.  1.
         23    2    1    0    0    0  0.16566167215E+02 -0.13516133046E+02 -0.20299240411E+02  0.95518091819E+02  0.90854405258E+02 0.  0.
         13    1    3    3    0    0  0.23138423536E+02  0.96917021671E+00  0.32763653674E+02  0.40122239478E+02  0.10566000000E+00 0. -1.
         22    1    1    0    0    0 -0.16566167215E+02  0.13516133046E+02  0.20299240411E+02  0.29481908181E+02  0.00000000000E+00 0.  1.
</event>
<event>
 5    1  0.6924836E-004  0.9118800E+02  0.7818608E-02  0.1130116E+00
         25   -1    0    0    0    0  0.00000000000E+00  0.00000000000E+00  0.99999998245E-14  0.12500000000E+03  0.12500000000E+03 0.  0.
        -13    1    3    3    0    0  0.47519322603E+02  0.15871176227E+02  0.33297550844E+02  0.60155783693E+02  0.10566000000E+00 0.  1.
         23    2    1    0    0    0  0.14697450226E+02  0.10422242513E+02  0.35180880540E+00  0.10697884711E+03  0.10545004399E+03 0.  0.
         13    1    3    3    0    0 -0.32821872378E+02 -0.54489337140E+01 -0.32945742038E+02  0.46823063414E+02  0.10566000000E+00 0. -1.
         22    1    1    0    0    0 -0.14697450226E+02 -0.10422242513E+02 -0.35180880540E+00  0.18021152892E+02  0.00000000000E+00 0.  1.
</event>
<event>
 5    1  0.6924836E-004  0.9118800E+02  0.7818608E-02  0.1130116E+00
         25   -1    0    0    0    0  0.00000000000E+00  0.00000000000E+00  0.99999998245E-14  0.12500000000E+03  0.12500000000E+03 0.  0.
        -13    1    3    3    0    0  0.23530929677E+02 -0.34951370610E+02 -0.42992687286E+01  0.42353250579E+02  0.10566000000E+00 0. -1.
         23    2    1    0    0    0  0.29188526856E+02  0.13729119130E+02 -0.87922798513E+01  0.91567037267E+02  0.85245289118E+02 0.  0.
         13    1    3    3    0    0  0.56575971791E+01  0.48680489740E+02 -0.44930111227E+01  0.49213786688E+02  0.10566000000E+00 0.  1.
         22    1    1    0    0    0 -0.29188526856E+02 -0.13729119130E+02  0.87922798513E+01  0.33432962733E+02  0.00000000000E+00 0. -1.
</event>
<event>
 5    1  0.6924836E-004  0.9118800E+02  0.7818608E-02  0.1130116E+00
         25   -1    0    0    0    0  0.00000000000E+00  0.00000000000E+00  0.99999998245E-14  0.12500000000E+03  0.12500000000E+03 0.  0.
        -13    1    3    3    0    0  0.24210429122E+00 -0.48551400189E+02 -0.79563427841E+01  0.49199711679E+02  0.10566000000E+00 0. -1.
         23    2    1    0    0    0  0.10876951936E+02 -0.89456671486E+01 -0.27101792535E+02  0.94457567177E+02  0.89383397755E+02 0.  0.
         13    1    3    3    0    0  0.10634847645E+02  0.39605733040E+02 -0.19145449751E+02  0.45257855498E+02  0.10566000000E+00 0.  1.
         22    1    1    0    0    0 -0.10876951936E+02  0.89456671486E+01  0.27101792535E+02  0.30542432823E+02  0.00000000000E+00 0. -1.
</event>
<event>
 5    1  0.6924836E-004  0.9118800E+02  0.7818608E-02  0.1130116E+00
         25   -1    0    0    0    0  0.00000000000E+00  0.00000000000E+00  0.99999998245E-14  0.12500000000E+03  0.12500000000E+03 0.  0.
        -13    1    3    3    0    0 -0.22996156851E+02 -0.43488109289E+02  0.32375852170E+02  0.58891814773E+02  0.10566000000E+00 0.  1.
         23    2    1    0    0    0  0.15356267412E+01 -0.29190400286E+02  0.17109063025E+02  0.91130284088E+02  0.84602429173E+02 0.  0.
         13    1    3    3    0    0  0.24531783593E+02  0.14297709003E+02 -0.15266789145E+02  0.32238469315E+02  0.10566000000E+00 0. -1.
         22    1    1    0    0    0 -0.15356267412E+01  0.29190400286E+02 -0.17109063025E+02  0.33869715912E+02  0.00000000000E+00 0.  1.
</event>
<event>
 5    1  0.6924836E-004  0.9118800E+02  0.7818608E-02  0.1130116E+00
         25   -1    0    0    0    0  0.00000000000E+00  0.00000000000E+00  0.99999998245E-14  0.12500000000E+03  0.12500000000E+03 0.  0.
        -13    1    3    3    0    0  0.34200660873E+02  0.22094399478E+01  0.45075941302E+02  0.56625245936E+02  0.10566000000E+00 0.  1.
         23    2    1    0    0    0  0.16396838129E+02  0.19944574055E+02  0.18259141042E+02  0.93376613615E+02  0.87858712737E+02 0.  0.
         13    1    3    3    0    0 -0.17803822744E+02  0.17735134107E+02 -0.26816800260E+02  0.36751367679E+02  0.10566000000E+00 0. -1.
         22    1    1    0    0    0 -0.16396838129E+02 -0.19944574055E+02 -0.18259141042E+02  0.31623386385E+02  0.00000000000E+00 0.  1.
</event>
<event>
 5    1  0.6924836E-004  0.9118800E+02  0.7818608E-02  0.1130116E+00
         25   -1    0    0    0    0  0.00000000000E+00  0.00000000000E+00  0.99999998245E-14  0.12500000000E+03  0.12500000000E+03 0.  0.
        -13    1    3    3    0    0 -0.16152797272E+02  0.59601757773E+02  0.20834102039E+01  0.61787006332E+02  0.10566000000E+00 0.  1.
         23    2    1    0    0    0 -0.56793565394E+01  0.27686114219E+02 -0.54620483226E+01  0.96214413622E+02  0.91807425655E+02 0.  0.
         13    1    3    3    0    0  0.10473440733E+02 -0.31915643554E+02 -0.75454585266E+01  0.34427407289E+02  0.10566000000E+00 0. -1.
         22    1    1    0    0    0  0.56793565394E+01 -0.27686114219E+02  0.54620483226E+01  0.28785586378E+02  0.00000000000E+00 0.  1.
</event>
<event>
 5    1  0.6924836E-004  0.9118800E+02  0.7818608E-02  0.1130116E+00
         25   -1    0    0    0    0  0.00000000000E+00  0.00000000000E+00  0.99999998245E-14  0.12500000000E+03  0.12500000000E+03 0.  0.
        -13    1    3    3    0    0 -0.33850809054E+02  0.50819063162E+02 -0.56676388846E+01  0.61323631243E+02  0.10566000000E+00 0.  1.
         23    2    1    0    0    0 -0.83462754481E+01  0.24276985533E+02 -0.77256238499E+01  0.98191090953E+02  0.94460429484E+02 0.  0.
         13    1    3    3    0    0  0.25504533606E+02 -0.26542077629E+02 -0.20579849653E+01  0.36867459710E+02  0.10566000000E+00 0. -1.
         22    1    1    0    0    0  0.83462754481E+01 -0.24276985533E+02  0.77256238499E+01  0.26808909047E+02  0.00000000000E+00 0.  1.
</event>
<event>
 5    1  0.6924836E-004  0.9118800E+02  0.7818608E-02  0.1130116E+00
         25   -1    0    0    0    0  0.00000000000E+00  0.00000000000E+00  0.99999998245E-14  0.12500000000E+03  0.12500000000E+03 0.  0.
        -13    1    3    3    0    0  0.48193031757E+02 -0.72017991763E+01  0.15164607926E+02  0.51033427466E+02  0.10566000000E+00 0. -1.
         23    2    1    0    0    0  0.85556974857E+01 -0.14236255514E+02  0.27269180459E+02  0.93070716679E+02  0.87422418004E+02 0.  0.
         13    1    3    3    0    0 -0.39637334272E+02 -0.70344563376E+01  0.12104572533E+02  0.42037289213E+02  0.10566000000E+00 0.  1.
         22    1    1    0    0    0 -0.85556974857E+01  0.14236255514E+02 -0.27269180459E+02  0.31929283321E+02  0.00000000000E+00 0.  1.
</event>
<event>
 4    1  0.6924836E-004  0.9118800E+02  0.7818608E-02  0.1130116E+00
         25   -1    0    0    0    0  0.00000000000E+00  0.00000000000E+00  0.99999998245E-14  0.12500000000E+03  0.12500000000E+03 0.  0.
        -13    1    1    0    0    0 -0.12920801241E+02 -0.27576884572E+02  0.26899693783E+02  0.40632946694E+02  0.10566000000E+00 0. -1.
         13    1    1    0    0    0  0.18119410204E+02 -0.21333927784E+02  0.63614972744E+00  0.27997595457E+02  0.10566000000E+00 0.  1.
         22    1    1    0    0    0 -0.51986089628E+01  0.48910812356E+02 -0.27535843510E+02  0.56369457849E+02  0.00000000000E+00 0. -1.
</event>
<event>
 5    1  0.6924836E-004  0.9118800E+02  0.7818608E-02  0.1130116E+00
         25   -1    0    0    0    0  0.00000000000E+00  0.00000000000E+00  0.99999998245E-14  0.12500000000E+03  0.12500000000E+03 0.  0.
        -13    1    3    3    0    0 -0.15955092062E+02  0.29082910045E+02 -0.24236776867E+02  0.41083003010E+02  0.10566000000E+00 0. -1.
         23    2    1    0    0    0  0.16808508954E+02  0.17991531974E+02  0.17129747271E+02  0.95005843276E+02  0.90146884688E+02 0.  0.
         13    1    3    3    0    0  0.32763601015E+02 -0.11091378071E+02  0.41366524138E+02  0.53922840266E+02  0.10566000000E+00 0.  1.
         22    1    1    0    0    0 -0.16808508954E+02 -0.17991531974E+02 -0.17129747271E+02  0.29994156724E+02  0.00000000000E+00 0.  1.
</event>
<event>
 5    1  0.6924836E-004  0.9118800E+02  0.7818608E-02  0.1130116E+00
         25   -1    0    0    0    0  0.00000000000E+00  0.00000000000E+00  0.99999998245E-14  0.12500000000E+03  0.12500000000E+03 0.  0.
        -13    1    3    3    0    0  0.40270084286E+02 -0.82418512385E+01  0.11701388136E+02  0.42738056210E+02  0.10566000000E+00 0.  1.
         23    2    1    0    0    0  0.12348522355E+02  0.30925799801E+02  0.57734180125E+01  0.91203203506E+02  0.84710099023E+02 0.  0.
         13    1    3    3    0    0 -0.27921561931E+02  0.39167651040E+02 -0.59279701232E+01  0.48465147296E+02  0.10566000000E+00 0. -1.
         22    1    1    0    0    0 -0.12348522355E+02 -0.30925799801E+02 -0.57734180125E+01  0.33796796494E+02  0.00000000000E+00 0.  1.
</event>
<event>
 5    1  0.6924836E-004  0.9118800E+02  0.7818608E-02  0.1130116E+00
         25   -1    0    0    0    0  0.00000000000E+00  0.00000000000E+00  0.99999998245E-14  0.12500000000E+03  0.12500000000E+03 0.  0.
        -13    1    3    3    0    0 -0.31804681173E+01 -0.79306378679E+01  0.59767380019E+02  0.60375170996E+02  0.10566000000E+00 0. -1.
         23    2    1    0    0    0  0.91661514267E+01 -0.80208225398E+01  0.27546269503E+02  0.94881087508E+02  0.89973728816E+02 0.  0.
         13    1    3    3    0    0  0.12346619544E+02 -0.90184671848E-01 -0.32221110516E+02  0.34505916512E+02  0.10566000000E+00 0.  1.
         22    1    1    0    0    0 -0.91661514267E+01  0.80208225398E+01 -0.27546269503E+02  0.30118912492E+02  0.00000000000E+00 0. -1.
</event>
<event>
 5    1  0.6924836E-004  0.9118800E+02  0.7818608E-02  0.1130116E+00
         25   -1    0    0    0    0  0.00000000000E+00  0.00000000000E+00  0.99999998245E-14  0.12500000000E+03  0.12500000000E+03 0.  0.
        -13    1    3    3    0    0 -0.31063019808E+02 -0.15595086805E+02 -0.38350435915E+02  0.51757946548E+02  0.10566000000E+00 0.  1.
         23    2    1    0    0    0 -0.23177108751E+02  0.16163926460E+02 -0.10089416704E+02  0.94995879982E+02  0.90133068268E+02 0.  0.
         13    1    3    3    0    0  0.78859110566E+01  0.31759013265E+02  0.28261019210E+02  0.43237933433E+02  0.10566000000E+00 0. -1.
         22    1    1    0    0    0  0.23177108751E+02 -0.16163926460E+02  0.10089416704E+02  0.30004120018E+02  0.00000000000E+00 0.  1.
</event>
<event>
 5    1  0.6924836E-004  0.9118800E+02  0.7818608E-02  0.1130116E+00
         25   -1    0    0    0    0  0.00000000000E+00  0.00000000000E+00  0.99999998245E-14  0.12500000000E+03  0.12500000000E+03 0.  0.
        -13    1    3    3    0    0  0.38472465327E+02  0.14143352382E+02  0.15045804750E+02  0.43664086038E+02  0.10566000000E+00 0.  1.
         23    2    1    0    0    0 -0.16439896916E+01 -0.14002263904E+02  0.27385004215E+02  0.94198952089E+02  0.89020997648E+02 0.  0.
         13    1    3    3    0    0 -0.40116455018E+02 -0.28145616286E+02  0.12339199465E+02  0.50534866051E+02  0.10566000000E+00 0. -1.
         22    1    1    0    0    0  0.16439896916E+01  0.14002263904E+02 -0.27385004215E+02  0.30801047911E+02  0.00000000000E+00 0.  1.
</event>
<event>
 5    1  0.6924836E-004  0.9118800E+02  0.7818608E-02  0.1130116E+00
         25   -1    0    0    0    0  0.00000000000E+00  0.00000000000E+00  0.99999998245E-14  0.12500000000E+03  0.12500000000E+03 0.  0.
        -13    1    3    3    0    0 -0.41481878835E+02 -0.36620962973E+02 -0.14984245574E+02  0.57326956837E+02  0.10566000000E+00 0.  1.
         23    2    1    0    0    0 -0.21064798780E+02 -0.92875833250E+01 -0.23090483518E+02  0.92393936442E+02  0.86449315269E+02 0.  0.
         13    1    3    3    0    0  0.20417080056E+02  0.27333379648E+02 -0.81062379442E+01  0.35066979605E+02  0.10566000000E+00 0. -1.
         22    1    1    0    0    0  0.21064798780E+02  0.92875833250E+01  0.23090483518E+02  0.32606063558E+02  0.00000000000E+00 0.  1.
</event>
<event>
 5    1  0.6924836E-004  0.9118800E+02  0.7818608E-02  0.1130116E+00
         25   -1    0    0    0    0  0.00000000000E+00  0.00000000000E+00  0.99999998245E-14  0.12500000000E+03  0.12500000000E+03 0.  0.
        -13    1    3    3    0    0  0.32968350631E+01 -0.39930348397E+01 -0.52267663773E+02  0.52523645047E+02  0.10566000000E+00 0. -1.
         23    2    1    0    0    0  0.24963575699E+02 -0.78743949981E+01 -0.18071830596E+02  0.93191553490E+02  0.87595024816E+02 0.  0.
         13    1    3    3    0    0  0.21666740636E+02 -0.38813601585E+01  0.34195833177E+02  0.40667908443E+02  0.10566000000E+00 0.  1.
         22    1    1    0    0    0 -0.24963575699E+02  0.78743949981E+01  0.18071830596E+02  0.31808446510E+02  0.00000000000E+00 0. -1.
</event>
<event>
 5    1  0.6924836E-004  0.9118800E+02  0.7818608E-02  0.1130116E+00
         25   -1    0    0    0    0  0.00000000000E+00  0.00000000000E+00  0.99999998245E-14  0.12500000000E+03  0.12500000000E+03 0.  0.
        -13    1    3    3    0    0  0.35054649279E+02 -0.88374906246E+01  0.43139999149E+02  0.56284992380E+02  0.10566000000E+00 0. -1.
         23    2    1    0    0    0 -0.13342316456E+01 -0.97023385059E+00  0.28755820295E+02  0.96196897239E+02  0.91783573202E+02 0.  0.
         13    1    3    3    0    0 -0.36388880925E+02  0.78672567740E+01 -0.14384178853E+02  0.39911904859E+02  0.10566000000E+00 0.  1.
         22    1    1    0    0    0  0.13342316456E+01  0.97023385059E+00 -0.28755820295E+02  0.28803102761E+02  0.00000000000E+00 0. -1.
</event>
<event>
 5    1  0.6924836E-004  0.9118800E+02  0.7818608E-02  0.1130116E+00
         25   -1    0    0    0    0  0.00000000000E+00  0.00000000000E+00  0.99999998245E-14  0.12500000000E+03  0.12500000000E+03 0.  0.
        -13    1    3    3    0    0 -0.43700301267E+02 -0.25130482278E+02 -0.27019292169E+02  0.57195373796E+02  0.10566000000E+00 0. -1.
         23    2    1    0    0    0 -0.14289861246E+02 -0.23955918205E+02 -0.66157714236E-01  0.97105725886E+02  0.93013071509E+02 0.  0.
         13    1    3    3    0    0  0.29410440021E+02  0.11745640729E+01  0.26953134455E+02  0.39910352090E+02  0.10566000000E+00 0.  1.
         22    1    1    0    0    0  0.14289861246E+02  0.23955918205E+02  0.66157714236E-01  0.27894274114E+02  0.00000000000E+00 0.  1.
</event>
<event>
 5    1  0.6924836E-004  0.9118800E+02  0.7818608E-02  0.1130116E+00
         25   -1    0    0    0    0  0.00000000000E+00  0.00000000000E+00  0.99999998245E-14  0.12500000000E+03  0.12500000000E+03 0.  0.
        -13    1    3    3    0    0 -0.23372663655E+02 -0.23080016082E+02  0.30832407172E+02  0.45051271289E+02  0.10566000000E+00 0.  1.
         23    2    1    0    0    0 -0.91774441423E+01 -0.21734828598E+02 -0.17616954021E+02  0.95555385482E+02  0.90905700429E+02 0.  0.
         13    1    3    3    0    0  0.14195219513E+02  0.13451874842E+01 -0.48449361193E+02  0.50504114193E+02  0.10566000000E+00 0. -1.
         22    1    1    0    0    0  0.91774441423E+01  0.21734828598E+02  0.17616954021E+02  0.29444614518E+02  0.00000000000E+00 0. -1.
</event>
<event>
 5    1  0.6924836E-004  0.9118800E+02  0.7818608E-02  0.1130116E+00
         25   -1    0    0    0    0  0.00000000000E+00  0.00000000000E+00  0.99999998245E-14  0.12500000000E+03  0.12500000000E+03 0.  0.
        -13    1    3    3    0    0  0.44529215403E+02 -0.31460818588E+01 -0.34017729408E+02  0.56124557313E+02  0.10566000000E+00 0.  1.
         23    2    1    0    0    0  0.64191793235E+01 -0.10533922630E+02 -0.26644842055E+02  0.95638171084E+02  0.91019463693E+02 0.  0.
         13    1    3    3    0    0 -0.38110036080E+02 -0.73878407710E+01  0.73728873522E+01  0.39513613771E+02  0.10566000000E+00 0. -1.
         22    1    1    0    0    0 -0.64191793235E+01  0.10533922630E+02  0.26644842055E+02  0.29361828916E+02  0.00000000000E+00 0.  1.
</event>
<event>
 5    1  0.6924836E-004  0.9118800E+02  0.7818608E-02  0.1130116E+00
         25   -1    0    0    0    0  0.00000000000E+00  0.00000000000E+00  0.99999998245E-14  0.12500000000E+03  0.12500000000E+03 0.  0.
        -13    1    3    3    0    0 -0.56296641826E+02 -0.10824197363E+02  0.24216407212E+02  0.62232794182E+02  0.10566000000E+00 0.  1.
         23    2    1    0    0    0 -0.24652984018E+02 -0.82329910246E+01  0.13273663169E+02  0.95815382543E+02  0.91262509475E+02 0.  0.
         13    1    3    3    0    0  0.31643657808E+02  0.25912063383E+01 -0.10942744042E+02  0.33582588361E+02  0.10566000000E+00 0. -1.
         22    1    1    0    0    0  0.24652984018E+02  0.82329910246E+01 -0.13273663169E+02  0.29184617457E+02  0.00000000000E+00 0.  1.
</event>
<event>
 5    1  0.6924836E-004  0.9118800E+02  0.7818608E-02  0.1130116E+00
         25   -1    0    0    0    0  0.00000000000E+00  0.00000000000E+00  0.99999998245E-14  0.12500000000E+03  0.12500000000E+03 0.  0.
        -13    1    3    3    0    0 -0.54096599228E+02  0.28754681031E+02 -0.38931619616E+01  0.61387633961E+02  0.10566000000E+00 0. -1.
         23    2    1    0    0    0 -0.28723513267E+02  0.62081863163E+01 -0.40792334741E+01  0.95331465532E+02  0.90597275804E+02 0.  0.
         13    1    3    3    0    0  0.25373085961E+02 -0.22546494715E+02 -0.18607151252E+00  0.33943831572E+02  0.10566000000E+00 0.  1.
         22    1    1    0    0    0  0.28723513267E+02 -0.62081863163E+01  0.40792334741E+01  0.29668534468E+02  0.00000000000E+00 0. -1.
</event>
<event>
 5    1  0.6924836E-004  0.9118800E+02  0.7818608E-02  0.1130116E+00
         25   -1    0    0    0    0  0.00000000000E+00  0.00000000000E+00  0.99999998245E-14  0.12500000000E+03  0.12500000000E+03 0.  0.
        -13    1    3    3    0    0 -0.88240987831E+01 -0.51863222537E+01  0.33244559902E+02  0.34784688944E+02  0.10566000000E+00 0. -1.
         23    2    1    0    0    0  0.12360562214E+02 -0.10840610111E+02 -0.23899815809E+02  0.95991319894E+02  0.91503169199E+02 0.  0.
         13    1    3    3    0    0  0.21184660998E+02 -0.56542878569E+01 -0.57144375711E+02  0.61206630949E+02  0.10566000000E+00 0.  1.
         22    1    1    0    0    0 -0.12360562214E+02  0.10840610111E+02  0.23899815809E+02  0.29008680106E+02  0.00000000000E+00 0.  1.
</event>
<event>
 5    1  0.6924836E-004  0.9118800E+02  0.7818608E-02  0.1130116E+00
         25   -1    0    0    0    0  0.00000000000E+00  0.00000000000E+00  0.99999998245E-14  0.12500000000E+03  0.12500000000E+03 0.  0.
        -13    1    3    3    0    0 -0.42908422317E+02 -0.33093261372E+02 -0.26573361409E+02  0.60352724500E+02  0.10566000000E+00 0.  1.
         23    2    1    0    0    0 -0.11914999652E+02 -0.23697234842E+02 -0.11074423479E+02  0.96256844097E+02  0.91865178519E+02 0.  0.
         13    1    3    3    0    0  0.30993422665E+02  0.93960265304E+01  0.15498937930E+02  0.35904119597E+02  0.10566000000E+00 0. -1.
         22    1    1    0    0    0  0.11914999652E+02  0.23697234842E+02  0.11074423479E+02  0.28743155903E+02  0.00000000000E+00 0.  1.
</event>
<event>
 5    1  0.6924836E-004  0.9118800E+02  0.7818608E-02  0.1130116E+00
         25   -1    0    0    0    0  0.00000000000E+00  0.00000000000E+00  0.99999998245E-14  0.12500000000E+03  0.12500000000E+03 0.  0.
        -13    1    3    3    0    0 -0.17686855495E+02  0.19600816073E+02  0.22177623485E+02  0.34480066640E+02  0.10566000000E+00 0. -1.
         23    2    1    0    0    0  0.26026569425E+02 -0.23660478464E+01 -0.14024649844E+02  0.95340746778E+02  0.90610080535E+02 0.  0.
         13    1    3    3    0    0  0.43713424920E+02 -0.21966863919E+02 -0.36202273329E+02  0.60860680138E+02  0.10566000000E+00 0.  1.
         22    1    1    0    0    0 -0.26026569425E+02  0.23660478464E+01  0.14024649844E+02  0.29659253222E+02  0.00000000000E+00 0.  1.
</event>
<event>
 5    1  0.6924836E-004  0.9118800E+02  0.7818608E-02  0.1130116E+00
         25   -1    0    0    0    0  0.00000000000E+00  0.00000000000E+00  0.99999998245E-14  0.12500000000E+03  0.12500000000E+03 0.  0.
        -13    1    3    3    0    0  0.11234725365E+02 -0.19391700769E+02 -0.46902944399E+02  0.51982251491E+02  0.10566000000E+00 0.  1.
         23    2    1    0    0    0 -0.68810527218E+01  0.12312225717E+02 -0.29221117133E+02  0.92552912686E+02  0.86678879616E+02 0.  0.
         13    1    3    3    0    0 -0.18115778087E+02  0.31703926486E+02  0.17681827266E+02  0.40570661195E+02  0.10566000000E+00 0. -1.
         22    1    1    0    0    0  0.68810527218E+01 -0.12312225717E+02  0.29221117133E+02  0.32447087314E+02  0.00000000000E+00 0.  1.
</event>
<event>
 5    1  0.6924836E-004  0.9118800E+02  0.7818608E-02  0.1130116E+00
         25   -1    0    0    0    0  0.00000000000E+00  0.00000000000E+00  0.99999998245E-14  0.12500000000E+03  0.12500000000E+03 0.  0.
        -13    1    3    3    0    0  0.17043825187E+02  0.36120877106E+02 -0.15460832523E+02  0.42828241223E+02  0.10566000000E+00 0.  1.
         23    2    1    0    0    0  0.36684929223E+01 -0.12857109260E+02 -0.26978781358E+02  0.94889906304E+02  0.89985979885E+02 0.  0.
         13    1    3    3    0    0 -0.13375332265E+02 -0.48977986365E+02 -0.11517948835E+02  0.52061665081E+02  0.10566000000E+00 0. -1.
         22    1    1    0    0    0 -0.36684929223E+01  0.12857109260E+02  0.26978781358E+02  0.30110093696E+02  0.00000000000E+00 0. -1.
</event>
<event>
 5    1  0.6924836E-004  0.9118800E+02  0.7818608E-02  0.1130116E+00
         25   -1    0    0    0    0  0.00000000000E+00  0.00000000000E+00  0.99999998245E-14  0.12500000000E+03  0.12500000000E+03 0.  0.
        -13    1    3    3    0    0 -0.51862943418E+01  0.23612437807E+02 -0.44760835067E+02  0.50872275241E+02  0.10566000000E+00 0. -1.
         23    2    1    0    0    0 -0.23730059787E+02  0.15062531271E+02 -0.38046557781E+01  0.96636802166E+02  0.92380736853E+02 0.  0.
         13    1    3    3    0    0 -0.18543765446E+02 -0.85499065359E+01  0.40956179289E+02  0.45764526925E+02  0.10566000000E+00 0.  1.
         22    1    1    0    0    0  0.23730059787E+02 -0.15062531271E+02  0.38046557781E+01  0.28363197834E+02  0.00000000000E+00 0. -1.
</event>
<event>
 5    1  0.6924836E-004  0.9118800E+02  0.7818608E-02  0.1130116E+00
         25   -1    0    0    0    0  0.00000000000E+00  0.00000000000E+00  0.99999998245E-14  0.12500000000E+03  0.12500000000E+03 0.  0.
        -13    1    3    3    0    0  0.21546007059E+02 -0.55919671369E+02  0.11799086729E+02  0.61077570989E+02  0.10566000000E+00 0.  1.
         23    2    1    0    0    0  0.10316859461E+01 -0.28045221534E+02  0.74824075055E+01  0.95955460946E+02  0.91454170143E+02 0.  0.
         13    1    3    3    0    0 -0.20514321113E+02  0.27874449835E+02 -0.43166792231E+01  0.34877889958E+02  0.10566000000E+00 0. -1.
         22    1    1    0    0    0 -0.10316859461E+01  0.28045221534E+02 -0.74824075055E+01  0.29044539054E+02  0.00000000000E+00 0.  1.
</event>
<event>
 5    1  0.6924836E-004  0.9118800E+02  0.7818608E-02  0.1130116E+00
         25   -1    0    0    0    0  0.00000000000E+00  0.00000000000E+00  0.99999998245E-14  0.12500000000E+03  0.12500000000E+03 0.  0.
        -13    1    3    3    0    0 -0.33117736811E+02 -0.12672741316E+02  0.13371070670E+02  0.37896959758E+02  0.10566000000E+00 0.  1.
         23    2    1    0    0    0  0.96969827773E+01  0.26019689904E+02 -0.41570415867E+00  0.97228998080E+02  0.93178589386E+02 0.  0.
         13    1    3    3    0    0  0.42814719589E+02  0.38692431221E+02 -0.13786774829E+02  0.59332038322E+02  0.10566000000E+00 0. -1.
         22    1    1    0    0    0 -0.96969827773E+01 -0.26019689904E+02  0.41570415867E+00  0.27771001920E+02  0.00000000000E+00 0. -1.
</event>
<event>
 5    1  0.6924836E-004  0.9118800E+02  0.7818608E-02  0.1130116E+00
         25   -1    0    0    0    0  0.00000000000E+00  0.00000000000E+00  0.99999998245E-14  0.12500000000E+03  0.12500000000E+03 0.  0.
        -13    1    3    3    0    0  0.25250467660E+02  0.41266442539E+02  0.98423435708E+01  0.49369912780E+02  0.10566000000E+00 0.  1.
         23    2    1    0    0    0 -0.14331982622E+02  0.25079219029E+02 -0.69113873247E+01  0.95299154427E+02  0.90552684150E+02 0.  0.
         13    1    3    3    0    0 -0.39582450283E+02 -0.16187223509E+02 -0.16753730896E+02  0.45929241647E+02  0.10566000000E+00 0. -1.
         22    1    1    0    0    0  0.14331982622E+02 -0.25079219029E+02  0.69113873247E+01  0.29700845573E+02  0.00000000000E+00 0. -1.
</event>
<event>
 5    1  0.6924836E-004  0.9118800E+02  0.7818608E-02  0.1130116E+00
         25   -1    0    0    0    0  0.00000000000E+00  0.00000000000E+00  0.99999998245E-14  0.12500000000E+03  0.12500000000E+03 0.  0.
        -13    1    3    3    0    0 -0.18740274963E+02 -0.22378631134E+02 -0.19648011896E+02  0.35186028088E+02  0.10566000000E+00 0.  1.
         23    2    1    0    0    0  0.10214458315E+02  0.27220017002E+02  0.12487097926E+00  0.95926299221E+02  0.91414303067E+02 0.  0.
         13    1    3    3    0    0  0.28954733277E+02  0.49598648136E+02  0.19772882875E+02  0.60740271133E+02  0.10566000000E+00 0. -1.
         22    1    1    0    0    0 -0.10214458315E+02 -0.27220017002E+02 -0.12487097926E+00  0.29073700779E+02  0.00000000000E+00 0. -1.
</event>
<event>
 5    1  0.6924836E-004  0.9118800E+02  0.7818608E-02  0.1130116E+00
         25   -1    0    0    0    0  0.00000000000E+00  0.00000000000E+00  0.99999998245E-14  0.12500000000E+03  0.12500000000E+03 0.  0.
        -13    1    3    3    0    0  0.13754961018E+02 -0.38744044512E+02 -0.29132828901E+02  0.50388816433E+02  0.10566000000E+00 0. -1.
         23    2    1    0    0    0 -0.13758420265E+02 -0.11115523951E+01 -0.24033744113E+02  0.97284471266E+02  0.93252977521E+02 0.  0.
         13    1    3    3    0    0 -0.27513381282E+02  0.37632492117E+02  0.50990847885E+01  0.46895654833E+02  0.10566000000E+00 0.  1.
         22    1    1    0    0    0  0.13758420265E+02  0.11115523951E+01  0.24033744113E+02  0.27715528734E+02  0.00000000000E+00 0.  1.
</event>
<event>
 5    1  0.6924836E-004  0.9118800E+02  0.7818608E-02  0.1130116E+00
         25   -1    0    0    0    0  0.00000000000E+00  0.00000000000E+00  0.99999998245E-14  0.12500000000E+03  0.12500000000E+03 0.  0.
        -13    1    3    3    0    0  0.15213925794E+02  0.32539941798E+02 -0.14550061346E+02  0.38755990498E+02  0.10566000000E+00 0.  1.
         23    2    1    0    0    0 -0.80602416533E+01 -0.23159525128E+02 -0.62809877703E+01  0.99686329641E+02  0.96418786605E+02 0.  0.
         13    1    3    3    0    0 -0.23274167447E+02 -0.55699466926E+02  0.82690735753E+01  0.60930339143E+02  0.10566000000E+00 0. -1.
         22    1    1    0    0    0  0.80602416533E+01  0.23159525128E+02  0.62809877703E+01  0.25313670359E+02  0.00000000000E+00 0. -1.
</event>
<event>
 5    1  0.6924836E-004  0.9118800E+02  0.7818608E-02  0.1130116E+00
         25   -1    0    0    0    0  0.00000000000E+00  0.00000000000E+00  0.99999998245E-14  0.12500000000E+03  0.12500000000E+03 0.  0.
        -13    1    3    3    0    0 -0.14218883477E+02  0.92420931796E+01  0.52653026424E+02  0.55316772224E+02  0.10566000000E+00 0. -1.
         23    2    1    0    0    0 -0.24505311146E+02 -0.14642267820E+00  0.13179869253E+02  0.97174819543E+02  0.93105879973E+02 0.  0.
         13    1    3    3    0    0 -0.10286427669E+02 -0.93885158578E+01 -0.39473157171E+02  0.41858047318E+02  0.10566000000E+00 0.  1.
         22    1    1    0    0    0  0.24505311146E+02  0.14642267820E+00 -0.13179869253E+02  0.27825180457E+02  0.00000000000E+00 0. -1.
</event>
<event>
 5    1  0.6924836E-004  0.9118800E+02  0.7818608E-02  0.1130116E+00
         25   -1    0    0    0    0  0.00000000000E+00  0.00000000000E+00  0.99999998245E-14  0.12500000000E+03  0.12500000000E+03 0.  0.
        -13    1    3    3    0    0  0.26341499765E+02 -0.32886061345E+01 -0.32936831597E+02  0.42302902736E+02  0.10566000000E+00 0.  1.
         23    2    1    0    0    0 -0.22639198567E+02 -0.10029262531E+02 -0.19340295770E+02  0.93580794740E+02  0.88148730479E+02 0.  0.
         13    1    3    3    0    0 -0.48980698333E+02 -0.67406563970E+01  0.13596535828E+02  0.51277892004E+02  0.10566000000E+00 0. -1.
         22    1    1    0    0    0  0.22639198567E+02  0.10029262531E+02  0.19340295770E+02  0.31419205260E+02  0.00000000000E+00 0. -1.
</event>
<event>
 5    1  0.6924836E-004  0.9118800E+02  0.7818608E-02  0.1130116E+00
         25   -1    0    0    0    0  0.00000000000E+00  0.00000000000E+00  0.99999998245E-14  0.12500000000E+03  0.12500000000E+03 0.  0.
        -13    1    3    3    0    0  0.36242974252E+02 -0.24114399635E+02 -0.30470672323E+02  0.53136903262E+02  0.10566000000E+00 0. -1.
         23    2    1    0    0    0  0.22904847841E+02 -0.17033032502E+02  0.87340795392E+01  0.95149700233E+02  0.90346140251E+02 0.  0.
         13    1    3    3    0    0 -0.13338126412E+02  0.70813671337E+01  0.39204751862E+02  0.42012796971E+02  0.10566000000E+00 0.  1.
         22    1    1    0    0    0 -0.22904847841E+02  0.17033032502E+02 -0.87340795392E+01  0.29850299767E+02  0.00000000000E+00 0. -1.
</event>
<event>
 5    1  0.6924836E-004  0.9118800E+02  0.7818608E-02  0.1130116E+00
         25   -1    0    0    0    0  0.00000000000E+00  0.00000000000E+00  0.99999998245E-14  0.12500000000E+03  0.12500000000E+03 0.  0.
        -13    1    3    3    0    0 -0.47299450488E+02  0.21954361758E+02 -0.26463543630E+02  0.58477023883E+02  0.10566000000E+00 0. -1.
         23    2    1    0    0    0 -0.29613209994E+02  0.79619926215E-01 -0.27676700010E+01  0.95257630513E+02  0.90495345893E+02 0.  0.
         13    1    3    3    0    0  0.17686240494E+02 -0.21874741832E+02  0.23695873629E+02  0.36780606630E+02  0.10566000000E+00 0.  1.
         22    1    1    0    0    0  0.29613209994E+02 -0.79619926215E-01  0.27676700010E+01  0.29742369487E+02  0.00000000000E+00 0. -1.
</event>
<event>
 5    1  0.6924836E-004  0.9118800E+02  0.7818608E-02  0.1130116E+00
         25   -1    0    0    0    0  0.00000000000E+00  0.00000000000E+00  0.99999998245E-14  0.12500000000E+03  0.12500000000E+03 0.  0.
        -13    1    3    3    0    0  0.18501175026E+02  0.32410520217E+02  0.48388468744E+02  0.61108022137E+02  0.10566000000E+00 0.  1.
         23    2    1    0    0    0  0.17014098882E+02  0.11501030706E+02  0.27246802193E+02  0.90880482158E+02  0.84232538484E+02 0.  0.
         13    1    3    3    0    0 -0.14870761440E+01 -0.20909489511E+02 -0.21141666552E+02  0.29772460021E+02  0.10566000000E+00 0. -1.
         22    1    1    0    0    0 -0.17014098882E+02 -0.11501030706E+02 -0.27246802193E+02  0.34119517842E+02  0.00000000000E+00 0.  1.
</event>
<event>
 5    1  0.6924836E-004  0.9118800E+02  0.7818608E-02  0.1130116E+00
         25   -1    0    0    0    0  0.00000000000E+00  0.00000000000E+00  0.99999998245E-14  0.12500000000E+03  0.12500000000E+03 0.  0.
        -13    1    3    3    0    0  0.23478984743E+02  0.13999086042E+02 -0.54834449110E+02  0.61270426045E+02  0.10566000000E+00 0. -1.
         23    2    1    0    0    0  0.15672181543E+02 -0.74204529365E+00 -0.24030754454E+02  0.96300782848E+02  0.91924946081E+02 0.  0.
         13    1    3    3    0    0 -0.78068032002E+01 -0.14741131335E+02  0.30803694656E+02  0.35030356803E+02  0.10566000000E+00 0.  1.
         22    1    1    0    0    0 -0.15672181543E+02  0.74204529365E+00  0.24030754454E+02  0.28699217152E+02  0.00000000000E+00 0. -1.
</event>
<event>
 5    1  0.6924836E-004  0.9118800E+02  0.7818608E-02  0.1130116E+00
         25   -1    0    0    0    0  0.00000000000E+00  0.00000000000E+00  0.99999998245E-14  0.12500000000E+03  0.12500000000E+03 0.  0.
        -13    1    3    3    0    0  0.30275471421E+02  0.15825847857E+02 -0.50294390294E+01  0.34530682750E+02  0.10566000000E+00 0.  1.
         23    2    1    0    0    0 -0.24395684263E+02 -0.13613398263E+02 -0.49704625707E+01  0.96624314615E+02  0.92363838452E+02 0.  0.
         13    1    3    3    0    0 -0.54671155684E+02 -0.29439246121E+02  0.58976458690E-01  0.62093631865E+02  0.10566000000E+00 0. -1.
         22    1    1    0    0    0  0.24395684263E+02  0.13613398263E+02  0.49704625707E+01  0.28375685385E+02  0.00000000000E+00 0. -1.
</event>
<event>
 5    1  0.6924836E-004  0.9118800E+02  0.7818608E-02  0.1130116E+00
         25   -1    0    0    0    0  0.00000000000E+00  0.00000000000E+00  0.99999998245E-14  0.12500000000E+03  0.12500000000E+03 0.  0.
        -13    1    3    3    0    0 -0.28741764006E+02 -0.30005721457E+01 -0.19454616357E+02  0.34836556848E+02  0.10566000000E+00 0.  1.
         23    2    1    0    0    0  0.19317757417E+02 -0.16103279875E+02  0.15287302223E+02  0.95568843318E+02  0.90924203761E+02 0.  0.
         13    1    3    3    0    0  0.48059521423E+02 -0.13102707729E+02  0.34741918580E+02  0.60732286470E+02  0.10566000000E+00 0. -1.
         22    1    1    0    0    0 -0.19317757417E+02  0.16103279875E+02 -0.15287302223E+02  0.29431156682E+02  0.00000000000E+00 0. -1.
</event>
<event>
 5    1  0.6924836E-004  0.9118800E+02  0.7818608E-02  0.1130116E+00
         25   -1    0    0    0    0  0.00000000000E+00  0.00000000000E+00  0.99999998245E-14  0.12500000000E+03  0.12500000000E+03 0.  0.
        -13    1    3    3    0    0 -0.11015796994E+02  0.19502301630E+02 -0.26920223057E+02  0.35019953252E+02  0.10566000000E+00 0.  1.
         23    2    1    0    0    0  0.62843254379E+01 -0.25971059700E+02  0.10388296695E+02  0.96331107514E+02  0.91966172468E+02 0.  0.
         13    1    3    3    0    0  0.17300122432E+02 -0.45473361330E+02  0.37308519752E+02  0.61311154262E+02  0.10566000000E+00 0. -1.
         22    1    1    0    0    0 -0.62843254379E+01  0.25971059700E+02 -0.10388296695E+02  0.28668892486E+02  0.00000000000E+00 0. -1.
</event>
<event>
 5    1  0.6924836E-004  0.9118800E+02  0.7818608E-02  0.1130116E+00
         25   -1    0    0    0    0  0.00000000000E+00  0.00000000000E+00  0.99999998245E-14  0.12500000000E+03  0.12500000000E+03 0.  0.
        -13    1    3    3    0    0 -0.49094035646E+01 -0.48290418430E+02 -0.35391922523E+02  0.60072174085E+02  0.10566000000E+00 0. -1.
         23    2    1    0    0    0  0.94563271992E+01 -0.25375520556E+02 -0.14260288128E+02  0.94394526877E+02  0.89295194267E+02 0.  0.
         13    1    3    3    0    0  0.14365730764E+02  0.22914897874E+02  0.21131634394E+02  0.34322352791E+02  0.10566000000E+00 0.  1.
         22    1    1    0    0    0 -0.94563271992E+01  0.25375520556E+02  0.14260288128E+02  0.30605473123E+02  0.00000000000E+00 0. -1.
</event>
<event>
 5    1  0.6924836E-004  0.9118800E+02  0.7818608E-02  0.1130116E+00
         25   -1    0    0    0    0  0.00000000000E+00  0.00000000000E+00  0.99999998245E-14  0.12500000000E+03  0.12500000000E+03 0.  0.
        -13    1    3    3    0    0  0.16674082166E+02 -0.20404956926E+02  0.29470037935E+02  0.39533297145E+02  0.10566000000E+00 0.  1.
         23    2    1    0    0    0 -0.65428267908E+01  0.26578991710E+02  0.14434406741E+02  0.94054831060E+02  0.88818397672E+02 0.  0.
         13    1    3    3    0    0 -0.23216908957E+02  0.46983948637E+02 -0.15035631194E+02  0.54521533915E+02  0.10566000000E+00 0. -1.
         22    1    1    0    0    0  0.65428267908E+01 -0.26578991710E+02 -0.14434406741E+02  0.30945168940E+02  0.00000000000E+00 0.  1.
</event>
<event>
 5    1  0.6924836E-004  0.9118800E+02  0.7818608E-02  0.1130116E+00
         25   -1    0    0    0    0  0.00000000000E+00  0.00000000000E+00  0.99999998245E-14  0.12500000000E+03  0.12500000000E+03 0.  0.
        -13    1    3    3    0    0  0.86017099926E+01  0.40294406106E+02  0.26758385937E+02  0.49128921830E+02  0.10566000000E+00 0. -1.
         23    2    1    0    0    0  0.10137868795E+02 -0.56992557902E+01  0.27486705861E+02  0.95154114197E+02  0.90352247063E+02 0.  0.
         13    1    3    3    0    0  0.15361588028E+01 -0.45993661896E+02  0.72831992356E+00  0.46025192367E+02  0.10566000000E+00 0.  1.
         22    1    1    0    0    0 -0.10137868795E+02  0.56992557902E+01 -0.27486705861E+02  0.29845885803E+02  0.00000000000E+00 0. -1.
</event>
<event>
 5    1  0.6924836E-004  0.9118800E+02  0.7818608E-02  0.1130116E+00
         25   -1    0    0    0    0  0.00000000000E+00  0.00000000000E+00  0.99999998245E-14  0.12500000000E+03  0.12500000000E+03 0.  0.
        -13    1    3    3    0    0 -0.29412104600E+02 -0.33223162705E+02  0.32870709637E+02  0.55220876064E+02  0.10566000000E+00 0.  1.
         23    2    1    0    0    0 -0.18963381598E+02  0.65045193151E+01  0.14705786208E+02  0.10013679906E+03  0.97001029707E+02 0.  0.
         13    1    3    3    0    0  0.10448723002E+02  0.39727682020E+02 -0.18164923429E+02  0.44915922993E+02  0.10566000000E+00 0. -1.
         22    1    1    0    0    0  0.18963381598E+02 -0.65045193151E+01 -0.14705786208E+02  0.24863200943E+02  0.00000000000E+00 0.  1.
</event>
<event>
 5    1  0.6924836E-004  0.9118800E+02  0.7818608E-02  0.1130116E+00
         25   -1    0    0    0    0  0.00000000000E+00  0.00000000000E+00  0.99999998245E-14  0.12500000000E+03  0.12500000000E+03 0.  0.
        -13    1    3    3    0    0 -0.12194380385E+02 -0.16976207002E+02  0.31000392941E+02  0.37388902681E+02  0.10566000000E+00 0.  1.
         23    2    1    0    0    0  0.32367124372E+02 -0.54803804414E+01  0.24868464035E+02  0.83816194769E+02  0.73000333507E+02 0.  0.
         13    1    3    3    0    0  0.44561504757E+02  0.11495826560E+02 -0.61319289063E+01  0.46427292088E+02  0.10566000000E+00 0. -1.
         22    1    1    0    0    0 -0.32367124372E+02  0.54803804414E+01 -0.24868464035E+02  0.41183805231E+02  0.00000000000E+00 0. -1.
</event>
<event>
 5    1  0.6924836E-004  0.9118800E+02  0.7818608E-02  0.1130116E+00
         25   -1    0    0    0    0  0.00000000000E+00  0.00000000000E+00  0.99999998245E-14  0.12500000000E+03  0.12500000000E+03 0.  0.
        -13    1    3    3    0    0 -0.17305615839E+01 -0.15414045305E+02  0.37886155181E+02  0.40938485005E+02  0.10566000000E+00 0.  1.
         23    2    1    0    0    0  0.16542092856E+02  0.22774877676E+02  0.14171372813E+01  0.96815888034E+02  0.92622740235E+02 0.  0.
         13    1    3    3    0    0  0.18272654440E+02  0.38188922981E+02 -0.36469017900E+02  0.55877403030E+02  0.10566000000E+00 0. -1.
         22    1    1    0    0    0 -0.16542092856E+02 -0.22774877676E+02 -0.14171372813E+01  0.28184111966E+02  0.00000000000E+00 0. -1.
</event>
<event>
 5    1  0.6924836E-004  0.9118800E+02  0.7818608E-02  0.1130116E+00
         25   -1    0    0    0    0  0.00000000000E+00  0.00000000000E+00  0.99999998245E-14  0.12500000000E+03  0.12500000000E+03 0.  0.
        -13    1    3    3    0    0 -0.12953085589E+02  0.37748506653E+02  0.38711673985E+02  0.55599793593E+02  0.10566000000E+00 0.  1.
         23    2    1    0    0    0 -0.23756447220E+02  0.66599425658E+01  0.17387670060E+02  0.94816317495E+02  0.89883699154E+02 0.  0.
         13    1    3    3    0    0 -0.10803361631E+02 -0.31088564087E+02 -0.21324003925E+02  0.39216523902E+02  0.10566000000E+00 0. -1.
         22    1    1    0    0    0  0.23756447220E+02 -0.66599425658E+01 -0.17387670060E+02  0.30183682505E+02  0.00000000000E+00 0.  1.
</event>
<event>
 5    1  0.6924836E-004  0.9118800E+02  0.7818608E-02  0.1130116E+00
         25   -1    0    0    0    0  0.00000000000E+00  0.00000000000E+00  0.99999998245E-14  0.12500000000E+03  0.12500000000E+03 0.  0.
        -13    1    3    3    0    0  0.40454959604E+00  0.13729838914E+02 -0.29554804765E+02  0.32590946376E+02  0.10566000000E+00 0. -1.
         23    2    1    0    0    0 -0.11717464428E+02  0.11535684138E+02  0.28585821646E+02  0.92022429133E+02  0.85910460848E+02 0.  0.
         13    1    3    3    0    0 -0.12122014024E+02 -0.21941547761E+01  0.58140626411E+02  0.59431482756E+02  0.10566000000E+00 0.  1.
         22    1    1    0    0    0  0.11717464428E+02 -0.11535684138E+02 -0.28585821646E+02  0.32977570867E+02  0.00000000000E+00 0.  1.
</event>
<event>
 5    1  0.6924836E-004  0.9118800E+02  0.7818608E-02  0.1130116E+00
         25   -1    0    0    0    0  0.00000000000E+00  0.00000000000E+00  0.99999998245E-14  0.12500000000E+03  0.12500000000E+03 0.  0.
        -13    1    3    3    0    0 -0.33777583316E+02  0.33215484590E+02  0.59938189663E+01  0.47750712885E+02  0.10566000000E+00 0. -1.
         23    2    1    0    0    0 -0.16242204852E+02 -0.27626228246E+01 -0.22666674190E+02  0.96978233065E+02  0.92841576173E+02 0.  0.
         13    1    3    3    0    0  0.17535378464E+02 -0.35978107415E+02 -0.28660493156E+02  0.49227520179E+02  0.10566000000E+00 0.  1.
         22    1    1    0    0    0  0.16242204852E+02  0.27626228246E+01  0.22666674190E+02  0.28021766935E+02  0.00000000000E+00 0. -1.
</event>
<event>
 5    1  0.6924836E-004  0.9118800E+02  0.7818608E-02  0.1130116E+00
         25   -1    0    0    0    0  0.00000000000E+00  0.00000000000E+00  0.99999998245E-14  0.12500000000E+03  0.12500000000E+03 0.  0.
        -13    1    3    3    0    0  0.81783485275E+01  0.35613971977E+02  0.22346701777E+02  0.42832541706E+02  0.10566000000E+00 0.  1.
         23    2    1    0    0    0 -0.11466152786E+02  0.15655564393E+02 -0.22239759538E+02  0.95484304846E+02  0.90807908309E+02 0.  0.
         13    1    3    3    0    0 -0.19644501313E+02 -0.19958407584E+02 -0.44586461314E+02  0.52651763140E+02  0.10566000000E+00 0. -1.
         22    1    1    0    0    0  0.11466152786E+02 -0.15655564393E+02  0.22239759538E+02  0.29515695154E+02  0.00000000000E+00 0.  1.
</event>
<event>
 5    1  0.6924836E-004  0.9118800E+02  0.7818608E-02  0.1130116E+00
         25   -1    0    0    0    0  0.00000000000E+00  0.00000000000E+00  0.99999998245E-14  0.12500000000E+03  0.12500000000E+03 0.  0.
        -13    1    3    3    0    0  0.49937156521E+02  0.12035330104E+02  0.86230499209E+01  0.52085861096E+02  0.10566000000E+00 0. -1.
         23    2    1    0    0    0  0.15184369922E+02  0.72189231432E+00 -0.20961045231E+02  0.99106919155E+02  0.95664673672E+02 0.  0.
         13    1    3    3    0    0 -0.34752786599E+02 -0.11313437790E+02 -0.29584095152E+02  0.47021058060E+02  0.10566000000E+00 0.  1.
         22    1    1    0    0    0 -0.15184369922E+02 -0.72189231432E+00  0.20961045231E+02  0.25893080845E+02  0.00000000000E+00 0. -1.
</event>
<event>
 5    1  0.6924836E-004  0.9118800E+02  0.7818608E-02  0.1130116E+00
         25   -1    0    0    0    0  0.00000000000E+00  0.00000000000E+00  0.99999998245E-14  0.12500000000E+03  0.12500000000E+03 0.  0.
        -13    1    3    3    0    0 -0.43508852556E+01  0.52801605889E+02  0.19196111254E+02  0.56351057118E+02  0.10566000000E+00 0.  1.
         23    2    1    0    0    0 -0.58335031903E+01  0.13368743882E+02  0.24820701923E+02  0.96210760406E+02  0.91802451500E+02 0.  0.
         13    1    3    3    0    0 -0.14826179347E+01 -0.39432862007E+02  0.56245906688E+01  0.39859703288E+02  0.10566000000E+00 0. -1.
         22    1    1    0    0    0  0.58335031903E+01 -0.13368743882E+02 -0.24820701923E+02  0.28789239594E+02  0.00000000000E+00 0.  1.
</event>
<event>
 5    1  0.6924836E-004  0.9118800E+02  0.7818608E-02  0.1130116E+00
         25   -1    0    0    0    0  0.00000000000E+00  0.00000000000E+00  0.99999998245E-14  0.12500000000E+03  0.12500000000E+03 0.  0.
        -13    1    3    3    0    0  0.18123823667E+02  0.38955579468E+02 -0.42710172939E+02  0.60582012120E+02  0.10566000000E+00 0.  1.
         23    2    1    0    0    0  0.17686373337E+02  0.12853990745E+02 -0.16196763583E+02  0.97790295289E+02  0.93928557012E+02 0.  0.
         13    1    3    3    0    0 -0.43745033075E+00 -0.26101588723E+02  0.26513409356E+02  0.37208283169E+02  0.10566000000E+00 0. -1.
         22    1    1    0    0    0 -0.17686373337E+02 -0.12853990745E+02  0.16196763583E+02  0.27209704711E+02  0.00000000000E+00 0.  1.
</event>
<event>
 5    1  0.6924836E-004  0.9118800E+02  0.7818608E-02  0.1130116E+00
         25   -1    0    0    0    0  0.00000000000E+00  0.00000000000E+00  0.99999998245E-14  0.12500000000E+03  0.12500000000E+03 0.  0.
        -13    1    3    3    0    0  0.39691154672E+02 -0.18121513336E+01 -0.36783652780E+02  0.54145359243E+02  0.10566000000E+00 0.  1.
         23    2    1    0    0    0 -0.17004964900E+00  0.69394404092E+01 -0.28342370445E+02  0.95819960375E+02  0.91268779403E+02 0.  0.
         13    1    3    3    0    0 -0.39861204321E+02  0.87515917427E+01  0.84412823354E+01  0.41674601132E+02  0.10566000000E+00 0. -1.
         22    1    1    0    0    0  0.17004964900E+00 -0.69394404092E+01  0.28342370445E+02  0.29180039625E+02  0.00000000000E+00 0.  1.
</event>
<event>
 5    1  0.6924836E-004  0.9118800E+02  0.7818608E-02  0.1130116E+00
         25   -1    0    0    0    0  0.00000000000E+00  0.00000000000E+00  0.99999998245E-14  0.12500000000E+03  0.12500000000E+03 0.  0.
        -13    1    3    3    0    0 -0.25813126076E+02 -0.10430143226E+02  0.49101301914E+02  0.56445144868E+02  0.10566000000E+00 0. -1.
         23    2    1    0    0    0 -0.10157442996E+02 -0.21780939943E+02  0.12336073657E+02  0.97985898011E+02  0.94188505151E+02 0.  0.
         13    1    3    3    0    0  0.15655683080E+02 -0.11350796718E+02 -0.36765228257E+02  0.41540753142E+02  0.10566000000E+00 0.  1.
         22    1    1    0    0    0  0.10157442996E+02  0.21780939943E+02 -0.12336073657E+02  0.27014101989E+02  0.00000000000E+00 0. -1.
</event>
<event>
 5    1  0.6924836E-004  0.9118800E+02  0.7818608E-02  0.1130116E+00
         25   -1    0    0    0    0  0.00000000000E+00  0.00000000000E+00  0.99999998245E-14  0.12500000000E+03  0.12500000000E+03 0.  0.
        -13    1    3    3    0    0  0.33127821590E+02  0.93880738990E+01 -0.46415429880E-01  0.34432569077E+02  0.10566000000E+00 0.  1.
         23    2    1    0    0    0 -0.16844731325E+02 -0.24780243718E+02 -0.16535850439E+01  0.94991004755E+02  0.90126306863E+02 0.  0.
         13    1    3    3    0    0 -0.49972552915E+02 -0.34168317617E+02 -0.16071696140E+01  0.60558435678E+02  0.10566000000E+00 0. -1.
         22    1    1    0    0    0  0.16844731325E+02  0.24780243718E+02  0.16535850439E+01  0.30008995245E+02  0.00000000000E+00 0. -1.
</event>
<event>
 5    1  0.6924836E-004  0.9118800E+02  0.7818608E-02  0.1130116E+00
         25   -1    0    0    0    0  0.00000000000E+00  0.00000000000E+00  0.99999998245E-14  0.12500000000E+03  0.12500000000E+03 0.  0.
        -13    1    3    3    0    0  0.40489072879E+02 -0.31779327286E+02  0.13620815160E+01  0.51489388183E+02  0.10566000000E+00 0. -1.
         23    2    1    0    0    0  0.61223160498E+01 -0.13320632281E+02  0.24209302052E+02  0.96697839234E+02  0.92463288977E+02 0.  0.
         13    1    3    3    0    0 -0.34366756829E+02  0.18458695005E+02  0.22847220536E+02  0.45208451051E+02  0.10566000000E+00 0.  1.
         22    1    1    0    0    0 -0.61223160498E+01  0.13320632281E+02 -0.24209302052E+02  0.28302160766E+02  0.00000000000E+00 0. -1.
</event>
<event>
 5    1  0.6924836E-004  0.9118800E+02  0.7818608E-02  0.1130116E+00
         25   -1    0    0    0    0  0.00000000000E+00  0.00000000000E+00  0.99999998245E-14  0.12500000000E+03  0.12500000000E+03 0.  0.
        -13    1    3    3    0    0 -0.42011978560E+01  0.18265712539E+02 -0.36400208969E+02  0.40942309351E+02  0.10566000000E+00 0.  1.
         23    2    1    0    0    0  0.14958379847E+01 -0.27843040639E+02 -0.59569142096E+01  0.96487594451E+02  0.92178623404E+02 0.  0.
         13    1    3    3    0    0  0.56970358407E+01 -0.46108753178E+02  0.30443294759E+02  0.55545285100E+02  0.10566000000E+00 0. -1.
         22    1    1    0    0    0 -0.14958379847E+01  0.27843040639E+02  0.59569142096E+01  0.28512405549E+02  0.00000000000E+00 0. -1.
</event>
<event>
 5    1  0.6924836E-004  0.9118800E+02  0.7818608E-02  0.1130116E+00
         25   -1    0    0    0    0  0.00000000000E+00  0.00000000000E+00  0.99999998245E-14  0.12500000000E+03  0.12500000000E+03 0.  0.
        -13    1    3    3    0    0 -0.20290565514E+01  0.27509343430E+02  0.20749537009E+02  0.34517176834E+02  0.10566000000E+00 0. -1.
         23    2    1    0    0    0 -0.22480866193E+01 -0.28609006566E+02 -0.43171156562E+01  0.95979892527E+02  0.91487557251E+02 0.  0.
         13    1    3    3    0    0 -0.21903006788E+00 -0.56118349996E+02 -0.25066652665E+02  0.61462715693E+02  0.10566000000E+00 0.  1.
         22    1    1    0    0    0  0.22480866193E+01  0.28609006566E+02  0.43171156562E+01  0.29020107473E+02  0.00000000000E+00 0.  1.
</event>
<event>
 5    1  0.6924836E-004  0.9118800E+02  0.7818608E-02  0.1130116E+00
         25   -1    0    0    0    0  0.00000000000E+00  0.00000000000E+00  0.99999998245E-14  0.12500000000E+03  0.12500000000E+03 0.  0.
        -13    1    3    3    0    0  0.11382656210E+02 -0.36600895138E+02 -0.12443779925E+02  0.40299493919E+02  0.10566000000E+00 0. -1.
         23    2    1    0    0    0  0.34539537248E+02 -0.10067003854E+02  0.16054673721E+02  0.85603594730E+02  0.75999333435E+02 0.  0.
         13    1    3    3    0    0  0.23156881038E+02  0.26533891284E+02  0.28498453645E+02  0.45304100811E+02  0.10566000000E+00 0.  1.
         22    1    1    0    0    0 -0.34539537248E+02  0.10067003854E+02 -0.16054673721E+02  0.39396405270E+02  0.00000000000E+00 0. -1.
</event>
<event>
 5    1  0.6924836E-004  0.9118800E+02  0.7818608E-02  0.1130116E+00
         25   -1    0    0    0    0  0.00000000000E+00  0.00000000000E+00  0.99999998245E-14  0.12500000000E+03  0.12500000000E+03 0.  0.
        -13    1    3    3    0    0 -0.14845747006E+01 -0.33837504914E+02  0.41053974834E+01  0.34118120602E+02  0.10566000000E+00 0. -1.
         23    2    1    0    0    0 -0.23132408586E+02  0.21366733965E+02  0.16796101071E+01  0.93464833321E+02  0.87984136811E+02 0.  0.
         13    1    3    3    0    0 -0.21647833886E+02  0.55204238879E+02 -0.24257873764E+01  0.59346712720E+02  0.10566000000E+00 0.  1.
         22    1    1    0    0    0  0.23132408586E+02 -0.21366733965E+02 -0.16796101071E+01  0.31535166679E+02  0.00000000000E+00 0.  1.
</event>
<event>
 5    1  0.6924836E-004  0.9118800E+02  0.7818608E-02  0.1130116E+00
         25   -1    0    0    0    0  0.00000000000E+00  0.00000000000E+00  0.99999998245E-14  0.12500000000E+03  0.12500000000E+03 0.  0.
        -13    1    3    3    0    0 -0.29777289005E+02 -0.27702950877E+02 -0.46471773386E+02  0.61755787692E+02  0.10566000000E+00 0. -1.
         23    2    1    0    0    0 -0.17744369842E+02 -0.72679358948E+01 -0.21371952086E+02  0.96286834218E+02  0.91905976707E+02 0.  0.
         13    1    3    3    0    0  0.12032919163E+02  0.20435014982E+02  0.25099821299E+02  0.34531046526E+02  0.10566000000E+00 0.  1.
         22    1    1    0    0    0  0.17744369842E+02  0.72679358948E+01  0.21371952086E+02  0.28713165782E+02  0.00000000000E+00 0. -1.
</event>
<event>
 5    1  0.6924836E-004  0.9118800E+02  0.7818608E-02  0.1130116E+00
         25   -1    0    0    0    0  0.00000000000E+00  0.00000000000E+00  0.99999998245E-14  0.12500000000E+03  0.12500000000E+03 0.  0.
        -13    1    3    3    0    0  0.22894261159E+02 -0.14127333313E+02  0.11214275878E+02  0.29146181364E+02  0.10566000000E+00 0.  1.
         23    2    1    0    0    0 -0.62303130693E+01  0.16859236380E+02 -0.31063486722E+02  0.89111410454E+02  0.81565020772E+02 0.  0.
         13    1    3    3    0    0 -0.29124574229E+02  0.30986569693E+02 -0.42277762600E+02  0.59965229090E+02  0.10566000000E+00 0. -1.
         22    1    1    0    0    0  0.62303130693E+01 -0.16859236380E+02  0.31063486722E+02  0.35888589546E+02  0.00000000000E+00 0. -1.
</event>
<event>
 5    1  0.6924836E-004  0.9118800E+02  0.7818608E-02  0.1130116E+00
         25   -1    0    0    0    0  0.00000000000E+00  0.00000000000E+00  0.99999998245E-14  0.12500000000E+03  0.12500000000E+03 0.  0.
        -13    1    3    3    0    0  0.39365026617E+02  0.48063150389E+02 -0.30688719163E+01  0.62202097109E+02  0.10566000000E+00 0. -1.
         23    2    1    0    0    0  0.15032371898E+02  0.24312000688E+02  0.65539213190E+00  0.96408478160E+02  0.92071274238E+02 0.  0.
         13    1    3    3    0    0 -0.24332654719E+02 -0.23751149702E+02  0.37242640482E+01  0.34206381050E+02  0.10566000000E+00 0.  1.
         22    1    1    0    0    0 -0.15032371898E+02 -0.24312000688E+02 -0.65539213190E+00  0.28591521840E+02  0.00000000000E+00 0. -1.
</event>
<event>
 5    1  0.6924836E-004  0.9118800E+02  0.7818608E-02  0.1130116E+00
         25   -1    0    0    0    0  0.00000000000E+00  0.00000000000E+00  0.99999998245E-14  0.12500000000E+03  0.12500000000E+03 0.  0.
        -13    1    3    3    0    0 -0.24882125092E+02 -0.40184833493E+02 -0.16888420075E+02  0.50191342766E+02  0.10566000000E+00 0.  1.
         23    2    1    0    0    0 -0.13495605689E+01 -0.92515641162E+00 -0.27723131348E+02  0.97228625532E+02  0.93178089608E+02 0.  0.
         13    1    3    3    0    0  0.23532564523E+02  0.39259677082E+02 -0.10834711273E+02  0.47037282766E+02  0.10566000000E+00 0. -1.
         22    1    1    0    0    0  0.13495605689E+01  0.92515641162E+00  0.27723131348E+02  0.27771374468E+02  0.00000000000E+00 0.  1.
</event>
<event>
 5    1  0.6924836E-004  0.9118800E+02  0.7818608E-02  0.1130116E+00
         25   -1    0    0    0    0  0.00000000000E+00  0.00000000000E+00  0.99999998245E-14  0.12500000000E+03  0.12500000000E+03 0.  0.
        -13    1    3    3    0    0 -0.25728508635E+01  0.21060751068E+02 -0.52234830445E+02  0.56379637040E+02  0.10566000000E+00 0.  1.
         23    2    1    0    0    0  0.17620715656E+02  0.43866113527E+01 -0.24222977194E+02  0.94726503282E+02  0.89758708884E+02 0.  0.
         13    1    3    3    0    0  0.20193566520E+02 -0.16674139715E+02  0.28011853251E+02  0.38346866243E+02  0.10566000000E+00 0. -1.
         22    1    1    0    0    0 -0.17620715656E+02 -0.43866113527E+01  0.24222977194E+02  0.30273496718E+02  0.00000000000E+00 0.  1.
</event>
<event>
 5    1  0.6924836E-004  0.9118800E+02  0.7818608E-02  0.1130116E+00
         25   -1    0    0    0    0  0.00000000000E+00  0.00000000000E+00  0.99999998245E-14  0.12500000000E+03  0.12500000000E+03 0.  0.
        -13    1    3    3    0    0  0.28813957313E+02  0.19895672699E+02 -0.26027347219E+02  0.43629300882E+02  0.10566000000E+00 0.  1.
         23    2    1    0    0    0  0.30373376898E+02 -0.20515841643E+02 -0.12155583401E+02  0.86383941290E+02  0.77272151014E+02 0.  0.
         13    1    3    3    0    0  0.15594195851E+01 -0.40411514343E+02  0.13871763818E+02  0.42754640408E+02  0.10566000000E+00 0. -1.
         22    1    1    0    0    0 -0.30373376898E+02  0.20515841643E+02  0.12155583401E+02  0.38616058710E+02  0.00000000000E+00 0. -1.
</event>
<event>
 5    1  0.6924836E-004  0.9118800E+02  0.7818608E-02  0.1130116E+00
         25   -1    0    0    0    0  0.00000000000E+00  0.00000000000E+00  0.99999998245E-14  0.12500000000E+03  0.12500000000E+03 0.  0.
        -13    1    3    3    0    0  0.12248053856E+02 -0.26989934725E+01  0.32681205639E+02  0.35005310384E+02  0.10566000000E+00 0. -1.
         23    2    1    0    0    0 -0.10143109482E+01 -0.65743935020E+01 -0.27476630021E+02  0.96729579523E+02  0.92506188338E+02 0.  0.
         13    1    3    3    0    0 -0.13262364804E+02 -0.38754000295E+01 -0.60157835660E+02  0.61724269140E+02  0.10566000000E+00 0.  1.
         22    1    1    0    0    0  0.10143109482E+01  0.65743935020E+01  0.27476630021E+02  0.28270420477E+02  0.00000000000E+00 0.  1.
</event>
<event>
 5    1  0.6924836E-004  0.9118800E+02  0.7818608E-02  0.1130116E+00
         25   -1    0    0    0    0  0.00000000000E+00  0.00000000000E+00  0.99999998245E-14  0.12500000000E+03  0.12500000000E+03 0.  0.
        -13    1    3    3    0    0  0.14219216218E+02  0.17780379817E+02 -0.41501894822E+02  0.47336523470E+02  0.10566000000E+00 0. -1.
         23    2    1    0    0    0  0.11217420957E+02  0.27986973081E+02  0.44661127593E+01  0.94519721813E+02  0.89470276926E+02 0.  0.
         13    1    3    3    0    0 -0.30017952615E+01  0.10206593264E+02  0.45968007582E+02  0.47183198343E+02  0.10566000000E+00 0.  1.
         22    1    1    0    0    0 -0.11217420957E+02 -0.27986973081E+02 -0.44661127593E+01  0.30480278187E+02  0.00000000000E+00 0. -1.
</event>
<event>
 5    1  0.6924836E-004  0.9118800E+02  0.7818608E-02  0.1130116E+00
         25   -1    0    0    0    0  0.00000000000E+00  0.00000000000E+00  0.99999998245E-14  0.12500000000E+03  0.12500000000E+03 0.  0.
        -13    1    3    3    0    0 -0.11077714208E+02 -0.30562155153E+02 -0.19555876887E+02  0.37936849691E+02  0.10566000000E+00 0.  1.
         23    2    1    0    0    0 -0.12857008109E+02  0.25239016975E+02 -0.14159061601E+01  0.96639544686E+02  0.92384447671E+02 0.  0.
         13    1    3    3    0    0 -0.17792939011E+01  0.55801172128E+02  0.18139970727E+02  0.58702694994E+02  0.10566000000E+00 0. -1.
         22    1    1    0    0    0  0.12857008109E+02 -0.25239016975E+02  0.14159061601E+01  0.28360455314E+02  0.00000000000E+00 0. -1.
</event>
<event>
 5    1  0.6924836E-004  0.9118800E+02  0.7818608E-02  0.1130116E+00
         25   -1    0    0    0    0  0.00000000000E+00  0.00000000000E+00  0.99999998245E-14  0.12500000000E+03  0.12500000000E+03 0.  0.
        -13    1    3    3    0    0  0.32348919874E+02  0.31829266214E+02  0.12964908735E+02  0.47198038384E+02  0.10566000000E+00 0.  1.
         23    2    1    0    0    0 -0.15444404258E+02  0.19561941210E+02  0.13725799296E+02  0.96546586618E+02  0.92258585804E+02 0.  0.
         13    1    3    3    0    0 -0.47793324132E+02 -0.12267325004E+02  0.76089056135E+00  0.49348548234E+02  0.10566000000E+00 0. -1.
         22    1    1    0    0    0  0.15444404258E+02 -0.19561941210E+02 -0.13725799296E+02  0.28453413382E+02  0.00000000000E+00 0. -1.
</event>
<event>
 5    1  0.6924836E-004  0.9118800E+02  0.7818608E-02  0.1130116E+00
         25   -1    0    0    0    0  0.00000000000E+00  0.00000000000E+00  0.99999998245E-14  0.12500000000E+03  0.12500000000E+03 0.  0.
        -13    1    3    3    0    0  0.35237114058E+02 -0.27661512988E+01 -0.35640204505E+02  0.50195031043E+02  0.10566000000E+00 0. -1.
         23    2    1    0    0    0  0.22755840828E+02 -0.25874874524E+02 -0.34126895277E+02  0.76502758794E+02  0.59166626559E+02 0.  0.
         13    1    3    3    0    0 -0.12481273231E+02 -0.23108723225E+02  0.15133092284E+01  0.26307727751E+02  0.10566000000E+00 0.  1.
         22    1    1    0    0    0 -0.22755840828E+02  0.25874874524E+02  0.34126895277E+02  0.48497241206E+02  0.00000000000E+00 0. -1.
</event>
<event>
 5    1  0.6924836E-004  0.9118800E+02  0.7818608E-02  0.1130116E+00
         25   -1    0    0    0    0  0.00000000000E+00  0.00000000000E+00  0.99999998245E-14  0.12500000000E+03  0.12500000000E+03 0.  0.
        -13    1    3    3    0    0  0.38985116720E+01 -0.51265275646E+02 -0.27004728818E+02  0.58074033982E+02  0.10566000000E+00 0. -1.
         23    2    1    0    0    0  0.17763357840E+02 -0.19162856479E+02 -0.13776459502E+02  0.95461164773E+02  0.90776049668E+02 0.  0.
         13    1    3    3    0    0  0.13864846168E+02  0.32102419168E+02  0.13228269316E+02  0.37387130791E+02  0.10566000000E+00 0.  1.
         22    1    1    0    0    0 -0.17763357840E+02  0.19162856479E+02  0.13776459502E+02  0.29538835227E+02  0.00000000000E+00 0. -1.
</event>
<event>
 5    1  0.6924836E-004  0.9118800E+02  0.7818608E-02  0.1130116E+00
         25   -1    0    0    0    0  0.00000000000E+00  0.00000000000E+00  0.99999998245E-14  0.12500000000E+03  0.12500000000E+03 0.  0.
        -13    1    3    3    0    0  0.33894216292E+02 -0.41519460607E+02 -0.29975994485E+02  0.61410544018E+02  0.10566000000E+00 0. -1.
         23    2    1    0    0    0  0.20691152906E+02 -0.19593803601E+02 -0.73522120927E+01  0.95570491496E+02  0.90926469601E+02 0.  0.
         13    1    3    3    0    0 -0.13203063387E+02  0.21925657006E+02  0.22623782392E+02  0.34159947478E+02  0.10566000000E+00 0.  1.
         22    1    1    0    0    0 -0.20691152906E+02  0.19593803601E+02  0.73522120927E+01  0.29429508504E+02  0.00000000000E+00 0. -1.
</event>
<event>
 5    1  0.6924836E-004  0.9118800E+02  0.7818608E-02  0.1130116E+00
         25   -1    0    0    0    0  0.00000000000E+00  0.00000000000E+00  0.99999998245E-14  0.12500000000E+03  0.12500000000E+03 0.  0.
        -13    1    3    3    0    0  0.49646602727E+02 -0.34977716909E+02 -0.49761985116E+01  0.60934387321E+02  0.10566000000E+00 0.  1.
         23    2    1    0    0    0  0.26113107842E+02 -0.96390072079E+01  0.45292971273E+01  0.96798592347E+02  0.92599395715E+02 0.  0.
         13    1    3    3    0    0 -0.23533494885E+02  0.25338709701E+02  0.95054956389E+01  0.35864205027E+02  0.10566000000E+00 0. -1.
         22    1    1    0    0    0 -0.26113107842E+02  0.96390072079E+01 -0.45292971273E+01  0.28201407653E+02  0.00000000000E+00 0.  1.
</event>
<event>
 5    1  0.6924836E-004  0.9118800E+02  0.7818608E-02  0.1130116E+00
         25   -1    0    0    0    0  0.00000000000E+00  0.00000000000E+00  0.99999998245E-14  0.12500000000E+03  0.12500000000E+03 0.  0.
        -13    1    3    3    0    0  0.25787189014E+01  0.50417950070E+02  0.27490734875E+02  0.57483659839E+02  0.10566000000E+00 0.  1.
         23    2    1    0    0    0 -0.15267314191E+02  0.25570661305E+02  0.66941930061E+01  0.94475226091E+02  0.89408089806E+02 0.  0.
         13    1    3    3    0    0 -0.17846033092E+02 -0.24847288765E+02 -0.20796541869E+02  0.36991566253E+02  0.10566000000E+00 0. -1.
         22    1    1    0    0    0  0.15267314191E+02 -0.25570661305E+02 -0.66941930061E+01  0.30524773909E+02  0.00000000000E+00 0.  1.
</event>
<event>
 5    1  0.6924836E-004  0.9118800E+02  0.7818608E-02  0.1130116E+00
         25   -1    0    0    0    0  0.00000000000E+00  0.00000000000E+00  0.99999998245E-14  0.12500000000E+03  0.12500000000E+03 0.  0.
        -13    1    3    3    0    0 -0.53911934293E+02 -0.22933094321E+02  0.14480654290E+02  0.60350012320E+02  0.10566000000E+00 0.  1.
         23    2    1    0    0    0 -0.20996129503E+02 -0.93579345504E+01  0.17538073874E+02  0.96086466346E+02  0.91633054006E+02 0.  0.
         13    1    3    3    0    0  0.32915804790E+02  0.13575159771E+02  0.30574195841E+01  0.35736454026E+02  0.10566000000E+00 0. -1.
         22    1    1    0    0    0  0.20996129503E+02  0.93579345504E+01 -0.17538073874E+02  0.28913533654E+02  0.00000000000E+00 0.  1.
</event>
<event>
 5    1  0.6924836E-004  0.9118800E+02  0.7818608E-02  0.1130116E+00
         25   -1    0    0    0    0  0.00000000000E+00  0.00000000000E+00  0.99999998245E-14  0.12500000000E+03  0.12500000000E+03 0.  0.
        -13    1    3    3    0    0 -0.26850174591E+02 -0.20812563627E+02  0.23598386628E+02  0.41364111205E+02  0.10566000000E+00 0. -1.
         23    2    1    0    0    0 -0.48244220859E+01  0.26908451232E+02  0.11763192609E+02  0.95239077693E+02  0.90469715504E+02 0.  0.
         13    1    3    3    0    0  0.22025752505E+02  0.47721014859E+02 -0.11835194019E+02  0.53874966488E+02  0.10566000000E+00 0.  1.
         22    1    1    0    0    0  0.48244220859E+01 -0.26908451232E+02 -0.11763192609E+02  0.29760922307E+02  0.00000000000E+00 0. -1.
</event>
<event>
 5    1  0.6924836E-004  0.9118800E+02  0.7818608E-02  0.1130116E+00
         25   -1    0    0    0    0  0.00000000000E+00  0.00000000000E+00  0.99999998245E-14  0.12500000000E+03  0.12500000000E+03 0.  0.
        -13    1    3    3    0    0  0.29893249539E+02 -0.41427187287E+02  0.60113834302E-01  0.51086524566E+02  0.10566000000E+00 0. -1.
         23    2    1    0    0    0  0.23991109998E+02  0.21276502335E+00  0.16109688938E+02  0.96101198891E+02  0.91653149006E+02 0.  0.
         13    1    3    3    0    0 -0.59021395411E+01  0.41639952310E+02  0.16049575104E+02  0.45014674325E+02  0.10566000000E+00 0.  1.
         22    1    1    0    0    0 -0.23991109998E+02 -0.21276502335E+00 -0.16109688938E+02  0.28898801109E+02  0.00000000000E+00 0. -1.
</event>
<event>
 5    1  0.6924836E-004  0.9118800E+02  0.7818608E-02  0.1130116E+00
         25   -1    0    0    0    0  0.00000000000E+00  0.00000000000E+00  0.99999998245E-14  0.12500000000E+03  0.12500000000E+03 0.  0.
        -13    1    3    3    0    0  0.13617089822E+02 -0.36104799197E+02 -0.21115664664E+02  0.43987090362E+02  0.10566000000E+00 0. -1.
         23    2    1    0    0    0 -0.18081644734E+02 -0.16057917955E+02  0.15397675448E+02  0.96331358342E+02  0.91966513391E+02 0.  0.
         13    1    3    3    0    0 -0.31698734557E+02  0.20046881243E+02  0.36513340113E+02  0.52344267979E+02  0.10566000000E+00 0.  1.
         22    1    1    0    0    0  0.18081644734E+02  0.16057917955E+02 -0.15397675448E+02  0.28668641658E+02  0.00000000000E+00 0. -1.
</event>
<event>
 5    1  0.6924836E-004  0.9118800E+02  0.7818608E-02  0.1130116E+00
         25   -1    0    0    0    0  0.00000000000E+00  0.00000000000E+00  0.99999998245E-14  0.12500000000E+03  0.12500000000E+03 0.  0.
        -13    1    3    3    0    0 -0.44794813156E+02 -0.67435320089E+00  0.18478853314E+02  0.48461419931E+02  0.10566000000E+00 0.  1.
         23    2    1    0    0    0 -0.15458083029E+02  0.20075182581E+02 -0.13258468039E+02  0.96403632025E+02  0.92064694678E+02 0.  0.
         13    1    3    3    0    0  0.29336730127E+02  0.20749535782E+02 -0.31737321354E+02  0.47942212094E+02  0.10566000000E+00 0. -1.
         22    1    1    0    0    0  0.15458083029E+02 -0.20075182581E+02  0.13258468039E+02  0.28596367975E+02  0.00000000000E+00 0.  1.
</event>
<event>
 5    1  0.6924836E-004  0.9118800E+02  0.7818608E-02  0.1130116E+00
         25   -1    0    0    0    0  0.00000000000E+00  0.00000000000E+00  0.99999998245E-14  0.12500000000E+03  0.12500000000E+03 0.  0.
        -13    1    3    3    0    0  0.23829801156E+02  0.44697782372E+02 -0.12207729293E+02  0.52103656211E+02  0.10566000000E+00 0. -1.
         23    2    1    0    0    0 -0.11835031674E+02  0.22773879188E+02 -0.16959816372E+02  0.94237150337E+02  0.89074618069E+02 0.  0.
         13    1    3    3    0    0 -0.35664832830E+02 -0.21923903183E+02 -0.47520870792E+01  0.42133494125E+02  0.10566000000E+00 0.  1.
         22    1    1    0    0    0  0.11835031674E+02 -0.22773879188E+02  0.16959816372E+02  0.30762849663E+02  0.00000000000E+00 0. -1.
</event>
<event>
 5    1  0.6924836E-004  0.9118800E+02  0.7818608E-02  0.1130116E+00
         25   -1    0    0    0    0  0.00000000000E+00  0.00000000000E+00  0.99999998245E-14  0.12500000000E+03  0.12500000000E+03 0.  0.
        -13    1    3    3    0    0 -0.15080674499E+02  0.64953589709E+00  0.60621374706E+02  0.62472480946E+02  0.10566000000E+00 0. -1.
         23    2    1    0    0    0 -0.77953649283E+01 -0.84851691800E+00  0.33399380320E+02  0.90692474571E+02  0.83953074052E+02 0.  0.
         13    1    3    3    0    0  0.72853095708E+01 -0.14980528151E+01 -0.27221994386E+02  0.28219993625E+02  0.10566000000E+00 0.  1.
         22    1    1    0    0    0  0.77953649283E+01  0.84851691800E+00 -0.33399380320E+02  0.34307525429E+02  0.00000000000E+00 0. -1.
</event>
<event>
 5    1  0.6924836E-004  0.9118800E+02  0.7818608E-02  0.1130116E+00
         25   -1    0    0    0    0  0.00000000000E+00  0.00000000000E+00  0.99999998245E-14  0.12500000000E+03  0.12500000000E+03 0.  0.
        -13    1    3    3    0    0  0.10887112796E+02  0.28235546969E+02  0.30892044960E+02  0.43244710006E+02  0.10566000000E+00 0.  1.
         23    2    1    0    0    0 -0.10719897735E+02  0.46208410481E+02  0.16866963247E+02  0.74654912298E+02  0.55124659404E+02 0.  0.
         13    1    3    3    0    0 -0.21607010530E+02  0.17972863512E+02 -0.14025081714E+02  0.31410202291E+02  0.10566000000E+00 0. -1.
         22    1    1    0    0    0  0.10719897735E+02 -0.46208410481E+02 -0.16866963247E+02  0.50345087702E+02  0.00000000000E+00 0.  1.
</event>
<event>
 5    1  0.6924836E-004  0.9118800E+02  0.7818608E-02  0.1130116E+00
         25   -1    0    0    0    0  0.00000000000E+00  0.00000000000E+00  0.99999998245E-14  0.12500000000E+03  0.12500000000E+03 0.  0.
        -13    1    3    3    0    0  0.21160740855E+02  0.29459369326E+02 -0.15322993636E+02  0.39375584982E+02  0.10566000000E+00 0.  1.
         23    2    1    0    0    0 -0.23778645713E+02  0.20477650452E+02  0.10414034936E+02  0.91936269364E+02  0.85785006504E+02 0.  0.
         13    1    3    3    0    0 -0.44939386567E+02 -0.89817188745E+01  0.25737028572E+02  0.52560684382E+02  0.10566000000E+00 0. -1.
         22    1    1    0    0    0  0.23778645713E+02 -0.20477650452E+02 -0.10414034936E+02  0.33063730636E+02  0.00000000000E+00 0. -1.
</event>
<event>
 5    1  0.6924836E-004  0.9118800E+02  0.7818608E-02  0.1130116E+00
         25   -1    0    0    0    0  0.00000000000E+00  0.00000000000E+00  0.99999998245E-14  0.12500000000E+03  0.12500000000E+03 0.  0.
        -13    1    3    3    0    0 -0.19993555374E+02 -0.52989254629E+02 -0.47101868741E+01  0.56831332793E+02  0.10566000000E+00 0.  1.
         23    2    1    0    0    0  0.81391777000E+01 -0.26976019831E+02 -0.90795737255E+01  0.95396106361E+02  0.90686418996E+02 0.  0.
         13    1    3    3    0    0  0.28132733074E+02  0.26013234798E+02 -0.43693868515E+01  0.38564773568E+02  0.10566000000E+00 0. -1.
         22    1    1    0    0    0 -0.81391777000E+01  0.26976019831E+02  0.90795737255E+01  0.29603893639E+02  0.00000000000E+00 0.  1.
</event>
<event>
 5    1  0.6924836E-004  0.9118800E+02  0.7818608E-02  0.1130116E+00
         25   -1    0    0    0    0  0.00000000000E+00  0.00000000000E+00  0.99999998245E-14  0.12500000000E+03  0.12500000000E+03 0.  0.
        -13    1    3    3    0    0  0.21168095955E+02 -0.27291518980E+02  0.76165367874E+00  0.34547164499E+02  0.10566000000E+00 0.  1.
         23    2    1    0    0    0 -0.19000981542E+02  0.16934843737E+02 -0.13807657570E+02  0.96043521631E+02  0.91574452812E+02 0.  0.
         13    1    3    3    0    0 -0.40169077498E+02  0.44226362717E+02 -0.14569311248E+02  0.61496357132E+02  0.10566000000E+00 0. -1.
         22    1    1    0    0    0  0.19000981542E+02 -0.16934843737E+02  0.13807657570E+02  0.28956478369E+02  0.00000000000E+00 0. -1.
</event>
<event>
 5    1  0.6924836E-004  0.9118800E+02  0.7818608E-02  0.1130116E+00
         25   -1    0    0    0    0  0.00000000000E+00  0.00000000000E+00  0.99999998245E-14  0.12500000000E+03  0.12500000000E+03 0.  0.
        -13    1    3    3    0    0  0.19055443803E+02 -0.43519023469E+02  0.72919988286E+01  0.48064537376E+02  0.10566000000E+00 0. -1.
         23    2    1    0    0    0 -0.18241232464E+02 -0.22239510338E+02 -0.10270941373E+02  0.94457724077E+02  0.89383617175E+02 0.  0.
         13    1    3    3    0    0 -0.37296676267E+02  0.21279513131E+02 -0.17562940201E+02  0.46393186701E+02  0.10566000000E+00 0.  1.
         22    1    1    0    0    0  0.18241232464E+02  0.22239510338E+02  0.10270941373E+02  0.30542275923E+02  0.00000000000E+00 0.  1.
</event>
<event>
 5    1  0.6924836E-004  0.9118800E+02  0.7818608E-02  0.1130116E+00
         25   -1    0    0    0    0  0.00000000000E+00  0.00000000000E+00  0.99999998245E-14  0.12500000000E+03  0.12500000000E+03 0.  0.
        -13    1    3    3    0    0 -0.10298663883E+02  0.33637517811E+02 -0.39284023659E+02  0.52733203592E+02  0.10566000000E+00 0.  1.
         23    2    1    0    0    0 -0.33105141055E+01 -0.58784507317E+01 -0.30434570554E+02  0.93826633620E+02  0.88496657592E+02 0.  0.
         13    1    3    3    0    0  0.69881497773E+01 -0.39515968542E+02  0.88494531044E+01  0.41093430028E+02  0.10566000000E+00 0. -1.
         22    1    1    0    0    0  0.33105141055E+01  0.58784507317E+01  0.30434570554E+02  0.31173366380E+02  0.00000000000E+00 0.  1.
</event>
<event>
 5    1  0.6924836E-004  0.9118800E+02  0.7818608E-02  0.1130116E+00
         25   -1    0    0    0    0  0.00000000000E+00  0.00000000000E+00  0.99999998245E-14  0.12500000000E+03  0.12500000000E+03 0.  0.
        -13    1    3    3    0    0 -0.23806390772E+02 -0.25647731810E+02 -0.13506250747E+02  0.37509736894E+02  0.10566000000E+00 0.  1.
         23    2    1    0    0    0  0.27656494463E+02  0.12639022634E+01 -0.95294957340E+01  0.95720477739E+02  0.91132428008E+02 0.  0.
         13    1    3    3    0    0  0.51462885235E+02  0.26911634073E+02  0.39767550126E+01  0.58210740845E+02  0.10566000000E+00 0. -1.
         22    1    1    0    0    0 -0.27656494463E+02 -0.12639022634E+01  0.95294957340E+01  0.29279522261E+02  0.00000000000E+00 0. -1.
</event>
<event>
 5    1  0.6924836E-004  0.9118800E+02  0.7818608E-02  0.1130116E+00
         25   -1    0    0    0    0  0.00000000000E+00  0.00000000000E+00  0.99999998245E-14  0.12500000000E+03  0.12500000000E+03 0.  0.
        -13    1    3    3    0    0  0.75691558503E+01  0.41944080748E+02  0.22901845558E+02  0.48384953488E+02  0.10566000000E+00 0.  1.
         23    2    1    0    0    0 -0.67253450825E+01 -0.31018506725E+01  0.28109940084E+02  0.95930764104E+02  0.91420408148E+02 0.  0.
         13    1    3    3    0    0 -0.14294500933E+02 -0.45045931421E+02  0.52080945260E+01  0.47545810616E+02  0.10566000000E+00 0. -1.
         22    1    1    0    0    0  0.67253450825E+01  0.31018506725E+01 -0.28109940084E+02  0.29069235896E+02  0.00000000000E+00 0. -1.
</event>
<event>
 5    1  0.6924836E-004  0.9118800E+02  0.7818608E-02  0.1130116E+00
         25   -1    0    0    0    0  0.00000000000E+00  0.00000000000E+00  0.99999998245E-14  0.12500000000E+03  0.12500000000E+03 0.  0.
        -13    1    3    3    0    0  0.99789114359E+01 -0.18314739223E+02 -0.49064255573E+02  0.53313419373E+02  0.10566000000E+00 0. -1.
         23    2    1    0    0    0  0.25980468517E+02 -0.14394465352E+02 -0.13773908783E+02  0.92260025346E+02  0.86255471343E+02 0.  0.
         13    1    3    3    0    0  0.16001557082E+02  0.39202738702E+01  0.35290346790E+02  0.38946605974E+02  0.10566000000E+00 0.  1.
         22    1    1    0    0    0 -0.25980468517E+02  0.14394465352E+02  0.13773908783E+02  0.32739974654E+02  0.00000000000E+00 0. -1.
</event>
<event>
 5    1  0.6924836E-004  0.9118800E+02  0.7818608E-02  0.1130116E+00
         25   -1    0    0    0    0  0.00000000000E+00  0.00000000000E+00  0.99999998245E-14  0.12500000000E+03  0.12500000000E+03 0.  0.
        -13    1    3    3    0    0 -0.34343972785E+02  0.16634756297E+02 -0.38025016620E+02  0.53871482593E+02  0.10566000000E+00 0. -1.
         23    2    1    0    0    0 -0.11940141038E+02 -0.90351938866E+01 -0.33581133986E+02  0.88231885330E+02  0.80205806103E+02 0.  0.
         13    1    3    3    0    0  0.22403831747E+02 -0.25669950184E+02  0.44438826340E+01  0.34360402738E+02  0.10566000000E+00 0.  1.
         22    1    1    0    0    0  0.11940141038E+02  0.90351938866E+01  0.33581133986E+02  0.36768114670E+02  0.00000000000E+00 0. -1.
</event>
<event>
 5    1  0.6924836E-004  0.9118800E+02  0.7818608E-02  0.1130116E+00
         25   -1    0    0    0    0  0.00000000000E+00  0.00000000000E+00  0.99999998245E-14  0.12500000000E+03  0.12500000000E+03 0.  0.
        -13    1    3    3    0    0  0.13204458238E+02  0.33748815032E+02  0.40223492572E+02  0.54141303569E+02  0.10566000000E+00 0.  1.
         23    2    1    0    0    0  0.24361288728E+02  0.16321806139E+02  0.46293939173E+01  0.95313217887E+02  0.90572095437E+02 0.  0.
         13    1    3    3    0    0  0.11156830491E+02 -0.17427008892E+02 -0.35594098655E+02  0.41171914318E+02  0.10566000000E+00 0. -1.
         22    1    1    0    0    0 -0.24361288728E+02 -0.16321806139E+02 -0.46293939173E+01  0.29686782113E+02  0.00000000000E+00 0.  1.
</event>
<event>
 5    1  0.6924836E-004  0.9118800E+02  0.7818608E-02  0.1130116E+00
         25   -1    0    0    0    0  0.00000000000E+00  0.00000000000E+00  0.99999998245E-14  0.12500000000E+03  0.12500000000E+03 0.  0.
        -13    1    3    3    0    0  0.51985044752E+02 -0.17070185647E+02  0.88908186953E+01  0.55433689549E+02  0.10566000000E+00 0. -1.
         23    2    1    0    0    0  0.12173732078E+02 -0.18111401441E+02 -0.11669903227E+02  0.10025309603E+03  0.97150779756E+02 0.  0.
         13    1    3    3    0    0 -0.39811312674E+02 -0.10412157938E+01 -0.20560721922E+02  0.44819406480E+02  0.10566000000E+00 0.  1.
         22    1    1    0    0    0 -0.12173732078E+02  0.18111401441E+02  0.11669903227E+02  0.24746903971E+02  0.00000000000E+00 0. -1.
</event>
<event>
 5    1  0.6924836E-004  0.9118800E+02  0.7818608E-02  0.1130116E+00
         25   -1    0    0    0    0  0.00000000000E+00  0.00000000000E+00  0.99999998245E-14  0.12500000000E+03  0.12500000000E+03 0.  0.
        -13    1    3    3    0    0 -0.10100214498E+02 -0.12667962402E+02 -0.60235698621E+02  0.62376615463E+02  0.10566000000E+00 0.  1.
         23    2    1    0    0    0 -0.26989457221E+01 -0.78266200214E+01 -0.28460944791E+02  0.95359391582E+02  0.90635798091E+02 0.  0.
         13    1    3    3    0    0  0.74012687760E+01  0.48413423807E+01  0.31774753829E+02  0.32982776119E+02  0.10566000000E+00 0. -1.
         22    1    1    0    0    0  0.26989457221E+01  0.78266200214E+01  0.28460944791E+02  0.29640608418E+02  0.00000000000E+00 0.  1.
</event>
<event>
 5    1  0.6924836E-004  0.9118800E+02  0.7818608E-02  0.1130116E+00
         25   -1    0    0    0    0  0.00000000000E+00  0.00000000000E+00  0.99999998245E-14  0.12500000000E+03  0.12500000000E+03 0.  0.
        -13    1    3    3    0    0 -0.32426037656E+01  0.16921461212E+02  0.37342368940E+02  0.41125588273E+02  0.10566000000E+00 0.  1.
         23    2    1    0    0    0  0.28526286430E+02 -0.12471266442E+02  0.10085280936E+02  0.92273949280E+02  0.86275647317E+02 0.  0.
         13    1    3    3    0    0  0.31768890196E+02 -0.29392727654E+02 -0.27257088003E+02  0.51148361007E+02  0.10566000000E+00 0. -1.
         22    1    1    0    0    0 -0.28526286430E+02  0.12471266442E+02 -0.10085280936E+02  0.32726050720E+02  0.00000000000E+00 0. -1.
</event>
<event>
 5    1  0.6924836E-004  0.9118800E+02  0.7818608E-02  0.1130116E+00
         25   -1    0    0    0    0  0.00000000000E+00  0.00000000000E+00  0.99999998245E-14  0.12500000000E+03  0.12500000000E+03 0.  0.
        -13    1    3    3    0    0  0.40929762035E+02  0.96260750269E+01  0.38373457099E+02  0.56924863763E+02  0.10566000000E+00 0. -1.
         23    2    1    0    0    0  0.24399539243E+02  0.14509737035E+01 -0.11408597649E+01  0.10053074580E+03  0.97507366136E+02 0.  0.
         13    1    3    3    0    0 -0.16530222793E+02 -0.81751013234E+01 -0.39514316864E+02  0.43605882040E+02  0.10566000000E+00 0.  1.
         22    1    1    0    0    0 -0.24399539243E+02 -0.14509737035E+01  0.11408597649E+01  0.24469254197E+02  0.00000000000E+00 0. -1.
</event>
<event>
 5    1  0.6924836E-004  0.9118800E+02  0.7818608E-02  0.1130116E+00
         25   -1    0    0    0    0  0.00000000000E+00  0.00000000000E+00  0.99999998245E-14  0.12500000000E+03  0.12500000000E+03 0.  0.
        -13    1    3    3    0    0 -0.42653522183E+02 -0.10764419144E+02  0.26579864802E+02  0.51397432339E+02  0.10566000000E+00 0.  1.
         23    2    1    0    0    0 -0.25672153541E+02  0.12331972004E+01 -0.13068192838E+02  0.96166722232E+02  0.91742468672E+02 0.  0.
         13    1    3    3    0    0  0.16981368642E+02  0.11997616345E+02 -0.39648057640E+02  0.44769289894E+02  0.10566000000E+00 0. -1.
         22    1    1    0    0    0  0.25672153541E+02 -0.12331972004E+01  0.13068192838E+02  0.28833277768E+02  0.00000000000E+00 0.  1.
</event>
<event>
 5    1  0.6924836E-004  0.9118800E+02  0.7818608E-02  0.1130116E+00
         25   -1    0    0    0    0  0.00000000000E+00  0.00000000000E+00  0.99999998245E-14  0.12500000000E+03  0.12500000000E+03 0.  0.
        -13    1    3    3    0    0 -0.11235217843E+02 -0.31954713035E+02  0.12713202613E+02  0.36179697205E+02  0.10566000000E+00 0. -1.
         23    2    1    0    0    0  0.29081355282E+02  0.89921424256E+01  0.41061202320E+01  0.94284465269E+02  0.89140991229E+02 0.  0.
         13    1    3    3    0    0  0.40316573125E+02  0.40946855461E+02 -0.86070823811E+01  0.58104768064E+02  0.10566000000E+00 0.  1.
         22    1    1    0    0    0 -0.29081355282E+02 -0.89921424256E+01 -0.41061202320E+01  0.30715534731E+02  0.00000000000E+00 0.  1.
</event>
<event>
 5    1  0.6924836E-004  0.9118800E+02  0.7818608E-02  0.1130116E+00
         25   -1    0    0    0    0  0.00000000000E+00  0.00000000000E+00  0.99999998245E-14  0.12500000000E+03  0.12500000000E+03 0.  0.
        -13    1    3    3    0    0 -0.28009462711E+02  0.20572475963E+02  0.20180887205E+01  0.34811501185E+02  0.10566000000E+00 0. -1.
         23    2    1    0    0    0  0.20815462825E+02 -0.29381503863E+01  0.23826159783E+02  0.93225763419E+02  0.87643829530E+02 0.  0.
         13    1    3    3    0    0  0.48824925536E+02 -0.23510626349E+02  0.21808071062E+02  0.58414262235E+02  0.10566000000E+00 0.  1.
         22    1    1    0    0    0 -0.20815462825E+02  0.29381503863E+01 -0.23826159783E+02  0.31774236581E+02  0.00000000000E+00 0.  1.
</event>
<event>
 5    1  0.6924836E-004  0.9118800E+02  0.7818608E-02  0.1130116E+00
         25   -1    0    0    0    0  0.00000000000E+00  0.00000000000E+00  0.99999998245E-14  0.12500000000E+03  0.12500000000E+03 0.  0.
        -13    1    3    3    0    0  0.84221092985E+01 -0.28398539720E+02 -0.20356759605E+02  0.35941867076E+02  0.10566000000E+00 0. -1.
         23    2    1    0    0    0  0.14440080496E+02  0.22776814465E+02  0.10564952047E+02  0.96035928918E+02  0.91564088100E+02 0.  0.
         13    1    3    3    0    0  0.60179711971E+01  0.51175354184E+02  0.30921711652E+02  0.60094061842E+02  0.10566000000E+00 0.  1.
         22    1    1    0    0    0 -0.14440080496E+02 -0.22776814465E+02 -0.10564952047E+02  0.28964071082E+02  0.00000000000E+00 0.  1.
</event>
<event>
 5    1  0.6924836E-004  0.9118800E+02  0.7818608E-02  0.1130116E+00
         25   -1    0    0    0    0  0.00000000000E+00  0.00000000000E+00  0.99999998245E-14  0.12500000000E+03  0.12500000000E+03 0.  0.
        -13    1    3    3    0    0 -0.84042441544E+01 -0.37341662899E+02  0.59896020346E+01  0.38741677873E+02  0.10566000000E+00 0.  1.
         23    2    1    0    0    0 -0.24715537956E+02  0.14461411200E+02 -0.88233241036E+01  0.95036000290E+02  0.90188691490E+02 0.  0.
         13    1    3    3    0    0 -0.16311293801E+02  0.51803074099E+02 -0.14812926138E+02  0.56294322417E+02  0.10566000000E+00 0. -1.
         22    1    1    0    0    0  0.24715537956E+02 -0.14461411200E+02  0.88233241036E+01  0.29963999710E+02  0.00000000000E+00 0. -1.
</event>
<event>
 5    1  0.6924836E-004  0.9118800E+02  0.7818608E-02  0.1130116E+00
         25   -1    0    0    0    0  0.00000000000E+00  0.00000000000E+00  0.99999998245E-14  0.12500000000E+03  0.12500000000E+03 0.  0.
        -13    1    3    3    0    0  0.86495587671E+01 -0.49334032567E+02  0.17421809149E+02  0.53030106866E+02  0.10566000000E+00 0.  1.
         23    2    1    0    0    0  0.11018672931E+02 -0.21460283697E+02 -0.15571902266E+02  0.96286952971E+02  0.91906138221E+02 0.  0.
         13    1    3    3    0    0  0.23691141639E+01  0.27873748870E+02 -0.32993711414E+02  0.43256846105E+02  0.10566000000E+00 0. -1.
         22    1    1    0    0    0 -0.11018672931E+02  0.21460283697E+02  0.15571902266E+02  0.28713047029E+02  0.00000000000E+00 0.  1.
</event>
<event>
 5    1  0.6924836E-004  0.9118800E+02  0.7818608E-02  0.1130116E+00
         25   -1    0    0    0    0  0.00000000000E+00  0.00000000000E+00  0.99999998245E-14  0.12500000000E+03  0.12500000000E+03 0.  0.
        -13    1    3    3    0    0 -0.13438777021E+02 -0.46701197672E+02 -0.25212603167E+01  0.48661797228E+02  0.10566000000E+00 0.  1.
         23    2    1    0    0    0 -0.26495215614E+02 -0.30231444053E+01  0.10910530082E+02  0.96187233399E+02  0.91770411080E+02 0.  0.
         13    1    3    3    0    0 -0.13056438593E+02  0.43678053267E+02  0.13431790399E+02  0.47525436171E+02  0.10566000000E+00 0. -1.
         22    1    1    0    0    0  0.26495215614E+02  0.30231444053E+01 -0.10910530082E+02  0.28812766601E+02  0.00000000000E+00 0.  1.
</event>
<event>
 5    1  0.6924836E-004  0.9118800E+02  0.7818608E-02  0.1130116E+00
         25   -1    0    0    0    0  0.00000000000E+00  0.00000000000E+00  0.99999998245E-14  0.12500000000E+03  0.12500000000E+03 0.  0.
        -13    1    3    3    0    0 -0.43708403526E+01  0.27768551947E+02 -0.49139276809E+02  0.56611627886E+02  0.10566000000E+00 0. -1.
         23    2    1    0    0    0  0.45677954087E+01 -0.34078208221E+01 -0.30403460910E+02  0.94067033234E+02  0.88835568937E+02 0.  0.
         13    1    3    3    0    0  0.89386357613E+01 -0.31176372769E+02  0.18735815899E+02  0.37455405347E+02  0.10566000000E+00 0.  1.
         22    1    1    0    0    0 -0.45677954087E+01  0.34078208221E+01  0.30403460910E+02  0.30932966766E+02  0.00000000000E+00 0. -1.
</event>
<event>
 5    1  0.6924836E-004  0.9118800E+02  0.7818608E-02  0.1130116E+00
         25   -1    0    0    0    0  0.00000000000E+00  0.00000000000E+00  0.99999998245E-14  0.12500000000E+03  0.12500000000E+03 0.  0.
        -13    1    3    3    0    0 -0.82090060837E+01 -0.41519632932E+02 -0.14455399197E+02  0.44724014016E+02  0.10566000000E+00 0.  1.
         23    2    1    0    0    0  0.29434397448E+02 -0.16211648534E+02 -0.60734794506E+01  0.90851962663E+02  0.84190205285E+02 0.  0.
         13    1    3    3    0    0  0.37643403532E+02  0.25307984399E+02  0.83819197465E+01  0.46127948648E+02  0.10566000000E+00 0. -1.
         22    1    1    0    0    0 -0.29434397448E+02  0.16211648534E+02  0.60734794506E+01  0.34148037337E+02  0.00000000000E+00 0.  1.
</event>
<event>
 5    1  0.6924836E-004  0.9118800E+02  0.7818608E-02  0.1130116E+00
         25   -1    0    0    0    0  0.00000000000E+00  0.00000000000E+00  0.99999998245E-14  0.12500000000E+03  0.12500000000E+03 0.  0.
        -13    1    3    3    0    0  0.19247252302E+02 -0.37874293808E+02 -0.20943516241E+02  0.47366242084E+02  0.10566000000E+00 0.  1.
         23    2    1    0    0    0  0.23217306717E+02 -0.61748742778E+01  0.15945009272E+02  0.96165719634E+02  0.91741102612E+02 0.  0.
         13    1    3    3    0    0  0.39700544151E+01  0.31699419530E+02  0.36888525512E+02  0.48799477550E+02  0.10566000000E+00 0. -1.
         22    1    1    0    0    0 -0.23217306717E+02  0.61748742778E+01 -0.15945009272E+02  0.28834280366E+02  0.00000000000E+00 0. -1.
</event>
<event>
 5    1  0.6924836E-004  0.9118800E+02  0.7818608E-02  0.1130116E+00
         25   -1    0    0    0    0  0.00000000000E+00  0.00000000000E+00  0.99999998245E-14  0.12500000000E+03  0.12500000000E+03 0.  0.
        -13    1    3    3    0    0 -0.25792594044E+01 -0.79670130135E+01 -0.39103914421E+02  0.39990663442E+02  0.10566000000E+00 0. -1.
         23    2    1    0    0    0 -0.19591469063E+02 -0.20011720058E+02  0.11504524640E+02  0.94723793386E+02  0.89754934943E+02 0.  0.
         13    1    3    3    0    0 -0.17012209658E+02 -0.12044707045E+02  0.50608439061E+02  0.54733129944E+02  0.10566000000E+00 0.  1.
         22    1    1    0    0    0  0.19591469063E+02  0.20011720058E+02 -0.11504524640E+02  0.30276206614E+02  0.00000000000E+00 0.  1.
</event>
<event>
 5    1  0.6924836E-004  0.9118800E+02  0.7818608E-02  0.1130116E+00
         25   -1    0    0    0    0  0.00000000000E+00  0.00000000000E+00  0.99999998245E-14  0.12500000000E+03  0.12500000000E+03 0.  0.
        -13    1    3    3    0    0  0.70979296295E+01 -0.54162375724E+02  0.82889514806E+01  0.55250895285E+02  0.10566000000E+00 0. -1.
         23    2    1    0    0    0 -0.14264190174E+02 -0.20907743592E+02  0.15346132573E+02  0.95400935008E+02  0.90693074444E+02 0.  0.
         13    1    3    3    0    0 -0.21362119804E+02  0.33254632132E+02  0.70571810923E+01  0.40150039723E+02  0.10566000000E+00 0.  1.
         22    1    1    0    0    0  0.14264190174E+02  0.20907743592E+02 -0.15346132573E+02  0.29599064992E+02  0.00000000000E+00 0. -1.
</event>
<event>
 5    1  0.6924836E-004  0.9118800E+02  0.7818608E-02  0.1130116E+00
         25   -1    0    0    0    0  0.00000000000E+00  0.00000000000E+00  0.99999998245E-14  0.12500000000E+03  0.12500000000E+03 0.  0.
        -13    1    3    3    0    0  0.42366154674E+02 -0.13113292659E+02 -0.36450868574E+02  0.57406676354E+02  0.10566000000E+00 0.  1.
         23    2    1    0    0    0  0.15747236223E+02  0.10609235486E+02 -0.22155101329E+02  0.95821586041E+02  0.91271005857E+02 0.  0.
         13    1    3    3    0    0 -0.26618918451E+02  0.23722528145E+02  0.14295767245E+02  0.38414909687E+02  0.10566000000E+00 0. -1.
         22    1    1    0    0    0 -0.15747236223E+02 -0.10609235486E+02  0.22155101329E+02  0.29178413959E+02  0.00000000000E+00 0.  1.
</event>
<event>
 5    1  0.6924836E-004  0.9118800E+02  0.7818608E-02  0.1130116E+00
         25   -1    0    0    0    0  0.00000000000E+00  0.00000000000E+00  0.99999998245E-14  0.12500000000E+03  0.12500000000E+03 0.  0.
        -13    1    3    3    0    0  0.11450485712E+02 -0.70880156851E+01 -0.50855094895E+02  0.52608035795E+02  0.10566000000E+00 0. -1.
         23    2    1    0    0    0 -0.17195990247E+02  0.81283270838E+01 -0.20541425524E+02  0.97004965720E+02  0.92877561499E+02 0.  0.
         13    1    3    3    0    0 -0.28646475959E+02  0.15216342769E+02  0.30313669370E+02  0.44396929926E+02  0.10566000000E+00 0.  1.
         22    1    1    0    0    0  0.17195990247E+02 -0.81283270838E+01  0.20541425524E+02  0.27995034280E+02  0.00000000000E+00 0. -1.
</event>
<event>
 5    1  0.6924836E-004  0.9118800E+02  0.7818608E-02  0.1130116E+00
         25   -1    0    0    0    0  0.00000000000E+00  0.00000000000E+00  0.99999998245E-14  0.12500000000E+03  0.12500000000E+03 0.  0.
        -13    1    3    3    0    0  0.29168359577E+02  0.13078824251E+01  0.35876931106E+02  0.46256557443E+02  0.10566000000E+00 0. -1.
         23    2    1    0    0    0  0.24903391719E+02 -0.32233963955E+01 -0.13816902680E+02  0.96338597328E+02  0.91976352027E+02 0.  0.
         13    1    3    3    0    0 -0.42649678583E+01 -0.45312788206E+01 -0.49693833787E+02  0.50082039885E+02  0.10566000000E+00 0.  1.
         22    1    1    0    0    0 -0.24903391719E+02  0.32233963955E+01  0.13816902680E+02  0.28661402672E+02  0.00000000000E+00 0.  1.
</event>
<event>
 5    1  0.6924836E-004  0.9118800E+02  0.7818608E-02  0.1130116E+00
         25   -1    0    0    0    0  0.00000000000E+00  0.00000000000E+00  0.99999998245E-14  0.12500000000E+03  0.12500000000E+03 0.  0.
        -13    1    3    3    0    0 -0.33146954824E+02 -0.16188941126E+02  0.18618480339E+02  0.41321439992E+02  0.10566000000E+00 0. -1.
         23    2    1    0    0    0  0.11003350627E+01 -0.19950941605E+02 -0.22461796409E+02  0.94937014352E+02  0.90051394147E+02 0.  0.
         13    1    3    3    0    0  0.34247289886E+02 -0.37620004786E+01 -0.41080276748E+02  0.53615574359E+02  0.10566000000E+00 0.  1.
         22    1    1    0    0    0 -0.11003350627E+01  0.19950941605E+02  0.22461796409E+02  0.30062985648E+02  0.00000000000E+00 0.  1.
</event>
<event>
 5    1  0.6924836E-004  0.9118800E+02  0.7818608E-02  0.1130116E+00
         25   -1    0    0    0    0  0.00000000000E+00  0.00000000000E+00  0.99999998245E-14  0.12500000000E+03  0.12500000000E+03 0.  0.
        -13    1    3    3    0    0  0.33087153541E+02  0.24306121299E+02  0.23779847043E+02  0.47445121472E+02  0.10566000000E+00 0.  1.
         23    2    1    0    0    0  0.11369489266E+02  0.16650636517E+02 -0.19804125332E+02  0.96738500345E+02  0.92518241911E+02 0.  0.
         13    1    3    3    0    0 -0.21717664275E+02 -0.76554847827E+01 -0.43583972374E+02  0.49293378874E+02  0.10566000000E+00 0. -1.
         22    1    1    0    0    0 -0.11369489266E+02 -0.16650636517E+02  0.19804125332E+02  0.28261499655E+02  0.00000000000E+00 0.  1.
</event>
<event>
 5    1  0.6924836E-004  0.9118800E+02  0.7818608E-02  0.1130116E+00
         25   -1    0    0    0    0  0.00000000000E+00  0.00000000000E+00  0.99999998245E-14  0.12500000000E+03  0.12500000000E+03 0.  0.
        -13    1    3    3    0    0  0.30930005040E+02  0.17330440571E+02  0.12799171948E+02  0.37694022719E+02  0.10566000000E+00 0.  1.
         23    2    1    0    0    0 -0.60251958577E+01 -0.76397898186E+01 -0.26269640852E+02  0.96986371101E+02  0.92852532412E+02 0.  0.
         13    1    3    3    0    0 -0.36955200897E+02 -0.24970230389E+02 -0.39068812800E+02  0.59292348382E+02  0.10566000000E+00 0. -1.
         22    1    1    0    0    0  0.60251958577E+01  0.76397898186E+01  0.26269640852E+02  0.28013628899E+02  0.00000000000E+00 0. -1.
</event>
<event>
 5    1  0.6924836E-004  0.9118800E+02  0.7818608E-02  0.1130116E+00
         25   -1    0    0    0    0  0.00000000000E+00  0.00000000000E+00  0.99999998245E-14  0.12500000000E+03  0.12500000000E+03 0.  0.
        -13    1    3    3    0    0  0.15623536557E+02  0.41572142386E+02 -0.68473511284E+01  0.44935902112E+02  0.10566000000E+00 0.  1.
         23    2    1    0    0    0  0.25260456957E+02 -0.90534766393E+01 -0.94875410777E+01  0.96538279029E+02  0.92247329269E+02 0.  0.
         13    1    3    3    0    0  0.96369203993E+01 -0.50625619025E+02 -0.26401899494E+01  0.51602376917E+02  0.10566000000E+00 0. -1.
         22    1    1    0    0    0 -0.25260456957E+02  0.90534766393E+01  0.94875410777E+01  0.28461720971E+02  0.00000000000E+00 0.  1.
</event>
<event>
 5    1  0.6924836E-004  0.9118800E+02  0.7818608E-02  0.1130116E+00
         25   -1    0    0    0    0  0.00000000000E+00  0.00000000000E+00  0.99999998245E-14  0.12500000000E+03  0.12500000000E+03 0.  0.
        -13    1    3    3    0    0 -0.10855616702E+02 -0.22893867161E+02 -0.20657111686E+02  0.32690992564E+02  0.10566000000E+00 0. -1.
         23    2    1    0    0    0  0.76843413602E+01  0.17669815038E+02  0.22927502517E+02  0.95051012750E+02  0.90209496106E+02 0.  0.
         13    1    3    3    0    0  0.18539958062E+02  0.40563682198E+02  0.43584614203E+02  0.62360020187E+02  0.10566000000E+00 0.  1.
         22    1    1    0    0    0 -0.76843413602E+01 -0.17669815038E+02 -0.22927502517E+02  0.29948987250E+02  0.00000000000E+00 0.  1.
</event>
<event>
 5    1  0.6924836E-004  0.9118800E+02  0.7818608E-02  0.1130116E+00
         25   -1    0    0    0    0  0.00000000000E+00  0.00000000000E+00  0.99999998245E-14  0.12500000000E+03  0.12500000000E+03 0.  0.
        -13    1    3    3    0    0 -0.30749258164E+02 -0.45797775560E+02  0.12283713607E+02  0.56514192093E+02  0.10566000000E+00 0.  1.
         23    2    1    0    0    0 -0.14154110451E+02 -0.21930387970E+02 -0.13715514932E+02  0.95514476280E+02  0.90849430763E+02 0.  0.
         13    1    3    3    0    0  0.16595147713E+02  0.23867387590E+02 -0.25999228540E+02  0.39000284187E+02  0.10566000000E+00 0. -1.
         22    1    1    0    0    0  0.14154110451E+02  0.21930387970E+02  0.13715514932E+02  0.29485523720E+02  0.00000000000E+00 0.  1.
</event>
<event>
 5    1  0.6924836E-004  0.9118800E+02  0.7818608E-02  0.1130116E+00
         25   -1    0    0    0    0  0.00000000000E+00  0.00000000000E+00  0.99999998245E-14  0.12500000000E+03  0.12500000000E+03 0.  0.
        -13    1    3    3    0    0 -0.16971776592E+02  0.66911062430E+01  0.54278821396E+02  0.57262673005E+02  0.10566000000E+00 0. -1.
         23    2    1    0    0    0 -0.17940502212E+02 -0.11128680114E+02  0.19949928150E+02  0.95953334548E+02  0.91451263726E+02 0.  0.
         13    1    3    3    0    0 -0.96872562005E+00 -0.17819786357E+02 -0.34328893246E+02  0.38690661544E+02  0.10566000000E+00 0.  1.
         22    1    1    0    0    0  0.17940502212E+02  0.11128680114E+02 -0.19949928150E+02  0.29046665452E+02  0.00000000000E+00 0. -1.
</event>
<event>
 5    1  0.6924836E-004  0.9118800E+02  0.7818608E-02  0.1130116E+00
         25   -1    0    0    0    0  0.00000000000E+00  0.00000000000E+00  0.99999998245E-14  0.12500000000E+03  0.12500000000E+03 0.  0.
        -13    1    3    3    0    0 -0.29751060184E+01  0.14332362727E+01 -0.31794897502E+02  0.31966108509E+02  0.10566000000E+00 0.  1.
         23    2    1    0    0    0  0.14954604745E+02  0.96633468734E+01  0.26255094868E+02  0.93276972364E+02  0.87716834707E+02 0.  0.
         13    1    3    3    0    0  0.17929710763E+02  0.82301106007E+01  0.58049992369E+02  0.61310863855E+02  0.10566000000E+00 0. -1.
         22    1    1    0    0    0 -0.14954604745E+02 -0.96633468734E+01 -0.26255094868E+02  0.31723027636E+02  0.00000000000E+00 0. -1.
</event>
<event>
 5    1  0.6924836E-004  0.9118800E+02  0.7818608E-02  0.1130116E+00
         25   -1    0    0    0    0  0.00000000000E+00  0.00000000000E+00  0.99999998245E-14  0.12500000000E+03  0.12500000000E+03 0.  0.
        -13    1    3    3    0    0 -0.19789502898E+02  0.42010205216E+02 -0.11609993782E+01  0.46452565600E+02  0.10566000000E+00 0. -1.
         23    2    1    0    0    0  0.16361667852E+02  0.11437993866E+02 -0.19374989533E+02  0.97180544614E+02  0.93113565894E+02 0.  0.
         13    1    3    3    0    0  0.36151170750E+02 -0.30572211350E+02 -0.18213990155E+02  0.50727979014E+02  0.10566000000E+00 0.  1.
         22    1    1    0    0    0 -0.16361667852E+02 -0.11437993866E+02  0.19374989533E+02  0.27819455386E+02  0.00000000000E+00 0. -1.
</event>
<event>
 5    1  0.6924836E-004  0.9118800E+02  0.7818608E-02  0.1130116E+00
         25   -1    0    0    0    0  0.00000000000E+00  0.00000000000E+00  0.99999998245E-14  0.12500000000E+03  0.12500000000E+03 0.  0.
        -13    1    3    3    0    0  0.11115282258E+02  0.54223763484E+02  0.42383552398E+01  0.55513429413E+02  0.10566000000E+00 0.  1.
         23    2    1    0    0    0 -0.14523216869E+02  0.25403621077E+02 -0.53303782176E+01  0.95256417096E+02  0.90493669800E+02 0.  0.
         13    1    3    3    0    0 -0.25638499128E+02 -0.28820142408E+02 -0.95687334574E+01  0.39742987682E+02  0.10566000000E+00 0. -1.
         22    1    1    0    0    0  0.14523216869E+02 -0.25403621077E+02  0.53303782176E+01  0.29743582904E+02  0.00000000000E+00 0.  1.
</event>
<event>
 5    1  0.6924836E-004  0.9118800E+02  0.7818608E-02  0.1130116E+00
         25   -1    0    0    0    0  0.00000000000E+00  0.00000000000E+00  0.99999998245E-14  0.12500000000E+03  0.12500000000E+03 0.  0.
        -13    1    3    3    0    0  0.33399090144E+01  0.32745128356E+02 -0.27371231729E+02  0.42808806496E+02  0.10566000000E+00 0. -1.
         23    2    1    0    0    0 -0.16928151606E+02  0.13186740680E+02  0.18520395764E+02  0.96654674004E+02  0.92404916001E+02 0.  0.
         13    1    3    3    0    0 -0.20268060620E+02 -0.19558387676E+02  0.45891627492E+02  0.53845867508E+02  0.10566000000E+00 0.  1.
         22    1    1    0    0    0  0.16928151606E+02 -0.13186740680E+02 -0.18520395764E+02  0.28345325996E+02  0.00000000000E+00 0.  1.
</event>
<event>
 5    1  0.6924836E-004  0.9118800E+02  0.7818608E-02  0.1130116E+00
         25   -1    0    0    0    0  0.00000000000E+00  0.00000000000E+00  0.99999998245E-14  0.12500000000E+03  0.12500000000E+03 0.  0.
        -13    1    3    3    0    0 -0.81630666678E+00  0.26535350721E+02  0.45619881863E+02  0.52782345341E+02  0.10566000000E+00 0.  1.
         23    2    1    0    0    0  0.84292423299E+01 -0.10215660191E+02  0.26825479010E+02  0.95083145829E+02  0.90254010754E+02 0.  0.
         13    1    3    3    0    0  0.92455489967E+01 -0.36751010912E+02 -0.18794402853E+02  0.42300800488E+02  0.10566000000E+00 0. -1.
         22    1    1    0    0    0 -0.84292423299E+01  0.10215660191E+02 -0.26825479010E+02  0.29916854171E+02  0.00000000000E+00 0.  1.
</event>
<event>
 5    1  0.6924836E-004  0.9118800E+02  0.7818608E-02  0.1130116E+00
         25   -1    0    0    0    0  0.00000000000E+00  0.00000000000E+00  0.99999998245E-14  0.12500000000E+03  0.12500000000E+03 0.  0.
        -13    1    3    3    0    0  0.22554247699E+02 -0.57085605870E+02 -0.42912095754E+00  0.61381233253E+02  0.10566000000E+00 0.  1.
         23    2    1    0    0    0  0.20973028008E+02 -0.31450094515E+02  0.17481253555E+01  0.87157797487E+02  0.78514007487E+02 0.  0.
         13    1    3    3    0    0 -0.15812196906E+01  0.25635511355E+02  0.21772463131E+01  0.25776564234E+02  0.10566000000E+00 0. -1.
         22    1    1    0    0    0 -0.20973028008E+02  0.31450094515E+02 -0.17481253555E+01  0.37842202513E+02  0.00000000000E+00 0.  1.
</event>
<event>
 5    1  0.6924836E-004  0.9118800E+02  0.7818608E-02  0.1130116E+00
         25   -1    0    0    0    0  0.00000000000E+00  0.00000000000E+00  0.99999998245E-14  0.12500000000E+03  0.12500000000E+03 0.  0.
        -13    1    3    3    0    0 -0.12046297643E+02  0.37224588504E+02 -0.29363001101E+02  0.48918097611E+02  0.10566000000E+00 0. -1.
         23    2    1    0    0    0 -0.29482630950E+02  0.15200342214E+01 -0.64643772913E+01  0.94778745798E+02  0.89831433527E+02 0.  0.
         13    1    3    3    0    0 -0.17436333307E+02 -0.35704554283E+02  0.22898623809E+02  0.45860648187E+02  0.10566000000E+00 0.  1.
         22    1    1    0    0    0  0.29482630950E+02 -0.15200342214E+01  0.64643772913E+01  0.30221254202E+02  0.00000000000E+00 0. -1.
</event>
<event>
 5    1  0.6924836E-004  0.9118800E+02  0.7818608E-02  0.1130116E+00
         25   -1    0    0    0    0  0.00000000000E+00  0.00000000000E+00  0.99999998245E-14  0.12500000000E+03  0.12500000000E+03 0.  0.
        -13    1    3    3    0    0 -0.32753306039E+01 -0.38014286851E+02  0.62764687308E+01  0.38668062003E+02  0.10566000000E+00 0. -1.
         23    2    1    0    0    0 -0.16118514321E+02  0.19024649509E+02  0.11835584145E+02  0.97398825298E+02  0.93406136440E+02 0.  0.
         13    1    3    3    0    0 -0.12843183717E+02  0.57038936359E+02  0.55591154146E+01  0.58730763295E+02  0.10566000000E+00 0.  1.
         22    1    1    0    0    0  0.16118514321E+02 -0.19024649509E+02 -0.11835584145E+02  0.27601174702E+02  0.00000000000E+00 0.  1.
</event>
<event>
 5    1  0.6924836E-004  0.9118800E+02  0.7818608E-02  0.1130116E+00
         25   -1    0    0    0    0  0.00000000000E+00  0.00000000000E+00  0.99999998245E-14  0.12500000000E+03  0.12500000000E+03 0.  0.
        -13    1    3    3    0    0  0.27635746684E+02  0.19201465935E+02 -0.15215746319E+02  0.36931841126E+02  0.10566000000E+00 0. -1.
         23    2    1    0    0    0 -0.16791298554E+02 -0.20569019430E+02 -0.93587233237E+01  0.96846528283E+02  0.92664081881E+02 0.  0.
         13    1    3    3    0    0 -0.44427045238E+02 -0.39770485365E+02  0.58570229954E+01  0.59914687158E+02  0.10566000000E+00 0.  1.
         22    1    1    0    0    0  0.16791298554E+02  0.20569019430E+02  0.93587233237E+01  0.28153471717E+02  0.00000000000E+00 0.  1.
</event>
<event>
 5    1  0.6924836E-004  0.9118800E+02  0.7818608E-02  0.1130116E+00
         25   -1    0    0    0    0  0.00000000000E+00  0.00000000000E+00  0.99999998245E-14  0.12500000000E+03  0.12500000000E+03 0.  0.
        -13    1    3    3    0    0 -0.33421803521E+02  0.41743661249E+01  0.10382752877E+02  0.35245638091E+02  0.10566000000E+00 0. -1.
         23    2    1    0    0    0  0.15346882075E+02  0.20289410536E+01 -0.25041110898E+02  0.95560220343E+02  0.90912348368E+02 0.  0.
         13    1    3    3    0    0  0.48768685595E+02 -0.21454250713E+01 -0.35423863775E+02  0.60314582252E+02  0.10566000000E+00 0.  1.
         22    1    1    0    0    0 -0.15346882075E+02 -0.20289410536E+01  0.25041110898E+02  0.29439779657E+02  0.00000000000E+00 0.  1.
</event>
<event>
 5    1  0.6924836E-004  0.9118800E+02  0.7818608E-02  0.1130116E+00
         25   -1    0    0    0    0  0.00000000000E+00  0.00000000000E+00  0.99999998245E-14  0.12500000000E+03  0.12500000000E+03 0.  0.
        -13    1    3    3    0    0 -0.42422776316E+02  0.13148966633E+02  0.14208308057E+02  0.46631260499E+02  0.10566000000E+00 0.  1.
         23    2    1    0    0    0 -0.47357705985E+01  0.27219871269E+02 -0.12246600131E+02  0.94778680872E+02  0.89831343182E+02 0.  0.
         13    1    3    3    0    0  0.37687005717E+02  0.14070904636E+02 -0.26454908188E+02  0.48147420372E+02  0.10566000000E+00 0. -1.
         22    1    1    0    0    0  0.47357705985E+01 -0.27219871269E+02  0.12246600131E+02  0.30221319128E+02  0.00000000000E+00 0.  1.
</event>
<event>
 5    1  0.6924836E-004  0.9118800E+02  0.7818608E-02  0.1130116E+00
         25   -1    0    0    0    0  0.00000000000E+00  0.00000000000E+00  0.99999998245E-14  0.12500000000E+03  0.12500000000E+03 0.  0.
        -13    1    3    3    0    0  0.99449396472E+01  0.50810921348E+01 -0.37048249608E+02  0.38695003359E+02  0.10566000000E+00 0.  1.
         23    2    1    0    0    0 -0.26362618691E+02 -0.98327606551E+01  0.52261947530E+01  0.96382104236E+02  0.92035460878E+02 0.  0.
         13    1    3    3    0    0 -0.36307558338E+02 -0.14913852790E+02  0.42274444361E+02  0.57687100877E+02  0.10566000000E+00 0. -1.
         22    1    1    0    0    0  0.26362618691E+02  0.98327606551E+01 -0.52261947530E+01  0.28617895764E+02  0.00000000000E+00 0. -1.
</event>
<event>
 5    1  0.6924836E-004  0.9118800E+02  0.7818608E-02  0.1130116E+00
         25   -1    0    0    0    0  0.00000000000E+00  0.00000000000E+00  0.99999998245E-14  0.12500000000E+03  0.12500000000E+03 0.  0.
        -13    1    3    3    0    0 -0.48148476286E+02  0.31791171686E+02  0.15511432465E+02  0.59745879079E+02  0.10566000000E+00 0. -1.
         23    2    1    0    0    0 -0.13262852041E+02  0.21245779428E+02  0.14188300918E+02  0.96214686545E+02  0.91807797252E+02 0.  0.
         13    1    3    3    0    0  0.34885624245E+02 -0.10545392258E+02 -0.13231315473E+01  0.36468807466E+02  0.10566000000E+00 0.  1.
         22    1    1    0    0    0  0.13262852041E+02 -0.21245779428E+02 -0.14188300918E+02  0.28785313455E+02  0.00000000000E+00 0. -1.
</event>
<event>
 5    1  0.6924836E-004  0.9118800E+02  0.7818608E-02  0.1130116E+00
         25   -1    0    0    0    0  0.00000000000E+00  0.00000000000E+00  0.99999998245E-14  0.12500000000E+03  0.12500000000E+03 0.  0.
        -13    1    3    3    0    0 -0.24859125389E+02  0.28500263833E+02  0.19658628316E+02  0.42622927925E+02  0.10566000000E+00 0.  1.
         23    2    1    0    0    0 -0.10353704799E+02  0.30430911103E+02 -0.21515223427E+02  0.86319974241E+02  0.77168604758E+02 0.  0.
         13    1    3    3    0    0  0.14505420589E+02  0.19306472699E+01 -0.41173851743E+02  0.43697046316E+02  0.10566000000E+00 0. -1.
         22    1    1    0    0    0  0.10353704799E+02 -0.30430911103E+02  0.21515223427E+02  0.38680025759E+02  0.00000000000E+00 0.  1.
</event>
<event>
 5    1  0.6924836E-004  0.9118800E+02  0.7818608E-02  0.1130116E+00
         25   -1    0    0    0    0  0.00000000000E+00  0.00000000000E+00  0.99999998245E-14  0.12500000000E+03  0.12500000000E+03 0.  0.
        -13    1    3    3    0    0  0.40255935459E+02  0.92116984585E+01 -0.29879378973E+02  0.50972386446E+02  0.10566000000E+00 0. -1.
         23    2    1    0    0    0 -0.22308814661E+00  0.22650329968E+02 -0.20067294474E+02  0.94738084603E+02  0.89774835843E+02 0.  0.
         13    1    3    3    0    0 -0.40479023606E+02  0.13438631510E+02  0.98120844981E+01  0.43765698157E+02  0.10566000000E+00 0.  1.
         22    1    1    0    0    0  0.22308814661E+00 -0.22650329968E+02  0.20067294474E+02  0.30261915397E+02  0.00000000000E+00 0.  1.
</event>
<event>
 5    1  0.6924836E-004  0.9118800E+02  0.7818608E-02  0.1130116E+00
         25   -1    0    0    0    0  0.00000000000E+00  0.00000000000E+00  0.99999998245E-14  0.12500000000E+03  0.12500000000E+03 0.  0.
        -13    1    3    3    0    0  0.24144594409E+02 -0.20265766673E+02 -0.31380255589E+02  0.44479145034E+02  0.10566000000E+00 0.  1.
         23    2    1    0    0    0 -0.13666780798E+02  0.15460187185E+02 -0.18845519616E+01  0.10427924178E+03  0.10219985540E+03 0.  0.
         13    1    3    3    0    0 -0.37811375207E+02  0.35725953859E+02  0.29495703628E+02  0.59800096745E+02  0.10566000000E+00 0. -1.
         22    1    1    0    0    0  0.13666780798E+02 -0.15460187185E+02  0.18845519616E+01  0.20720758221E+02  0.00000000000E+00 0. -1.
</event>
<event>
 4    1  0.6924836E-004  0.9118800E+02  0.7818608E-02  0.1130116E+00
         25   -1    0    0    0    0  0.00000000000E+00  0.00000000000E+00  0.99999998245E-14  0.12500000000E+03  0.12500000000E+03 0.  0.
        -13    1    1    0    0    0  0.13638066048E+00  0.14193636559E+02 -0.23087210277E+02  0.27101814715E+02  0.10566000000E+00 0.  1.
         13    1    1    0    0    0 -0.29734597362E+02  0.28297884565E+02  0.20913793087E+02  0.46068584268E+02  0.10566000000E+00 0. -1.
         22    1    1    0    0    0  0.29598216701E+02 -0.42491521124E+02  0.21734171892E+01  0.51829601017E+02  0.00000000000E+00 0. -1.
</event>
<event>
 5    1  0.6924836E-004  0.9118800E+02  0.7818608E-02  0.1130116E+00
         25   -1    0    0    0    0  0.00000000000E+00  0.00000000000E+00  0.99999998245E-14  0.12500000000E+03  0.12500000000E+03 0.  0.
        -13    1    3    3    0    0  0.30646810100E+02  0.29957959446E+02  0.11932874840E+02  0.44487200063E+02  0.10566000000E+00 0. -1.
         23    2    1    0    0    0 -0.72341387881E+01  0.19690579381E+02 -0.20699715908E+02  0.95529168335E+02  0.90869643357E+02 0.  0.
         13    1    3    3    0    0 -0.37880948888E+02 -0.10267380065E+02 -0.32632590748E+02  0.51041968272E+02  0.10566000000E+00 0.  1.
         22    1    1    0    0    0  0.72341387881E+01 -0.19690579381E+02  0.20699715908E+02  0.29470831665E+02  0.00000000000E+00 0.  1.
</event>
<event>
 5    1  0.6924836E-004  0.9118800E+02  0.7818608E-02  0.1130116E+00
         25   -1    0    0    0    0  0.00000000000E+00  0.00000000000E+00  0.99999998245E-14  0.12500000000E+03  0.12500000000E+03 0.  0.
        -13    1    3    3    0    0 -0.35026028691E+01  0.29719898547E+02 -0.15185649841E+02  0.33558243721E+02  0.10566000000E+00 0. -1.
         23    2    1    0    0    0  0.83136286480E+01 -0.12107692124E+02  0.27085598597E+02  0.94188601440E+02  0.89006462462E+02 0.  0.
         13    1    3    3    0    0  0.11816231517E+02 -0.41827590670E+02  0.42271248439E+02  0.60630357719E+02  0.10566000000E+00 0.  1.
         22    1    1    0    0    0 -0.83136286480E+01  0.12107692124E+02 -0.27085598597E+02  0.30811398560E+02  0.00000000000E+00 0.  1.
</event>
<event>
 5    1  0.6924836E-004  0.9118800E+02  0.7818608E-02  0.1130116E+00
         25   -1    0    0    0    0  0.00000000000E+00  0.00000000000E+00  0.99999998245E-14  0.12500000000E+03  0.12500000000E+03 0.  0.
        -13    1    3    3    0    0 -0.61156669222E+01 -0.36606591570E+02  0.45002559152E+02  0.58332541711E+02  0.10566000000E+00 0.  1.
         23    2    1    0    0    0 -0.12422849667E+02 -0.23688313150E+02  0.95345560819E+01  0.96603325311E+02  0.92335428345E+02 0.  0.
         13    1    3    3    0    0 -0.63071827447E+01  0.12918278421E+02 -0.35468003070E+02  0.38270783599E+02  0.10566000000E+00 0. -1.
         22    1    1    0    0    0  0.12422849667E+02  0.23688313150E+02 -0.95345560819E+01  0.28396674689E+02  0.00000000000E+00 0.  1.
</event>
<event>
 5    1  0.6924836E-004  0.9118800E+02  0.7818608E-02  0.1130116E+00
         25   -1    0    0    0    0  0.00000000000E+00  0.00000000000E+00  0.99999998245E-14  0.12500000000E+03  0.12500000000E+03 0.  0.
        -13    1    3    3    0    0 -0.18632033455E+02  0.25832743576E+02  0.14579390513E+02  0.35029317765E+02  0.10566000000E+00 0. -1.
         23    2    1    0    0    0  0.25158512539E+01 -0.28835511984E+02 -0.21185364858E+01  0.95977518098E+02  0.91484312996E+02 0.  0.
         13    1    3    3    0    0  0.21147884709E+02 -0.54668255560E+02 -0.16697926999E+02  0.60948200332E+02  0.10566000000E+00 0.  1.
         22    1    1    0    0    0 -0.25158512539E+01  0.28835511984E+02  0.21185364858E+01  0.29022481902E+02  0.00000000000E+00 0.  1.
</event>
<event>
 5    1  0.6924836E-004  0.9118800E+02  0.7818608E-02  0.1130116E+00
         25   -1    0    0    0    0  0.00000000000E+00  0.00000000000E+00  0.99999998245E-14  0.12500000000E+03  0.12500000000E+03 0.  0.
        -13    1    3    3    0    0  0.60770062401E+01 -0.95710822271E+01  0.28897500622E+02  0.31042105696E+02  0.10566000000E+00 0.  1.
         23    2    1    0    0    0  0.39585592047E+02  0.10620323160E+02 -0.61361917023E+01  0.83557712293E+02  0.72556378584E+02 0.  0.
         13    1    3    3    0    0  0.33508585807E+02  0.20191405387E+02 -0.35033692324E+02  0.52515606597E+02  0.10566000000E+00 0. -1.
         22    1    1    0    0    0 -0.39585592047E+02 -0.10620323160E+02  0.61361917023E+01  0.41442287707E+02  0.00000000000E+00 0. -1.
</event>
<event>
 5    1  0.6924836E-004  0.9118800E+02  0.7818608E-02  0.1130116E+00
         25   -1    0    0    0    0  0.00000000000E+00  0.00000000000E+00  0.99999998245E-14  0.12500000000E+03  0.12500000000E+03 0.  0.
        -13    1    3    3    0    0 -0.37755090924E+02 -0.33792647270E+02 -0.93500084748E+01  0.51524981540E+02  0.10566000000E+00 0.  1.
         23    2    1    0    0    0 -0.29347817838E+02  0.75187065190E+01 -0.15252557552E-01  0.94704363479E+02  0.89727871199E+02 0.  0.
         13    1    3    3    0    0  0.84072730863E+01  0.41311353789E+02  0.93347559173E+01  0.43179381940E+02  0.10566000000E+00 0. -1.
         22    1    1    0    0    0  0.29347817838E+02 -0.75187065190E+01  0.15252557552E-01  0.30295636521E+02  0.00000000000E+00 0. -1.
</event>
<event>
 5    1  0.6924836E-004  0.9118800E+02  0.7818608E-02  0.1130116E+00
         25   -1    0    0    0    0  0.00000000000E+00  0.00000000000E+00  0.99999998245E-14  0.12500000000E+03  0.12500000000E+03 0.  0.
        -13    1    3    3    0    0  0.19654673566E+02 -0.17805990092E+02  0.26038779190E+02  0.37167037304E+02  0.10566000000E+00 0. -1.
         23    2    1    0    0    0 -0.15202677733E+02 -0.15329753346E+02 -0.20407676726E+02  0.95291482413E+02  0.90542092991E+02 0.  0.
         13    1    3    3    0    0 -0.34857351300E+02  0.24762367462E+01 -0.46446455916E+02  0.58124445109E+02  0.10566000000E+00 0.  1.
         22    1    1    0    0    0  0.15202677733E+02  0.15329753346E+02  0.20407676726E+02  0.29708517587E+02  0.00000000000E+00 0.  1.
</event>
<event>
 4    1  0.6924836E-004  0.9118800E+02  0.7818608E-02  0.1130116E+00
         25   -1    0    0    0    0  0.00000000000E+00  0.00000000000E+00  0.99999998245E-14  0.12500000000E+03  0.12500000000E+03 0.  0.
        -13    1    1    0    0    0  0.29807838730E+02  0.18962266237E+02 -0.98535903351E+01  0.36676684653E+02  0.10566000000E+00 0.  1.
         13    1    1    0    0    0 -0.37414997708E+01 -0.67647021428E+01 -0.34552576753E+02  0.35406944798E+02  0.10566000000E+00 0. -1.
         22    1    1    0    0    0 -0.26066338959E+02 -0.12197564095E+02  0.44406167089E+02  0.52916370549E+02  0.00000000000E+00 0. -1.
</event>
<event>
 5    1  0.6924836E-004  0.9118800E+02  0.7818608E-02  0.1130116E+00
         25   -1    0    0    0    0  0.00000000000E+00  0.00000000000E+00  0.99999998245E-14  0.12500000000E+03  0.12500000000E+03 0.  0.
        -13    1    3    3    0    0 -0.49198989358E+02  0.70146043126E+01 -0.10716054719E+02  0.50838865254E+02  0.10566000000E+00 0.  1.
         23    2    1    0    0    0 -0.13155349076E+02 -0.18424109525E+02 -0.18656455060E+02  0.95664452681E+02  0.91055549915E+02 0.  0.
         13    1    3    3    0    0  0.36043640283E+02 -0.25438713838E+02 -0.79404003403E+01  0.44825587427E+02  0.10566000000E+00 0. -1.
         22    1    1    0    0    0  0.13155349076E+02  0.18424109525E+02  0.18656455060E+02  0.29335547319E+02  0.00000000000E+00 0.  1.
</event>
<event>
 5    1  0.6924836E-004  0.9118800E+02  0.7818608E-02  0.1130116E+00
         25   -1    0    0    0    0  0.00000000000E+00  0.00000000000E+00  0.99999998245E-14  0.12500000000E+03  0.12500000000E+03 0.  0.
        -13    1    3    3    0    0  0.27480690353E+02 -0.28606398781E+02  0.19861956045E+02  0.44362403626E+02  0.10566000000E+00 0. -1.
         23    2    1    0    0    0 -0.12047633291E+02 -0.19442538593E+02 -0.14823731510E+02  0.97743793538E+02  0.93866652142E+02 0.  0.
         13    1    3    3    0    0 -0.39528323644E+02  0.91638601885E+01 -0.34685687555E+02  0.53381389911E+02  0.10566000000E+00 0.  1.
         22    1    1    0    0    0  0.12047633291E+02  0.19442538593E+02  0.14823731510E+02  0.27256206462E+02  0.00000000000E+00 0. -1.
</event>
<event>
 5    1  0.6924836E-004  0.9118800E+02  0.7818608E-02  0.1130116E+00
         25   -1    0    0    0    0  0.00000000000E+00  0.00000000000E+00  0.99999998245E-14  0.12500000000E+03  0.12500000000E+03 0.  0.
        -13    1    3    3    0    0  0.32330322993E+02  0.11352501222E+02  0.11588794529E+02  0.36172370554E+02  0.10566000000E+00 0. -1.
         23    2    1    0    0    0 -0.27314500421E+02 -0.19225814414E+00  0.38189080590E+01  0.97419156010E+02  0.93433339888E+02 0.  0.
         13    1    3    3    0    0 -0.59644823414E+02 -0.11544759366E+02 -0.77698864705E+01  0.61246785456E+02  0.10566000000E+00 0.  1.
         22    1    1    0    0    0  0.27314500421E+02  0.19225814414E+00 -0.38189080590E+01  0.27580843990E+02  0.00000000000E+00 0.  1.
</event>
<event>
 5    1  0.6924836E-004  0.9118800E+02  0.7818608E-02  0.1130116E+00
         25   -1    0    0    0    0  0.00000000000E+00  0.00000000000E+00  0.99999998245E-14  0.12500000000E+03  0.12500000000E+03 0.  0.
        -13    1    3    3    0    0 -0.19985117385E+02 -0.17325963093E+01 -0.56495780488E+02  0.59951573657E+02  0.10566000000E+00 0.  1.
         23    2    1    0    0    0 -0.21184432672E+02  0.15544513726E+00 -0.22224078328E+02  0.94296351872E+02  0.89157657932E+02 0.  0.
         13    1    3    3    0    0 -0.11993152870E+01  0.18880414466E+01  0.34271702160E+02  0.34344778215E+02  0.10566000000E+00 0. -1.
         22    1    1    0    0    0  0.21184432672E+02 -0.15544513726E+00  0.22224078328E+02  0.30703648128E+02  0.00000000000E+00 0.  1.
</event>
<event>
 5    1  0.6924836E-004  0.9118800E+02  0.7818608E-02  0.1130116E+00
         25   -1    0    0    0    0  0.00000000000E+00  0.00000000000E+00  0.99999998245E-14  0.12500000000E+03  0.12500000000E+03 0.  0.
        -13    1    3    3    0    0 -0.47521562786E+02 -0.10505894828E+02  0.30836589376E+02  0.57615789191E+02  0.10566000000E+00 0. -1.
         23    2    1    0    0    0 -0.11546712016E+02 -0.14780377662E+02  0.24094564825E+02  0.94465852291E+02  0.89394983487E+02 0.  0.
         13    1    3    3    0    0  0.35974850769E+02 -0.42744828333E+01 -0.67420245513E+01  0.36850063100E+02  0.10566000000E+00 0.  1.
         22    1    1    0    0    0  0.11546712016E+02  0.14780377662E+02 -0.24094564825E+02  0.30534147709E+02  0.00000000000E+00 0. -1.
</event>
<event>
 5    1  0.6924836E-004  0.9118800E+02  0.7818608E-02  0.1130116E+00
         25   -1    0    0    0    0  0.00000000000E+00  0.00000000000E+00  0.99999998245E-14  0.12500000000E+03  0.12500000000E+03 0.  0.
        -13    1    3    3    0    0  0.49420634959E+02 -0.15833626887E+02  0.34216294749E+02  0.62160026468E+02  0.10566000000E+00 0.  1.
         23    2    1    0    0    0  0.22672761978E+02 -0.10916005332E+02  0.20052825412E+02  0.92823469499E+02  0.87068176590E+02 0.  0.
         13    1    3    3    0    0 -0.26747872981E+02  0.49176215552E+01 -0.14163469338E+02  0.30663443031E+02  0.10566000000E+00 0. -1.
         22    1    1    0    0    0 -0.22672761978E+02  0.10916005332E+02 -0.20052825412E+02  0.32176530501E+02  0.00000000000E+00 0.  1.
</event>
<event>
 5    1  0.6924836E-004  0.9118800E+02  0.7818608E-02  0.1130116E+00
         25   -1    0    0    0    0  0.00000000000E+00  0.00000000000E+00  0.99999998245E-14  0.12500000000E+03  0.12500000000E+03 0.  0.
        -13    1    3    3    0    0  0.33680190627E+02 -0.18457543548E+02  0.75244937837E+01  0.39136496078E+02  0.10566000000E+00 0. -1.
         23    2    1    0    0    0 -0.20332541348E+02 -0.96105118187E+01  0.19580373934E+02  0.95181126472E+02  0.90389610122E+02 0.  0.
         13    1    3    3    0    0 -0.54012731975E+02  0.88470317290E+01  0.12055880150E+02  0.56044630395E+02  0.10566000000E+00 0.  1.
         22    1    1    0    0    0  0.20332541348E+02  0.96105118187E+01 -0.19580373934E+02  0.29818873528E+02  0.00000000000E+00 0.  1.
</event>
<event>
 5    1  0.6924836E-004  0.9118800E+02  0.7818608E-02  0.1130116E+00
         25   -1    0    0    0    0  0.00000000000E+00  0.00000000000E+00  0.99999998245E-14  0.12500000000E+03  0.12500000000E+03 0.  0.
        -13    1    3    3    0    0 -0.15294935513E+02  0.91564676327E+01  0.31222774650E+02  0.35953425048E+02  0.10566000000E+00 0. -1.
         23    2    1    0    0    0  0.38731996916E+01 -0.27591188261E+02 -0.10931740888E+02  0.95070444300E+02  0.90236417676E+02 0.  0.
         13    1    3    3    0    0  0.19168135205E+02 -0.36747655894E+02 -0.42154515538E+02  0.59117019252E+02  0.10566000000E+00 0.  1.
         22    1    1    0    0    0 -0.38731996916E+01  0.27591188261E+02  0.10931740888E+02  0.29929555700E+02  0.00000000000E+00 0.  1.
</event>
<event>
 5    1  0.6924836E-004  0.9118800E+02  0.7818608E-02  0.1130116E+00
         25   -1    0    0    0    0  0.00000000000E+00  0.00000000000E+00  0.99999998245E-14  0.12500000000E+03  0.12500000000E+03 0.  0.
        -13    1    3    3    0    0  0.48193192685E+02 -0.40686028929E+01 -0.28097704828E+02  0.55934153532E+02  0.10566000000E+00 0.  1.
         23    2    1    0    0    0  0.27315822288E+02 -0.13627222896E+02  0.27056023734E+01  0.94354027421E+02  0.89238483040E+02 0.  0.
         13    1    3    3    0    0 -0.20877370398E+02 -0.95586200030E+01  0.30803307201E+02  0.38419873889E+02  0.10566000000E+00 0. -1.
         22    1    1    0    0    0 -0.27315822288E+02  0.13627222896E+02 -0.27056023734E+01  0.30645972579E+02  0.00000000000E+00 0.  1.
</event>
