<event>
 5    1  0.1758480E-003  0.9118800E+02  0.7818608E-02  0.1130116E+00
         25   -1    0    0    0    0  0.00000000000E+00  0.00000000000E+00  0.99999998245E-14  0.12500000000E+03  0.12500000000E+03 0.  0.
        -13    1    3    3    0    0 -0.32429158566E+02 -0.17180756476E+02  0.65620037931E+01  0.37281359634E+02  0.10566000000E+00 0.  1.
         23    2    1    0    0    0  0.96434778573E+01  0.66437338920E+01 -0.26617069418E+02  0.95920724740E+02  0.91406680199E+02 0.  0.
         13    1    3    3    0    0  0.42072636423E+02  0.23824490368E+02 -0.33179073212E+02  0.58639365106E+02  0.10566000000E+00 0. -1.
         22    1    1    0    0    0 -0.96434778573E+01 -0.66437338920E+01  0.26617069418E+02  0.29079275260E+02  0.00000000000E+00 0. -1.
</event>
<event>
 5    1  0.1758480E-003  0.9118800E+02  0.7818608E-02  0.1130116E+00
         25   -1    0    0    0    0  0.00000000000E+00  0.00000000000E+00  0.99999998245E-14  0.12500000000E+03  0.12500000000E+03 0.  0.
        -13    1    3    3    0    0  0.20410698929E+02 -0.82516587793E+01  0.40793732115E+02  0.46355433849E+02  0.10566000000E+00 0.  1.
         23    2    1    0    0    0 -0.15294977705E+02 -0.23737079032E+02  0.15267613784E+02  0.92898827208E+02  0.87176297249E+02 0.  0.
         13    1    3    3    0    0 -0.35705676634E+02 -0.15485420252E+02 -0.25526118331E+02  0.46543393359E+02  0.10566000000E+00 0. -1.
         22    1    1    0    0    0  0.15294977705E+02  0.23737079032E+02 -0.15267613784E+02  0.32101172792E+02  0.00000000000E+00 0.  1.
</event>
<event>
 5    1  0.1758480E-003  0.9118800E+02  0.7818608E-02  0.1130116E+00
         25   -1    0    0    0    0  0.00000000000E+00  0.00000000000E+00  0.99999998245E-14  0.12500000000E+03  0.12500000000E+03 0.  0.
        -13    1    3    3    0    0 -0.10735386375E+02 -0.29211600181E+01 -0.30868912079E+02  0.32812841898E+02  0.10566000000E+00 0. -1.
         23    2    1    0    0    0 -0.13691792496E+02 -0.22610279056E+01  0.29048538921E+02  0.92806910021E+02  0.87044399620E+02 0.  0.
         13    1    3    3    0    0 -0.29564061217E+01  0.66013211246E+00  0.59917451000E+02  0.59994068123E+02  0.10566000000E+00 0.  1.
         22    1    1    0    0    0  0.13691792496E+02  0.22610279056E+01 -0.29048538921E+02  0.32193089979E+02  0.00000000000E+00 0.  1.
</event>
<event>
 5    1  0.1758480E-003  0.9118800E+02  0.7818608E-02  0.1130116E+00
         25   -1    0    0    0    0  0.00000000000E+00  0.00000000000E+00  0.99999998245E-14  0.12500000000E+03  0.12500000000E+03 0.  0.
        -13    1    3    3    0    0  0.68096044047E+01  0.22950561417E+02  0.27077421058E+02  0.36142729237E+02  0.10566000000E+00 0. -1.
         23    2    1    0    0    0 -0.20647475071E+02  0.76471132510E+01 -0.21644452176E+02  0.94124785379E+02  0.88916794504E+02 0.  0.
         13    1    3    3    0    0 -0.27457079476E+02 -0.15303448166E+02 -0.48721873233E+02  0.57982056143E+02  0.10566000000E+00 0.  1.
         22    1    1    0    0    0  0.20647475071E+02 -0.76471132510E+01  0.21644452176E+02  0.30875214621E+02  0.00000000000E+00 0.  1.
</event>
<event>
 5    1  0.1758480E-003  0.9118800E+02  0.7818608E-02  0.1130116E+00
         25   -1    0    0    0    0  0.00000000000E+00  0.00000000000E+00  0.99999998245E-14  0.12500000000E+03  0.12500000000E+03 0.  0.
        -13    1    3    3    0    0  0.23308475111E+02  0.21041348180E+02 -0.21719090910E+02  0.38180537179E+02  0.10566000000E+00 0.  1.
         23    2    1    0    0    0 -0.14465102543E+02  0.10164095825E+02  0.21871223754E+02  0.96877082939E+02  0.92705289680E+02 0.  0.
         13    1    3    3    0    0 -0.37773577654E+02 -0.10877252355E+02  0.43590314664E+02  0.58696545760E+02  0.10566000000E+00 0. -1.
         22    1    1    0    0    0  0.14465102543E+02 -0.10164095825E+02 -0.21871223754E+02  0.28122917061E+02  0.00000000000E+00 0. -1.
</event>
<event>
 5    1  0.1758480E-003  0.9118800E+02  0.7818608E-02  0.1130116E+00
         25   -1    0    0    0    0  0.00000000000E+00  0.00000000000E+00  0.99999998245E-14  0.12500000000E+03  0.12500000000E+03 0.  0.
        -13    1    3    3    0    0 -0.29340066799E+02 -0.52581529778E+02  0.75485686624E+01  0.60684832096E+02  0.10566000000E+00 0.  1.
         23    2    1    0    0    0 -0.62350845570E+01 -0.29424303446E+02 -0.22636973084E+01  0.94837270710E+02  0.89912833776E+02 0.  0.
         13    1    3    3    0    0  0.23104982242E+02  0.23157226333E+02 -0.98122659708E+01  0.34152438615E+02  0.10566000000E+00 0. -1.
         22    1    1    0    0    0  0.62350845570E+01  0.29424303446E+02  0.22636973084E+01  0.30162729290E+02  0.00000000000E+00 0.  1.
</event>
<event>
 5    1  0.1758480E-003  0.9118800E+02  0.7818608E-02  0.1130116E+00
         25   -1    0    0    0    0  0.00000000000E+00  0.00000000000E+00  0.99999998245E-14  0.12500000000E+03  0.12500000000E+03 0.  0.
        -13    1    3    3    0    0 -0.32908712444E+02  0.38421587489E+02  0.13295226285E+02  0.52306557389E+02  0.10566000000E+00 0.  1.
         23    2    1    0    0    0 -0.12331805012E+02  0.18851001658E+02 -0.19156989242E+02  0.95429340299E+02  0.90732216300E+02 0.  0.
         13    1    3    3    0    0  0.20576907432E+02 -0.19570585831E+02 -0.32452215527E+02  0.43122782910E+02  0.10566000000E+00 0. -1.
         22    1    1    0    0    0  0.12331805012E+02 -0.18851001658E+02  0.19156989242E+02  0.29570659701E+02  0.00000000000E+00 0. -1.
</event>
<event>
 5    1  0.1758480E-003  0.9118800E+02  0.7818608E-02  0.1130116E+00
         25   -1    0    0    0    0  0.00000000000E+00  0.00000000000E+00  0.99999998245E-14  0.12500000000E+03  0.12500000000E+03 0.  0.
        -13    1    3    3    0    0 -0.58899709370E+01 -0.43494596903E+01  0.43226734748E+02  0.43842574266E+02  0.10566000000E+00 0. -1.
         23    2    1    0    0    0  0.48836689735E+01  0.29857812200E+02  0.89569165094E+01  0.93447416502E+02  0.87959389070E+02 0.  0.
         13    1    3    3    0    0  0.10773639911E+02  0.34207271891E+02 -0.34269818239E+02  0.49604842236E+02  0.10566000000E+00 0.  1.
         22    1    1    0    0    0 -0.48836689735E+01 -0.29857812200E+02 -0.89569165094E+01  0.31552583498E+02  0.00000000000E+00 0. -1.
</event>
<event>
 5    1  0.1758480E-003  0.9118800E+02  0.7818608E-02  0.1130116E+00
         25   -1    0    0    0    0  0.00000000000E+00  0.00000000000E+00  0.99999998245E-14  0.12500000000E+03  0.12500000000E+03 0.  0.
        -13    1    3    3    0    0  0.19142314244E+02  0.27308196542E+02 -0.22566358962E+02  0.40266828951E+02  0.10566000000E+00 0.  1.
         23    2    1    0    0    0 -0.82791910556E+01  0.15291113146E+02  0.23839636803E+02  0.95492519107E+02  0.90819214799E+02 0.  0.
         13    1    3    3    0    0 -0.27421505300E+02 -0.12017083396E+02  0.46405995764E+02  0.55225690156E+02  0.10566000000E+00 0. -1.
         22    1    1    0    0    0  0.82791910556E+01 -0.15291113146E+02 -0.23839636803E+02  0.29507480893E+02  0.00000000000E+00 0. -1.
</event>
<event>
 5    1  0.1758480E-003  0.9118800E+02  0.7818608E-02  0.1130116E+00
         25   -1    0    0    0    0  0.00000000000E+00  0.00000000000E+00  0.99999998245E-14  0.12500000000E+03  0.12500000000E+03 0.  0.
        -13    1    3    3    0    0 -0.34099448606E+02 -0.28566424003E+02  0.37074799889E+02  0.57908245755E+02  0.10566000000E+00 0. -1.
         23    2    1    0    0    0 -0.13057266747E+01 -0.21641763057E+02  0.19906032111E+02  0.95566669492E+02  0.90921215198E+02 0.  0.
         13    1    3    3    0    0  0.32793721931E+02  0.69246609459E+01 -0.17168767778E+02  0.37658423737E+02  0.10566000000E+00 0.  1.
         22    1    1    0    0    0  0.13057266747E+01  0.21641763057E+02 -0.19906032111E+02  0.29433330508E+02  0.00000000000E+00 0. -1.
</event>
<event>
 5    1  0.1758480E-003  0.9118800E+02  0.7818608E-02  0.1130116E+00
         25   -1    0    0    0    0  0.00000000000E+00  0.00000000000E+00  0.99999998245E-14  0.12500000000E+03  0.12500000000E+03 0.  0.
        -13    1    3    3    0    0  0.59954852068E+02 -0.40083575418E+01  0.21747973091E+01  0.60128130887E+02  0.10566000000E+00 0. -1.
         23    2    1    0    0    0  0.26416385798E+02  0.90306334141E+01 -0.44890205725E+01  0.96724054672E+02  0.92498722520E+02 0.  0.
         13    1    3    3    0    0 -0.33538466269E+02  0.13038990956E+02 -0.66638178815E+01  0.36595923784E+02  0.10566000000E+00 0.  1.
         22    1    1    0    0    0 -0.26416385798E+02 -0.90306334141E+01  0.44890205725E+01  0.28275945328E+02  0.00000000000E+00 0. -1.
</event>
<event>
 5    1  0.1758480E-003  0.9118800E+02  0.7818608E-02  0.1130116E+00
         25   -1    0    0    0    0  0.00000000000E+00  0.00000000000E+00  0.99999998245E-14  0.12500000000E+03  0.12500000000E+03 0.  0.
        -13    1    3    3    0    0  0.62953334843E+01 -0.10503164941E+02 -0.55512976086E+02  0.56847597798E+02  0.10566000000E+00 0.  1.
         23    2    1    0    0    0  0.53735289141E+01 -0.20913551856E+02 -0.14946533825E+02  0.98738805480E+02  0.95182463563E+02 0.  0.
         13    1    3    3    0    0 -0.92180457012E+00 -0.10410386915E+02  0.40566442260E+02  0.41891207682E+02  0.10566000000E+00 0. -1.
         22    1    1    0    0    0 -0.53735289141E+01  0.20913551856E+02  0.14946533825E+02  0.26261194520E+02  0.00000000000E+00 0.  1.
</event>
<event>
 5    1  0.1758480E-003  0.9118800E+02  0.7818608E-02  0.1130116E+00
         25   -1    0    0    0    0  0.00000000000E+00  0.00000000000E+00  0.99999998245E-14  0.12500000000E+03  0.12500000000E+03 0.  0.
        -13    1    3    3    0    0  0.12608991313E+02  0.47611404869E+01  0.32391419668E+02  0.35083761953E+02  0.10566000000E+00 0.  1.
         23    2    1    0    0    0 -0.10132980604E+02 -0.32204565123E+01 -0.25272435470E+02  0.97582038175E+02  0.93650998626E+02 0.  0.
         13    1    3    3    0    0 -0.22741971917E+02 -0.79815969992E+01 -0.57663855138E+02  0.62498276222E+02  0.10566000000E+00 0. -1.
         22    1    1    0    0    0  0.10132980604E+02  0.32204565123E+01  0.25272435470E+02  0.27417961825E+02  0.00000000000E+00 0. -1.
</event>
<event>
 5    1  0.1758480E-003  0.9118800E+02  0.7818608E-02  0.1130116E+00
         25   -1    0    0    0    0  0.00000000000E+00  0.00000000000E+00  0.99999998245E-14  0.12500000000E+03  0.12500000000E+03 0.  0.
        -13    1    3    3    0    0  0.48689983650E+02  0.10051547448E+02  0.61609674543E+01  0.50097073746E+02  0.10566000000E+00 0. -1.
         23    2    1    0    0    0  0.16514592381E+02 -0.19291271898E+02  0.16321180144E+02  0.94812819703E+02  0.89878834693E+02 0.  0.
         13    1    3    3    0    0 -0.32175391269E+02 -0.29342819347E+02  0.10160212690E+02  0.44715745957E+02  0.10566000000E+00 0.  1.
         22    1    1    0    0    0 -0.16514592381E+02  0.19291271898E+02 -0.16321180144E+02  0.30187180297E+02  0.00000000000E+00 0. -1.
</event>
<event>
 5    1  0.1758480E-003  0.9118800E+02  0.7818608E-02  0.1130116E+00
         25   -1    0    0    0    0  0.00000000000E+00  0.00000000000E+00  0.99999998245E-14  0.12500000000E+03  0.12500000000E+03 0.  0.
        -13    1    3    3    0    0  0.30643158858E+02  0.64716630975E+01  0.51979577479E+02  0.60685857059E+02  0.10566000000E+00 0.  1.
         23    2    1    0    0    0  0.43353139517E+01  0.18754518047E+01  0.28082152663E+02  0.96523350535E+02  0.92227098153E+02 0.  0.
         13    1    3    3    0    0 -0.26307844906E+02 -0.45962112928E+01 -0.23897424815E+02  0.35837493477E+02  0.10566000000E+00 0. -1.
         22    1    1    0    0    0 -0.43353139517E+01 -0.18754518047E+01 -0.28082152663E+02  0.28476649465E+02  0.00000000000E+00 0.  1.
</event>
<event>
 5    1  0.1758480E-003  0.9118800E+02  0.7818608E-02  0.1130116E+00
         25   -1    0    0    0    0  0.00000000000E+00  0.00000000000E+00  0.99999998245E-14  0.12500000000E+03  0.12500000000E+03 0.  0.
        -13    1    3    3    0    0 -0.62087433538E+01 -0.32739364521E+02 -0.40916112460E+01  0.33573306806E+02  0.10566000000E+00 0.  1.
         23    2    1    0    0    0  0.65104282964E+00  0.28312524858E+02 -0.92041823056E+01  0.95221821874E+02  0.90445870378E+02 0.  0.
         13    1    3    3    0    0  0.68597861835E+01  0.61051889379E+02 -0.51125710596E+01  0.61648515068E+02  0.10566000000E+00 0. -1.
         22    1    1    0    0    0 -0.65104282964E+00 -0.28312524858E+02  0.92041823056E+01  0.29778178126E+02  0.00000000000E+00 0. -1.
</event>
<event>
 5    1  0.1758480E-003  0.9118800E+02  0.7818608E-02  0.1130116E+00
         25   -1    0    0    0    0  0.00000000000E+00  0.00000000000E+00  0.99999998245E-14  0.12500000000E+03  0.12500000000E+03 0.  0.
        -13    1    3    3    0    0  0.53144206591E+02  0.16873055003E+02  0.27277404784E+02  0.62073139562E+02  0.10566000000E+00 0.  1.
         23    2    1    0    0    0  0.27117570942E+02  0.52709523762E+01  0.17944893205E+02  0.92058160572E+02  0.85962434487E+02 0.  0.
         13    1    3    3    0    0 -0.26026635648E+02 -0.11602102627E+02 -0.93325115791E+01  0.29985021010E+02  0.10566000000E+00 0. -1.
         22    1    1    0    0    0 -0.27117570942E+02 -0.52709523762E+01 -0.17944893205E+02  0.32941839428E+02  0.00000000000E+00 0.  1.
</event>
<event>
 5    1  0.1758480E-003  0.9118800E+02  0.7818608E-02  0.1130116E+00
         25   -1    0    0    0    0  0.00000000000E+00  0.00000000000E+00  0.99999998245E-14  0.12500000000E+03  0.12500000000E+03 0.  0.
        -13    1    3    3    0    0  0.12292190780E+02  0.37231144689E+02  0.19172649963E+02  0.43644676189E+02  0.10566000000E+00 0. -1.
         23    2    1    0    0    0 -0.18493656709E+02  0.15440318118E+02 -0.16691115612E+02  0.95691091757E+02  0.91092112387E+02 0.  0.
         13    1    3    3    0    0 -0.30785847489E+02 -0.21790826571E+02 -0.35863765574E+02  0.52046415568E+02  0.10566000000E+00 0.  1.
         22    1    1    0    0    0  0.18493656709E+02 -0.15440318118E+02  0.16691115612E+02  0.29308908243E+02  0.00000000000E+00 0.  1.
</event>
<event>
 5    1  0.1758480E-003  0.9118800E+02  0.7818608E-02  0.1130116E+00
         25   -1    0    0    0    0  0.00000000000E+00  0.00000000000E+00  0.99999998245E-14  0.12500000000E+03  0.12500000000E+03 0.  0.
        -13    1    3    3    0    0 -0.15091419923E+02  0.58786252404E+02 -0.44847480159E+00  0.60694206648E+02  0.10566000000E+00 0. -1.
         23    2    1    0    0    0 -0.14204327841E+02  0.24086993437E+02 -0.73554511640E+01  0.96085490769E+02  0.91631723176E+02 0.  0.
         13    1    3    3    0    0  0.88709208200E+00 -0.34699258967E+02 -0.69069763624E+01  0.35391284121E+02  0.10566000000E+00 0.  1.
         22    1    1    0    0    0  0.14204327841E+02 -0.24086993437E+02  0.73554511640E+01  0.28914509231E+02  0.00000000000E+00 0. -1.
</event>
<event>
 5    1  0.1758480E-003  0.9118800E+02  0.7818608E-02  0.1130116E+00
         25   -1    0    0    0    0  0.00000000000E+00  0.00000000000E+00  0.99999998245E-14  0.12500000000E+03  0.12500000000E+03 0.  0.
        -13    1    3    3    0    0 -0.52948916544E+02 -0.20765639958E+02  0.13323205326E+02  0.58415053969E+02  0.10566000000E+00 0.  1.
         23    2    1    0    0    0 -0.28254309136E+02  0.59158977382E+01  0.51726542463E+01  0.95673217313E+02  0.91067581105E+02 0.  0.
         13    1    3    3    0    0  0.24694607408E+02  0.26681537696E+02 -0.81505510792E+01  0.37258163344E+02  0.10566000000E+00 0. -1.
         22    1    1    0    0    0  0.28254309136E+02 -0.59158977382E+01 -0.51726542463E+01  0.29326782687E+02  0.00000000000E+00 0.  1.
</event>
<event>
 5    1  0.1758480E-003  0.9118800E+02  0.7818608E-02  0.1130116E+00
         25   -1    0    0    0    0  0.00000000000E+00  0.00000000000E+00  0.99999998245E-14  0.12500000000E+03  0.12500000000E+03 0.  0.
        -13    1    3    3    0    0  0.25322725035E+02 -0.31842124085E+02  0.17187820749E+02  0.44165525193E+02  0.10566000000E+00 0. -1.
         23    2    1    0    0    0  0.22546499507E+02  0.18130911507E+02  0.59258496017E+01  0.95467132114E+02  0.90784266415E+02 0.  0.
         13    1    3    3    0    0 -0.27762255280E+01  0.49973035592E+02 -0.11261971148E+02  0.51301606921E+02  0.10566000000E+00 0.  1.
         22    1    1    0    0    0 -0.22546499507E+02 -0.18130911507E+02 -0.59258496017E+01  0.29532867886E+02  0.00000000000E+00 0.  1.
</event>
<event>
 5    1  0.1758480E-003  0.9118800E+02  0.7818608E-02  0.1130116E+00
         25   -1    0    0    0    0  0.00000000000E+00  0.00000000000E+00  0.99999998245E-14  0.12500000000E+03  0.12500000000E+03 0.  0.
        -13    1    3    3    0    0 -0.37116237429E+02  0.12441445762E+02 -0.12211793894E+02  0.41006630290E+02  0.10566000000E+00 0. -1.
         23    2    1    0    0    0  0.15524560604E+02  0.14783561601E+01 -0.24306882179E+02  0.96120560252E+02  0.91679550953E+02 0.  0.
         13    1    3    3    0    0  0.52640798033E+02 -0.10963089602E+02 -0.12095088285E+02  0.55113929962E+02  0.10566000000E+00 0.  1.
         22    1    1    0    0    0 -0.15524560604E+02 -0.14783561601E+01  0.24306882179E+02  0.28879439748E+02  0.00000000000E+00 0.  1.
</event>
<event>
 5    1  0.1758480E-003  0.9118800E+02  0.7818608E-02  0.1130116E+00
         25   -1    0    0    0    0  0.00000000000E+00  0.00000000000E+00  0.99999998245E-14  0.12500000000E+03  0.12500000000E+03 0.  0.
        -13    1    3    3    0    0  0.36193558764E+02  0.81509725521E+01 -0.78579736657E+01  0.37923224595E+02  0.10566000000E+00 0.  1.
         23    2    1    0    0    0 -0.15104681214E+02 -0.12036766466E+02 -0.22876967423E+02  0.95060214095E+02  0.90222245171E+02 0.  0.
         13    1    3    3    0    0 -0.51298239978E+02 -0.20187739019E+02 -0.15018993758E+02  0.57136989500E+02  0.10566000000E+00 0. -1.
         22    1    1    0    0    0  0.15104681214E+02  0.12036766466E+02  0.22876967423E+02  0.29939785905E+02  0.00000000000E+00 0. -1.
</event>
<event>
 5    1  0.1758480E-003  0.9118800E+02  0.7818608E-02  0.1130116E+00
         25   -1    0    0    0    0  0.00000000000E+00  0.00000000000E+00  0.99999998245E-14  0.12500000000E+03  0.12500000000E+03 0.  0.
        -13    1    3    3    0    0 -0.51809684602E+02  0.24941896379E+02 -0.21003306356E+02  0.61216759596E+02  0.10566000000E+00 0.  1.
         23    2    1    0    0    0 -0.28221876540E+02  0.71177297046E+01 -0.32231737341E+01  0.95716468100E+02  0.91126928101E+02 0.  0.
         13    1    3    3    0    0  0.23587808062E+02 -0.17824166674E+02  0.17780132622E+02  0.34499708504E+02  0.10566000000E+00 0. -1.
         22    1    1    0    0    0  0.28221876540E+02 -0.71177297046E+01  0.32231737341E+01  0.29283531900E+02  0.00000000000E+00 0.  1.
</event>
<event>
 5    1  0.1758480E-003  0.9118800E+02  0.7818608E-02  0.1130116E+00
         25   -1    0    0    0    0  0.00000000000E+00  0.00000000000E+00  0.99999998245E-14  0.12500000000E+03  0.12500000000E+03 0.  0.
        -13    1    3    3    0    0  0.29396802260E+02 -0.26417265405E+02 -0.43798809112E+02  0.58994836539E+02  0.10566000000E+00 0. -1.
         23    2    1    0    0    0  0.12198742470E+02  0.13384331105E+01 -0.26155015707E+02  0.96109074649E+02  0.91663889630E+02 0.  0.
         13    1    3    3    0    0 -0.17198059790E+02  0.27755698516E+02  0.17643793406E+02  0.37114238109E+02  0.10566000000E+00 0.  1.
         22    1    1    0    0    0 -0.12198742470E+02 -0.13384331105E+01  0.26155015707E+02  0.28890925351E+02  0.00000000000E+00 0. -1.
</event>
<event>
 5    1  0.1758480E-003  0.9118800E+02  0.7818608E-02  0.1130116E+00
         25   -1    0    0    0    0  0.00000000000E+00  0.00000000000E+00  0.99999998245E-14  0.12500000000E+03  0.12500000000E+03 0.  0.
        -13    1    3    3    0    0 -0.29064080415E+02 -0.31679779598E+02  0.44894346767E+02  0.62159816130E+02  0.10566000000E+00 0.  1.
         23    2    1    0    0    0 -0.12675661210E+02 -0.18628745822E+02  0.18582557331E+02  0.95793596679E+02  0.91232665037E+02 0.  0.
         13    1    3    3    0    0  0.16388419205E+02  0.13051033776E+02 -0.26311789436E+02  0.33633780549E+02  0.10566000000E+00 0. -1.
         22    1    1    0    0    0  0.12675661210E+02  0.18628745822E+02 -0.18582557331E+02  0.29206403321E+02  0.00000000000E+00 0.  1.
</event>
<event>
 5    1  0.1758480E-003  0.9118800E+02  0.7818608E-02  0.1130116E+00
         25   -1    0    0    0    0  0.00000000000E+00  0.00000000000E+00  0.99999998245E-14  0.12500000000E+03  0.12500000000E+03 0.  0.
        -13    1    3    3    0    0  0.27603240659E+02  0.24772172856E+02  0.75847247699E+00  0.37096979492E+02  0.10566000000E+00 0. -1.
         23    2    1    0    0    0 -0.24033928147E+02 -0.17368473453E+01  0.14675353508E+02  0.96786309325E+02  0.92582813369E+02 0.  0.
         13    1    3    3    0    0 -0.51637168806E+02 -0.26509020201E+02  0.13916881031E+02  0.59689329834E+02  0.10566000000E+00 0.  1.
         22    1    1    0    0    0  0.24033928147E+02  0.17368473453E+01 -0.14675353508E+02  0.28213690675E+02  0.00000000000E+00 0.  1.
</event>
<event>
 5    1  0.1758480E-003  0.9118800E+02  0.7818608E-02  0.1130116E+00
         25   -1    0    0    0    0  0.00000000000E+00  0.00000000000E+00  0.99999998245E-14  0.12500000000E+03  0.12500000000E+03 0.  0.
        -13    1    3    3    0    0 -0.22392166958E+02 -0.41987038821E+01 -0.29840918911E+02  0.37543706009E+02  0.10566000000E+00 0. -1.
         23    2    1    0    0    0  0.23774363149E+02 -0.17797937734E+02  0.19731067057E+01  0.95236262318E+02  0.90465825478E+02 0.  0.
         13    1    3    3    0    0  0.46166530108E+02 -0.13599233852E+02  0.31814025617E+02  0.57692556309E+02  0.10566000000E+00 0.  1.
         22    1    1    0    0    0 -0.23774363149E+02  0.17797937734E+02 -0.19731067057E+01  0.29763737682E+02  0.00000000000E+00 0.  1.
</event>
<event>
 5    1  0.1758480E-003  0.9118800E+02  0.7818608E-02  0.1130116E+00
         25   -1    0    0    0    0  0.00000000000E+00  0.00000000000E+00  0.99999998245E-14  0.12500000000E+03  0.12500000000E+03 0.  0.
        -13    1    3    3    0    0 -0.53271701169E+02  0.20663803693E+02  0.45743608884E+01  0.57321923120E+02  0.10566000000E+00 0. -1.
         23    2    1    0    0    0 -0.29160636241E+02 -0.27796852475E+01 -0.10101547143E+02  0.94014348309E+02  0.88761405336E+02 0.  0.
         13    1    3    3    0    0  0.24111064928E+02 -0.23443488941E+02 -0.14675908031E+02  0.36692425189E+02  0.10566000000E+00 0.  1.
         22    1    1    0    0    0  0.29160636241E+02  0.27796852475E+01  0.10101547143E+02  0.30985651691E+02  0.00000000000E+00 0. -1.
</event>
<event>
 5    1  0.1758480E-003  0.9118800E+02  0.7818608E-02  0.1130116E+00
         25   -1    0    0    0    0  0.00000000000E+00  0.00000000000E+00  0.99999998245E-14  0.12500000000E+03  0.12500000000E+03 0.  0.
        -13    1    3    3    0    0  0.42870420354E+02 -0.36851025923E+02  0.11599207140E+02  0.57709824322E+02  0.10566000000E+00 0. -1.
         23    2    1    0    0    0  0.98132777453E+01 -0.22770787778E+02  0.18199943674E+02  0.94242120589E+02  0.89081592640E+02 0.  0.
         13    1    3    3    0    0 -0.33057142609E+02  0.14080238146E+02  0.66007365336E+01  0.36532296267E+02  0.10566000000E+00 0.  1.
         22    1    1    0    0    0 -0.98132777453E+01  0.22770787778E+02 -0.18199943674E+02  0.30757879411E+02  0.00000000000E+00 0. -1.
</event>
<event>
 5    1  0.1758480E-003  0.9118800E+02  0.7818608E-02  0.1130116E+00
         25   -1    0    0    0    0  0.00000000000E+00  0.00000000000E+00  0.99999998245E-14  0.12500000000E+03  0.12500000000E+03 0.  0.
        -13    1    3    3    0    0  0.48780421046E+02 -0.33827013968E+02 -0.87190872422E+01  0.59998583298E+02  0.10566000000E+00 0.  1.
         23    2    1    0    0    0  0.16287814846E+02 -0.17817132269E+02 -0.14735756508E+02  0.96717750539E+02  0.92490202912E+02 0.  0.
         13    1    3    3    0    0 -0.32492606201E+02  0.16009881699E+02 -0.60166692662E+01  0.36719167240E+02  0.10566000000E+00 0. -1.
         22    1    1    0    0    0 -0.16287814846E+02  0.17817132269E+02  0.14735756508E+02  0.28282249461E+02  0.00000000000E+00 0.  1.
</event>
<event>
 5    1  0.1758480E-003  0.9118800E+02  0.7818608E-02  0.1130116E+00
         25   -1    0    0    0    0  0.00000000000E+00  0.00000000000E+00  0.99999998245E-14  0.12500000000E+03  0.12500000000E+03 0.  0.
        -13    1    3    3    0    0  0.35225021227E+01  0.36613472134E+02 -0.69598343164E+01  0.37435341866E+02  0.10566000000E+00 0.  1.
         23    2    1    0    0    0 -0.30131088013E+02 -0.67157480526E+01  0.53668934491E+01  0.93666515003E+02  0.88270203075E+02 0.  0.
         13    1    3    3    0    0 -0.33653590135E+02 -0.43329220186E+02  0.12326727765E+02  0.56231173137E+02  0.10566000000E+00 0. -1.
         22    1    1    0    0    0  0.30131088013E+02  0.67157480526E+01 -0.53668934491E+01  0.31333484997E+02  0.00000000000E+00 0. -1.
</event>
<event>
 5    1  0.1758480E-003  0.9118800E+02  0.7818608E-02  0.1130116E+00
         25   -1    0    0    0    0  0.00000000000E+00  0.00000000000E+00  0.99999998245E-14  0.12500000000E+03  0.12500000000E+03 0.  0.
        -13    1    3    3    0    0 -0.19735460168E+02  0.76788567487E+01  0.40406714343E+02  0.45619808823E+02  0.10566000000E+00 0.  1.
         23    2    1    0    0    0 -0.10522912869E+02  0.30284737144E+02 -0.12955197278E+00  0.92938905465E+02  0.87233745570E+02 0.  0.
         13    1    3    3    0    0  0.92125472996E+01  0.22605880395E+02 -0.40536266315E+02  0.47319096642E+02  0.10566000000E+00 0. -1.
         22    1    1    0    0    0  0.10522912869E+02 -0.30284737144E+02  0.12955197278E+00  0.32061094535E+02  0.00000000000E+00 0. -1.
</event>
<event>
 5    1  0.1758480E-003  0.9118800E+02  0.7818608E-02  0.1130116E+00
         25   -1    0    0    0    0  0.00000000000E+00  0.00000000000E+00  0.99999998245E-14  0.12500000000E+03  0.12500000000E+03 0.  0.
        -13    1    3    3    0    0  0.21367796634E+02  0.35921064400E+01  0.44919067983E+02  0.49872034189E+02  0.10566000000E+00 0.  1.
         23    2    1    0    0    0  0.26312246986E+02 -0.21841504198E+02  0.23255134730E+02  0.83645593483E+02  0.72707622508E+02 0.  0.
         13    1    3    3    0    0  0.49444503516E+01 -0.25433610638E+02 -0.21663933253E+02  0.33773559294E+02  0.10566000000E+00 0. -1.
         22    1    1    0    0    0 -0.26312246986E+02  0.21841504198E+02 -0.23255134730E+02  0.41354406517E+02  0.00000000000E+00 0.  1.
</event>
<event>
 5    1  0.1758480E-003  0.9118800E+02  0.7818608E-02  0.1130116E+00
         25   -1    0    0    0    0  0.00000000000E+00  0.00000000000E+00  0.99999998245E-14  0.12500000000E+03  0.12500000000E+03 0.  0.
        -13    1    3    3    0    0  0.35304002157E+02 -0.12042674244E+02  0.91240030313E+01  0.38401265169E+02  0.10566000000E+00 0. -1.
         23    2    1    0    0    0 -0.18125954584E+02 -0.16256839870E+02 -0.14156900270E+02  0.96835254352E+02  0.92648872567E+02 0.  0.
         13    1    3    3    0    0 -0.53429956741E+02 -0.42141656257E+01 -0.23280903302E+02  0.58433989183E+02  0.10566000000E+00 0.  1.
         22    1    1    0    0    0  0.18125954584E+02  0.16256839870E+02  0.14156900270E+02  0.28164745648E+02  0.00000000000E+00 0.  1.
</event>
<event>
 5    1  0.1758480E-003  0.9118800E+02  0.7818608E-02  0.1130116E+00
         25   -1    0    0    0    0  0.00000000000E+00  0.00000000000E+00  0.99999998245E-14  0.12500000000E+03  0.12500000000E+03 0.  0.
        -13    1    3    3    0    0 -0.31245638734E+02  0.75039020431E+01 -0.33448091977E+02  0.46383019595E+02  0.10566000000E+00 0.  1.
         23    2    1    0    0    0 -0.13178389357E+02 -0.23323437370E+02  0.37349943494E+01  0.97951841845E+02  0.94143297484E+02 0.  0.
         13    1    3    3    0    0  0.18067249378E+02 -0.30827339414E+02  0.37183086327E+02  0.51568822250E+02  0.10566000000E+00 0. -1.
         22    1    1    0    0    0  0.13178389357E+02  0.23323437370E+02 -0.37349943494E+01  0.27048158155E+02  0.00000000000E+00 0. -1.
</event>
<event>
 5    1  0.1758480E-003  0.9118800E+02  0.7818608E-02  0.1130116E+00
         25   -1    0    0    0    0  0.00000000000E+00  0.00000000000E+00  0.99999998245E-14  0.12500000000E+03  0.12500000000E+03 0.  0.
        -13    1    3    3    0    0  0.49631662209E+02 -0.14649178015E+02 -0.10217266109E+01  0.51758626329E+02  0.10566000000E+00 0. -1.
         23    2    1    0    0    0  0.97480167567E+01 -0.21585458071E+02  0.16771301869E+02  0.95978759551E+02  0.91486009246E+02 0.  0.
         13    1    3    3    0    0 -0.39883645453E+02 -0.69362800552E+01  0.17793028480E+02  0.44220133222E+02  0.10566000000E+00 0.  1.
         22    1    1    0    0    0 -0.97480167567E+01  0.21585458071E+02 -0.16771301869E+02  0.29021240449E+02  0.00000000000E+00 0. -1.
</event>
<event>
 5    1  0.1758480E-003  0.9118800E+02  0.7818608E-02  0.1130116E+00
         25   -1    0    0    0    0  0.00000000000E+00  0.00000000000E+00  0.99999998245E-14  0.12500000000E+03  0.12500000000E+03 0.  0.
        -13    1    3    3    0    0 -0.21271573716E+02 -0.41817996786E+02  0.30833845660E+02  0.56142336127E+02  0.10566000000E+00 0. -1.
         23    2    1    0    0    0  0.64721088595E+01 -0.14520966870E+02  0.24819490574E+02  0.95525370498E+02  0.90864418914E+02 0.  0.
         13    1    3    3    0    0  0.27743682575E+02  0.27297029917E+02 -0.60143550862E+01  0.39383034371E+02  0.10566000000E+00 0.  1.
         22    1    1    0    0    0 -0.64721088595E+01  0.14520966870E+02 -0.24819490574E+02  0.29474629502E+02  0.00000000000E+00 0. -1.
</event>
<event>
 5    1  0.1758480E-003  0.9118800E+02  0.7818608E-02  0.1130116E+00
         25   -1    0    0    0    0  0.00000000000E+00  0.00000000000E+00  0.99999998245E-14  0.12500000000E+03  0.12500000000E+03 0.  0.
        -13    1    3    3    0    0  0.29058860578E+02  0.27920175667E+02 -0.33323615129E+02  0.52291759165E+02  0.10566000000E+00 0. -1.
         23    2    1    0    0    0  0.13597155688E+02  0.24689437560E+02  0.73047802964E+01  0.95882809458E+02  0.91354815771E+02 0.  0.
         13    1    3    3    0    0 -0.15461704890E+02 -0.32307381063E+01  0.40628395425E+02  0.43591050293E+02  0.10566000000E+00 0.  1.
         22    1    1    0    0    0 -0.13597155688E+02 -0.24689437560E+02 -0.73047802964E+01  0.29117190542E+02  0.00000000000E+00 0. -1.
</event>
<event>
 5    1  0.1758480E-003  0.9118800E+02  0.7818608E-02  0.1130116E+00
         25   -1    0    0    0    0  0.00000000000E+00  0.00000000000E+00  0.99999998245E-14  0.12500000000E+03  0.12500000000E+03 0.  0.
        -13    1    3    3    0    0  0.84157074345E+01 -0.53493217978E+02  0.25863959490E+02  0.60010866231E+02  0.10566000000E+00 0. -1.
         23    2    1    0    0    0 -0.37402155468E+01 -0.20648543928E+02  0.20900070406E+02  0.95383036589E+02  0.90668402144E+02 0.  0.
         13    1    3    3    0    0 -0.12155922981E+02  0.32844674050E+02 -0.49638890833E+01  0.35372170358E+02  0.10566000000E+00 0.  1.
         22    1    1    0    0    0  0.37402155468E+01  0.20648543928E+02 -0.20900070406E+02  0.29616963411E+02  0.00000000000E+00 0. -1.
</event>
<event>
 5    1  0.1758480E-003  0.9118800E+02  0.7818608E-02  0.1130116E+00
         25   -1    0    0    0    0  0.00000000000E+00  0.00000000000E+00  0.99999998245E-14  0.12500000000E+03  0.12500000000E+03 0.  0.
        -13    1    3    3    0    0  0.53845815965E+02  0.71594070825E+01 -0.20734220367E+01  0.54359352918E+02  0.10566000000E+00 0.  1.
         23    2    1    0    0    0  0.17594423913E+02  0.22649085212E+02  0.83368018022E+01  0.95132842819E+02  0.90322813867E+02 0.  0.
         13    1    3    3    0    0 -0.36251392052E+02  0.15489678130E+02  0.10410223839E+02  0.40773489901E+02  0.10566000000E+00 0. -1.
         22    1    1    0    0    0 -0.17594423913E+02 -0.22649085212E+02 -0.83368018022E+01  0.29867157181E+02  0.00000000000E+00 0. -1.
</event>
<event>
 5    1  0.1758480E-003  0.9118800E+02  0.7818608E-02  0.1130116E+00
         25   -1    0    0    0    0  0.00000000000E+00  0.00000000000E+00  0.99999998245E-14  0.12500000000E+03  0.12500000000E+03 0.  0.
        -13    1    3    3    0    0  0.91414691718E+00  0.41618143340E+02 -0.15377399459E+02  0.44377709470E+02  0.10566000000E+00 0.  1.
         23    2    1    0    0    0  0.30536918564E+02  0.37456427595E+01 -0.26210005304E+01  0.94122777346E+02  0.88913971548E+02 0.  0.
         13    1    3    3    0    0  0.29622771647E+02 -0.37872500581E+02  0.12756398928E+02  0.49745067875E+02  0.10566000000E+00 0. -1.
         22    1    1    0    0    0 -0.30536918564E+02 -0.37456427595E+01  0.26210005304E+01  0.30877222654E+02  0.00000000000E+00 0. -1.
</event>
<event>
 5    1  0.1758480E-003  0.9118800E+02  0.7818608E-02  0.1130116E+00
         25   -1    0    0    0    0  0.00000000000E+00  0.00000000000E+00  0.99999998245E-14  0.12500000000E+03  0.12500000000E+03 0.  0.
        -13    1    3    3    0    0 -0.30864128961E+01  0.21510285502E+02 -0.33895061370E+02  0.40262944207E+02  0.10566000000E+00 0. -1.
         23    2    1    0    0    0  0.14939783305E+02 -0.23975448828E+02 -0.79022146977E+01  0.95666328753E+02  0.91058125328E+02 0.  0.
         13    1    3    3    0    0  0.18026196201E+02 -0.45485734329E+02  0.25992846672E+02  0.55403384546E+02  0.10566000000E+00 0.  1.
         22    1    1    0    0    0 -0.14939783305E+02  0.23975448828E+02  0.79022146977E+01  0.29333671247E+02  0.00000000000E+00 0.  1.
</event>
<event>
 5    1  0.1758480E-003  0.9118800E+02  0.7818608E-02  0.1130116E+00
         25   -1    0    0    0    0  0.00000000000E+00  0.00000000000E+00  0.99999998245E-14  0.12500000000E+03  0.12500000000E+03 0.  0.
        -13    1    3    3    0    0  0.40018541816E+02 -0.51847963235E+01 -0.66893083411E+01  0.40903836154E+02  0.10566000000E+00 0.  1.
         23    2    1    0    0    0 -0.37235060531E+01  0.28202245299E+02 -0.59536152240E+01  0.95936678244E+02  0.91428494251E+02 0.  0.
         13    1    3    3    0    0 -0.43742047869E+02  0.33387041623E+02  0.73569311714E+00  0.55032842090E+02  0.10566000000E+00 0. -1.
         22    1    1    0    0    0  0.37235060531E+01 -0.28202245299E+02  0.59536152240E+01  0.29063321756E+02  0.00000000000E+00 0. -1.
</event>
<event>
 5    1  0.1758480E-003  0.9118800E+02  0.7818608E-02  0.1130116E+00
         25   -1    0    0    0    0  0.00000000000E+00  0.00000000000E+00  0.99999998245E-14  0.12500000000E+03  0.12500000000E+03 0.  0.
        -13    1    3    3    0    0  0.48637423712E+02  0.13400573967E+02  0.13255712528E+02  0.52162241580E+02  0.10566000000E+00 0. -1.
         23    2    1    0    0    0  0.17568604198E+02  0.13749266127E+02 -0.18075224307E+02  0.96287425991E+02  0.91906781565E+02 0.  0.
         13    1    3    3    0    0 -0.31068819514E+02  0.34869215957E+00 -0.31330936835E+02  0.44125184410E+02  0.10566000000E+00 0.  1.
         22    1    1    0    0    0 -0.17568604198E+02 -0.13749266127E+02  0.18075224307E+02  0.28712574009E+02  0.00000000000E+00 0. -1.
</event>
<event>
 5    1  0.1758480E-003  0.9118800E+02  0.7818608E-02  0.1130116E+00
         25   -1    0    0    0    0  0.00000000000E+00  0.00000000000E+00  0.99999998245E-14  0.12500000000E+03  0.12500000000E+03 0.  0.
        -13    1    3    3    0    0  0.31680302068E+02 -0.24469136979E+02  0.58731063789E+01  0.40458432325E+02  0.10566000000E+00 0.  1.
         23    2    1    0    0    0 -0.12978472572E+02  0.23659990706E+01  0.25625331196E+02  0.96178197475E+02  0.91758102469E+02 0.  0.
         13    1    3    3    0    0 -0.44658774640E+02  0.26835136049E+02  0.19752224817E+02  0.55719765150E+02  0.10566000000E+00 0. -1.
         22    1    1    0    0    0  0.12978472572E+02 -0.23659990706E+01 -0.25625331196E+02  0.28821802525E+02  0.00000000000E+00 0. -1.
</event>
<event>
 5    1  0.1758480E-003  0.9118800E+02  0.7818608E-02  0.1130116E+00
         25   -1    0    0    0    0  0.00000000000E+00  0.00000000000E+00  0.99999998245E-14  0.12500000000E+03  0.12500000000E+03 0.  0.
        -13    1    3    3    0    0 -0.29056535545E+02 -0.19443635898E+02  0.10766361473E+02  0.36582276285E+02  0.10566000000E+00 0. -1.
         23    2    1    0    0    0  0.20023065237E+02 -0.15755825272E+01 -0.19547698209E+02  0.96972904056E+02  0.92834401027E+02 0.  0.
         13    1    3    3    0    0  0.49079600782E+02  0.17868053371E+02 -0.30314059682E+02  0.60390627771E+02  0.10566000000E+00 0.  1.
         22    1    1    0    0    0 -0.20023065237E+02  0.15755825272E+01  0.19547698209E+02  0.28027095944E+02  0.00000000000E+00 0.  1.
</event>
<event>
 5    1  0.1758480E-003  0.9118800E+02  0.7818608E-02  0.1130116E+00
         25   -1    0    0    0    0  0.00000000000E+00  0.00000000000E+00  0.99999998245E-14  0.12500000000E+03  0.12500000000E+03 0.  0.
        -13    1    3    3    0    0  0.15155352518E+02  0.57821889151E+01 -0.49107506038E+02  0.51717276919E+02  0.10566000000E+00 0.  1.
         23    2    1    0    0    0  0.12360990706E+02 -0.21235774118E+02 -0.12133534020E+02  0.97596079816E+02  0.93669738732E+02 0.  0.
         13    1    3    3    0    0 -0.27943618126E+01 -0.27017963033E+02  0.36973972018E+02  0.45878802897E+02  0.10566000000E+00 0. -1.
         22    1    1    0    0    0 -0.12360990706E+02  0.21235774118E+02  0.12133534020E+02  0.27403920184E+02  0.00000000000E+00 0.  1.
</event>
<event>
 5    1  0.1758480E-003  0.9118800E+02  0.7818608E-02  0.1130116E+00
         25   -1    0    0    0    0  0.00000000000E+00  0.00000000000E+00  0.99999998245E-14  0.12500000000E+03  0.12500000000E+03 0.  0.
        -13    1    3    3    0    0 -0.34963499397E+02 -0.13995333947E+02 -0.64512561431E+01  0.38209233599E+02  0.10566000000E+00 0.  1.
         23    2    1    0    0    0  0.19815784237E+00  0.17177843042E+02  0.24936679393E+02  0.94718726294E+02  0.89747877822E+02 0.  0.
         13    1    3    3    0    0  0.35161657240E+02  0.31173176988E+02  0.31387935536E+02  0.56509492695E+02  0.10566000000E+00 0. -1.
         22    1    1    0    0    0 -0.19815784237E+00 -0.17177843042E+02 -0.24936679393E+02  0.30281273706E+02  0.00000000000E+00 0. -1.
</event>
<event>
 5    1  0.1758480E-003  0.9118800E+02  0.7818608E-02  0.1130116E+00
         25   -1    0    0    0    0  0.00000000000E+00  0.00000000000E+00  0.99999998245E-14  0.12500000000E+03  0.12500000000E+03 0.  0.
        -13    1    3    3    0    0 -0.26455502745E+02 -0.43001776232E+02 -0.49690565104E+01  0.50732130561E+02  0.10566000000E+00 0.  1.
         23    2    1    0    0    0  0.14494500665E+02 -0.24666394071E+02 -0.66359661601E+01  0.95630669179E+02  0.91009160500E+02 0.  0.
         13    1    3    3    0    0  0.40950003410E+02  0.18335382161E+02 -0.16669096497E+01  0.44898538619E+02  0.10566000000E+00 0. -1.
         22    1    1    0    0    0 -0.14494500665E+02  0.24666394071E+02  0.66359661601E+01  0.29369330821E+02  0.00000000000E+00 0. -1.
</event>
<event>
 5    1  0.1758480E-003  0.9118800E+02  0.7818608E-02  0.1130116E+00
         25   -1    0    0    0    0  0.00000000000E+00  0.00000000000E+00  0.99999998245E-14  0.12500000000E+03  0.12500000000E+03 0.  0.
        -13    1    3    3    0    0  0.18991473967E+02  0.32859958526E+01  0.38092185079E+02  0.42690743497E+02  0.10566000000E+00 0.  1.
         23    2    1    0    0    0  0.72633210113E+01 -0.30310014467E+02  0.14053566421E+01  0.93800194931E+02  0.88459305518E+02 0.  0.
         13    1    3    3    0    0 -0.11728152955E+02 -0.33596010319E+02 -0.36686828437E+02  0.51109451434E+02  0.10566000000E+00 0. -1.
         22    1    1    0    0    0 -0.72633210113E+01  0.30310014467E+02 -0.14053566421E+01  0.31199805069E+02  0.00000000000E+00 0.  1.
</event>
<event>
 5    1  0.1758480E-003  0.9118800E+02  0.7818608E-02  0.1130116E+00
         25   -1    0    0    0    0  0.00000000000E+00  0.00000000000E+00  0.99999998245E-14  0.12500000000E+03  0.12500000000E+03 0.  0.
        -13    1    3    3    0    0  0.38847973613E+02 -0.23309625320E+02  0.25697924006E+02  0.52085488849E+02  0.10566000000E+00 0.  1.
         23    2    1    0    0    0  0.99409733806E+01 -0.26975370785E+02 -0.65151753870E+01  0.95522193245E+02  0.90860047938E+02 0.  0.
         13    1    3    3    0    0 -0.28907000233E+02 -0.36657454654E+01 -0.32213099393E+02  0.43436704396E+02  0.10566000000E+00 0. -1.
         22    1    1    0    0    0 -0.99409733806E+01  0.26975370785E+02  0.65151753870E+01  0.29477806755E+02  0.00000000000E+00 0.  1.
</event>
<event>
 5    1  0.1758480E-003  0.9118800E+02  0.7818608E-02  0.1130116E+00
         25   -1    0    0    0    0  0.00000000000E+00  0.00000000000E+00  0.99999998245E-14  0.12500000000E+03  0.12500000000E+03 0.  0.
        -13    1    3    3    0    0 -0.32809423172E+02  0.13302060458E+01  0.89695948249E+01  0.34039572447E+02  0.10566000000E+00 0.  1.
         23    2    1    0    0    0  0.26793806545E+02 -0.12037538972E+02  0.44587973789E+01  0.95289879036E+02  0.90539879384E+02 0.  0.
         13    1    3    3    0    0  0.59603229717E+02 -0.13367745018E+02 -0.45107974460E+01  0.61250306588E+02  0.10566000000E+00 0. -1.
         22    1    1    0    0    0 -0.26793806545E+02  0.12037538972E+02 -0.44587973789E+01  0.29710120964E+02  0.00000000000E+00 0. -1.
</event>
<event>
 5    1  0.1758480E-003  0.9118800E+02  0.7818608E-02  0.1130116E+00
         25   -1    0    0    0    0  0.00000000000E+00  0.00000000000E+00  0.99999998245E-14  0.12500000000E+03  0.12500000000E+03 0.  0.
        -13    1    3    3    0    0  0.26916399997E+02  0.32623377637E+01  0.20881298553E+02  0.34222437520E+02  0.10566000000E+00 0.  1.
         23    2    1    0    0    0 -0.21049197698E+02 -0.73952872134E+01 -0.17559448503E+02  0.96608218999E+02  0.92342052986E+02 0.  0.
         13    1    3    3    0    0 -0.47965597695E+02 -0.10657624977E+02 -0.38440747057E+02  0.62385781479E+02  0.10566000000E+00 0. -1.
         22    1    1    0    0    0  0.21049197698E+02  0.73952872134E+01  0.17559448503E+02  0.28391781001E+02  0.00000000000E+00 0. -1.
</event>
<event>
 5    1  0.1758480E-003  0.9118800E+02  0.7818608E-02  0.1130116E+00
         25   -1    0    0    0    0  0.00000000000E+00  0.00000000000E+00  0.99999998245E-14  0.12500000000E+03  0.12500000000E+03 0.  0.
        -13    1    3    3    0    0 -0.50779830279E+02 -0.22306891907E+02  0.85304303138E+00  0.55470058916E+02  0.10566000000E+00 0. -1.
         23    2    1    0    0    0 -0.24131460973E+02  0.81697324501E+01  0.11067535929E+02  0.97222989928E+02  0.93170529042E+02 0.  0.
         13    1    3    3    0    0  0.26648369306E+02  0.30476624357E+02  0.10214492898E+02  0.41752931011E+02  0.10566000000E+00 0.  1.
         22    1    1    0    0    0  0.24131460973E+02 -0.81697324501E+01 -0.11067535929E+02  0.27777010072E+02  0.00000000000E+00 0. -1.
</event>
<event>
 5    1  0.1758480E-003  0.9118800E+02  0.7818608E-02  0.1130116E+00
         25   -1    0    0    0    0  0.00000000000E+00  0.00000000000E+00  0.99999998245E-14  0.12500000000E+03  0.12500000000E+03 0.  0.
        -13    1    3    3    0    0  0.22899702803E+02  0.30323096126E+02  0.22836860246E+02  0.44333056483E+02  0.10566000000E+00 0.  1.
         23    2    1    0    0    0  0.19340320740E+02 -0.19218458100E+02  0.12205253968E+02  0.95127514959E+02  0.90315440207E+02 0.  0.
         13    1    3    3    0    0 -0.35593820629E+01 -0.49541554226E+02 -0.10631606279E+02  0.50794458477E+02  0.10566000000E+00 0. -1.
         22    1    1    0    0    0 -0.19340320740E+02  0.19218458100E+02 -0.12205253968E+02  0.29872485041E+02  0.00000000000E+00 0.  1.
</event>
<event>
 5    1  0.1758480E-003  0.9118800E+02  0.7818608E-02  0.1130116E+00
         25   -1    0    0    0    0  0.00000000000E+00  0.00000000000E+00  0.99999998245E-14  0.12500000000E+03  0.12500000000E+03 0.  0.
        -13    1    3    3    0    0 -0.24415849424E+02  0.19649489454E+02  0.40299489614E+02  0.51051896792E+02  0.10566000000E+00 0. -1.
         23    2    1    0    0    0 -0.26284722947E+02 -0.10768380307E+02  0.79328489285E+01  0.95508055897E+02  0.90840596510E+02 0.  0.
         13    1    3    3    0    0 -0.18688735233E+01 -0.30417869761E+02 -0.32366640686E+02  0.44456159105E+02  0.10566000000E+00 0.  1.
         22    1    1    0    0    0  0.26284722947E+02  0.10768380307E+02 -0.79328489285E+01  0.29491944103E+02  0.00000000000E+00 0. -1.
</event>
<event>
 5    1  0.1758480E-003  0.9118800E+02  0.7818608E-02  0.1130116E+00
         25   -1    0    0    0    0  0.00000000000E+00  0.00000000000E+00  0.99999998245E-14  0.12500000000E+03  0.12500000000E+03 0.  0.
        -13    1    3    3    0    0 -0.30077484107E+01  0.21581889030E+02  0.41524881787E+02  0.46895111217E+02  0.10566000000E+00 0.  1.
         23    2    1    0    0    0  0.72188566000E+01  0.37821646864E+02  0.77774279325E+01  0.85717978064E+02  0.76187233288E+02 0.  0.
         13    1    3    3    0    0  0.10226605011E+02  0.16239757833E+02 -0.33747453854E+02  0.38822866847E+02  0.10566000000E+00 0. -1.
         22    1    1    0    0    0 -0.72188566000E+01 -0.37821646864E+02 -0.77774279325E+01  0.39282021936E+02  0.00000000000E+00 0.  1.
</event>
<event>
 5    1  0.1758480E-003  0.9118800E+02  0.7818608E-02  0.1130116E+00
         25   -1    0    0    0    0  0.00000000000E+00  0.00000000000E+00  0.99999998245E-14  0.12500000000E+03  0.12500000000E+03 0.  0.
        -13    1    3    3    0    0  0.33419644233E+02 -0.29540671899E+02 -0.39097716141E+02  0.59314133968E+02  0.10566000000E+00 0.  1.
         23    2    1    0    0    0  0.97446994902E+00 -0.14992958953E+02 -0.20906237278E+02  0.99254919558E+02  0.95857862950E+02 0.  0.
         13    1    3    3    0    0 -0.32445174284E+02  0.14547712947E+02  0.18191478862E+02  0.39940785590E+02  0.10566000000E+00 0. -1.
         22    1    1    0    0    0 -0.97446994902E+00  0.14992958953E+02  0.20906237278E+02  0.25745080442E+02  0.00000000000E+00 0.  1.
</event>
<event>
 5    1  0.1758480E-003  0.9118800E+02  0.7818608E-02  0.1130116E+00
         25   -1    0    0    0    0  0.00000000000E+00  0.00000000000E+00  0.99999998245E-14  0.12500000000E+03  0.12500000000E+03 0.  0.
        -13    1    3    3    0    0  0.21576080247E+02  0.43920928792E+02  0.20477324185E+02  0.53046274088E+02  0.10566000000E+00 0.  1.
         23    2    1    0    0    0  0.24721818305E+02  0.47567577326E+01  0.20808736679E+02  0.92338117528E+02  0.86368567095E+02 0.  0.
         13    1    3    3    0    0  0.31457380579E+01 -0.39164171059E+02  0.33141249379E+00  0.39291843440E+02  0.10566000000E+00 0. -1.
         22    1    1    0    0    0 -0.24721818305E+02 -0.47567577326E+01 -0.20808736679E+02  0.32661882472E+02  0.00000000000E+00 0.  1.
</event>
<event>
 5    1  0.1758480E-003  0.9118800E+02  0.7818608E-02  0.1130116E+00
         25   -1    0    0    0    0  0.00000000000E+00  0.00000000000E+00  0.99999998245E-14  0.12500000000E+03  0.12500000000E+03 0.  0.
        -13    1    3    3    0    0  0.57005579452E+02  0.31382657991E-01 -0.18197620469E+02  0.59839799702E+02  0.10566000000E+00 0.  1.
         23    2    1    0    0    0  0.27838787857E+02 -0.28992297078E+01  0.41554134337E+01  0.96703867701E+02  0.92471438430E+02 0.  0.
         13    1    3    3    0    0 -0.29166791595E+02 -0.29306123658E+01  0.22353033903E+02  0.36864068000E+02  0.10566000000E+00 0. -1.
         22    1    1    0    0    0 -0.27838787857E+02  0.28992297078E+01 -0.41554134337E+01  0.28296132299E+02  0.00000000000E+00 0.  1.
</event>
<event>
 5    1  0.1758480E-003  0.9118800E+02  0.7818608E-02  0.1130116E+00
         25   -1    0    0    0    0  0.00000000000E+00  0.00000000000E+00  0.99999998245E-14  0.12500000000E+03  0.12500000000E+03 0.  0.
        -13    1    3    3    0    0 -0.22482331251E+02 -0.24127657235E+02 -0.52085031400E+02  0.61647876866E+02  0.10566000000E+00 0. -1.
         23    2    1    0    0    0 -0.12603988087E+02 -0.18965650902E+02 -0.23748010476E+02  0.92098260967E+02  0.86020725652E+02 0.  0.
         13    1    3    3    0    0  0.98783431638E+01  0.51620063330E+01  0.28337020923E+02  0.30450384101E+02  0.10566000000E+00 0.  1.
         22    1    1    0    0    0  0.12603988087E+02  0.18965650902E+02  0.23748010476E+02  0.32901739033E+02  0.00000000000E+00 0. -1.
</event>
<event>
 5    1  0.1758480E-003  0.9118800E+02  0.7818608E-02  0.1130116E+00
         25   -1    0    0    0    0  0.00000000000E+00  0.00000000000E+00  0.99999998245E-14  0.12500000000E+03  0.12500000000E+03 0.  0.
        -13    1    3    3    0    0  0.19114947106E+02  0.26358383208E+02 -0.11726152767E+02  0.34607215880E+02  0.10566000000E+00 0.  1.
         23    2    1    0    0    0 -0.48771059381E+01 -0.17869188279E+02  0.22795827509E+02  0.95627499189E+02  0.91004806451E+02 0.  0.
         13    1    3    3    0    0 -0.23992053044E+02 -0.44227571487E+02  0.34521980277E+02  0.61020283309E+02  0.10566000000E+00 0. -1.
         22    1    1    0    0    0  0.48771059381E+01  0.17869188279E+02 -0.22795827509E+02  0.29372500811E+02  0.00000000000E+00 0. -1.
</event>
<event>
 5    1  0.1758480E-003  0.9118800E+02  0.7818608E-02  0.1130116E+00
         25   -1    0    0    0    0  0.00000000000E+00  0.00000000000E+00  0.99999998245E-14  0.12500000000E+03  0.12500000000E+03 0.  0.
        -13    1    3    3    0    0 -0.21270924398E+01  0.31804030959E+02 -0.23872623343E+02  0.39823789584E+02  0.10566000000E+00 0. -1.
         23    2    1    0    0    0 -0.42545381737E+01  0.77883551227E+01  0.27247208457E+02  0.96343937129E+02  0.91983608769E+02 0.  0.
         13    1    3    3    0    0 -0.21274457338E+01 -0.24015675837E+02  0.51119831800E+02  0.56520147545E+02  0.10566000000E+00 0.  1.
         22    1    1    0    0    0  0.42545381737E+01 -0.77883551227E+01 -0.27247208457E+02  0.28656062871E+02  0.00000000000E+00 0.  1.
</event>
<event>
 5    1  0.1758480E-003  0.9118800E+02  0.7818608E-02  0.1130116E+00
         25   -1    0    0    0    0  0.00000000000E+00  0.00000000000E+00  0.99999998245E-14  0.12500000000E+03  0.12500000000E+03 0.  0.
        -13    1    3    3    0    0  0.47406105343E+02  0.18364556780E+02  0.35702231245E+02  0.62122912435E+02  0.10566000000E+00 0.  1.
         23    2    1    0    0    0  0.28157596103E+02  0.13276190713E+02  0.16575154432E+02  0.89731838684E+02  0.82510360992E+02 0.  0.
         13    1    3    3    0    0 -0.19248509240E+02 -0.50883660668E+01 -0.19127076813E+02  0.27608926249E+02  0.10566000000E+00 0. -1.
         22    1    1    0    0    0 -0.28157596103E+02 -0.13276190713E+02 -0.16575154432E+02  0.35268161316E+02  0.00000000000E+00 0.  1.
</event>
<event>
 5    1  0.1758480E-003  0.9118800E+02  0.7818608E-02  0.1130116E+00
         25   -1    0    0    0    0  0.00000000000E+00  0.00000000000E+00  0.99999998245E-14  0.12500000000E+03  0.12500000000E+03 0.  0.
        -13    1    3    3    0    0  0.51754831335E+01  0.94020649164E+01  0.33258664007E+02  0.34947594280E+02  0.10566000000E+00 0.  1.
         23    2    1    0    0    0 -0.19965607299E+02 -0.10167141983E+02 -0.18646440333E+02  0.95850626285E+02  0.91310769196E+02 0.  0.
         13    1    3    3    0    0 -0.25141090432E+02 -0.19569206899E+02 -0.51905104340E+02  0.60903032005E+02  0.10566000000E+00 0. -1.
         22    1    1    0    0    0  0.19965607299E+02  0.10167141983E+02  0.18646440333E+02  0.29149373715E+02  0.00000000000E+00 0. -1.
</event>
<event>
 5    1  0.1758480E-003  0.9118800E+02  0.7818608E-02  0.1130116E+00
         25   -1    0    0    0    0  0.00000000000E+00  0.00000000000E+00  0.99999998245E-14  0.12500000000E+03  0.12500000000E+03 0.  0.
        -13    1    3    3    0    0 -0.16458274954E+02  0.40007506884E+02  0.75044153165E+01  0.43906751586E+02  0.10566000000E+00 0. -1.
         23    2    1    0    0    0  0.21120607742E+02  0.47534765695E+01  0.18417559284E+02  0.96576733107E+02  0.92299421866E+02 0.  0.
         13    1    3    3    0    0  0.37578882697E+02 -0.35254030314E+02  0.10913143967E+02  0.52669981521E+02  0.10566000000E+00 0.  1.
         22    1    1    0    0    0 -0.21120607742E+02 -0.47534765695E+01 -0.18417559284E+02  0.28423266893E+02  0.00000000000E+00 0.  1.
</event>
<event>
 5    1  0.1758480E-003  0.9118800E+02  0.7818608E-02  0.1130116E+00
         25   -1    0    0    0    0  0.00000000000E+00  0.00000000000E+00  0.99999998245E-14  0.12500000000E+03  0.12500000000E+03 0.  0.
        -13    1    3    3    0    0 -0.13327543287E+02  0.46484731173E+02 -0.17622686996E+00  0.48357996880E+02  0.10566000000E+00 0. -1.
         23    2    1    0    0    0 -0.17791993976E+02  0.37349746129E+01 -0.21915781734E+02  0.96525334523E+02  0.92229787112E+02 0.  0.
         13    1    3    3    0    0 -0.44644506889E+01 -0.42749756560E+02 -0.21739554864E+02  0.48167337643E+02  0.10566000000E+00 0.  1.
         22    1    1    0    0    0  0.17791993976E+02 -0.37349746129E+01  0.21915781734E+02  0.28474665477E+02  0.00000000000E+00 0.  1.
</event>
<event>
 5    1  0.1758480E-003  0.9118800E+02  0.7818608E-02  0.1130116E+00
         25   -1    0    0    0    0  0.00000000000E+00  0.00000000000E+00  0.99999998245E-14  0.12500000000E+03  0.12500000000E+03 0.  0.
        -13    1    3    3    0    0  0.53393784947E+02 -0.50289187235E+01 -0.98445994551E+01  0.54526265202E+02  0.10566000000E+00 0.  1.
         23    2    1    0    0    0  0.21399445210E+02 -0.21690431663E+02  0.60326188681E+01  0.93938712657E+02  0.88654825950E+02 0.  0.
         13    1    3    3    0    0 -0.31994339737E+02 -0.16661512939E+02  0.15877218323E+02  0.39412447455E+02  0.10566000000E+00 0. -1.
         22    1    1    0    0    0 -0.21399445210E+02  0.21690431663E+02 -0.60326188681E+01  0.31061287343E+02  0.00000000000E+00 0. -1.
</event>
<event>
 5    1  0.1758480E-003  0.9118800E+02  0.7818608E-02  0.1130116E+00
         25   -1    0    0    0    0  0.00000000000E+00  0.00000000000E+00  0.99999998245E-14  0.12500000000E+03  0.12500000000E+03 0.  0.
        -13    1    3    3    0    0  0.16147985541E+02 -0.35742899325E+01 -0.29542315714E+02  0.33856942676E+02  0.10566000000E+00 0.  1.
         23    2    1    0    0    0  0.38851974243E+01  0.21303057702E+02  0.23086633316E+02  0.93347074948E+02  0.87816676873E+02 0.  0.
         13    1    3    3    0    0 -0.12262788117E+02  0.24877347635E+02  0.52628949030E+02  0.59490132272E+02  0.10566000000E+00 0. -1.
         22    1    1    0    0    0 -0.38851974243E+01 -0.21303057702E+02 -0.23086633316E+02  0.31652925052E+02  0.00000000000E+00 0. -1.
</event>
<event>
 5    1  0.1758480E-003  0.9118800E+02  0.7818608E-02  0.1130116E+00
         25   -1    0    0    0    0  0.00000000000E+00  0.00000000000E+00  0.99999998245E-14  0.12500000000E+03  0.12500000000E+03 0.  0.
        -13    1    3    3    0    0  0.42729939572E+02 -0.23703889593E+02 -0.23251715423E+02  0.54114467121E+02  0.10566000000E+00 0.  1.
         23    2    1    0    0    0  0.14097285087E+02 -0.27469459264E+02  0.40545343447E+01  0.93859288900E+02  0.88542770597E+02 0.  0.
         13    1    3    3    0    0 -0.28632654485E+02 -0.37655696703E+01  0.27306249768E+02  0.39744821778E+02  0.10566000000E+00 0. -1.
         22    1    1    0    0    0 -0.14097285087E+02  0.27469459264E+02 -0.40545343447E+01  0.31140711100E+02  0.00000000000E+00 0. -1.
</event>
<event>
 5    1  0.1758480E-003  0.9118800E+02  0.7818608E-02  0.1130116E+00
         25   -1    0    0    0    0  0.00000000000E+00  0.00000000000E+00  0.99999998245E-14  0.12500000000E+03  0.12500000000E+03 0.  0.
        -13    1    3    3    0    0  0.27106617011E+02 -0.23455835189E+02 -0.78309954616E+01  0.36691695847E+02  0.10566000000E+00 0.  1.
         23    2    1    0    0    0 -0.21624039505E+02  0.11727635682E+02 -0.13283474920E+02  0.97043118393E+02  0.92928895390E+02 0.  0.
         13    1    3    3    0    0 -0.48730656516E+02  0.35183470871E+02 -0.54524794589E+01  0.60351422546E+02  0.10566000000E+00 0. -1.
         22    1    1    0    0    0  0.21624039505E+02 -0.11727635682E+02  0.13283474920E+02  0.27956881607E+02  0.00000000000E+00 0. -1.
</event>
<event>
 5    1  0.1758480E-003  0.9118800E+02  0.7818608E-02  0.1130116E+00
         25   -1    0    0    0    0  0.00000000000E+00  0.00000000000E+00  0.99999998245E-14  0.12500000000E+03  0.12500000000E+03 0.  0.
        -13    1    3    3    0    0  0.17498551304E+02 -0.55965862181E+02 -0.14938499287E+02  0.60510717666E+02  0.10566000000E+00 0.  1.
         23    2    1    0    0    0  0.57877764680E+01 -0.28047084386E+02  0.37921733046E+01  0.96111976922E+02  0.91667847310E+02 0.  0.
         13    1    3    3    0    0 -0.11710774836E+02  0.27918777795E+02  0.18730672592E+02  0.35601259256E+02  0.10566000000E+00 0. -1.
         22    1    1    0    0    0 -0.57877764680E+01  0.28047084386E+02 -0.37921733046E+01  0.28888023078E+02  0.00000000000E+00 0.  1.
</event>
<event>
 5    1  0.1758480E-003  0.9118800E+02  0.7818608E-02  0.1130116E+00
         25   -1    0    0    0    0  0.00000000000E+00  0.00000000000E+00  0.99999998245E-14  0.12500000000E+03  0.12500000000E+03 0.  0.
        -13    1    3    3    0    0 -0.21235328400E+02  0.38036006055E+02  0.42274336712E+02  0.60702616396E+02  0.10566000000E+00 0. -1.
         23    2    1    0    0    0 -0.18583262826E+02  0.11682099519E+02  0.19768829264E+02  0.95459930317E+02  0.90774349786E+02 0.  0.
         13    1    3    3    0    0  0.26520655748E+01 -0.26353906535E+02 -0.22505507448E+02  0.34757313921E+02  0.10566000000E+00 0.  1.
         22    1    1    0    0    0  0.18583262826E+02 -0.11682099519E+02 -0.19768829264E+02  0.29540069683E+02  0.00000000000E+00 0. -1.
</event>
<event>
 5    1  0.1758480E-003  0.9118800E+02  0.7818608E-02  0.1130116E+00
         25   -1    0    0    0    0  0.00000000000E+00  0.00000000000E+00  0.99999998245E-14  0.12500000000E+03  0.12500000000E+03 0.  0.
        -13    1    3    3    0    0  0.12339943170E+02 -0.24728743934E+02  0.12598836458E+02  0.30373126578E+02  0.10566000000E+00 0. -1.
         23    2    1    0    0    0  0.66808081538E+01  0.34038696910E+02  0.62560100100E+01  0.89752251899E+02  0.82541280429E+02 0.  0.
         13    1    3    3    0    0 -0.56591350158E+01  0.58767440845E+02 -0.63428264476E+01  0.59379125321E+02  0.10566000000E+00 0.  1.
         22    1    1    0    0    0 -0.66808081538E+01 -0.34038696910E+02 -0.62560100100E+01  0.35247748101E+02  0.00000000000E+00 0.  1.
</event>
<event>
 5    1  0.1758480E-003  0.9118800E+02  0.7818608E-02  0.1130116E+00
         25   -1    0    0    0    0  0.00000000000E+00  0.00000000000E+00  0.99999998245E-14  0.12500000000E+03  0.12500000000E+03 0.  0.
        -13    1    3    3    0    0 -0.19215865979E+02 -0.25302202774E+02  0.19045572277E+02  0.37043163444E+02  0.10566000000E+00 0. -1.
         23    2    1    0    0    0 -0.14196262746E+02  0.25751079010E+02 -0.72858052117E+01  0.94705860242E+02  0.89729956315E+02 0.  0.
         13    1    3    3    0    0  0.50196032329E+01  0.51053281784E+02 -0.26331377489E+02  0.57662696798E+02  0.10566000000E+00 0.  1.
         22    1    1    0    0    0  0.14196262746E+02 -0.25751079010E+02  0.72858052117E+01  0.30294139758E+02  0.00000000000E+00 0.  1.
</event>
<event>
 5    1  0.1758480E-003  0.9118800E+02  0.7818608E-02  0.1130116E+00
         25   -1    0    0    0    0  0.00000000000E+00  0.00000000000E+00  0.99999998245E-14  0.12500000000E+03  0.12500000000E+03 0.  0.
        -13    1    3    3    0    0 -0.56022878618E+01 -0.30421684217E+02 -0.22983371869E+02  0.38537138534E+02  0.10566000000E+00 0.  1.
         23    2    1    0    0    0  0.27190941984E+02  0.10660091779E+02 -0.28806419796E+00  0.95792674486E+02  0.91231401509E+02 0.  0.
         13    1    3    3    0    0  0.32793229846E+02  0.41081775996E+02  0.22695307671E+02  0.57255535951E+02  0.10566000000E+00 0. -1.
         22    1    1    0    0    0 -0.27190941984E+02 -0.10660091779E+02  0.28806419796E+00  0.29207325514E+02  0.00000000000E+00 0. -1.
</event>
<event>
 5    1  0.1758480E-003  0.9118800E+02  0.7818608E-02  0.1130116E+00
         25   -1    0    0    0    0  0.00000000000E+00  0.00000000000E+00  0.99999998245E-14  0.12500000000E+03  0.12500000000E+03 0.  0.
        -13    1    3    3    0    0 -0.53240006510E+01  0.20402529665E+02 -0.52853401377E+02  0.56904317946E+02  0.10566000000E+00 0. -1.
         23    2    1    0    0    0 -0.20341515323E+02  0.76978560394E+01 -0.18703213677E+02  0.96314734879E+02  0.91943916165E+02 0.  0.
         13    1    3    3    0    0 -0.15017514672E+02 -0.12704673626E+02  0.34150187700E+02  0.39410416933E+02  0.10566000000E+00 0.  1.
         22    1    1    0    0    0  0.20341515323E+02 -0.76978560394E+01  0.18703213677E+02  0.28685265121E+02  0.00000000000E+00 0. -1.
</event>
<event>
 5    1  0.1758480E-003  0.9118800E+02  0.7818608E-02  0.1130116E+00
         25   -1    0    0    0    0  0.00000000000E+00  0.00000000000E+00  0.99999998245E-14  0.12500000000E+03  0.12500000000E+03 0.  0.
        -13    1    3    3    0    0 -0.17485002350E+02  0.29070209393E+02  0.52012849366E+02  0.62097906925E+02  0.10566000000E+00 0. -1.
         23    2    1    0    0    0 -0.11137766674E+02  0.18459832098E+02  0.23882619933E+02  0.92825556999E+02  0.87071173471E+02 0.  0.
         13    1    3    3    0    0  0.63472356764E+01 -0.10610377295E+02 -0.28130229432E+02  0.30727650073E+02  0.10566000000E+00 0.  1.
         22    1    1    0    0    0  0.11137766674E+02 -0.18459832098E+02 -0.23882619933E+02  0.32174443001E+02  0.00000000000E+00 0. -1.
</event>
<event>
 5    1  0.1758480E-003  0.9118800E+02  0.7818608E-02  0.1130116E+00
         25   -1    0    0    0    0  0.00000000000E+00  0.00000000000E+00  0.99999998245E-14  0.12500000000E+03  0.12500000000E+03 0.  0.
        -13    1    3    3    0    0  0.29778690452E+01 -0.34889241224E+02 -0.29676246256E+01  0.35141781645E+02  0.10566000000E+00 0. -1.
         23    2    1    0    0    0 -0.19247397252E+02  0.18019377433E+02  0.14215093022E+02  0.95046216706E+02  0.90202850157E+02 0.  0.
         13    1    3    3    0    0 -0.22225266297E+02  0.52908618657E+02  0.17182717647E+02  0.59904435061E+02  0.10566000000E+00 0.  1.
         22    1    1    0    0    0  0.19247397252E+02 -0.18019377433E+02 -0.14215093022E+02  0.29953783294E+02  0.00000000000E+00 0.  1.
</event>
<event>
 5    1  0.1758480E-003  0.9118800E+02  0.7818608E-02  0.1130116E+00
         25   -1    0    0    0    0  0.00000000000E+00  0.00000000000E+00  0.99999998245E-14  0.12500000000E+03  0.12500000000E+03 0.  0.
        -13    1    3    3    0    0  0.35434249576E+02  0.11921002330E+02 -0.28306531412E+02  0.46893146879E+02  0.10566000000E+00 0. -1.
         23    2    1    0    0    0  0.21004820913E+01  0.20172658209E+02  0.13228410235E+02  0.10078556213E+03  0.97833483693E+02 0.  0.
         13    1    3    3    0    0 -0.33333767485E+02  0.82516558791E+01  0.41534941647E+02  0.53892415247E+02  0.10566000000E+00 0.  1.
         22    1    1    0    0    0 -0.21004820913E+01 -0.20172658209E+02 -0.13228410235E+02  0.24214437874E+02  0.00000000000E+00 0.  1.
</event>
<event>
 5    1  0.1758480E-003  0.9118800E+02  0.7818608E-02  0.1130116E+00
         25   -1    0    0    0    0  0.00000000000E+00  0.00000000000E+00  0.99999998245E-14  0.12500000000E+03  0.12500000000E+03 0.  0.
        -13    1    3    3    0    0 -0.43490226407E+02  0.21032752224E+02  0.32066178202E+02  0.57982992399E+02  0.10566000000E+00 0.  1.
         23    2    1    0    0    0 -0.18190851886E+02 -0.48826917257E+01  0.22913965801E+02  0.95338617707E+02  0.90607143354E+02 0.  0.
         13    1    3    3    0    0  0.25299374521E+02 -0.25915443950E+02 -0.91522124007E+01  0.37355625308E+02  0.10566000000E+00 0. -1.
         22    1    1    0    0    0  0.18190851886E+02  0.48826917257E+01 -0.22913965801E+02  0.29661382293E+02  0.00000000000E+00 0.  1.
</event>
<event>
 5    1  0.1758480E-003  0.9118800E+02  0.7818608E-02  0.1130116E+00
         25   -1    0    0    0    0  0.00000000000E+00  0.00000000000E+00  0.99999998245E-14  0.12500000000E+03  0.12500000000E+03 0.  0.
        -13    1    3    3    0    0 -0.90598879085E+01 -0.31071725784E+02 -0.13177007499E+02  0.34945363108E+02  0.10566000000E+00 0.  1.
         23    2    1    0    0    0 -0.10972506839E+02  0.23438541631E+02  0.13662624876E+02  0.95735201032E+02  0.91152620687E+02 0.  0.
         13    1    3    3    0    0 -0.19126189304E+01  0.54510267414E+02  0.26839632376E+02  0.60789837924E+02  0.10566000000E+00 0. -1.
         22    1    1    0    0    0  0.10972506839E+02 -0.23438541631E+02 -0.13662624876E+02  0.29264798968E+02  0.00000000000E+00 0. -1.
</event>
<event>
 5    1  0.1758480E-003  0.9118800E+02  0.7818608E-02  0.1130116E+00
         25   -1    0    0    0    0  0.00000000000E+00  0.00000000000E+00  0.99999998245E-14  0.12500000000E+03  0.12500000000E+03 0.  0.
        -13    1    3    3    0    0  0.13913844196E+02  0.11735687978E+02  0.30645440931E+02  0.35643732219E+02  0.10566000000E+00 0. -1.
         23    2    1    0    0    0  0.13745715444E+02 -0.46215725014E+01 -0.26340596873E+02  0.94931234328E+02  0.90043370561E+02 0.  0.
         13    1    3    3    0    0 -0.16812875238E+00 -0.16357260480E+02 -0.56986037803E+02  0.59287502108E+02  0.10566000000E+00 0.  1.
         22    1    1    0    0    0 -0.13745715444E+02  0.46215725014E+01  0.26340596873E+02  0.30068765672E+02  0.00000000000E+00 0.  1.
</event>
<event>
 5    1  0.1758480E-003  0.9118800E+02  0.7818608E-02  0.1130116E+00
         25   -1    0    0    0    0  0.00000000000E+00  0.00000000000E+00  0.99999998245E-14  0.12500000000E+03  0.12500000000E+03 0.  0.
        -13    1    3    3    0    0 -0.28112357663E+02  0.27526525195E+02 -0.29220566215E+02  0.49008845086E+02  0.10566000000E+00 0.  1.
         23    2    1    0    0    0 -0.69610024758E+01  0.25711883533E+02  0.12313680748E+02  0.95654076197E+02  0.91041304084E+02 0.  0.
         13    1    3    3    0    0  0.21151355187E+02 -0.18146416619E+01  0.41534246963E+02  0.46645231112E+02  0.10566000000E+00 0. -1.
         22    1    1    0    0    0  0.69610024758E+01 -0.25711883533E+02 -0.12313680748E+02  0.29345923803E+02  0.00000000000E+00 0.  1.
</event>
<event>
 5    1  0.1758480E-003  0.9118800E+02  0.7818608E-02  0.1130116E+00
         25   -1    0    0    0    0  0.00000000000E+00  0.00000000000E+00  0.99999998245E-14  0.12500000000E+03  0.12500000000E+03 0.  0.
        -13    1    3    3    0    0 -0.11237762483E+02 -0.33257210135E+02  0.83180886724E+01  0.36076738971E+02  0.10566000000E+00 0.  1.
         23    2    1    0    0    0  0.17964231204E+02  0.19454533977E+02  0.10833769104E+02  0.96389459145E+02  0.92045449569E+02 0.  0.
         13    1    3    3    0    0  0.29201993687E+02  0.52711744112E+02  0.25156804316E+01  0.60312720174E+02  0.10566000000E+00 0. -1.
         22    1    1    0    0    0 -0.17964231204E+02 -0.19454533977E+02 -0.10833769104E+02  0.28610540855E+02  0.00000000000E+00 0. -1.
</event>
<event>
 5    1  0.1758480E-003  0.9118800E+02  0.7818608E-02  0.1130116E+00
         25   -1    0    0    0    0  0.00000000000E+00  0.00000000000E+00  0.99999998245E-14  0.12500000000E+03  0.12500000000E+03 0.  0.
        -13    1    3    3    0    0 -0.55321436270E+02 -0.74640320478E+01  0.12003905911E+02  0.57098844178E+02  0.10566000000E+00 0.  1.
         23    2    1    0    0    0 -0.25085150205E+02  0.14831409594E+02  0.32096102276E+01  0.95682137370E+02  0.91079824015E+02 0.  0.
         13    1    3    3    0    0  0.30236286064E+02  0.22295441642E+02 -0.87942956832E+01  0.38583293192E+02  0.10566000000E+00 0. -1.
         22    1    1    0    0    0  0.25085150205E+02 -0.14831409594E+02 -0.32096102276E+01  0.29317862630E+02  0.00000000000E+00 0.  1.
</event>
<event>
 5    1  0.1758480E-003  0.9118800E+02  0.7818608E-02  0.1130116E+00
         25   -1    0    0    0    0  0.00000000000E+00  0.00000000000E+00  0.99999998245E-14  0.12500000000E+03  0.12500000000E+03 0.  0.
        -13    1    3    3    0    0  0.49280840532E+02  0.22026298622E+01  0.72626064919E+01  0.49861903684E+02  0.10566000000E+00 0.  1.
         23    2    1    0    0    0  0.13804422806E+02 -0.21320023246E+02  0.18130593947E+02  0.93793848090E+02  0.88450336474E+02 0.  0.
         13    1    3    3    0    0 -0.35476417726E+02 -0.23522653108E+02  0.10867987455E+02  0.43931944406E+02  0.10566000000E+00 0. -1.
         22    1    1    0    0    0 -0.13804422806E+02  0.21320023246E+02 -0.18130593947E+02  0.31206151910E+02  0.00000000000E+00 0.  1.
</event>
<event>
 5    1  0.1758480E-003  0.9118800E+02  0.7818608E-02  0.1130116E+00
         25   -1    0    0    0    0  0.00000000000E+00  0.00000000000E+00  0.99999998245E-14  0.12500000000E+03  0.12500000000E+03 0.  0.
        -13    1    3    3    0    0  0.41819151022E+02 -0.11377999594E+02  0.17410255360E+02  0.46705764341E+02  0.10566000000E+00 0.  1.
         23    2    1    0    0    0 -0.53054263768E+01 -0.23092591721E+02  0.17960739385E+02  0.95267803635E+02  0.90509396798E+02 0.  0.
         13    1    3    3    0    0 -0.47124577399E+02 -0.11714592127E+02  0.55048402505E+00  0.48562039294E+02  0.10566000000E+00 0. -1.
         22    1    1    0    0    0  0.53054263768E+01  0.23092591721E+02 -0.17960739385E+02  0.29732196365E+02  0.00000000000E+00 0. -1.
</event>
<event>
 5    1  0.1758480E-003  0.9118800E+02  0.7818608E-02  0.1130116E+00
         25   -1    0    0    0    0  0.00000000000E+00  0.00000000000E+00  0.99999998245E-14  0.12500000000E+03  0.12500000000E+03 0.  0.
        -13    1    3    3    0    0 -0.88529974855E+01 -0.25722647215E+02  0.53692116676E+02  0.60190403732E+02  0.10566000000E+00 0. -1.
         23    2    1    0    0    0  0.42659412387E+01 -0.19241931901E+02  0.20010999144E+02  0.96912809242E+02  0.92753449049E+02 0.  0.
         13    1    3    3    0    0  0.13118938724E+02  0.64807153138E+01 -0.33681117532E+02  0.36722405511E+02  0.10566000000E+00 0.  1.
         22    1    1    0    0    0 -0.42659412387E+01  0.19241931901E+02 -0.20010999144E+02  0.28087190758E+02  0.00000000000E+00 0. -1.
</event>
<event>
 5    1  0.1758480E-003  0.9118800E+02  0.7818608E-02  0.1130116E+00
         25   -1    0    0    0    0  0.00000000000E+00  0.00000000000E+00  0.99999998245E-14  0.12500000000E+03  0.12500000000E+03 0.  0.
        -13    1    3    3    0    0  0.21429834140E+02  0.38508297818E+02  0.14245111476E+01  0.44092711282E+02  0.10566000000E+00 0. -1.
         23    2    1    0    0    0 -0.19860823995E+02  0.14625777243E+02 -0.16801304950E+02  0.95156247928E+02  0.90355198976E+02 0.  0.
         13    1    3    3    0    0 -0.41290658136E+02 -0.23882520575E+02 -0.18225816097E+02  0.51063536646E+02  0.10566000000E+00 0.  1.
         22    1    1    0    0    0  0.19860823995E+02 -0.14625777243E+02  0.16801304950E+02  0.29843752072E+02  0.00000000000E+00 0.  1.
</event>
<event>
 5    1  0.1758480E-003  0.9118800E+02  0.7818608E-02  0.1130116E+00
         25   -1    0    0    0    0  0.00000000000E+00  0.00000000000E+00  0.99999998245E-14  0.12500000000E+03  0.12500000000E+03 0.  0.
        -13    1    3    3    0    0 -0.14347519385E+02 -0.54770029549E+02  0.23012335099E+02  0.61116169547E+02  0.10566000000E+00 0.  1.
         23    2    1    0    0    0 -0.13598467649E+02 -0.21705576211E+02  0.15600348263E+02  0.95009647768E+02  0.90152159941E+02 0.  0.
         13    1    3    3    0    0  0.74905173515E+00  0.33064453338E+02 -0.74119868359E+01  0.33893478222E+02  0.10566000000E+00 0. -1.
         22    1    1    0    0    0  0.13598467649E+02  0.21705576211E+02 -0.15600348263E+02  0.29990352232E+02  0.00000000000E+00 0.  1.
</event>
<event>
 5    1  0.1758480E-003  0.9118800E+02  0.7818608E-02  0.1130116E+00
         25   -1    0    0    0    0  0.00000000000E+00  0.00000000000E+00  0.99999998245E-14  0.12500000000E+03  0.12500000000E+03 0.  0.
        -13    1    3    3    0    0  0.52921247421E+02  0.46208428282E+01 -0.31458935193E+02  0.61738856359E+02  0.10566000000E+00 0.  1.
         23    2    1    0    0    0  0.20145099566E+02  0.56193529205E+01 -0.18764506504E+02  0.96901799557E+02  0.92738610564E+02 0.  0.
         13    1    3    3    0    0 -0.32776147855E+02  0.99851009236E+00  0.12694428689E+02  0.35162943198E+02  0.10566000000E+00 0. -1.
         22    1    1    0    0    0 -0.20145099566E+02 -0.56193529205E+01  0.18764506504E+02  0.28098200443E+02  0.00000000000E+00 0.  1.
</event>
<event>
 5    1  0.1758480E-003  0.9118800E+02  0.7818608E-02  0.1130116E+00
         25   -1    0    0    0    0  0.00000000000E+00  0.00000000000E+00  0.99999998245E-14  0.12500000000E+03  0.12500000000E+03 0.  0.
        -13    1    3    3    0    0 -0.28544091998E+02  0.15548451826E+02 -0.46679606553E+02  0.56881599610E+02  0.10566000000E+00 0. -1.
         23    2    1    0    0    0 -0.26693972558E+02 -0.63735316854E+01 -0.28653891018E+02  0.85323362699E+02  0.75537015262E+02 0.  0.
         13    1    3    3    0    0  0.18501194405E+01 -0.21921983512E+02  0.18025715535E+02  0.28441763089E+02  0.10566000000E+00 0.  1.
         22    1    1    0    0    0  0.26693972558E+02  0.63735316854E+01  0.28653891018E+02  0.39676637301E+02  0.00000000000E+00 0. -1.
</event>
<event>
 5    1  0.1758480E-003  0.9118800E+02  0.7818608E-02  0.1130116E+00
         25   -1    0    0    0    0  0.00000000000E+00  0.00000000000E+00  0.99999998245E-14  0.12500000000E+03  0.12500000000E+03 0.  0.
        -13    1    3    3    0    0 -0.42755389651E+02  0.13121849290E+02  0.31745096375E+02  0.54844950368E+02  0.10566000000E+00 0.  1.
         23    2    1    0    0    0 -0.14309870373E+02 -0.14254091532E+02  0.21222760895E+02  0.95702268083E+02  0.91107447668E+02 0.  0.
         13    1    3    3    0    0  0.28445519277E+02 -0.27375940822E+02 -0.10522335480E+02  0.40857317714E+02  0.10566000000E+00 0. -1.
         22    1    1    0    0    0  0.14309870373E+02  0.14254091532E+02 -0.21222760895E+02  0.29297731917E+02  0.00000000000E+00 0.  1.
</event>
<event>
 5    1  0.1758480E-003  0.9118800E+02  0.7818608E-02  0.1130116E+00
         25   -1    0    0    0    0  0.00000000000E+00  0.00000000000E+00  0.99999998245E-14  0.12500000000E+03  0.12500000000E+03 0.  0.
        -13    1    3    3    0    0 -0.40463378695E+02 -0.15071272396E+02  0.37966621519E+02  0.57496989318E+02  0.10566000000E+00 0.  1.
         23    2    1    0    0    0 -0.19043452770E+02  0.10794727185E+02  0.18666980905E+02  0.96231346843E+02  0.91830478114E+02 0.  0.
         13    1    3    3    0    0  0.21419925925E+02  0.25865999581E+02 -0.19299640614E+02  0.38734357525E+02  0.10566000000E+00 0. -1.
         22    1    1    0    0    0  0.19043452770E+02 -0.10794727185E+02 -0.18666980905E+02  0.28768653157E+02  0.00000000000E+00 0.  1.
</event>
<event>
 5    1  0.1758480E-003  0.9118800E+02  0.7818608E-02  0.1130116E+00
         25   -1    0    0    0    0  0.00000000000E+00  0.00000000000E+00  0.99999998245E-14  0.12500000000E+03  0.12500000000E+03 0.  0.
        -13    1    3    3    0    0 -0.24079886729E+02  0.21827705970E+02  0.24690979011E+02  0.40815993206E+02  0.10566000000E+00 0.  1.
         23    2    1    0    0    0 -0.10792612995E+02  0.32883942326E+01 -0.26139460930E+02  0.96529568855E+02  0.92235525768E+02 0.  0.
         13    1    3    3    0    0  0.13287273734E+02 -0.18539311738E+02 -0.50830439941E+02  0.55713575649E+02  0.10566000000E+00 0. -1.
         22    1    1    0    0    0  0.10792612995E+02 -0.32883942326E+01  0.26139460930E+02  0.28470431145E+02  0.00000000000E+00 0. -1.
</event>
<event>
 5    1  0.1758480E-003  0.9118800E+02  0.7818608E-02  0.1130116E+00
         25   -1    0    0    0    0  0.00000000000E+00  0.00000000000E+00  0.99999998245E-14  0.12500000000E+03  0.12500000000E+03 0.  0.
        -13    1    3    3    0    0  0.11722118702E+02  0.23696620379E+02 -0.47028153979E+02  0.53949942678E+02  0.10566000000E+00 0.  1.
         23    2    1    0    0    0  0.49406367408E+01  0.30215766921E+02 -0.90535473592E+01  0.93072438524E+02  0.87424879932E+02 0.  0.
         13    1    3    3    0    0 -0.67814819607E+01  0.65191465421E+01  0.37974606620E+02  0.39122495846E+02  0.10566000000E+00 0. -1.
         22    1    1    0    0    0 -0.49406367408E+01 -0.30215766921E+02  0.90535473592E+01  0.31927561476E+02  0.00000000000E+00 0.  1.
</event>
<event>
 5    1  0.1758480E-003  0.9118800E+02  0.7818608E-02  0.1130116E+00
         25   -1    0    0    0    0  0.00000000000E+00  0.00000000000E+00  0.99999998245E-14  0.12500000000E+03  0.12500000000E+03 0.  0.
        -13    1    3    3    0    0  0.41565983814E+02 -0.40401844392E+02 -0.11457874511E+02  0.59087512158E+02  0.10566000000E+00 0.  1.
         23    2    1    0    0    0  0.27607229212E+02 -0.72159682021E+01 -0.15735846693E+01  0.96421940748E+02  0.92089549826E+02 0.  0.
         13    1    3    3    0    0 -0.13958754601E+02  0.33185876189E+02  0.98842898419E+01  0.37334428591E+02  0.10566000000E+00 0. -1.
         22    1    1    0    0    0 -0.27607229212E+02  0.72159682021E+01  0.15735846693E+01  0.28578059252E+02  0.00000000000E+00 0.  1.
</event>
<event>
 5    1  0.1758480E-003  0.9118800E+02  0.7818608E-02  0.1130116E+00
         25   -1    0    0    0    0  0.00000000000E+00  0.00000000000E+00  0.99999998245E-14  0.12500000000E+03  0.12500000000E+03 0.  0.
        -13    1    3    3    0    0 -0.18440321442E+02 -0.32377392417E+02  0.37001747363E+01  0.37443870683E+02  0.10566000000E+00 0. -1.
         23    2    1    0    0    0  0.14791000315E+02  0.12714002316E+02 -0.18895659094E+02  0.97843684385E+02  0.93999580298E+02 0.  0.
         13    1    3    3    0    0  0.33231321757E+02  0.45091394733E+02 -0.22595833830E+02  0.60399813702E+02  0.10566000000E+00 0.  1.
         22    1    1    0    0    0 -0.14791000315E+02 -0.12714002316E+02  0.18895659094E+02  0.27156315615E+02  0.00000000000E+00 0.  1.
</event>
<event>
 5    1  0.1758480E-003  0.9118800E+02  0.7818608E-02  0.1130116E+00
         25   -1    0    0    0    0  0.00000000000E+00  0.00000000000E+00  0.99999998245E-14  0.12500000000E+03  0.12500000000E+03 0.  0.
        -13    1    3    3    0    0 -0.20596713031E+02  0.38242629614E+02  0.20988070638E+02  0.48241409397E+02  0.10566000000E+00 0. -1.
         23    2    1    0    0    0 -0.12752874680E+02 -0.35556289343E+01  0.30438618168E+02  0.91806811155E+02  0.85596161064E+02 0.  0.
         13    1    3    3    0    0  0.78438383511E+01 -0.41798258548E+02  0.94505475296E+01  0.43565401758E+02  0.10566000000E+00 0.  1.
         22    1    1    0    0    0  0.12752874680E+02  0.35556289343E+01 -0.30438618168E+02  0.33193188845E+02  0.00000000000E+00 0. -1.
</event>
<event>
 5    1  0.1758480E-003  0.9118800E+02  0.7818608E-02  0.1130116E+00
         25   -1    0    0    0    0  0.00000000000E+00  0.00000000000E+00  0.99999998245E-14  0.12500000000E+03  0.12500000000E+03 0.  0.
        -13    1    3    3    0    0  0.20343414651E+02  0.34235184227E+02 -0.33490129584E+02  0.52033665087E+02  0.10566000000E+00 0. -1.
         23    2    1    0    0    0  0.13749596040E+02  0.20469059533E+02  0.10201348205E+02  0.98314773851E+02  0.94623958186E+02 0.  0.
         13    1    3    3    0    0 -0.65938186113E+01 -0.13766124694E+02  0.43691477790E+02  0.46281108764E+02  0.10566000000E+00 0.  1.
         22    1    1    0    0    0 -0.13749596040E+02 -0.20469059533E+02 -0.10201348205E+02  0.26685226149E+02  0.00000000000E+00 0.  1.
</event>
<event>
 5    1  0.1758480E-003  0.9118800E+02  0.7818608E-02  0.1130116E+00
         25   -1    0    0    0    0  0.00000000000E+00  0.00000000000E+00  0.99999998245E-14  0.12500000000E+03  0.12500000000E+03 0.  0.
        -13    1    3    3    0    0 -0.29487097645E+02 -0.38449238624E+02  0.19816068817E+02  0.52349982098E+02  0.10566000000E+00 0.  1.
         23    2    1    0    0    0 -0.14798636648E+02 -0.20470642422E+02 -0.16048767428E+02  0.95073259720E+02  0.90240317652E+02 0.  0.
         13    1    3    3    0    0  0.14688460997E+02  0.17978596201E+02 -0.35864836245E+02  0.42723277622E+02  0.10566000000E+00 0. -1.
         22    1    1    0    0    0  0.14798636648E+02  0.20470642422E+02  0.16048767428E+02  0.29926740280E+02  0.00000000000E+00 0.  1.
</event>
<event>
 5    1  0.1758480E-003  0.9118800E+02  0.7818608E-02  0.1130116E+00
         25   -1    0    0    0    0  0.00000000000E+00  0.00000000000E+00  0.99999998245E-14  0.12500000000E+03  0.12500000000E+03 0.  0.
        -13    1    3    3    0    0 -0.30339909955E+02 -0.23076451327E+02  0.24854925745E+02  0.45506167052E+02  0.10566000000E+00 0. -1.
         23    2    1    0    0    0 -0.12858657760E+02  0.22752194251E+02  0.12177973485E+02  0.96167545008E+02  0.91743589706E+02 0.  0.
         13    1    3    3    0    0  0.17481252194E+02  0.45828645578E+02 -0.12676952261E+02  0.50661377957E+02  0.10566000000E+00 0.  1.
         22    1    1    0    0    0  0.12858657760E+02 -0.22752194251E+02 -0.12177973485E+02  0.28832454992E+02  0.00000000000E+00 0.  1.
</event>
<event>
 5    1  0.1758480E-003  0.9118800E+02  0.7818608E-02  0.1130116E+00
         25   -1    0    0    0    0  0.00000000000E+00  0.00000000000E+00  0.99999998245E-14  0.12500000000E+03  0.12500000000E+03 0.  0.
        -13    1    3    3    0    0 -0.19931193304E+02 -0.56445726057E+02 -0.15758150905E+02  0.61900750728E+02  0.10566000000E+00 0. -1.
         23    2    1    0    0    0 -0.54179470161E+01 -0.27378631138E+02 -0.25425527959E+01  0.96974865432E+02  0.92837041950E+02 0.  0.
         13    1    3    3    0    0  0.14513246288E+02  0.29067094920E+02  0.13215598109E+02  0.35074114704E+02  0.10566000000E+00 0.  1.
         22    1    1    0    0    0  0.54179470161E+01  0.27378631138E+02  0.25425527959E+01  0.28025134568E+02  0.00000000000E+00 0. -1.
</event>
<event>
 5    1  0.1758480E-003  0.9118800E+02  0.7818608E-02  0.1130116E+00
         25   -1    0    0    0    0  0.00000000000E+00  0.00000000000E+00  0.99999998245E-14  0.12500000000E+03  0.12500000000E+03 0.  0.
        -13    1    3    3    0    0 -0.22370949404E+02 -0.48173911587E+02  0.91496396398E+01  0.53897237447E+02  0.10566000000E+00 0.  1.
         23    2    1    0    0    0  0.12881103335E+02 -0.25561907470E+02  0.32383674233E+01  0.96193386867E+02  0.91778792304E+02 0.  0.
         13    1    3    3    0    0  0.35252052739E+02  0.22612004117E+02 -0.59112722165E+01  0.42296149420E+02  0.10566000000E+00 0. -1.
         22    1    1    0    0    0 -0.12881103335E+02  0.25561907470E+02 -0.32383674233E+01  0.28806613133E+02  0.00000000000E+00 0.  1.
</event>
<event>
 5    1  0.1758480E-003  0.9118800E+02  0.7818608E-02  0.1130116E+00
         25   -1    0    0    0    0  0.00000000000E+00  0.00000000000E+00  0.99999998245E-14  0.12500000000E+03  0.12500000000E+03 0.  0.
        -13    1    3    3    0    0  0.48815965326E+02  0.10329185983E+01 -0.13689950173E+02  0.50709873706E+02  0.10566000000E+00 0. -1.
         23    2    1    0    0    0  0.77267941859E+01  0.63783641237E+01 -0.28560506510E+02  0.94733031051E+02  0.89767799141E+02 0.  0.
         13    1    3    3    0    0 -0.41089171140E+02  0.53454455255E+01 -0.14870556337E+02  0.44023157345E+02  0.10566000000E+00 0.  1.
         22    1    1    0    0    0 -0.77267941859E+01 -0.63783641237E+01  0.28560506510E+02  0.30266968949E+02  0.00000000000E+00 0. -1.
</event>
<event>
 5    1  0.1758480E-003  0.9118800E+02  0.7818608E-02  0.1130116E+00
         25   -1    0    0    0    0  0.00000000000E+00  0.00000000000E+00  0.99999998245E-14  0.12500000000E+03  0.12500000000E+03 0.  0.
        -13    1    3    3    0    0 -0.78938993841E+01  0.59602470186E+01  0.25910527636E+02  0.27734541612E+02  0.10566000000E+00 0. -1.
         23    2    1    0    0    0 -0.37194519467E+01 -0.20492682924E+02 -0.29273410844E+02  0.89073450505E+02  0.81506825642E+02 0.  0.
         13    1    3    3    0    0  0.41744474374E+01 -0.26452929942E+02 -0.55183938480E+02  0.61338908893E+02  0.10566000000E+00 0.  1.
         22    1    1    0    0    0  0.37194519467E+01  0.20492682924E+02  0.29273410844E+02  0.35926549495E+02  0.00000000000E+00 0.  1.
</event>
<event>
 5    1  0.1758480E-003  0.9118800E+02  0.7818608E-02  0.1130116E+00
         25   -1    0    0    0    0  0.00000000000E+00  0.00000000000E+00  0.99999998245E-14  0.12500000000E+03  0.12500000000E+03 0.  0.
        -13    1    3    3    0    0  0.85242601502E+01  0.37413124285E+02  0.31361634120E+02  0.49557725317E+02  0.10566000000E+00 0.  1.
         23    2    1    0    0    0  0.66857123398E+01  0.23156988327E+02 -0.13988877487E+02  0.97131854185E+02  0.93048178629E+02 0.  0.
         13    1    3    3    0    0 -0.18385478104E+01 -0.14256135959E+02 -0.45350511606E+02  0.47574128868E+02  0.10566000000E+00 0. -1.
         22    1    1    0    0    0 -0.66857123398E+01 -0.23156988327E+02  0.13988877487E+02  0.27868145815E+02  0.00000000000E+00 0.  1.
</event>
<event>
 5    1  0.1758480E-003  0.9118800E+02  0.7818608E-02  0.1130116E+00
         25   -1    0    0    0    0  0.00000000000E+00  0.00000000000E+00  0.99999998245E-14  0.12500000000E+03  0.12500000000E+03 0.  0.
        -13    1    3    3    0    0  0.90459113772E+01  0.34273722484E+02 -0.19539288877E+02  0.40476061313E+02  0.10566000000E+00 0. -1.
         23    2    1    0    0    0 -0.41075737579E+01  0.85797502027E+01  0.27631018943E+02  0.95777449058E+02  0.91210538122E+02 0.  0.
         13    1    3    3    0    0 -0.13153485135E+02 -0.25693972281E+02  0.47170307820E+02  0.55301387746E+02  0.10566000000E+00 0.  1.
         22    1    1    0    0    0  0.41075737579E+01 -0.85797502027E+01 -0.27631018943E+02  0.29222550942E+02  0.00000000000E+00 0.  1.
</event>
<event>
 5    1  0.1758480E-003  0.9118800E+02  0.7818608E-02  0.1130116E+00
         25   -1    0    0    0    0  0.00000000000E+00  0.00000000000E+00  0.99999998245E-14  0.12500000000E+03  0.12500000000E+03 0.  0.
        -13    1    3    3    0    0  0.10002639598E+02 -0.57051583598E+02 -0.22492592821E+01  0.57965561511E+02  0.10566000000E+00 0. -1.
         23    2    1    0    0    0  0.80194248580E+01 -0.22160181582E+02 -0.17043896820E+02  0.95915996809E+02  0.91400214454E+02 0.  0.
         13    1    3    3    0    0 -0.19832147402E+01  0.34891402016E+02 -0.14794637538E+02  0.37950435297E+02  0.10566000000E+00 0.  1.
         22    1    1    0    0    0 -0.80194248580E+01  0.22160181582E+02  0.17043896820E+02  0.29084003191E+02  0.00000000000E+00 0. -1.
</event>
<event>
 5    1  0.1758480E-003  0.9118800E+02  0.7818608E-02  0.1130116E+00
         25   -1    0    0    0    0  0.00000000000E+00  0.00000000000E+00  0.99999998245E-14  0.12500000000E+03  0.12500000000E+03 0.  0.
        -13    1    3    3    0    0 -0.18451655738E+02  0.19974867684E+02 -0.26635007343E+02  0.38064336572E+02  0.10566000000E+00 0.  1.
         23    2    1    0    0    0 -0.17065210200E+02 -0.71706552993E+01  0.23495036630E+02  0.95089191873E+02  0.90262384016E+02 0.  0.
         13    1    3    3    0    0  0.13864455378E+01 -0.27145522983E+02  0.50130043973E+02  0.57024855301E+02  0.10566000000E+00 0. -1.
         22    1    1    0    0    0  0.17065210200E+02  0.71706552993E+01 -0.23495036630E+02  0.29910808127E+02  0.00000000000E+00 0. -1.
</event>
<event>
 5    1  0.1758480E-003  0.9118800E+02  0.7818608E-02  0.1130116E+00
         25   -1    0    0    0    0  0.00000000000E+00  0.00000000000E+00  0.99999998245E-14  0.12500000000E+03  0.12500000000E+03 0.  0.
        -13    1    3    3    0    0  0.77145756426E+01  0.36892255915E+02 -0.10437648413E+02  0.39108936220E+02  0.10566000000E+00 0. -1.
         23    2    1    0    0    0  0.22022158625E+02 -0.82352382648E+01  0.18926019942E+02  0.94817408153E+02  0.89885215904E+02 0.  0.
         13    1    3    3    0    0  0.14307582983E+02 -0.45127494180E+02  0.29363668355E+02  0.55708471932E+02  0.10566000000E+00 0.  1.
         22    1    1    0    0    0 -0.22022158625E+02  0.82352382648E+01 -0.18926019942E+02  0.30182591847E+02  0.00000000000E+00 0.  1.
</event>
<event>
 5    1  0.1758480E-003  0.9118800E+02  0.7818608E-02  0.1130116E+00
         25   -1    0    0    0    0  0.00000000000E+00  0.00000000000E+00  0.99999998245E-14  0.12500000000E+03  0.12500000000E+03 0.  0.
        -13    1    3    3    0    0 -0.51864881640E+02  0.12966434455E+02  0.22427781825E+02  0.57975088889E+02  0.10566000000E+00 0. -1.
         23    2    1    0    0    0 -0.21569248202E+02 -0.85844860445E+01  0.18411631939E+02  0.95370385434E+02  0.90650958950E+02 0.  0.
         13    1    3    3    0    0  0.30295633438E+02 -0.21550920499E+02 -0.40161498854E+01  0.37395296546E+02  0.10566000000E+00 0.  1.
         22    1    1    0    0    0  0.21569248202E+02  0.85844860445E+01 -0.18411631939E+02  0.29629614566E+02  0.00000000000E+00 0. -1.
</event>
<event>
 5    1  0.1758480E-003  0.9118800E+02  0.7818608E-02  0.1130116E+00
         25   -1    0    0    0    0  0.00000000000E+00  0.00000000000E+00  0.99999998245E-14  0.12500000000E+03  0.12500000000E+03 0.  0.
        -13    1    3    3    0    0  0.16410680696E+02 -0.46079214734E+02  0.38879596314E+02  0.62483907088E+02  0.10566000000E+00 0.  1.
         23    2    1    0    0    0  0.83310009467E+01 -0.21017014482E+02  0.17192415908E+02  0.96597541668E+02  0.92327598350E+02 0.  0.
         13    1    3    3    0    0 -0.80796797496E+01  0.25062200251E+02 -0.21687180406E+02  0.34113634581E+02  0.10566000000E+00 0. -1.
         22    1    1    0    0    0 -0.83310009467E+01  0.21017014482E+02 -0.17192415908E+02  0.28402458332E+02  0.00000000000E+00 0.  1.
</event>
<event>
 5    1  0.1758480E-003  0.9118800E+02  0.7818608E-02  0.1130116E+00
         25   -1    0    0    0    0  0.00000000000E+00  0.00000000000E+00  0.99999998245E-14  0.12500000000E+03  0.12500000000E+03 0.  0.
        -13    1    3    3    0    0 -0.33030091404E+02 -0.11041068121E+02 -0.32654082761E+02  0.47740888224E+02  0.10566000000E+00 0. -1.
         23    2    1    0    0    0  0.13395250311E+02 -0.50730507381E+01 -0.26400275595E+02  0.94964302469E+02  0.90089264716E+02 0.  0.
         13    1    3    3    0    0  0.46425341715E+02  0.59680173831E+01  0.62538071651E+01  0.47223414245E+02  0.10566000000E+00 0.  1.
         22    1    1    0    0    0 -0.13395250311E+02  0.50730507381E+01  0.26400275595E+02  0.30035697531E+02  0.00000000000E+00 0.  1.
</event>
<event>
 5    1  0.1758480E-003  0.9118800E+02  0.7818608E-02  0.1130116E+00
         25   -1    0    0    0    0  0.00000000000E+00  0.00000000000E+00  0.99999998245E-14  0.12500000000E+03  0.12500000000E+03 0.  0.
        -13    1    3    3    0    0 -0.97012480155E+01  0.31655348225E+02 -0.23913106750E+02  0.40841438794E+02  0.10566000000E+00 0.  1.
         23    2    1    0    0    0  0.26822059208E+02 -0.66797978617E+01 -0.62240754273E+01  0.96666597900E+02  0.92421044547E+02 0.  0.
         13    1    3    3    0    0  0.36523307223E+02 -0.38335146087E+02  0.17689031323E+02  0.55825159106E+02  0.10566000000E+00 0. -1.
         22    1    1    0    0    0 -0.26822059208E+02  0.66797978617E+01  0.62240754273E+01  0.28333402100E+02  0.00000000000E+00 0. -1.
</event>
<event>
 5    1  0.1758480E-003  0.9118800E+02  0.7818608E-02  0.1130116E+00
         25   -1    0    0    0    0  0.00000000000E+00  0.00000000000E+00  0.99999998245E-14  0.12500000000E+03  0.12500000000E+03 0.  0.
        -13    1    3    3    0    0  0.68178473482E+01  0.34335824657E+02  0.23927754251E+02  0.42402599977E+02  0.10566000000E+00 0.  1.
         23    2    1    0    0    0  0.27785815780E+02 -0.92631666392E+01  0.16600609597E+02  0.91333428245E+02  0.84902043917E+02 0.  0.
         13    1    3    3    0    0  0.20967968432E+02 -0.43598991296E+02 -0.73271446533E+01  0.48930828268E+02  0.10566000000E+00 0. -1.
         22    1    1    0    0    0 -0.27785815780E+02  0.92631666392E+01 -0.16600609597E+02  0.33666571755E+02  0.00000000000E+00 0. -1.
</event>
<event>
 5    1  0.1758480E-003  0.9118800E+02  0.7818608E-02  0.1130116E+00
         25   -1    0    0    0    0  0.00000000000E+00  0.00000000000E+00  0.99999998245E-14  0.12500000000E+03  0.12500000000E+03 0.  0.
        -13    1    3    3    0    0  0.35912123349E+02  0.29274358772E+00  0.58075125448E+01  0.36380003686E+02  0.10566000000E+00 0.  1.
         23    2    1    0    0    0 -0.11270479348E+02 -0.60542530773E+01  0.31872299646E+02  0.90655842276E+02  0.83898513508E+02 0.  0.
         13    1    3    3    0    0 -0.47182602696E+02 -0.63469966650E+01  0.26064787102E+02  0.54275838589E+02  0.10566000000E+00 0. -1.
         22    1    1    0    0    0  0.11270479348E+02  0.60542530773E+01 -0.31872299646E+02  0.34344157724E+02  0.00000000000E+00 0. -1.
</event>
<event>
 5    1  0.1758480E-003  0.9118800E+02  0.7818608E-02  0.1130116E+00
         25   -1    0    0    0    0  0.00000000000E+00  0.00000000000E+00  0.99999998245E-14  0.12500000000E+03  0.12500000000E+03 0.  0.
        -13    1    3    3    0    0  0.85500115944E+01  0.40486582800E+02 -0.11644998259E+02  0.42987012382E+02  0.10566000000E+00 0.  1.
         23    2    1    0    0    0  0.15101892448E+01 -0.11302819091E+02 -0.25507195069E+02  0.97059860572E+02  0.92951412808E+02 0.  0.
         13    1    3    3    0    0 -0.70398223496E+01 -0.51789401891E+02 -0.13862196810E+02  0.54072848190E+02  0.10566000000E+00 0. -1.
         22    1    1    0    0    0 -0.15101892448E+01  0.11302819091E+02  0.25507195069E+02  0.27940139428E+02  0.00000000000E+00 0. -1.
</event>
<event>
 5    1  0.1758480E-003  0.9118800E+02  0.7818608E-02  0.1130116E+00
         25   -1    0    0    0    0  0.00000000000E+00  0.00000000000E+00  0.99999998245E-14  0.12500000000E+03  0.12500000000E+03 0.  0.
        -13    1    3    3    0    0 -0.37666166189E+02 -0.65425633603E+01 -0.15190844568E+02  0.41137794465E+02  0.10566000000E+00 0.  1.
         23    2    1    0    0    0 -0.14225252241E+02  0.69232801672E+01  0.28434762912E+02  0.92460403330E+02  0.86545368636E+02 0.  0.
         13    1    3    3    0    0  0.23440913948E+02  0.13465843528E+02  0.43625607480E+02  0.51322608865E+02  0.10566000000E+00 0. -1.
         22    1    1    0    0    0  0.14225252241E+02 -0.69232801672E+01 -0.28434762912E+02  0.32539596670E+02  0.00000000000E+00 0. -1.
</event>
<event>
 5    1  0.1758480E-003  0.9118800E+02  0.7818608E-02  0.1130116E+00
         25   -1    0    0    0    0  0.00000000000E+00  0.00000000000E+00  0.99999998245E-14  0.12500000000E+03  0.12500000000E+03 0.  0.
        -13    1    3    3    0    0  0.10118765167E+02  0.33326927561E+01 -0.45169309147E+02  0.46408769671E+02  0.10566000000E+00 0.  1.
         23    2    1    0    0    0 -0.10230186915E+02 -0.25022650879E+02 -0.94133234334E+01  0.96374828570E+02  0.92025578740E+02 0.  0.
         13    1    3    3    0    0 -0.20348952082E+02 -0.28355343635E+02  0.35755985714E+02  0.49966058899E+02  0.10566000000E+00 0. -1.
         22    1    1    0    0    0  0.10230186915E+02  0.25022650879E+02  0.94133234334E+01  0.28625171430E+02  0.00000000000E+00 0.  1.
</event>
<event>
 5    1  0.1758480E-003  0.9118800E+02  0.7818608E-02  0.1130116E+00
         25   -1    0    0    0    0  0.00000000000E+00  0.00000000000E+00  0.99999998245E-14  0.12500000000E+03  0.12500000000E+03 0.  0.
        -13    1    3    3    0    0 -0.40710713908E+02 -0.23140828469E+02 -0.40288821833E+02  0.61774270517E+02  0.10566000000E+00 0.  1.
         23    2    1    0    0    0 -0.18631150315E+02 -0.16671178134E+02 -0.15554750705E+02  0.95555166634E+02  0.90905399501E+02 0.  0.
         13    1    3    3    0    0  0.22079563592E+02  0.64696503349E+01  0.24734071128E+02  0.33780896117E+02  0.10566000000E+00 0. -1.
         22    1    1    0    0    0  0.18631150315E+02  0.16671178134E+02  0.15554750705E+02  0.29444833366E+02  0.00000000000E+00 0.  1.
</event>
<event>
 5    1  0.1758480E-003  0.9118800E+02  0.7818608E-02  0.1130116E+00
         25   -1    0    0    0    0  0.00000000000E+00  0.00000000000E+00  0.99999998245E-14  0.12500000000E+03  0.12500000000E+03 0.  0.
        -13    1    3    3    0    0  0.27569627181E+02 -0.34616800299E+02 -0.35839577719E+02  0.56946410782E+02  0.10566000000E+00 0. -1.
         23    2    1    0    0    0  0.12828508808E+02 -0.26570178429E+02 -0.11674805731E+01  0.95471911154E+02  0.90790846392E+02 0.  0.
         13    1    3    3    0    0 -0.14741118373E+02  0.80466218703E+01  0.34672097146E+02  0.38525500372E+02  0.10566000000E+00 0.  1.
         22    1    1    0    0    0 -0.12828508808E+02  0.26570178429E+02  0.11674805731E+01  0.29528088846E+02  0.00000000000E+00 0. -1.
</event>
<event>
 5    1  0.1758480E-003  0.9118800E+02  0.7818608E-02  0.1130116E+00
         25   -1    0    0    0    0  0.00000000000E+00  0.00000000000E+00  0.99999998245E-14  0.12500000000E+03  0.12500000000E+03 0.  0.
        -13    1    3    3    0    0 -0.42396611146E+02  0.19592300924E+01 -0.84973577850E+01  0.43284263568E+02  0.10566000000E+00 0.  1.
         23    2    1    0    0    0 -0.72943797663E+01 -0.31716900138E+02 -0.15916234728E+01  0.92416215754E+02  0.86481523682E+02 0.  0.
         13    1    3    3    0    0  0.35102231380E+02 -0.33676130230E+02  0.69057343123E+01  0.49131952186E+02  0.10566000000E+00 0. -1.
         22    1    1    0    0    0  0.72943797663E+01  0.31716900138E+02  0.15916234728E+01  0.32583784246E+02  0.00000000000E+00 0. -1.
</event>
<event>
 5    1  0.1758480E-003  0.9118800E+02  0.7818608E-02  0.1130116E+00
         25   -1    0    0    0    0  0.00000000000E+00  0.00000000000E+00  0.99999998245E-14  0.12500000000E+03  0.12500000000E+03 0.  0.
        -13    1    3    3    0    0  0.35493622463E+02 -0.32706577046E+02  0.39658674487E+02  0.62468704514E+02  0.10566000000E+00 0.  1.
         23    2    1    0    0    0  0.16290416891E+02 -0.14272974708E+02  0.19453235420E+02  0.95887736986E+02  0.91361557816E+02 0.  0.
         13    1    3    3    0    0 -0.19203205573E+02  0.18433602338E+02 -0.20205439067E+02  0.33419032472E+02  0.10566000000E+00 0. -1.
         22    1    1    0    0    0 -0.16290416891E+02  0.14272974708E+02 -0.19453235420E+02  0.29112263014E+02  0.00000000000E+00 0.  1.
</event>
<event>
 5    1  0.1758480E-003  0.9118800E+02  0.7818608E-02  0.1130116E+00
         25   -1    0    0    0    0  0.00000000000E+00  0.00000000000E+00  0.99999998245E-14  0.12500000000E+03  0.12500000000E+03 0.  0.
        -13    1    3    3    0    0 -0.33359419605E+02 -0.96039902836E+01  0.21394317713E+02  0.40777634804E+02  0.10566000000E+00 0. -1.
         23    2    1    0    0    0  0.11203265465E+02 -0.27583982713E+02 -0.37168633510E+01  0.94996594650E+02  0.90134059393E+02 0.  0.
         13    1    3    3    0    0  0.44562685070E+02 -0.17979992430E+02 -0.25111181064E+02  0.54218959847E+02  0.10566000000E+00 0.  1.
         22    1    1    0    0    0 -0.11203265465E+02  0.27583982713E+02  0.37168633510E+01  0.30003405350E+02  0.00000000000E+00 0.  1.
</event>
<event>
 5    1  0.1758480E-003  0.9118800E+02  0.7818608E-02  0.1130116E+00
         25   -1    0    0    0    0  0.00000000000E+00  0.00000000000E+00  0.99999998245E-14  0.12500000000E+03  0.12500000000E+03 0.  0.
        -13    1    3    3    0    0  0.37378605418E+02  0.16465084922E+01 -0.66344669681E+01  0.37998663782E+02  0.10566000000E+00 0. -1.
         23    2    1    0    0    0 -0.19622434948E+02  0.16931243277E+02 -0.10262232636E+02  0.97124914872E+02  0.93038855959E+02 0.  0.
         13    1    3    3    0    0 -0.57001040366E+02  0.15284734785E+02 -0.36277656681E+01  0.59126251090E+02  0.10566000000E+00 0.  1.
         22    1    1    0    0    0  0.19622434948E+02 -0.16931243277E+02  0.10262232636E+02  0.27875085128E+02  0.00000000000E+00 0.  1.
</event>
<event>
 5    1  0.1758480E-003  0.9118800E+02  0.7818608E-02  0.1130116E+00
         25   -1    0    0    0    0  0.00000000000E+00  0.00000000000E+00  0.99999998245E-14  0.12500000000E+03  0.12500000000E+03 0.  0.
        -13    1    3    3    0    0  0.35445173507E+02 -0.12048015856E+02 -0.30654403060E+01  0.37562256313E+02  0.10566000000E+00 0. -1.
         23    2    1    0    0    0 -0.83419840954E+01  0.27161835552E+02 -0.37243824890E+01  0.96342975833E+02  0.91982302418E+02 0.  0.
         13    1    3    3    0    0 -0.43787157603E+02  0.39209851408E+02 -0.65894218296E+00  0.58780719519E+02  0.10566000000E+00 0.  1.
         22    1    1    0    0    0  0.83419840954E+01 -0.27161835552E+02  0.37243824890E+01  0.28657024167E+02  0.00000000000E+00 0.  1.
</event>
<event>
 5    1  0.1758480E-003  0.9118800E+02  0.7818608E-02  0.1130116E+00
         25   -1    0    0    0    0  0.00000000000E+00  0.00000000000E+00  0.99999998245E-14  0.12500000000E+03  0.12500000000E+03 0.  0.
        -13    1    3    3    0    0  0.35452935246E+01 -0.35177526140E+02 -0.19883152171E+02  0.40563263623E+02  0.10566000000E+00 0.  1.
         23    2    1    0    0    0 -0.22596750665E+02 -0.85053547695E+01  0.18849619037E+02  0.94368931814E+02  0.89259357793E+02 0.  0.
         13    1    3    3    0    0 -0.26142044190E+02  0.26672171370E+02  0.38732771207E+02  0.53805668191E+02  0.10566000000E+00 0. -1.
         22    1    1    0    0    0  0.22596750665E+02  0.85053547695E+01 -0.18849619037E+02  0.30631068186E+02  0.00000000000E+00 0.  1.
</event>
<event>
 5    1  0.1758480E-003  0.9118800E+02  0.7818608E-02  0.1130116E+00
         25   -1    0    0    0    0  0.00000000000E+00  0.00000000000E+00  0.99999998245E-14  0.12500000000E+03  0.12500000000E+03 0.  0.
        -13    1    3    3    0    0 -0.34806252886E+01 -0.17257573411E+02 -0.30834281370E+02  0.35506374978E+02  0.10566000000E+00 0. -1.
         23    2    1    0    0    0 -0.11819730936E+02  0.49664666103E+01  0.25401320683E+02  0.96546548145E+02  0.92258533677E+02 0.  0.
         13    1    3    3    0    0 -0.83391056477E+01  0.22224040021E+02  0.56235602054E+02  0.61040173167E+02  0.10566000000E+00 0.  1.
         22    1    1    0    0    0  0.11819730936E+02 -0.49664666103E+01 -0.25401320683E+02  0.28453451855E+02  0.00000000000E+00 0.  1.
</event>
<event>
 5    1  0.1758480E-003  0.9118800E+02  0.7818608E-02  0.1130116E+00
         25   -1    0    0    0    0  0.00000000000E+00  0.00000000000E+00  0.99999998245E-14  0.12500000000E+03  0.12500000000E+03 0.  0.
        -13    1    3    3    0    0 -0.49430175648E+01  0.38067250287E+02 -0.66565179188E+01  0.38959842940E+02  0.10566000000E+00 0.  1.
         23    2    1    0    0    0  0.31789800173E+02 -0.52467045787E+00  0.28428766229E+01  0.93079025366E+02  0.87434297283E+02 0.  0.
         13    1    3    3    0    0  0.36732817737E+02 -0.38591920745E+02  0.94993945417E+01  0.54119182426E+02  0.10566000000E+00 0. -1.
         22    1    1    0    0    0 -0.31789800173E+02  0.52467045787E+00 -0.28428766229E+01  0.31920974634E+02  0.00000000000E+00 0.  1.
</event>
<event>
 5    1  0.1758480E-003  0.9118800E+02  0.7818608E-02  0.1130116E+00
         25   -1    0    0    0    0  0.00000000000E+00  0.00000000000E+00  0.99999998245E-14  0.12500000000E+03  0.12500000000E+03 0.  0.
        -13    1    3    3    0    0  0.36750595380E+02 -0.44626768970E+02  0.39674002367E+01  0.57947443414E+02  0.10566000000E+00 0. -1.
         23    2    1    0    0    0  0.73077810074E+01 -0.23466985523E+02  0.15436644374E+02  0.95975991622E+02  0.91482227266E+02 0.  0.
         13    1    3    3    0    0 -0.29442814373E+02  0.21159783447E+02  0.11469244137E+02  0.38028548208E+02  0.10566000000E+00 0.  1.
         22    1    1    0    0    0 -0.73077810074E+01  0.23466985523E+02 -0.15436644374E+02  0.29024008378E+02  0.00000000000E+00 0. -1.
</event>
<event>
 5    1  0.1758480E-003  0.9118800E+02  0.7818608E-02  0.1130116E+00
         25   -1    0    0    0    0  0.00000000000E+00  0.00000000000E+00  0.99999998245E-14  0.12500000000E+03  0.12500000000E+03 0.  0.
        -13    1    3    3    0    0  0.83380476739E+01  0.31773125994E+01 -0.51608875304E+02  0.52374664949E+02  0.10566000000E+00 0. -1.
         23    2    1    0    0    0  0.23613581255E+02  0.12284650085E+02 -0.11981917331E+02  0.95809587356E+02  0.91254571606E+02 0.  0.
         13    1    3    3    0    0  0.15275533581E+02  0.91073374855E+01  0.39626957972E+02  0.43434922406E+02  0.10566000000E+00 0.  1.
         22    1    1    0    0    0 -0.23613581255E+02 -0.12284650085E+02  0.11981917331E+02  0.29190412644E+02  0.00000000000E+00 0. -1.
</event>
<event>
 5    1  0.1758480E-003  0.9118800E+02  0.7818608E-02  0.1130116E+00
         25   -1    0    0    0    0  0.00000000000E+00  0.00000000000E+00  0.99999998245E-14  0.12500000000E+03  0.12500000000E+03 0.  0.
        -13    1    3    3    0    0  0.37906982989E+02  0.43773533194E+02  0.20165847949E+02  0.61316671103E+02  0.10566000000E+00 0.  1.
         23    2    1    0    0    0  0.15648513333E+02  0.21123015650E+02  0.17985402708E+02  0.93148273669E+02  0.87533241785E+02 0.  0.
         13    1    3    3    0    0 -0.22258469656E+02 -0.22650517544E+02 -0.21804452410E+01  0.31831602566E+02  0.10566000000E+00 0. -1.
         22    1    1    0    0    0 -0.15648513333E+02 -0.21123015650E+02 -0.17985402708E+02  0.31851726331E+02  0.00000000000E+00 0.  1.
</event>
<event>
 5    1  0.1758480E-003  0.9118800E+02  0.7818608E-02  0.1130116E+00
         25   -1    0    0    0    0  0.00000000000E+00  0.00000000000E+00  0.99999998245E-14  0.12500000000E+03  0.12500000000E+03 0.  0.
        -13    1    3    3    0    0  0.35461715315E+02 -0.93137627349E+01 -0.49229656369E+01  0.36993596528E+02  0.10566000000E+00 0. -1.
         23    2    1    0    0    0 -0.23332814645E+02 -0.14542885497E+02  0.55749332683E+01  0.96946557452E+02  0.92798918976E+02 0.  0.
         13    1    3    3    0    0 -0.58794529960E+02 -0.52291227617E+01  0.10497898905E+02  0.59952960924E+02  0.10566000000E+00 0.  1.
         22    1    1    0    0    0  0.23332814645E+02  0.14542885497E+02 -0.55749332683E+01  0.28053442548E+02  0.00000000000E+00 0.  1.
</event>
<event>
 5    1  0.1758480E-003  0.9118800E+02  0.7818608E-02  0.1130116E+00
         25   -1    0    0    0    0  0.00000000000E+00  0.00000000000E+00  0.99999998245E-14  0.12500000000E+03  0.12500000000E+03 0.  0.
        -13    1    3    3    0    0 -0.17842061146E+02 -0.20789107893E+02 -0.18147005091E+02  0.32861088094E+02  0.10566000000E+00 0.  1.
         23    2    1    0    0    0  0.20703992213E+02  0.12178587762E+02  0.17863134072E+02  0.95065657644E+02  0.90229786716E+02 0.  0.
         13    1    3    3    0    0  0.38546053359E+02  0.32967695655E+02  0.36010139162E+02  0.62204569550E+02  0.10566000000E+00 0. -1.
         22    1    1    0    0    0 -0.20703992213E+02 -0.12178587762E+02 -0.17863134072E+02  0.29934342356E+02  0.00000000000E+00 0. -1.
</event>
<event>
 5    1  0.1758480E-003  0.9118800E+02  0.7818608E-02  0.1130116E+00
         25   -1    0    0    0    0  0.00000000000E+00  0.00000000000E+00  0.99999998245E-14  0.12500000000E+03  0.12500000000E+03 0.  0.
        -13    1    3    3    0    0 -0.16560210236E+02  0.32879269172E+01 -0.35641713279E+02  0.39438482678E+02  0.10566000000E+00 0.  1.
         23    2    1    0    0    0  0.23689482226E+02  0.12591952390E+02  0.53586286278E+01  0.97641934756E+02  0.93730911064E+02 0.  0.
         13    1    3    3    0    0  0.40249692462E+02  0.93040254725E+01  0.41000341907E+02  0.58203452078E+02  0.10566000000E+00 0. -1.
         22    1    1    0    0    0 -0.23689482226E+02 -0.12591952390E+02 -0.53586286278E+01  0.27358065244E+02  0.00000000000E+00 0. -1.
</event>
<event>
 5    1  0.1758480E-003  0.9118800E+02  0.7818608E-02  0.1130116E+00
         25   -1    0    0    0    0  0.00000000000E+00  0.00000000000E+00  0.99999998245E-14  0.12500000000E+03  0.12500000000E+03 0.  0.
        -13    1    3    3    0    0  0.13033200320E+01 -0.79110950977E-01  0.52548472153E+02  0.52564798024E+02  0.10566000000E+00 0. -1.
         23    2    1    0    0    0 -0.22503835366E+02 -0.79975053039E+01  0.18866755577E+02  0.94564212458E+02  0.89532413765E+02 0.  0.
         13    1    3    3    0    0 -0.23807155398E+02 -0.79183943529E+01 -0.33681716576E+02  0.41999414434E+02  0.10566000000E+00 0.  1.
         22    1    1    0    0    0  0.22503835366E+02  0.79975053039E+01 -0.18866755577E+02  0.30435787542E+02  0.00000000000E+00 0. -1.
</event>
<event>
 5    1  0.1758480E-003  0.9118800E+02  0.7818608E-02  0.1130116E+00
         25   -1    0    0    0    0  0.00000000000E+00  0.00000000000E+00  0.99999998245E-14  0.12500000000E+03  0.12500000000E+03 0.  0.
        -13    1    3    3    0    0 -0.13895157764E+02 -0.20571111631E+02 -0.25059434713E+02  0.35273679638E+02  0.10566000000E+00 0. -1.
         23    2    1    0    0    0 -0.52488838197E+01  0.25953569559E+02  0.12528285400E+02  0.95706715970E+02  0.91113549994E+02 0.  0.
         13    1    3    3    0    0  0.86462739441E+01  0.46524681190E+02  0.37587720113E+02  0.60433036332E+02  0.10566000000E+00 0.  1.
         22    1    1    0    0    0  0.52488838197E+01 -0.25953569559E+02 -0.12528285400E+02  0.29293284030E+02  0.00000000000E+00 0.  1.
</event>
<event>
 5    1  0.1758480E-003  0.9118800E+02  0.7818608E-02  0.1130116E+00
         25   -1    0    0    0    0  0.00000000000E+00  0.00000000000E+00  0.99999998245E-14  0.12500000000E+03  0.12500000000E+03 0.  0.
        -13    1    3    3    0    0 -0.15807084132E+02  0.13206111712E+02 -0.16247292409E+02  0.26234537731E+02  0.10566000000E+00 0. -1.
         23    2    1    0    0    0  0.27015504763E+02 -0.20556899605E+02  0.13634485268E+02  0.88416905441E+02  0.80493641739E+02 0.  0.
         13    1    3    3    0    0  0.42822588895E+02 -0.33763011317E+02  0.29881777677E+02  0.62182367710E+02  0.10566000000E+00 0.  1.
         22    1    1    0    0    0 -0.27015504763E+02  0.20556899605E+02 -0.13634485268E+02  0.36583094559E+02  0.00000000000E+00 0.  1.
</event>
<event>
 5    1  0.1758480E-003  0.9118800E+02  0.7818608E-02  0.1130116E+00
         25   -1    0    0    0    0  0.00000000000E+00  0.00000000000E+00  0.99999998245E-14  0.12500000000E+03  0.12500000000E+03 0.  0.
        -13    1    3    3    0    0  0.23912841142E+02 -0.36286956163E+02 -0.27890678174E+01  0.43547183862E+02  0.10566000000E+00 0. -1.
         23    2    1    0    0    0 -0.20273762863E+01  0.45976454529E+01  0.25084886317E+02  0.99416800047E+02  0.96068725461E+02 0.  0.
         13    1    3    3    0    0 -0.25940217428E+02  0.40884601615E+02  0.27873954134E+02  0.55869616184E+02  0.10566000000E+00 0.  1.
         22    1    1    0    0    0  0.20273762863E+01 -0.45976454529E+01 -0.25084886317E+02  0.25583199953E+02  0.00000000000E+00 0.  1.
</event>
<event>
 5    1  0.1758480E-003  0.9118800E+02  0.7818608E-02  0.1130116E+00
         25   -1    0    0    0    0  0.00000000000E+00  0.00000000000E+00  0.99999998245E-14  0.12500000000E+03  0.12500000000E+03 0.  0.
        -13    1    3    3    0    0  0.54298012177E+02 -0.32516119816E+01 -0.28611691433E+02  0.61461265505E+02  0.10566000000E+00 0.  1.
         23    2    1    0    0    0  0.23948256392E+02 -0.94519178824E+01 -0.12412346087E+02  0.96418116380E+02  0.92084358579E+02 0.  0.
         13    1    3    3    0    0 -0.30349755784E+02 -0.62003059008E+01  0.16199345345E+02  0.34956850875E+02  0.10566000000E+00 0. -1.
         22    1    1    0    0    0 -0.23948256392E+02  0.94519178824E+01  0.12412346087E+02  0.28581883620E+02  0.00000000000E+00 0.  1.
</event>
<event>
 5    1  0.1758480E-003  0.9118800E+02  0.7818608E-02  0.1130116E+00
         25   -1    0    0    0    0  0.00000000000E+00  0.00000000000E+00  0.99999998245E-14  0.12500000000E+03  0.12500000000E+03 0.  0.
        -13    1    3    3    0    0 -0.50819457506E+02 -0.88396304705E+01 -0.30965843357E+01  0.51675490580E+02  0.10566000000E+00 0.  1.
         23    2    1    0    0    0 -0.12450394185E+02 -0.68090143787E+01 -0.25255954035E+02  0.96030391677E+02  0.91556528546E+02 0.  0.
         13    1    3    3    0    0  0.38369063322E+02  0.20306160918E+01 -0.22159369699E+02  0.44354901098E+02  0.10566000000E+00 0. -1.
         22    1    1    0    0    0  0.12450394185E+02  0.68090143787E+01  0.25255954035E+02  0.28969608323E+02  0.00000000000E+00 0.  1.
</event>
<event>
 5    1  0.1758480E-003  0.9118800E+02  0.7818608E-02  0.1130116E+00
         25   -1    0    0    0    0  0.00000000000E+00  0.00000000000E+00  0.99999998245E-14  0.12500000000E+03  0.12500000000E+03 0.  0.
        -13    1    3    3    0    0  0.46031031036E+02 -0.31771069647E+02 -0.21622012206E+02  0.59964816857E+02  0.10566000000E+00 0.  1.
         23    2    1    0    0    0  0.11829774163E+02 -0.20586398143E+02 -0.15959559121E+02  0.96391419598E+02  0.92048111874E+02 0.  0.
         13    1    3    3    0    0 -0.34201256873E+02  0.11184671504E+02  0.56624530850E+01  0.36426602742E+02  0.10566000000E+00 0. -1.
         22    1    1    0    0    0 -0.11829774163E+02  0.20586398143E+02  0.15959559121E+02  0.28608580402E+02  0.00000000000E+00 0.  1.
</event>
<event>
 5    1  0.1758480E-003  0.9118800E+02  0.7818608E-02  0.1130116E+00
         25   -1    0    0    0    0  0.00000000000E+00  0.00000000000E+00  0.99999998245E-14  0.12500000000E+03  0.12500000000E+03 0.  0.
        -13    1    3    3    0    0 -0.19592853001E+02  0.22057955827E+02 -0.10775334682E+02  0.31409430201E+02  0.10566000000E+00 0.  1.
         23    2    1    0    0    0  0.99834297960E+01 -0.74501891074E+01 -0.40463408018E+02  0.82662527512E+02  0.70997407545E+02 0.  0.
         13    1    3    3    0    0  0.29576282797E+02 -0.29508144935E+02 -0.29688073336E+02  0.51253097311E+02  0.10566000000E+00 0. -1.
         22    1    1    0    0    0 -0.99834297960E+01  0.74501891074E+01  0.40463408018E+02  0.42337472488E+02  0.00000000000E+00 0. -1.
</event>
<event>
 5    1  0.1758480E-003  0.9118800E+02  0.7818608E-02  0.1130116E+00
         25   -1    0    0    0    0  0.00000000000E+00  0.00000000000E+00  0.99999998245E-14  0.12500000000E+03  0.12500000000E+03 0.  0.
        -13    1    3    3    0    0  0.30910034973E+02  0.26230072330E+02 -0.43760784636E+02  0.59652865753E+02  0.10566000000E+00 0.  1.
         23    2    1    0    0    0  0.11099487287E+02  0.20752457209E+01 -0.28343783533E+02  0.94489750447E+02  0.89428393767E+02 0.  0.
         13    1    3    3    0    0 -0.19810547686E+02 -0.24154826609E+02  0.15417001104E+02  0.34836884695E+02  0.10566000000E+00 0. -1.
         22    1    1    0    0    0 -0.11099487287E+02 -0.20752457209E+01  0.28343783533E+02  0.30510249553E+02  0.00000000000E+00 0.  1.
</event>
<event>
 5    1  0.1758480E-003  0.9118800E+02  0.7818608E-02  0.1130116E+00
         25   -1    0    0    0    0  0.00000000000E+00  0.00000000000E+00  0.99999998245E-14  0.12500000000E+03  0.12500000000E+03 0.  0.
        -13    1    3    3    0    0  0.61827801045E+01  0.39667352515E+02  0.17176273219E+02  0.43666476285E+02  0.10566000000E+00 0. -1.
         23    2    1    0    0    0  0.26257364513E+02 -0.39011449325E+00 -0.10927199789E+02  0.96556985467E+02  0.92272673998E+02 0.  0.
         13    1    3    3    0    0  0.20074584409E+02 -0.40057467009E+02 -0.28103473009E+02  0.52890509182E+02  0.10566000000E+00 0.  1.
         22    1    1    0    0    0 -0.26257364513E+02  0.39011449325E+00  0.10927199789E+02  0.28443014533E+02  0.00000000000E+00 0.  1.
</event>
<event>
 5    1  0.1758480E-003  0.9118800E+02  0.7818608E-02  0.1130116E+00
         25   -1    0    0    0    0  0.00000000000E+00  0.00000000000E+00  0.99999998245E-14  0.12500000000E+03  0.12500000000E+03 0.  0.
        -13    1    3    3    0    0 -0.33973184408E+02 -0.29942869298E+02  0.46856692259E+00  0.45287784221E+02  0.10566000000E+00 0. -1.
         23    2    1    0    0    0 -0.51668689760E+01  0.19429736378E+01 -0.27756694153E+02  0.96699721699E+02  0.92465833824E+02 0.  0.
         13    1    3    3    0    0  0.28806315432E+02  0.31885842935E+02 -0.28225261076E+02  0.51411937479E+02  0.10566000000E+00 0.  1.
         22    1    1    0    0    0  0.51668689760E+01 -0.19429736378E+01  0.27756694153E+02  0.28300278301E+02  0.00000000000E+00 0.  1.
</event>
<event>
 5    1  0.1758480E-003  0.9118800E+02  0.7818608E-02  0.1130116E+00
         25   -1    0    0    0    0  0.00000000000E+00  0.00000000000E+00  0.99999998245E-14  0.12500000000E+03  0.12500000000E+03 0.  0.
        -13    1    3    3    0    0 -0.45165066856E+02 -0.32107690379E+02 -0.53827787602E+01  0.55675600731E+02  0.10566000000E+00 0. -1.
         23    2    1    0    0    0 -0.18399633873E+02 -0.10672280734E+02 -0.22530413052E+02  0.94015106665E+02  0.88762473299E+02 0.  0.
         13    1    3    3    0    0  0.26765432983E+02  0.21435409645E+02 -0.17147634291E+02  0.38339505934E+02  0.10566000000E+00 0.  1.
         22    1    1    0    0    0  0.18399633873E+02  0.10672280734E+02  0.22530413052E+02  0.30984893335E+02  0.00000000000E+00 0. -1.
</event>
<event>
 5    1  0.1758480E-003  0.9118800E+02  0.7818608E-02  0.1130116E+00
         25   -1    0    0    0    0  0.00000000000E+00  0.00000000000E+00  0.99999998245E-14  0.12500000000E+03  0.12500000000E+03 0.  0.
        -13    1    3    3    0    0  0.17674012135E+01  0.11464824620E+02 -0.18642161364E+02  0.21956940929E+02  0.10566000000E+00 0. -1.
         23    2    1    0    0    0 -0.15000193073E+02 -0.32241673521E+02  0.21346980168E+02  0.83524406382E+02  0.72498976514E+02 0.  0.
         13    1    3    3    0    0 -0.16767594287E+02 -0.43706498141E+02  0.39989141531E+02  0.61567465453E+02  0.10566000000E+00 0.  1.
         22    1    1    0    0    0  0.15000193073E+02  0.32241673521E+02 -0.21346980168E+02  0.41475593618E+02  0.00000000000E+00 0.  1.
</event>
<event>
 5    1  0.1758480E-003  0.9118800E+02  0.7818608E-02  0.1130116E+00
         25   -1    0    0    0    0  0.00000000000E+00  0.00000000000E+00  0.99999998245E-14  0.12500000000E+03  0.12500000000E+03 0.  0.
        -13    1    3    3    0    0  0.43373606063E+02 -0.35699199460E+02  0.25016527851E+02  0.61494230418E+02  0.10566000000E+00 0.  1.
         23    2    1    0    0    0  0.19034208929E+02 -0.22133959172E+02  0.60897277490E+01  0.95178899379E+02  0.90386530218E+02 0.  0.
         13    1    3    3    0    0 -0.24339397134E+02  0.13565240288E+02 -0.18926800102E+02  0.33684668961E+02  0.10566000000E+00 0. -1.
         22    1    1    0    0    0 -0.19034208929E+02  0.22133959172E+02 -0.60897277490E+01  0.29821100621E+02  0.00000000000E+00 0.  1.
</event>
<event>
 5    1  0.1758480E-003  0.9118800E+02  0.7818608E-02  0.1130116E+00
         25   -1    0    0    0    0  0.00000000000E+00  0.00000000000E+00  0.99999998245E-14  0.12500000000E+03  0.12500000000E+03 0.  0.
        -13    1    3    3    0    0 -0.35398166660E+02 -0.21762436260E+02 -0.33312413807E+02  0.53257505692E+02  0.10566000000E+00 0.  1.
         23    2    1    0    0    0  0.50683809987E+01 -0.19309397179E+02 -0.21883354774E+02  0.95378681300E+02  0.90662397526E+02 0.  0.
         13    1    3    3    0    0  0.40466547659E+02  0.24530390810E+01  0.11429059034E+02  0.42121175608E+02  0.10566000000E+00 0. -1.
         22    1    1    0    0    0 -0.50683809987E+01  0.19309397179E+02  0.21883354774E+02  0.29621318700E+02  0.00000000000E+00 0. -1.
</event>
<event>
 5    1  0.1758480E-003  0.9118800E+02  0.7818608E-02  0.1130116E+00
         25   -1    0    0    0    0  0.00000000000E+00  0.00000000000E+00  0.99999998245E-14  0.12500000000E+03  0.12500000000E+03 0.  0.
        -13    1    3    3    0    0 -0.13692396987E+02  0.28329105371E+02  0.18224894403E+02  0.36361764072E+02  0.10566000000E+00 0.  1.
         23    2    1    0    0    0  0.36992316480E+01 -0.48629529726E+01 -0.28269863083E+02  0.96077382810E+02  0.91620661985E+02 0.  0.
         13    1    3    3    0    0  0.17391628635E+02 -0.33192058344E+02 -0.46494757485E+02  0.59715618739E+02  0.10566000000E+00 0. -1.
         22    1    1    0    0    0 -0.36992316480E+01  0.48629529726E+01  0.28269863083E+02  0.28922617190E+02  0.00000000000E+00 0. -1.
</event>
<event>
 5    1  0.1758480E-003  0.9118800E+02  0.7818608E-02  0.1130116E+00
         25   -1    0    0    0    0  0.00000000000E+00  0.00000000000E+00  0.99999998245E-14  0.12500000000E+03  0.12500000000E+03 0.  0.
        -13    1    3    3    0    0 -0.31216585706E+01 -0.40446050013E+02 -0.45684276585E+02  0.61095760942E+02  0.10566000000E+00 0.  1.
         23    2    1    0    0    0 -0.14579408587E+01 -0.11536044296E+02 -0.27117191412E+02  0.95494949930E+02  0.90822560427E+02 0.  0.
         13    1    3    3    0    0  0.16637177119E+01  0.28910005717E+02  0.18567085173E+02  0.34399188989E+02  0.10566000000E+00 0. -1.
         22    1    1    0    0    0  0.14579408587E+01  0.11536044296E+02  0.27117191412E+02  0.29505050070E+02  0.00000000000E+00 0.  1.
</event>
<event>
 5    1  0.1758480E-003  0.9118800E+02  0.7818608E-02  0.1130116E+00
         25   -1    0    0    0    0  0.00000000000E+00  0.00000000000E+00  0.99999998245E-14  0.12500000000E+03  0.12500000000E+03 0.  0.
        -13    1    3    3    0    0 -0.27529279581E+02 -0.13443433811E+02  0.22146283459E+02  0.37802859442E+02  0.10566000000E+00 0. -1.
         23    2    1    0    0    0  0.68204740724E+01  0.27111198130E+02 -0.35209015870E+01  0.96823188991E+02  0.92632592794E+02 0.  0.
         13    1    3    3    0    0  0.34349753654E+02  0.40554631941E+02 -0.25667185046E+02  0.59020329550E+02  0.10566000000E+00 0.  1.
         22    1    1    0    0    0 -0.68204740724E+01 -0.27111198130E+02  0.35209015870E+01  0.28176811009E+02  0.00000000000E+00 0.  1.
</event>
<event>
 5    1  0.1758480E-003  0.9118800E+02  0.7818608E-02  0.1130116E+00
         25   -1    0    0    0    0  0.00000000000E+00  0.00000000000E+00  0.99999998245E-14  0.12500000000E+03  0.12500000000E+03 0.  0.
        -13    1    3    3    0    0 -0.49129536237E+02  0.19813981576E+01  0.37895854001E+02  0.62078532393E+02  0.10566000000E+00 0. -1.
         23    2    1    0    0    0 -0.21050979337E+02 -0.10031624768E+01  0.22221167872E+02  0.94374351148E+02  0.89266946777E+02 0.  0.
         13    1    3    3    0    0  0.28078556900E+02 -0.29845606344E+01 -0.15674686129E+02  0.32295818755E+02  0.10566000000E+00 0.  1.
         22    1    1    0    0    0  0.21050979337E+02  0.10031624768E+01 -0.22221167872E+02  0.30625648852E+02  0.00000000000E+00 0. -1.
</event>
<event>
 5    1  0.1758480E-003  0.9118800E+02  0.7818608E-02  0.1130116E+00
         25   -1    0    0    0    0  0.00000000000E+00  0.00000000000E+00  0.99999998245E-14  0.12500000000E+03  0.12500000000E+03 0.  0.
        -13    1    3    3    0    0  0.43315313162E+02 -0.22969050164E+02 -0.25510491359E+02  0.55268344947E+02  0.10566000000E+00 0.  1.
         23    2    1    0    0    0  0.21306840596E+02 -0.18516833316E+02  0.80482357709E+01  0.95646487923E+02  0.91030884763E+02 0.  0.
         13    1    3    3    0    0 -0.22008472567E+02  0.44522168485E+01  0.33558727130E+02  0.40378142976E+02  0.10566000000E+00 0. -1.
         22    1    1    0    0    0 -0.21306840596E+02  0.18516833316E+02 -0.80482357709E+01  0.29353512077E+02  0.00000000000E+00 0.  1.
</event>
<event>
 5    1  0.1758480E-003  0.9118800E+02  0.7818608E-02  0.1130116E+00
         25   -1    0    0    0    0  0.00000000000E+00  0.00000000000E+00  0.99999998245E-14  0.12500000000E+03  0.12500000000E+03 0.  0.
        -13    1    3    3    0    0  0.55482991004E+00 -0.16066192951E+02  0.37227498898E+02  0.40550317267E+02  0.10566000000E+00 0.  1.
         23    2    1    0    0    0  0.28233591329E+02  0.67645219699E+01 -0.45417568839E+01  0.95614255286E+02  0.90986613419E+02 0.  0.
         13    1    3    3    0    0  0.27678761419E+02  0.22830714921E+02 -0.41769255782E+02  0.55063938019E+02  0.10566000000E+00 0. -1.
         22    1    1    0    0    0 -0.28233591329E+02 -0.67645219699E+01  0.45417568839E+01  0.29385744714E+02  0.00000000000E+00 0. -1.
</event>
<event>
 5    1  0.1758480E-003  0.9118800E+02  0.7818608E-02  0.1130116E+00
         25   -1    0    0    0    0  0.00000000000E+00  0.00000000000E+00  0.99999998245E-14  0.12500000000E+03  0.12500000000E+03 0.  0.
        -13    1    3    3    0    0 -0.65493057553E+01 -0.18870630508E+02  0.35198954362E+02  0.40471862495E+02  0.10566000000E+00 0. -1.
         23    2    1    0    0    0 -0.25473617655E+02  0.11047341203E+01 -0.13306845028E+02  0.96238954148E+02  0.91840832623E+02 0.  0.
         13    1    3    3    0    0 -0.18924311900E+02  0.19975364628E+02 -0.48505799390E+02  0.55767091653E+02  0.10566000000E+00 0.  1.
         22    1    1    0    0    0  0.25473617655E+02 -0.11047341203E+01  0.13306845028E+02  0.28761045852E+02  0.00000000000E+00 0.  1.
</event>
<event>
 5    1  0.1758480E-003  0.9118800E+02  0.7818608E-02  0.1130116E+00
         25   -1    0    0    0    0  0.00000000000E+00  0.00000000000E+00  0.99999998245E-14  0.12500000000E+03  0.12500000000E+03 0.  0.
        -13    1    3    3    0    0 -0.13342064993E+02  0.19700942860E+02 -0.23976908615E+02  0.33779300742E+02  0.10566000000E+00 0.  1.
         23    2    1    0    0    0 -0.32472590033E+01 -0.17754855454E+02  0.23677922948E+02  0.95227132849E+02  0.90453210072E+02 0.  0.
         13    1    3    3    0    0  0.10094805990E+02 -0.37455798314E+02  0.47654831563E+02  0.61447832107E+02  0.10566000000E+00 0. -1.
         22    1    1    0    0    0  0.32472590033E+01  0.17754855454E+02 -0.23677922948E+02  0.29772867151E+02  0.00000000000E+00 0. -1.
</event>
<event>
 5    1  0.1758480E-003  0.9118800E+02  0.7818608E-02  0.1130116E+00
         25   -1    0    0    0    0  0.00000000000E+00  0.00000000000E+00  0.99999998245E-14  0.12500000000E+03  0.12500000000E+03 0.  0.
        -13    1    3    3    0    0 -0.27324470527E+02 -0.21407526139E+02  0.20632096709E+02  0.40380731093E+02  0.10566000000E+00 0.  1.
         23    2    1    0    0    0  0.24857976170E+02 -0.32328558291E+01  0.14662714039E+02  0.95959243827E+02  0.91459340457E+02 0.  0.
         13    1    3    3    0    0  0.52182446697E+02  0.18174670310E+02 -0.59693826693E+01  0.55578512734E+02  0.10566000000E+00 0. -1.
         22    1    1    0    0    0 -0.24857976170E+02  0.32328558291E+01 -0.14662714039E+02  0.29040756173E+02  0.00000000000E+00 0. -1.
</event>
<event>
 5    1  0.1758480E-003  0.9118800E+02  0.7818608E-02  0.1130116E+00
         25   -1    0    0    0    0  0.00000000000E+00  0.00000000000E+00  0.99999998245E-14  0.12500000000E+03  0.12500000000E+03 0.  0.
        -13    1    3    3    0    0 -0.28008608594E+02 -0.41201815458E+02 -0.10997849641E+02  0.51019953089E+02  0.10566000000E+00 0. -1.
         23    2    1    0    0    0 -0.24092450592E+02  0.66544765661E+01 -0.15467451840E+01  0.99957622826E+02  0.96769859494E+02 0.  0.
         13    1    3    3    0    0  0.39161580022E+01  0.47856292024E+02  0.94511044567E+01  0.48937669737E+02  0.10566000000E+00 0.  1.
         22    1    1    0    0    0  0.24092450592E+02 -0.66544765661E+01  0.15467451840E+01  0.25042377174E+02  0.00000000000E+00 0. -1.
</event>
<event>
 5    1  0.1758480E-003  0.9118800E+02  0.7818608E-02  0.1130116E+00
         25   -1    0    0    0    0  0.00000000000E+00  0.00000000000E+00  0.99999998245E-14  0.12500000000E+03  0.12500000000E+03 0.  0.
        -13    1    3    3    0    0 -0.21262587530E+02 -0.28672955506E+02  0.11493503598E+02  0.37501303910E+02  0.10566000000E+00 0.  1.
         23    2    1    0    0    0  0.17147818087E+02  0.11279593437E+02  0.23072023193E+02  0.94119664065E+02  0.88909594625E+02 0.  0.
         13    1    3    3    0    0  0.38410405617E+02  0.39952548943E+02  0.11578519594E+02  0.56618360156E+02  0.10566000000E+00 0. -1.
         22    1    1    0    0    0 -0.17147818087E+02 -0.11279593437E+02 -0.23072023193E+02  0.30880335935E+02  0.00000000000E+00 0. -1.
</event>
<event>
 5    1  0.1758480E-003  0.9118800E+02  0.7818608E-02  0.1130116E+00
         25   -1    0    0    0    0  0.00000000000E+00  0.00000000000E+00  0.99999998245E-14  0.12500000000E+03  0.12500000000E+03 0.  0.
        -13    1    3    3    0    0  0.90955061437E+01 -0.32546109743E+02  0.16824871071E+02  0.37750032344E+02  0.10566000000E+00 0. -1.
         23    2    1    0    0    0  0.82062940980E+01  0.24309782259E+02 -0.53620457999E+01  0.98788164669E+02  0.95247263305E+02 0.  0.
         13    1    3    3    0    0 -0.88921204567E+00  0.56855892002E+02 -0.22186916871E+02  0.61038132324E+02  0.10566000000E+00 0.  1.
         22    1    1    0    0    0 -0.82062940980E+01 -0.24309782259E+02  0.53620457999E+01  0.26211835331E+02  0.00000000000E+00 0.  1.
</event>
<event>
 5    1  0.1758480E-003  0.9118800E+02  0.7818608E-02  0.1130116E+00
         25   -1    0    0    0    0  0.00000000000E+00  0.00000000000E+00  0.99999998245E-14  0.12500000000E+03  0.12500000000E+03 0.  0.
        -13    1    3    3    0    0  0.42185841309E+02  0.38332590772E+02 -0.60337070680E+01  0.57318840770E+02  0.10566000000E+00 0.  1.
         23    2    1    0    0    0  0.29462388733E+01  0.14789117181E+02 -0.14753973231E+02  0.10390312733E+03  0.10173879217E+03 0.  0.
         13    1    3    3    0    0 -0.39239602435E+02 -0.23543473591E+02 -0.87202661629E+01  0.46584286557E+02  0.10566000000E+00 0. -1.
         22    1    1    0    0    0 -0.29462388733E+01 -0.14789117181E+02  0.14753973231E+02  0.21096872673E+02  0.00000000000E+00 0.  1.
</event>
<event>
 5    1  0.1758480E-003  0.9118800E+02  0.7818608E-02  0.1130116E+00
         25   -1    0    0    0    0  0.00000000000E+00  0.00000000000E+00  0.99999998245E-14  0.12500000000E+03  0.12500000000E+03 0.  0.
        -13    1    3    3    0    0  0.21822844598E+01 -0.34729060257E+02 -0.35430656013E+02  0.49660976041E+02  0.10566000000E+00 0.  1.
         23    2    1    0    0    0 -0.19429424800E+02 -0.21620786759E+02  0.31258417031E+01  0.95764202517E+02  0.91192382517E+02 0.  0.
         13    1    3    3    0    0 -0.21611709260E+02  0.13108273498E+02  0.38556497716E+02  0.46103226475E+02  0.10566000000E+00 0. -1.
         22    1    1    0    0    0  0.19429424800E+02  0.21620786759E+02 -0.31258417031E+01  0.29235797483E+02  0.00000000000E+00 0.  1.
</event>
<event>
 5    1  0.1758480E-003  0.9118800E+02  0.7818608E-02  0.1130116E+00
         25   -1    0    0    0    0  0.00000000000E+00  0.00000000000E+00  0.99999998245E-14  0.12500000000E+03  0.12500000000E+03 0.  0.
        -13    1    3    3    0    0  0.23351948122E+02 -0.23338770239E+02  0.92361123395E+01  0.34283065973E+02  0.10566000000E+00 0. -1.
         23    2    1    0    0    0 -0.49282750296E+01  0.29645195871E+02  0.54193866551E+01  0.94463214238E+02  0.89391294651E+02 0.  0.
         13    1    3    3    0    0 -0.28280223151E+02  0.52983966109E+02 -0.38167256844E+01  0.60180148265E+02  0.10566000000E+00 0.  1.
         22    1    1    0    0    0  0.49282750296E+01 -0.29645195871E+02 -0.54193866551E+01  0.30536785762E+02  0.00000000000E+00 0.  1.
</event>
<event>
 5    1  0.1758480E-003  0.9118800E+02  0.7818608E-02  0.1130116E+00
         25   -1    0    0    0    0  0.00000000000E+00  0.00000000000E+00  0.99999998245E-14  0.12500000000E+03  0.12500000000E+03 0.  0.
        -13    1    3    3    0    0  0.28998239805E+02 -0.20385197692E+02  0.91224776422E+01  0.36601707052E+02  0.10566000000E+00 0.  1.
         23    2    1    0    0    0 -0.27042128673E+02 -0.73628292593E+01 -0.65223746363E+01  0.96224500895E+02  0.91821158911E+02 0.  0.
         13    1    3    3    0    0 -0.56040368478E+02  0.13022368433E+02 -0.15644852278E+02  0.59622793843E+02  0.10566000000E+00 0. -1.
         22    1    1    0    0    0  0.27042128673E+02  0.73628292593E+01  0.65223746363E+01  0.28775499105E+02  0.00000000000E+00 0. -1.
</event>
<event>
 5    1  0.1758480E-003  0.9118800E+02  0.7818608E-02  0.1130116E+00
         25   -1    0    0    0    0  0.00000000000E+00  0.00000000000E+00  0.99999998245E-14  0.12500000000E+03  0.12500000000E+03 0.  0.
        -13    1    3    3    0    0 -0.52283665730E+02 -0.69743767463E+01  0.29584815338E+02  0.60477236178E+02  0.10566000000E+00 0. -1.
         23    2    1    0    0    0 -0.29536226536E+02 -0.37736306489E+01  0.38460229921E+01  0.94976328353E+02  0.90105949240E+02 0.  0.
         13    1    3    3    0    0  0.22747439194E+02  0.32007460973E+01 -0.25738792345E+02  0.34499092175E+02  0.10566000000E+00 0.  1.
         22    1    1    0    0    0  0.29536226536E+02  0.37736306489E+01 -0.38460229921E+01  0.30023671647E+02  0.00000000000E+00 0. -1.
</event>
<event>
 5    1  0.1758480E-003  0.9118800E+02  0.7818608E-02  0.1130116E+00
         25   -1    0    0    0    0  0.00000000000E+00  0.00000000000E+00  0.99999998245E-14  0.12500000000E+03  0.12500000000E+03 0.  0.
        -13    1    3    3    0    0 -0.14957824141E+02 -0.18089319827E+02 -0.10795653314E+01  0.23497587539E+02  0.10566000000E+00 0. -1.
         23    2    1    0    0    0  0.66692297351E+01  0.28612801665E+00 -0.47026333676E+02  0.77502246858E+02  0.61241829778E+02 0.  0.
         13    1    3    3    0    0  0.21627053876E+02  0.18375447843E+02 -0.45946768345E+02  0.54004659319E+02  0.10566000000E+00 0.  1.
         22    1    1    0    0    0 -0.66692297351E+01 -0.28612801665E+00  0.47026333676E+02  0.47497753142E+02  0.00000000000E+00 0.  1.
</event>
<event>
 5    1  0.1758480E-003  0.9118800E+02  0.7818608E-02  0.1130116E+00
         25   -1    0    0    0    0  0.00000000000E+00  0.00000000000E+00  0.99999998245E-14  0.12500000000E+03  0.12500000000E+03 0.  0.
        -13    1    3    3    0    0  0.45095000617E+02  0.41335156043E+02  0.34648063482E+01  0.61271284080E+02  0.10566000000E+00 0. -1.
         23    2    1    0    0    0  0.20851271515E+02  0.28091411594E+02  0.75865272468E+01  0.89202537453E+02  0.81704555340E+02 0.  0.
         13    1    3    3    0    0 -0.24243729102E+02 -0.13243744448E+02  0.41217208986E+01  0.27931253373E+02  0.10566000000E+00 0.  1.
         22    1    1    0    0    0 -0.20851271515E+02 -0.28091411594E+02 -0.75865272468E+01  0.35797462547E+02  0.00000000000E+00 0. -1.
</event>
<event>
 5    1  0.1758480E-003  0.9118800E+02  0.7818608E-02  0.1130116E+00
         25   -1    0    0    0    0  0.00000000000E+00  0.00000000000E+00  0.99999998245E-14  0.12500000000E+03  0.12500000000E+03 0.  0.
        -13    1    3    3    0    0 -0.16408278371E+02  0.36022018703E+02  0.22165505540E+02  0.45366708393E+02  0.10566000000E+00 0.  1.
         23    2    1    0    0    0 -0.81376643419E+01 -0.17334745332E+01 -0.20463876808E+02  0.10290935110E+03  0.10051038640E+03 0.  0.
         13    1    3    3    0    0  0.82706140292E+01 -0.37755493236E+02 -0.42629382349E+02  0.57542642704E+02  0.10566000000E+00 0. -1.
         22    1    1    0    0    0  0.81376643419E+01  0.17334745332E+01  0.20463876808E+02  0.22090648902E+02  0.00000000000E+00 0. -1.
</event>
<event>
 5    1  0.1758480E-003  0.9118800E+02  0.7818608E-02  0.1130116E+00
         25   -1    0    0    0    0  0.00000000000E+00  0.00000000000E+00  0.99999998245E-14  0.12500000000E+03  0.12500000000E+03 0.  0.
        -13    1    3    3    0    0 -0.85772076271E+01 -0.29369430965E+02 -0.19003335023E+02  0.36017632792E+02  0.10566000000E+00 0.  1.
         23    2    1    0    0    0 -0.14968744298E+02  0.14598530426E+02  0.20681646491E+02  0.95590632478E+02  0.90954153943E+02 0.  0.
         13    1    3    3    0    0 -0.63915366712E+01  0.43967961391E+02  0.39684981514E+02  0.59572999687E+02  0.10566000000E+00 0. -1.
         22    1    1    0    0    0  0.14968744298E+02 -0.14598530426E+02 -0.20681646491E+02  0.29409367522E+02  0.00000000000E+00 0. -1.
</event>
<event>
 5    1  0.1758480E-003  0.9118800E+02  0.7818608E-02  0.1130116E+00
         25   -1    0    0    0    0  0.00000000000E+00  0.00000000000E+00  0.99999998245E-14  0.12500000000E+03  0.12500000000E+03 0.  0.
        -13    1    3    3    0    0 -0.14300428611E+02 -0.31227626506E+02 -0.16067432943E+02  0.37918867086E+02  0.10566000000E+00 0. -1.
         23    2    1    0    0    0  0.25294388228E+02  0.10762660863E+02 -0.90572574267E+01  0.96057386835E+02  0.91593376992E+02 0.  0.
         13    1    3    3    0    0  0.39594816839E+02  0.41990287369E+02  0.70101755159E+01  0.58138519750E+02  0.10566000000E+00 0.  1.
         22    1    1    0    0    0 -0.25294388228E+02 -0.10762660863E+02  0.90572574267E+01  0.28942613165E+02  0.00000000000E+00 0.  1.
</event>
<event>
 5    1  0.1758480E-003  0.9118800E+02  0.7818608E-02  0.1130116E+00
         25   -1    0    0    0    0  0.00000000000E+00  0.00000000000E+00  0.99999998245E-14  0.12500000000E+03  0.12500000000E+03 0.  0.
        -13    1    3    3    0    0 -0.16306015984E+02 -0.38117743446E+02  0.10310208849E+02  0.42721892435E+02  0.10566000000E+00 0.  1.
         23    2    1    0    0    0 -0.23794042418E+02  0.14717153345E+02  0.27104024434E+00  0.97020998589E+02  0.92899136956E+02 0.  0.
         13    1    3    3    0    0 -0.74880264337E+01  0.52834896791E+02 -0.10039168604E+02  0.54299106154E+02  0.10566000000E+00 0. -1.
         22    1    1    0    0    0  0.23794042418E+02 -0.14717153345E+02 -0.27104024434E+00  0.27979001411E+02  0.00000000000E+00 0. -1.
</event>
<event>
 5    1  0.1758480E-003  0.9118800E+02  0.7818608E-02  0.1130116E+00
         25   -1    0    0    0    0  0.00000000000E+00  0.00000000000E+00  0.99999998245E-14  0.12500000000E+03  0.12500000000E+03 0.  0.
        -13    1    3    3    0    0  0.25071542365E+02  0.52523788644E+02  0.10586646087E+02  0.59155886009E+02  0.10566000000E+00 0. -1.
         23    2    1    0    0    0 -0.63177653857E+00  0.26828715291E+02  0.12166949849E+02  0.95534532510E+02  0.90877022000E+02 0.  0.
         13    1    3    3    0    0 -0.25703318904E+02 -0.25695073353E+02  0.15803037621E+01  0.36378646502E+02  0.10566000000E+00 0.  1.
         22    1    1    0    0    0  0.63177653857E+00 -0.26828715291E+02 -0.12166949849E+02  0.29465467490E+02  0.00000000000E+00 0. -1.
</event>
<event>
 5    1  0.1758480E-003  0.9118800E+02  0.7818608E-02  0.1130116E+00
         25   -1    0    0    0    0  0.00000000000E+00  0.00000000000E+00  0.99999998245E-14  0.12500000000E+03  0.12500000000E+03 0.  0.
        -13    1    3    3    0    0 -0.39168473717E+02 -0.28603179537E+02  0.22959177546E+02  0.53660471584E+02  0.10566000000E+00 0.  1.
         23    2    1    0    0    0 -0.19403784063E+02 -0.18714753095E+02 -0.12374996343E+02  0.95337071051E+02  0.90605009589E+02 0.  0.
         13    1    3    3    0    0  0.19764689654E+02  0.98884264418E+01 -0.35334173890E+02  0.41676599467E+02  0.10566000000E+00 0. -1.
         22    1    1    0    0    0  0.19403784063E+02  0.18714753095E+02  0.12374996343E+02  0.29662928949E+02  0.00000000000E+00 0.  1.
</event>
<event>
 5    1  0.1758480E-003  0.9118800E+02  0.7818608E-02  0.1130116E+00
         25   -1    0    0    0    0  0.00000000000E+00  0.00000000000E+00  0.99999998245E-14  0.12500000000E+03  0.12500000000E+03 0.  0.
        -13    1    3    3    0    0 -0.31881758500E+02  0.25358742271E+01  0.14572001727E+02  0.35145861514E+02  0.10566000000E+00 0. -1.
         23    2    1    0    0    0  0.91729894997E+01 -0.11997748125E+02 -0.26170876868E+02  0.94784035801E+02  0.89838794238E+02 0.  0.
         13    1    3    3    0    0  0.41054748000E+02 -0.14533622352E+02 -0.40742878596E+02  0.59638174287E+02  0.10566000000E+00 0.  1.
         22    1    1    0    0    0 -0.91729894997E+01  0.11997748125E+02  0.26170876868E+02  0.30215964199E+02  0.00000000000E+00 0.  1.
</event>
<event>
 5    1  0.1758480E-003  0.9118800E+02  0.7818608E-02  0.1130116E+00
         25   -1    0    0    0    0  0.00000000000E+00  0.00000000000E+00  0.99999998245E-14  0.12500000000E+03  0.12500000000E+03 0.  0.
        -13    1    3    3    0    0  0.27720679837E+02  0.70992684007E+01  0.49850749640E+02  0.57479945252E+02  0.10566000000E+00 0. -1.
         23    2    1    0    0    0  0.13463301063E+02 -0.14418228656E+02  0.21463147262E+02  0.95848456586E+02  0.91307798935E+02 0.  0.
         13    1    3    3    0    0 -0.14257378774E+02 -0.21517497056E+02 -0.28387602379E+02  0.38368511333E+02  0.10566000000E+00 0.  1.
         22    1    1    0    0    0 -0.13463301063E+02  0.14418228656E+02 -0.21463147262E+02  0.29151543414E+02  0.00000000000E+00 0. -1.
</event>
<event>
 5    1  0.1758480E-003  0.9118800E+02  0.7818608E-02  0.1130116E+00
         25   -1    0    0    0    0  0.00000000000E+00  0.00000000000E+00  0.99999998245E-14  0.12500000000E+03  0.12500000000E+03 0.  0.
        -13    1    3    3    0    0  0.31927029482E+02  0.95871235433E+00  0.35401240737E+02  0.47681373205E+02  0.10566000000E+00 0.  1.
         23    2    1    0    0    0 -0.85881978619E+01  0.18741500260E+02  0.23977499623E+02  0.93378465207E+02  0.87861347029E+02 0.  0.
         13    1    3    3    0    0 -0.40515227343E+02  0.17782787905E+02 -0.11423741114E+02  0.45697092002E+02  0.10566000000E+00 0. -1.
         22    1    1    0    0    0  0.85881978619E+01 -0.18741500260E+02 -0.23977499623E+02  0.31621534793E+02  0.00000000000E+00 0. -1.
</event>
<event>
 5    1  0.1758480E-003  0.9118800E+02  0.7818608E-02  0.1130116E+00
         25   -1    0    0    0    0  0.00000000000E+00  0.00000000000E+00  0.99999998245E-14  0.12500000000E+03  0.12500000000E+03 0.  0.
        -13    1    3    3    0    0 -0.47810231601E+02  0.34955983018E+02  0.18996210694E+02  0.62198120383E+02  0.10566000000E+00 0.  1.
         23    2    1    0    0    0 -0.18624405655E+02  0.18115976200E+02  0.10706255637E+02  0.96898736872E+02  0.92734482356E+02 0.  0.
         13    1    3    3    0    0  0.29185825946E+02 -0.16840006818E+02 -0.82899550576E+01  0.34700616488E+02  0.10566000000E+00 0. -1.
         22    1    1    0    0    0  0.18624405655E+02 -0.18115976200E+02 -0.10706255637E+02  0.28101263128E+02  0.00000000000E+00 0.  1.
</event>
<event>
 5    1  0.1758480E-003  0.9118800E+02  0.7818608E-02  0.1130116E+00
         25   -1    0    0    0    0  0.00000000000E+00  0.00000000000E+00  0.99999998245E-14  0.12500000000E+03  0.12500000000E+03 0.  0.
        -13    1    3    3    0    0 -0.21597408051E+02  0.17914883439E+02 -0.33358313569E+02  0.43591046459E+02  0.10566000000E+00 0.  1.
         23    2    1    0    0    0  0.23088741277E+02 -0.18526773837E+01 -0.20377921756E+02  0.94149034337E+02  0.88950877366E+02 0.  0.
         13    1    3    3    0    0  0.44686149328E+02 -0.19767560822E+02  0.12980391813E+02  0.50557987878E+02  0.10566000000E+00 0. -1.
         22    1    1    0    0    0 -0.23088741277E+02  0.18526773837E+01  0.20377921756E+02  0.30850965663E+02  0.00000000000E+00 0.  1.
</event>
<event>
 5    1  0.1758480E-003  0.9118800E+02  0.7818608E-02  0.1130116E+00
         25   -1    0    0    0    0  0.00000000000E+00  0.00000000000E+00  0.99999998245E-14  0.12500000000E+03  0.12500000000E+03 0.  0.
        -13    1    3    3    0    0 -0.29235416056E+02 -0.13577922118E+02 -0.40111114751E+02  0.51458548480E+02  0.10566000000E+00 0.  1.
         23    2    1    0    0    0 -0.31067487436E+01  0.17855801262E+02 -0.22864720946E+02  0.95823348540E+02  0.91273419653E+02 0.  0.
         13    1    3    3    0    0  0.26128667313E+02  0.31433723380E+02  0.17246393805E+02  0.44364800060E+02  0.10566000000E+00 0. -1.
         22    1    1    0    0    0  0.31067487436E+01 -0.17855801262E+02  0.22864720946E+02  0.29176651460E+02  0.00000000000E+00 0.  1.
</event>
<event>
 5    1  0.1758480E-003  0.9118800E+02  0.7818608E-02  0.1130116E+00
         25   -1    0    0    0    0  0.00000000000E+00  0.00000000000E+00  0.99999998245E-14  0.12500000000E+03  0.12500000000E+03 0.  0.
        -13    1    3    3    0    0 -0.20489941806E+02  0.41274869375E+02 -0.32257013109E+02  0.56249254359E+02  0.10566000000E+00 0. -1.
         23    2    1    0    0    0 -0.20024767464E+02  0.22322295611E+01 -0.18496693064E+02  0.97648550036E+02  0.93739732820E+02 0.  0.
         13    1    3    3    0    0  0.46517434152E+00 -0.39042639814E+02  0.13760320045E+02  0.41399295678E+02  0.10566000000E+00 0.  1.
         22    1    1    0    0    0  0.20024767464E+02 -0.22322295611E+01  0.18496693064E+02  0.27351449964E+02  0.00000000000E+00 0. -1.
</event>
<event>
 5    1  0.1758480E-003  0.9118800E+02  0.7818608E-02  0.1130116E+00
         25   -1    0    0    0    0  0.00000000000E+00  0.00000000000E+00  0.99999998245E-14  0.12500000000E+03  0.12500000000E+03 0.  0.
        -13    1    3    3    0    0 -0.26370616357E+02 -0.31732892515E+02 -0.25190376605E+02  0.48342032559E+02  0.10566000000E+00 0.  1.
         23    2    1    0    0    0  0.17420243859E+02 -0.20980760619E+02 -0.10717891061E+02  0.95699310570E+02  0.91103389852E+02 0.  0.
         13    1    3    3    0    0  0.43790860216E+02  0.10752131896E+02  0.14472485544E+02  0.47357278011E+02  0.10566000000E+00 0. -1.
         22    1    1    0    0    0 -0.17420243859E+02  0.20980760619E+02  0.10717891061E+02  0.29300689430E+02  0.00000000000E+00 0. -1.
</event>
<event>
 5    1  0.1758480E-003  0.9118800E+02  0.7818608E-02  0.1130116E+00
         25   -1    0    0    0    0  0.00000000000E+00  0.00000000000E+00  0.99999998245E-14  0.12500000000E+03  0.12500000000E+03 0.  0.
        -13    1    3    3    0    0 -0.34753181574E+02  0.43074840421E+01 -0.40857970864E+02  0.53811922429E+02  0.10566000000E+00 0. -1.
         23    2    1    0    0    0 -0.31926032338E+02 -0.10859031374E+02 -0.76615065086E+01  0.90418375035E+02  0.83543963030E+02 0.  0.
         13    1    3    3    0    0  0.28271492359E+01 -0.15166515416E+02  0.33196464356E+02  0.36606452606E+02  0.10566000000E+00 0.  1.
         22    1    1    0    0    0  0.31926032338E+02  0.10859031374E+02  0.76615065086E+01  0.34581624965E+02  0.00000000000E+00 0. -1.
</event>
<event>
 5    1  0.1758480E-003  0.9118800E+02  0.7818608E-02  0.1130116E+00
         25   -1    0    0    0    0  0.00000000000E+00  0.00000000000E+00  0.99999998245E-14  0.12500000000E+03  0.12500000000E+03 0.  0.
        -13    1    3    3    0    0 -0.34383194758E+02 -0.32864969787E+01  0.16368625335E+02  0.38222352146E+02  0.10566000000E+00 0.  1.
         23    2    1    0    0    0  0.69368050517E+01  0.21196969681E+02 -0.17212892110E+02  0.96827061872E+02  0.92637818778E+02 0.  0.
         13    1    3    3    0    0  0.41319999810E+02  0.24483466660E+02 -0.33581517445E+02  0.58604709725E+02  0.10566000000E+00 0. -1.
         22    1    1    0    0    0 -0.69368050517E+01 -0.21196969681E+02  0.17212892110E+02  0.28172938128E+02  0.00000000000E+00 0. -1.
</event>
<event>
 5    1  0.1758480E-003  0.9118800E+02  0.7818608E-02  0.1130116E+00
         25   -1    0    0    0    0  0.00000000000E+00  0.00000000000E+00  0.99999998245E-14  0.12500000000E+03  0.12500000000E+03 0.  0.
        -13    1    3    3    0    0  0.50797337646E+02  0.18833695687E+02  0.15096516416E+02  0.56240497660E+02  0.10566000000E+00 0.  1.
         23    2    1    0    0    0  0.12799015332E+02  0.13580390461E+02  0.22975060681E+02  0.95401094415E+02  0.90693294150E+02 0.  0.
         13    1    3    3    0    0 -0.37998322314E+02 -0.52533052255E+01  0.78785442646E+01  0.39160596755E+02  0.10566000000E+00 0. -1.
         22    1    1    0    0    0 -0.12799015332E+02 -0.13580390461E+02 -0.22975060681E+02  0.29598905585E+02  0.00000000000E+00 0.  1.
</event>
<event>
 5    1  0.1758480E-003  0.9118800E+02  0.7818608E-02  0.1130116E+00
         25   -1    0    0    0    0  0.00000000000E+00  0.00000000000E+00  0.99999998245E-14  0.12500000000E+03  0.12500000000E+03 0.  0.
        -13    1    3    3    0    0  0.27467548674E+02  0.16984196224E+02  0.14163167021E+02  0.35263800357E+02  0.10566000000E+00 0.  1.
         23    2    1    0    0    0 -0.23262342948E+02 -0.15750164839E+02  0.68891624902E+01  0.96074840507E+02  0.91617193402E+02 0.  0.
         13    1    3    3    0    0 -0.50729891621E+02 -0.32734361063E+02 -0.72740045312E+01  0.60811040150E+02  0.10566000000E+00 0. -1.
         22    1    1    0    0    0  0.23262342948E+02  0.15750164839E+02 -0.68891624902E+01  0.28925159493E+02  0.00000000000E+00 0. -1.
</event>
<event>
 5    1  0.1758480E-003  0.9118800E+02  0.7818608E-02  0.1130116E+00
         25   -1    0    0    0    0  0.00000000000E+00  0.00000000000E+00  0.99999998245E-14  0.12500000000E+03  0.12500000000E+03 0.  0.
        -13    1    3    3    0    0  0.26598426530E+02  0.30449956741E+02 -0.10641008068E+02  0.41808113760E+02  0.10566000000E+00 0. -1.
         23    2    1    0    0    0  0.17189808562E+02 -0.22667197672E+02 -0.15781407064E+01  0.96508213521E+02  0.92206579918E+02 0.  0.
         13    1    3    3    0    0 -0.94086179676E+01 -0.53117154413E+02  0.90628673620E+01  0.54700099761E+02  0.10566000000E+00 0.  1.
         22    1    1    0    0    0 -0.17189808562E+02  0.22667197672E+02  0.15781407064E+01  0.28491786479E+02  0.00000000000E+00 0.  1.
</event>
<event>
 5    1  0.1758480E-003  0.9118800E+02  0.7818608E-02  0.1130116E+00
         25   -1    0    0    0    0  0.00000000000E+00  0.00000000000E+00  0.99999998245E-14  0.12500000000E+03  0.12500000000E+03 0.  0.
        -13    1    3    3    0    0  0.30977961628E+02  0.22084500817E+02 -0.36823076479E+02  0.52946287956E+02  0.10566000000E+00 0.  1.
         23    2    1    0    0    0  0.19350634590E+02 -0.46170194530E+00  0.76832604780E+01  0.10417470962E+03  0.10207192271E+03 0.  0.
         13    1    3    3    0    0 -0.11627327037E+02 -0.22546202763E+02  0.44506336957E+02  0.51228421666E+02  0.10566000000E+00 0. -1.
         22    1    1    0    0    0 -0.19350634590E+02  0.46170194530E+00 -0.76832604780E+01  0.20825290378E+02  0.00000000000E+00 0. -1.
</event>
<event>
 5    1  0.1758480E-003  0.9118800E+02  0.7818608E-02  0.1130116E+00
         25   -1    0    0    0    0  0.00000000000E+00  0.00000000000E+00  0.99999998245E-14  0.12500000000E+03  0.12500000000E+03 0.  0.
        -13    1    3    3    0    0  0.30655947650E+02 -0.19566974318E+02  0.39179357354E+02  0.53457336419E+02  0.10566000000E+00 0.  1.
         23    2    1    0    0    0  0.95112793663E+01 -0.29171397525E+02  0.63561478622E+01  0.93665745830E+02  0.88269113836E+02 0.  0.
         13    1    3    3    0    0 -0.21144668283E+02 -0.96044232069E+01 -0.32823209492E+02  0.40208409411E+02  0.10566000000E+00 0. -1.
         22    1    1    0    0    0 -0.95112793663E+01  0.29171397525E+02 -0.63561478622E+01  0.31334254170E+02  0.00000000000E+00 0.  1.
</event>
<event>
 5    1  0.1758480E-003  0.9118800E+02  0.7818608E-02  0.1130116E+00
         25   -1    0    0    0    0  0.00000000000E+00  0.00000000000E+00  0.99999998245E-14  0.12500000000E+03  0.12500000000E+03 0.  0.
        -13    1    3    3    0    0 -0.27159567911E+02  0.49435403201E+02  0.13378563578E+02  0.57969805470E+02  0.10566000000E+00 0. -1.
         23    2    1    0    0    0  0.24721139680E+01  0.25277365856E+02  0.13574647464E+02  0.96201951006E+02  0.91790455666E+02 0.  0.
         13    1    3    3    0    0  0.29631681879E+02 -0.24158037345E+02  0.19608388545E+00  0.38232145536E+02  0.10566000000E+00 0.  1.
         22    1    1    0    0    0 -0.24721139680E+01 -0.25277365856E+02 -0.13574647464E+02  0.28798048994E+02  0.00000000000E+00 0. -1.
</event>
<event>
 5    1  0.1758480E-003  0.9118800E+02  0.7818608E-02  0.1130116E+00
         25   -1    0    0    0    0  0.00000000000E+00  0.00000000000E+00  0.99999998245E-14  0.12500000000E+03  0.12500000000E+03 0.  0.
        -13    1    3    3    0    0 -0.12069844877E+02  0.30281990209E+02  0.80346645339E+01  0.33574500511E+02  0.10566000000E+00 0.  1.
         23    2    1    0    0    0  0.20747800964E+02 -0.94213022782E+01 -0.22103465614E+02  0.93254206993E+02  0.87684387141E+02 0.  0.
         13    1    3    3    0    0  0.32817645841E+02 -0.39703292487E+02 -0.30138130148E+02  0.59679706482E+02  0.10566000000E+00 0. -1.
         22    1    1    0    0    0 -0.20747800964E+02  0.94213022782E+01  0.22103465614E+02  0.31745793007E+02  0.00000000000E+00 0. -1.
</event>
<event>
 5    1  0.1758480E-003  0.9118800E+02  0.7818608E-02  0.1130116E+00
         25   -1    0    0    0    0  0.00000000000E+00  0.00000000000E+00  0.99999998245E-14  0.12500000000E+03  0.12500000000E+03 0.  0.
        -13    1    3    3    0    0  0.11975032789E+02  0.33442168082E+02  0.36310717180E+02  0.50796253430E+02  0.10566000000E+00 0.  1.
         23    2    1    0    0    0  0.69480262112E+01 -0.93478753682E+01  0.27998929393E+02  0.94675127547E+02  0.89687133341E+02 0.  0.
         13    1    3    3    0    0 -0.50270065782E+01 -0.42790043450E+02 -0.83117877877E+01  0.43878874118E+02  0.10566000000E+00 0. -1.
         22    1    1    0    0    0 -0.69480262112E+01  0.93478753682E+01 -0.27998929393E+02  0.30324872453E+02  0.00000000000E+00 0.  1.
</event>
<event>
 5    1  0.1758480E-003  0.9118800E+02  0.7818608E-02  0.1130116E+00
         25   -1    0    0    0    0  0.00000000000E+00  0.00000000000E+00  0.99999998245E-14  0.12500000000E+03  0.12500000000E+03 0.  0.
        -13    1    3    3    0    0 -0.51152809174E+01  0.12415637242E+02  0.34718811860E+02  0.37225276467E+02  0.10566000000E+00 0.  1.
         23    2    1    0    0    0 -0.40099350165E+01  0.16254138194E+02 -0.23811703095E+02  0.95892032164E+02  0.91367434248E+02 0.  0.
         13    1    3    3    0    0  0.11053459009E+01  0.38385009520E+01 -0.58530514955E+02  0.58666755698E+02  0.10566000000E+00 0. -1.
         22    1    1    0    0    0  0.40099350165E+01 -0.16254138194E+02  0.23811703095E+02  0.29107967836E+02  0.00000000000E+00 0. -1.
</event>
<event>
 5    1  0.1758480E-003  0.9118800E+02  0.7818608E-02  0.1130116E+00
         25   -1    0    0    0    0  0.00000000000E+00  0.00000000000E+00  0.99999998245E-14  0.12500000000E+03  0.12500000000E+03 0.  0.
        -13    1    3    3    0    0  0.16395111087E+02 -0.39896049978E+02  0.82831638877E+01  0.43921708066E+02  0.10566000000E+00 0. -1.
         23    2    1    0    0    0  0.18719868906E+02  0.73433765714E+00  0.29680923459E+02  0.89901140175E+02  0.82766448780E+02 0.  0.
         13    1    3    3    0    0  0.23247578190E+01  0.40630387635E+02  0.21397759571E+02  0.45979432109E+02  0.10566000000E+00 0.  1.
         22    1    1    0    0    0 -0.18719868906E+02 -0.73433765714E+00 -0.29680923459E+02  0.35098859825E+02  0.00000000000E+00 0. -1.
</event>
<event>
 5    1  0.1758480E-003  0.9118800E+02  0.7818608E-02  0.1130116E+00
         25   -1    0    0    0    0  0.00000000000E+00  0.00000000000E+00  0.99999998245E-14  0.12500000000E+03  0.12500000000E+03 0.  0.
        -13    1    3    3    0    0  0.89209902163E+01  0.25320030757E+02 -0.28184051559E+02  0.38923514105E+02  0.10566000000E+00 0.  1.
         23    2    1    0    0    0  0.75102553278E+01 -0.27484933520E+02 -0.10667917129E+02  0.94575832607E+02  0.89548635678E+02 0.  0.
         13    1    3    3    0    0 -0.14107348886E+01 -0.52804964277E+02  0.17516134430E+02  0.55652318502E+02  0.10566000000E+00 0. -1.
         22    1    1    0    0    0 -0.75102553278E+01  0.27484933520E+02  0.10667917129E+02  0.30424167393E+02  0.00000000000E+00 0. -1.
</event>
<event>
 5    1  0.1758480E-003  0.9118800E+02  0.7818608E-02  0.1130116E+00
         25   -1    0    0    0    0  0.00000000000E+00  0.00000000000E+00  0.99999998245E-14  0.12500000000E+03  0.12500000000E+03 0.  0.
        -13    1    3    3    0    0 -0.34928052828E+02 -0.21034383806E+02  0.10159581504E+02  0.42019548270E+02  0.10566000000E+00 0. -1.
         23    2    1    0    0    0  0.76750142442E+01 -0.19777922141E+02 -0.21256319536E+02  0.94968297283E+02  0.90094807402E+02 0.  0.
         13    1    3    3    0    0  0.42603067072E+02  0.12564616655E+01 -0.31415901040E+02  0.52948749013E+02  0.10566000000E+00 0.  1.
         22    1    1    0    0    0 -0.76750142442E+01  0.19777922141E+02  0.21256319536E+02  0.30031702717E+02  0.00000000000E+00 0.  1.
</event>
<event>
 5    1  0.1758480E-003  0.9118800E+02  0.7818608E-02  0.1130116E+00
         25   -1    0    0    0    0  0.00000000000E+00  0.00000000000E+00  0.99999998245E-14  0.12500000000E+03  0.12500000000E+03 0.  0.
        -13    1    3    3    0    0  0.61538290918E+02 -0.10104471133E+02  0.12473645007E+01  0.62374904154E+02  0.10566000000E+00 0.  1.
         23    2    1    0    0    0  0.28926833049E+02 -0.42175202349E+01  0.33258674039E+01  0.95578739980E+02  0.90937808392E+02 0.  0.
         13    1    3    3    0    0 -0.32611457869E+02  0.58869508981E+01  0.20785029031E+01  0.33203835827E+02  0.10566000000E+00 0. -1.
         22    1    1    0    0    0 -0.28926833049E+02  0.42175202349E+01 -0.33258674039E+01  0.29421260020E+02  0.00000000000E+00 0.  1.
</event>
<event>
 5    1  0.1758480E-003  0.9118800E+02  0.7818608E-02  0.1130116E+00
         25   -1    0    0    0    0  0.00000000000E+00  0.00000000000E+00  0.99999998245E-14  0.12500000000E+03  0.12500000000E+03 0.  0.
        -13    1    3    3    0    0 -0.38577128058E+02  0.30103511529E+02 -0.16360045886E+02  0.51595333907E+02  0.10566000000E+00 0. -1.
         23    2    1    0    0    0 -0.25444924058E+02 -0.11505858483E+02 -0.62831384291E+01  0.96376464784E+02  0.92027801213E+02 0.  0.
         13    1    3    3    0    0  0.13132204000E+02 -0.41609370012E+02  0.10076907457E+02  0.44781130877E+02  0.10566000000E+00 0.  1.
         22    1    1    0    0    0  0.25444924058E+02  0.11505858483E+02  0.62831384291E+01  0.28623535216E+02  0.00000000000E+00 0. -1.
</event>
<event>
 5    1  0.1758480E-003  0.9118800E+02  0.7818608E-02  0.1130116E+00
         25   -1    0    0    0    0  0.00000000000E+00  0.00000000000E+00  0.99999998245E-14  0.12500000000E+03  0.12500000000E+03 0.  0.
        -13    1    3    3    0    0 -0.19150428826E+00 -0.31747593618E+02 -0.40345491856E+02  0.51339227221E+02  0.10566000000E+00 0. -1.
         23    2    1    0    0    0  0.21908865647E+02 -0.19750504113E+02 -0.44465482820E+01  0.95169602780E+02  0.90373672577E+02 0.  0.
         13    1    3    3    0    0  0.22100369936E+02  0.11997089505E+02  0.35898943574E+02  0.43830375559E+02  0.10566000000E+00 0.  1.
         22    1    1    0    0    0 -0.21908865647E+02  0.19750504113E+02  0.44465482820E+01  0.29830397220E+02  0.00000000000E+00 0. -1.
</event>
<event>
 5    1  0.1758480E-003  0.9118800E+02  0.7818608E-02  0.1130116E+00
         25   -1    0    0    0    0  0.00000000000E+00  0.00000000000E+00  0.99999998245E-14  0.12500000000E+03  0.12500000000E+03 0.  0.
        -13    1    3    3    0    0  0.22599477278E+02 -0.18142615715E-01 -0.30427845679E+02  0.37902528400E+02  0.10566000000E+00 0. -1.
         23    2    1    0    0    0 -0.11208190213E+02  0.19717769243E-01 -0.47793681852E+02  0.75909675683E+02  0.57900077035E+02 0.  0.
         13    1    3    3    0    0 -0.33807667491E+02  0.37860384957E-01 -0.17365836172E+02  0.38007147283E+02  0.10566000000E+00 0.  1.
         22    1    1    0    0    0  0.11208190213E+02 -0.19717769243E-01  0.47793681852E+02  0.49090324317E+02  0.00000000000E+00 0.  1.
</event>
<event>
 5    1  0.1758480E-003  0.9118800E+02  0.7818608E-02  0.1130116E+00
         25   -1    0    0    0    0  0.00000000000E+00  0.00000000000E+00  0.99999998245E-14  0.12500000000E+03  0.12500000000E+03 0.  0.
        -13    1    3    3    0    0 -0.14427489194E+01  0.32229334777E+02  0.19999778159E+02  0.37958053626E+02  0.10566000000E+00 0. -1.
         23    2    1    0    0    0  0.23566737009E+02 -0.16886671717E+02  0.11872911736E+02  0.93670831354E+02  0.88276315275E+02 0.  0.
         13    1    3    3    0    0  0.25009485929E+02 -0.49116006494E+02 -0.81268664234E+01  0.55712777729E+02  0.10566000000E+00 0.  1.
         22    1    1    0    0    0 -0.23566737009E+02  0.16886671717E+02 -0.11872911736E+02  0.31329168646E+02  0.00000000000E+00 0.  1.
</event>
<event>
 5    1  0.1758480E-003  0.9118800E+02  0.7818608E-02  0.1130116E+00
         25   -1    0    0    0    0  0.00000000000E+00  0.00000000000E+00  0.99999998245E-14  0.12500000000E+03  0.12500000000E+03 0.  0.
        -13    1    3    3    0    0 -0.14255393737E+02 -0.55084732553E+02  0.15526586018E+02  0.58979912245E+02  0.10566000000E+00 0.  1.
         23    2    1    0    0    0  0.75093275276E+01 -0.30018422927E+02  0.65159248714E+01  0.93377966671E+02  0.87860637760E+02 0.  0.
         13    1    3    3    0    0  0.21764721264E+02  0.25066309625E+02 -0.90106611467E+01  0.34398054426E+02  0.10566000000E+00 0. -1.
         22    1    1    0    0    0 -0.75093275276E+01  0.30018422927E+02 -0.65159248714E+01  0.31622033329E+02  0.00000000000E+00 0.  1.
</event>
<event>
 5    1  0.1758480E-003  0.9118800E+02  0.7818608E-02  0.1130116E+00
         25   -1    0    0    0    0  0.00000000000E+00  0.00000000000E+00  0.99999998245E-14  0.12500000000E+03  0.12500000000E+03 0.  0.
        -13    1    3    3    0    0 -0.43320008268E+02  0.32937737315E+02  0.26608969543E+02  0.60576943468E+02  0.10566000000E+00 0. -1.
         23    2    1    0    0    0 -0.14922942499E+02  0.25006406983E+02  0.14752991959E+02  0.92355469451E+02  0.86393676636E+02 0.  0.
         13    1    3    3    0    0  0.28397065769E+02 -0.79313303317E+01 -0.11855977584E+02  0.31778525982E+02  0.10566000000E+00 0.  1.
         22    1    1    0    0    0  0.14922942499E+02 -0.25006406983E+02 -0.14752991959E+02  0.32644530549E+02  0.00000000000E+00 0. -1.
</event>
<event>
 5    1  0.1758480E-003  0.9118800E+02  0.7818608E-02  0.1130116E+00
         25   -1    0    0    0    0  0.00000000000E+00  0.00000000000E+00  0.99999998245E-14  0.12500000000E+03  0.12500000000E+03 0.  0.
        -13    1    3    3    0    0 -0.29034379487E+02  0.29012465515E+02  0.16588475829E+02  0.44270837374E+02  0.10566000000E+00 0.  1.
         23    2    1    0    0    0  0.10531805124E+02 -0.14914120262E+01  0.27592586061E+02  0.95428154698E+02  0.90730582907E+02 0.  0.
         13    1    3    3    0    0  0.39566184611E+02 -0.30503877542E+02  0.11004110232E+02  0.51157317324E+02  0.10566000000E+00 0. -1.
         22    1    1    0    0    0 -0.10531805124E+02  0.14914120262E+01 -0.27592586061E+02  0.29571845302E+02  0.00000000000E+00 0.  1.
</event>
<event>
 5    1  0.1758480E-003  0.9118800E+02  0.7818608E-02  0.1130116E+00
         25   -1    0    0    0    0  0.00000000000E+00  0.00000000000E+00  0.99999998245E-14  0.12500000000E+03  0.12500000000E+03 0.  0.
        -13    1    3    3    0    0  0.61706984973E+01 -0.20027383309E+02 -0.55935651824E+02  0.59732586678E+02  0.10566000000E+00 0.  1.
         23    2    1    0    0    0 -0.19073365789E+01 -0.22810880217E+02 -0.28629046203E+02  0.88344898369E+02  0.80381742904E+02 0.  0.
         13    1    3    3    0    0 -0.80780350761E+01 -0.27834969079E+01  0.27306605622E+02  0.28612311692E+02  0.10566000000E+00 0. -1.
         22    1    1    0    0    0  0.19073365789E+01  0.22810880217E+02  0.28629046203E+02  0.36655101631E+02  0.00000000000E+00 0.  1.
</event>
<event>
 5    1  0.1758480E-003  0.9118800E+02  0.7818608E-02  0.1130116E+00
         25   -1    0    0    0    0  0.00000000000E+00  0.00000000000E+00  0.99999998245E-14  0.12500000000E+03  0.12500000000E+03 0.  0.
        -13    1    3    3    0    0 -0.27191451484E+02 -0.54400108662E+02  0.52150932210E+01  0.61040603024E+02  0.10566000000E+00 0.  1.
         23    2    1    0    0    0 -0.18010606300E+02 -0.24056803994E+02 -0.53885012742E+01  0.94468905953E+02  0.89399253287E+02 0.  0.
         13    1    3    3    0    0  0.91808451842E+01  0.30343304668E+02 -0.10603594495E+02  0.33428302929E+02  0.10566000000E+00 0. -1.
         22    1    1    0    0    0  0.18010606300E+02  0.24056803994E+02  0.53885012742E+01  0.30531094047E+02  0.00000000000E+00 0.  1.
</event>
<event>
 5    1  0.1758480E-003  0.9118800E+02  0.7818608E-02  0.1130116E+00
         25   -1    0    0    0    0  0.00000000000E+00  0.00000000000E+00  0.99999998245E-14  0.12500000000E+03  0.12500000000E+03 0.  0.
        -13    1    3    3    0    0 -0.47409013825E+02 -0.72515122872E+01  0.19746384516E+02  0.51866462071E+02  0.10566000000E+00 0.  1.
         23    2    1    0    0    0 -0.23814534509E+01 -0.65302320634E+01  0.26678963609E+02  0.97430408952E+02  0.93448393447E+02 0.  0.
         13    1    3    3    0    0  0.45027560374E+02  0.72128022377E+00  0.69325790927E+01  0.45563946880E+02  0.10566000000E+00 0. -1.
         22    1    1    0    0    0  0.23814534509E+01  0.65302320634E+01 -0.26678963609E+02  0.27569591048E+02  0.00000000000E+00 0.  1.
</event>
<event>
 5    1  0.1758480E-003  0.9118800E+02  0.7818608E-02  0.1130116E+00
         25   -1    0    0    0    0  0.00000000000E+00  0.00000000000E+00  0.99999998245E-14  0.12500000000E+03  0.12500000000E+03 0.  0.
        -13    1    3    3    0    0  0.16615888787E+02 -0.38114528287E+02 -0.24761746785E+02  0.48393804299E+02  0.10566000000E+00 0. -1.
         23    2    1    0    0    0  0.80250502943E+00  0.75620501407E+01 -0.27165588486E+02  0.96790111407E+02  0.92587946579E+02 0.  0.
         13    1    3    3    0    0 -0.15813383758E+02  0.45676578427E+02 -0.24038417008E+01  0.48396307108E+02  0.10566000000E+00 0.  1.
         22    1    1    0    0    0 -0.80250502943E+00 -0.75620501407E+01  0.27165588486E+02  0.28209888593E+02  0.00000000000E+00 0. -1.
</event>
<event>
 5    1  0.1758480E-003  0.9118800E+02  0.7818608E-02  0.1130116E+00
         25   -1    0    0    0    0  0.00000000000E+00  0.00000000000E+00  0.99999998245E-14  0.12500000000E+03  0.12500000000E+03 0.  0.
        -13    1    3    3    0    0  0.43806257701E+02  0.21517179849E+01  0.14771538106E+01  0.43884066032E+02  0.10566000000E+00 0.  1.
         23    2    1    0    0    0 -0.31488319126E+00  0.20475415835E+02  0.21159010318E+02  0.95554363266E+02  0.90904294818E+02 0.  0.
         13    1    3    3    0    0 -0.44121140893E+02  0.18323697850E+02  0.19681856508E+02  0.51670297234E+02  0.10566000000E+00 0. -1.
         22    1    1    0    0    0  0.31488319126E+00 -0.20475415835E+02 -0.21159010318E+02  0.29445636734E+02  0.00000000000E+00 0. -1.
</event>
<event>
 5    1  0.1758480E-003  0.9118800E+02  0.7818608E-02  0.1130116E+00
         25   -1    0    0    0    0  0.00000000000E+00  0.00000000000E+00  0.99999998245E-14  0.12500000000E+03  0.12500000000E+03 0.  0.
        -13    1    3    3    0    0  0.33566163631E+02 -0.49678909915E+02 -0.12792320365E+02  0.61305269395E+02  0.10566000000E+00 0.  1.
         23    2    1    0    0    0  0.82049019778E+01 -0.27292023533E+02 -0.43522618178E+01  0.96170897553E+02  0.91748157411E+02 0.  0.
         13    1    3    3    0    0 -0.25361261653E+02  0.22386886382E+02  0.84400585475E+01  0.34865628158E+02  0.10566000000E+00 0. -1.
         22    1    1    0    0    0 -0.82049019778E+01  0.27292023533E+02  0.43522618178E+01  0.28829102447E+02  0.00000000000E+00 0.  1.
</event>
<event>
 5    1  0.1758480E-003  0.9118800E+02  0.7818608E-02  0.1130116E+00
         25   -1    0    0    0    0  0.00000000000E+00  0.00000000000E+00  0.99999998245E-14  0.12500000000E+03  0.12500000000E+03 0.  0.
        -13    1    3    3    0    0  0.35955663957E+02 -0.89512035980E+01  0.17654203921E+02  0.41044072611E+02  0.10566000000E+00 0.  1.
         23    2    1    0    0    0  0.15436982306E+01 -0.18644833323E+02 -0.23111104879E+02  0.95265575799E+02  0.90506319943E+02 0.  0.
         13    1    3    3    0    0 -0.34411965726E+02 -0.96936297248E+01 -0.40765308799E+02  0.54221503187E+02  0.10566000000E+00 0. -1.
         22    1    1    0    0    0 -0.15436982306E+01  0.18644833323E+02  0.23111104879E+02  0.29734424201E+02  0.00000000000E+00 0. -1.
</event>
<event>
 5    1  0.1758480E-003  0.9118800E+02  0.7818608E-02  0.1130116E+00
         25   -1    0    0    0    0  0.00000000000E+00  0.00000000000E+00  0.99999998245E-14  0.12500000000E+03  0.12500000000E+03 0.  0.
        -13    1    3    3    0    0  0.85012813707E+01  0.39251487980E+02 -0.36693542191E+02  0.54400168163E+02  0.10566000000E+00 0.  1.
         23    2    1    0    0    0  0.11900150480E+02  0.27338193007E+02  0.20865193155E+01  0.95111140183E+02  0.90292774051E+02 0.  0.
         13    1    3    3    0    0  0.33988691091E+01 -0.11913294973E+02  0.38780061507E+02  0.40710972020E+02  0.10566000000E+00 0. -1.
         22    1    1    0    0    0 -0.11900150480E+02 -0.27338193007E+02 -0.20865193155E+01  0.29888859817E+02  0.00000000000E+00 0.  1.
</event>
<event>
 5    1  0.1758480E-003  0.9118800E+02  0.7818608E-02  0.1130116E+00
         25   -1    0    0    0    0  0.00000000000E+00  0.00000000000E+00  0.99999998245E-14  0.12500000000E+03  0.12500000000E+03 0.  0.
        -13    1    3    3    0    0 -0.42423957001E+02 -0.10747057980E+02  0.25047989207E+02  0.50425234855E+02  0.10566000000E+00 0. -1.
         23    2    1    0    0    0 -0.99928654741E+01  0.21430228169E+02  0.14329932472E+02  0.97351148227E+02  0.93342311181E+02 0.  0.
         13    1    3    3    0    0  0.32431091526E+02  0.32177286149E+02 -0.10718056736E+02  0.46925913372E+02  0.10566000000E+00 0.  1.
         22    1    1    0    0    0  0.99928654741E+01 -0.21430228169E+02 -0.14329932472E+02  0.27648851773E+02  0.00000000000E+00 0. -1.
</event>
<event>
 5    1  0.1758480E-003  0.9118800E+02  0.7818608E-02  0.1130116E+00
         25   -1    0    0    0    0  0.00000000000E+00  0.00000000000E+00  0.99999998245E-14  0.12500000000E+03  0.12500000000E+03 0.  0.
        -13    1    3    3    0    0 -0.94024915188E+01  0.34479424713E+02 -0.16337044339E+01  0.35775937857E+02  0.10566000000E+00 0.  1.
         23    2    1    0    0    0 -0.70971131042E+01 -0.26579700780E+02  0.42559300371E+01  0.97161852640E+02  0.93088469533E+02 0.  0.
         13    1    3    3    0    0  0.23053784146E+01 -0.61059125493E+02  0.58896344710E+01  0.61385914784E+02  0.10566000000E+00 0. -1.
         22    1    1    0    0    0  0.70971131042E+01  0.26579700780E+02 -0.42559300371E+01  0.27838147360E+02  0.00000000000E+00 0. -1.
</event>
<event>
 5    1  0.1758480E-003  0.9118800E+02  0.7818608E-02  0.1130116E+00
         25   -1    0    0    0    0  0.00000000000E+00  0.00000000000E+00  0.99999998245E-14  0.12500000000E+03  0.12500000000E+03 0.  0.
        -13    1    3    3    0    0 -0.31664236244E+02 -0.16767649486E+02 -0.33538043266E+02  0.49077382126E+02  0.10566000000E+00 0. -1.
         23    2    1    0    0    0  0.13670694295E+00  0.16215653455E+02 -0.24251795556E+02  0.95826112815E+02  0.91277205281E+02 0.  0.
         13    1    3    3    0    0  0.31800943187E+02  0.32983302941E+02  0.92862477096E+01  0.46748730689E+02  0.10566000000E+00 0.  1.
         22    1    1    0    0    0 -0.13670694295E+00 -0.16215653455E+02  0.24251795556E+02  0.29173887185E+02  0.00000000000E+00 0. -1.
</event>
<event>
 5    1  0.1758480E-003  0.9118800E+02  0.7818608E-02  0.1130116E+00
         25   -1    0    0    0    0  0.00000000000E+00  0.00000000000E+00  0.99999998245E-14  0.12500000000E+03  0.12500000000E+03 0.  0.
        -13    1    3    3    0    0 -0.26533773695E+02 -0.21758269846E+02 -0.51547455361E+02  0.61924266418E+02  0.10566000000E+00 0.  1.
         23    2    1    0    0    0 -0.11488162406E+02 -0.15075066983E+02 -0.20406684997E+02  0.97149177524E+02  0.93071447722E+02 0.  0.
         13    1    3    3    0    0  0.15045611289E+02  0.66832028631E+01  0.31140770364E+02  0.35224911106E+02  0.10566000000E+00 0. -1.
         22    1    1    0    0    0  0.11488162406E+02  0.15075066983E+02  0.20406684997E+02  0.27850822476E+02  0.00000000000E+00 0.  1.
</event>
<event>
 5    1  0.1758480E-003  0.9118800E+02  0.7818608E-02  0.1130116E+00
         25   -1    0    0    0    0  0.00000000000E+00  0.00000000000E+00  0.99999998245E-14  0.12500000000E+03  0.12500000000E+03 0.  0.
        -13    1    3    3    0    0 -0.18293796247E+02  0.43593816190E+02  0.10850122818E+02  0.48505877173E+02  0.10566000000E+00 0.  1.
         23    2    1    0    0    0  0.99307609402E+01 -0.22636692565E+01  0.19458353686E+02  0.10303703710E+03  0.10066905818E+03 0.  0.
         13    1    3    3    0    0  0.28224557187E+02 -0.45857485446E+02  0.86082308675E+01  0.54531159923E+02  0.10566000000E+00 0. -1.
         22    1    1    0    0    0 -0.99307609402E+01  0.22636692565E+01 -0.19458353686E+02  0.21962962904E+02  0.00000000000E+00 0.  1.
</event>
<event>
 5    1  0.1758480E-003  0.9118800E+02  0.7818608E-02  0.1130116E+00
         25   -1    0    0    0    0  0.00000000000E+00  0.00000000000E+00  0.99999998245E-14  0.12500000000E+03  0.12500000000E+03 0.  0.
        -13    1    3    3    0    0  0.87800277115E+01  0.16746657794E+02  0.15397900334E+02  0.24385363081E+02  0.10566000000E+00 0. -1.
         23    2    1    0    0    0 -0.20538174952E+02 -0.16950585406E+02 -0.27785998730E+02  0.86513629668E+02  0.77481658584E+02 0.  0.
         13    1    3    3    0    0 -0.29318202663E+02 -0.33697243200E+02 -0.43183899064E+02  0.62128266586E+02  0.10566000000E+00 0.  1.
         22    1    1    0    0    0  0.20538174952E+02  0.16950585406E+02  0.27785998730E+02  0.38486370332E+02  0.00000000000E+00 0.  1.
</event>
<event>
 5    1  0.1758480E-003  0.9118800E+02  0.7818608E-02  0.1130116E+00
         25   -1    0    0    0    0  0.00000000000E+00  0.00000000000E+00  0.99999998245E-14  0.12500000000E+03  0.12500000000E+03 0.  0.
        -13    1    3    3    0    0  0.11162144251E+02  0.41436445585E+02 -0.72717187206E+01  0.43525412626E+02  0.10566000000E+00 0.  1.
         23    2    1    0    0    0  0.24855482630E+02 -0.88877612328E+01 -0.12216612939E+02  0.95913354470E+02  0.91396600689E+02 0.  0.
         13    1    3    3    0    0  0.13693338378E+02 -0.50324206818E+02 -0.49448942184E+01  0.52387941844E+02  0.10566000000E+00 0. -1.
         22    1    1    0    0    0 -0.24855482630E+02  0.88877612328E+01  0.12216612939E+02  0.29086645530E+02  0.00000000000E+00 0. -1.
</event>
<event>
 5    1  0.1758480E-003  0.9118800E+02  0.7818608E-02  0.1130116E+00
         25   -1    0    0    0    0  0.00000000000E+00  0.00000000000E+00  0.99999998245E-14  0.12500000000E+03  0.12500000000E+03 0.  0.
        -13    1    3    3    0    0  0.22798283667E+02 -0.20899888143E+02 -0.14171119820E+02  0.34020565303E+02  0.10566000000E+00 0.  1.
         23    2    1    0    0    0 -0.15480184313E+02  0.25380512187E+02 -0.28815555895E+01  0.95131791687E+02  0.90321359166E+02 0.  0.
         13    1    3    3    0    0 -0.38278467979E+02  0.46280400330E+02  0.11289564230E+02  0.61111226384E+02  0.10566000000E+00 0. -1.
         22    1    1    0    0    0  0.15480184313E+02 -0.25380512187E+02  0.28815555895E+01  0.29868208313E+02  0.00000000000E+00 0. -1.
</event>
<event>
 5    1  0.1758480E-003  0.9118800E+02  0.7818608E-02  0.1130116E+00
         25   -1    0    0    0    0  0.00000000000E+00  0.00000000000E+00  0.99999998245E-14  0.12500000000E+03  0.12500000000E+03 0.  0.
        -13    1    3    3    0    0 -0.50959732357E+02  0.11645838521E+02 -0.74726061413E+01  0.52805027065E+02  0.10566000000E+00 0.  1.
         23    2    1    0    0    0 -0.20968531817E+02  0.55467602259E+01  0.21147390107E+02  0.94707129818E+02  0.89731724905E+02 0.  0.
         13    1    3    3    0    0  0.29991200540E+02 -0.60990782950E+01  0.28619996248E+02  0.41902102753E+02  0.10566000000E+00 0. -1.
         22    1    1    0    0    0  0.20968531817E+02 -0.55467602259E+01 -0.21147390107E+02  0.30292870182E+02  0.00000000000E+00 0.  1.
</event>
<event>
 5    1  0.1758480E-003  0.9118800E+02  0.7818608E-02  0.1130116E+00
         25   -1    0    0    0    0  0.00000000000E+00  0.00000000000E+00  0.99999998245E-14  0.12500000000E+03  0.12500000000E+03 0.  0.
        -13    1    3    3    0    0  0.28132287741E+02  0.22798191588E+02  0.34548000131E+02  0.50047563680E+02  0.10566000000E+00 0.  1.
         23    2    1    0    0    0  0.10826217320E+02 -0.17208727062E+02  0.21180272563E+02  0.95640994322E+02  0.91023340855E+02 0.  0.
         13    1    3    3    0    0 -0.17306070420E+02 -0.40006918651E+02 -0.13367727568E+02  0.45593430641E+02  0.10566000000E+00 0. -1.
         22    1    1    0    0    0 -0.10826217320E+02  0.17208727062E+02 -0.21180272563E+02  0.29359005678E+02  0.00000000000E+00 0.  1.
</event>
<event>
 5    1  0.1758480E-003  0.9118800E+02  0.7818608E-02  0.1130116E+00
         25   -1    0    0    0    0  0.00000000000E+00  0.00000000000E+00  0.99999998245E-14  0.12500000000E+03  0.12500000000E+03 0.  0.
        -13    1    3    3    0    0  0.49653725756E+02  0.12580645458E+02  0.21748088113E+02  0.55648500629E+02  0.10566000000E+00 0. -1.
         23    2    1    0    0    0  0.18434010784E+02 -0.13827031561E+02  0.16012237411E+02  0.96939506379E+02  0.92789420705E+02 0.  0.
         13    1    3    3    0    0 -0.31219714973E+02 -0.26407677019E+02 -0.57358507026E+01  0.41291005750E+02  0.10566000000E+00 0.  1.
         22    1    1    0    0    0 -0.18434010784E+02  0.13827031561E+02 -0.16012237411E+02  0.28060493621E+02  0.00000000000E+00 0. -1.
</event>
<event>
 5    1  0.1758480E-003  0.9118800E+02  0.7818608E-02  0.1130116E+00
         25   -1    0    0    0    0  0.00000000000E+00  0.00000000000E+00  0.99999998245E-14  0.12500000000E+03  0.12500000000E+03 0.  0.
        -13    1    3    3    0    0 -0.47787681907E+01  0.27007823029E+02  0.13620110704E+02  0.30623156432E+02  0.10566000000E+00 0. -1.
         23    2    1    0    0    0 -0.12694584551E+02 -0.27860017963E+02 -0.12532382957E+02  0.91918378207E+02  0.85758932782E+02 0.  0.
         13    1    3    3    0    0 -0.79158163606E+01 -0.54867840993E+02 -0.26152493661E+02  0.61295221776E+02  0.10566000000E+00 0.  1.
         22    1    1    0    0    0  0.12694584551E+02  0.27860017963E+02  0.12532382957E+02  0.33081621793E+02  0.00000000000E+00 0.  1.
</event>
<event>
 5    1  0.1758480E-003  0.9118800E+02  0.7818608E-02  0.1130116E+00
         25   -1    0    0    0    0  0.00000000000E+00  0.00000000000E+00  0.99999998245E-14  0.12500000000E+03  0.12500000000E+03 0.  0.
        -13    1    3    3    0    0  0.38720520080E+01  0.46523511704E+02 -0.28494801839E+02  0.54693645188E+02  0.10566000000E+00 0. -1.
         23    2    1    0    0    0 -0.14309699098E+02  0.25037155375E+02  0.18751159139E+01  0.96101164431E+02  0.91653102009E+02 0.  0.
         13    1    3    3    0    0 -0.18181751106E+02 -0.21486356329E+02  0.30369917753E+02  0.41407519244E+02  0.10566000000E+00 0.  1.
         22    1    1    0    0    0  0.14309699098E+02 -0.25037155375E+02 -0.18751159139E+01  0.28898835569E+02  0.00000000000E+00 0. -1.
</event>
<event>
 5    1  0.1758480E-003  0.9118800E+02  0.7818608E-02  0.1130116E+00
         25   -1    0    0    0    0  0.00000000000E+00  0.00000000000E+00  0.99999998245E-14  0.12500000000E+03  0.12500000000E+03 0.  0.
        -13    1    3    3    0    0  0.49149285847E+02 -0.46024742587E+00  0.32370810982E+02  0.58853586931E+02  0.10566000000E+00 0.  1.
         23    2    1    0    0    0  0.19594846718E+02  0.14444384213E+02  0.10755101082E+02  0.98386648981E+02  0.94718858973E+02 0.  0.
         13    1    3    3    0    0 -0.29554439129E+02  0.14904631639E+02 -0.21615709900E+02  0.39533062050E+02  0.10566000000E+00 0. -1.
         22    1    1    0    0    0 -0.19594846718E+02 -0.14444384213E+02 -0.10755101082E+02  0.26613351019E+02  0.00000000000E+00 0.  1.
</event>
<event>
 5    1  0.1758480E-003  0.9118800E+02  0.7818608E-02  0.1130116E+00
         25   -1    0    0    0    0  0.00000000000E+00  0.00000000000E+00  0.99999998245E-14  0.12500000000E+03  0.12500000000E+03 0.  0.
        -13    1    3    3    0    0  0.35385706016E+02  0.68262573785E+00  0.48681228860E+01  0.35725676378E+02  0.10566000000E+00 0. -1.
         23    2    1    0    0    0 -0.18455235208E+02 -0.21223862369E+02 -0.89727225926E+01  0.95477842369E+02  0.90799012067E+02 0.  0.
         13    1    3    3    0    0 -0.53840941224E+02 -0.21906488107E+02 -0.13840845479E+02  0.59752165992E+02  0.10566000000E+00 0.  1.
         22    1    1    0    0    0  0.18455235208E+02  0.21223862369E+02  0.89727225926E+01  0.29522157631E+02  0.00000000000E+00 0.  1.
</event>
<event>
 5    1  0.1758480E-003  0.9118800E+02  0.7818608E-02  0.1130116E+00
         25   -1    0    0    0    0  0.00000000000E+00  0.00000000000E+00  0.99999998245E-14  0.12500000000E+03  0.12500000000E+03 0.  0.
        -13    1    3    3    0    0  0.50717275092E+02  0.49524902357E+01  0.12635877240E+02  0.52501863871E+02  0.10566000000E+00 0. -1.
         23    2    1    0    0    0  0.17005267352E+02 -0.21554793064E+02  0.11014525849E+02  0.95417775584E+02  0.90716282419E+02 0.  0.
         13    1    3    3    0    0 -0.33712007740E+02 -0.26507283299E+02 -0.16213513912E+01  0.42915911713E+02  0.10566000000E+00 0.  1.
         22    1    1    0    0    0 -0.17005267352E+02  0.21554793064E+02 -0.11014525849E+02  0.29582224416E+02  0.00000000000E+00 0. -1.
</event>
<event>
 5    1  0.1758480E-003  0.9118800E+02  0.7818608E-02  0.1130116E+00
         25   -1    0    0    0    0  0.00000000000E+00  0.00000000000E+00  0.99999998245E-14  0.12500000000E+03  0.12500000000E+03 0.  0.
        -13    1    3    3    0    0 -0.17397903582E+02 -0.33929278799E+02 -0.36112274023E+02  0.52516573651E+02  0.10566000000E+00 0.  1.
         23    2    1    0    0    0  0.16293415991E+02 -0.10675733726E+02 -0.21511414037E+02  0.95979530860E+02  0.91487063102E+02 0.  0.
         13    1    3    3    0    0  0.33691319572E+02  0.23253545073E+02  0.14600859986E+02  0.43462957209E+02  0.10566000000E+00 0. -1.
         22    1    1    0    0    0 -0.16293415991E+02  0.10675733726E+02  0.21511414037E+02  0.29020469140E+02  0.00000000000E+00 0.  1.
</event>
<event>
 5    1  0.1758480E-003  0.9118800E+02  0.7818608E-02  0.1130116E+00
         25   -1    0    0    0    0  0.00000000000E+00  0.00000000000E+00  0.99999998245E-14  0.12500000000E+03  0.12500000000E+03 0.  0.
        -13    1    3    3    0    0  0.17522664001E+02  0.19772881923E+02 -0.46125689203E+02  0.53156382324E+02  0.10566000000E+00 0.  1.
         23    2    1    0    0    0  0.21539246095E+02 -0.10461862322E+02 -0.14949808315E+02  0.96770822644E+02  0.92561901779E+02 0.  0.
         13    1    3    3    0    0  0.40165820936E+01 -0.30234744244E+02  0.31175880889E+02  0.43614440320E+02  0.10566000000E+00 0. -1.
         22    1    1    0    0    0 -0.21539246095E+02  0.10461862322E+02  0.14949808315E+02  0.28229177356E+02  0.00000000000E+00 0.  1.
</event>
<event>
 5    1  0.1758480E-003  0.9118800E+02  0.7818608E-02  0.1130116E+00
         25   -1    0    0    0    0  0.00000000000E+00  0.00000000000E+00  0.99999998245E-14  0.12500000000E+03  0.12500000000E+03 0.  0.
        -13    1    3    3    0    0  0.16465135529E+02  0.97163188852E-01 -0.30584044336E+02  0.34734781713E+02  0.10566000000E+00 0. -1.
         23    2    1    0    0    0 -0.18097036126E+02  0.15524179779E+02  0.17132478725E+02  0.95639742821E+02  0.91021622185E+02 0.  0.
         13    1    3    3    0    0 -0.34562171655E+02  0.15427016590E+02  0.47716523061E+02  0.60904961107E+02  0.10566000000E+00 0.  1.
         22    1    1    0    0    0  0.18097036126E+02 -0.15524179779E+02 -0.17132478725E+02  0.29360257179E+02  0.00000000000E+00 0.  1.
</event>
<event>
 5    1  0.1758480E-003  0.9118800E+02  0.7818608E-02  0.1130116E+00
         25   -1    0    0    0    0  0.00000000000E+00  0.00000000000E+00  0.99999998245E-14  0.12500000000E+03  0.12500000000E+03 0.  0.
        -13    1    3    3    0    0 -0.50283700784E+02  0.34267711881E+02 -0.98910946240E+01  0.61648775811E+02  0.10566000000E+00 0. -1.
         23    2    1    0    0    0 -0.22155198910E+02  0.15211809879E+02 -0.11735811934E+02  0.95674562573E+02  0.91069427600E+02 0.  0.
         13    1    3    3    0    0  0.28128501875E+02 -0.19055902002E+02 -0.18447173096E+01  0.34025786762E+02  0.10566000000E+00 0.  1.
         22    1    1    0    0    0  0.22155198910E+02 -0.15211809879E+02  0.11735811934E+02  0.29325437427E+02  0.00000000000E+00 0. -1.
</event>
<event>
 5    1  0.1758480E-003  0.9118800E+02  0.7818608E-02  0.1130116E+00
         25   -1    0    0    0    0  0.00000000000E+00  0.00000000000E+00  0.99999998245E-14  0.12500000000E+03  0.12500000000E+03 0.  0.
        -13    1    3    3    0    0 -0.17806823121E+02 -0.16926051609E+02 -0.28079888668E+02  0.37310393785E+02  0.10566000000E+00 0. -1.
         23    2    1    0    0    0  0.30559496673E+02 -0.32329593045E+01 -0.13558262966E+01  0.94240072697E+02  0.89078718975E+02 0.  0.
         13    1    3    3    0    0  0.48366319794E+02  0.13693092304E+02  0.26724062372E+02  0.56929678911E+02  0.10566000000E+00 0.  1.
         22    1    1    0    0    0 -0.30559496673E+02  0.32329593045E+01  0.13558262966E+01  0.30759927303E+02  0.00000000000E+00 0.  1.
</event>
<event>
 5    1  0.1758480E-003  0.9118800E+02  0.7818608E-02  0.1130116E+00
         25   -1    0    0    0    0  0.00000000000E+00  0.00000000000E+00  0.99999998245E-14  0.12500000000E+03  0.12500000000E+03 0.  0.
        -13    1    3    3    0    0 -0.25391692702E+02  0.17707961083E+02 -0.28493166786E+02  0.42073526849E+02  0.10566000000E+00 0.  1.
         23    2    1    0    0    0 -0.15555969764E+02 -0.22628889335E+02  0.69621684971E+01  0.96671099245E+02  0.92427132440E+02 0.  0.
         13    1    3    3    0    0  0.98357229386E+01 -0.40336850418E+02  0.35455335283E+02  0.54597572395E+02  0.10566000000E+00 0. -1.
         22    1    1    0    0    0  0.15555969764E+02  0.22628889335E+02 -0.69621684971E+01  0.28328900755E+02  0.00000000000E+00 0. -1.
</event>
<event>
 5    1  0.1758480E-003  0.9118800E+02  0.7818608E-02  0.1130116E+00
         25   -1    0    0    0    0  0.00000000000E+00  0.00000000000E+00  0.99999998245E-14  0.12500000000E+03  0.12500000000E+03 0.  0.
        -13    1    3    3    0    0  0.80594933372E+01 -0.15321560059E+02  0.16632685028E+02  0.24007561533E+02  0.10566000000E+00 0. -1.
         23    2    1    0    0    0  0.39830355004E+01  0.21769783058E+02 -0.32485568609E+02  0.85692237484E+02  0.76144989138E+02 0.  0.
         13    1    3    3    0    0 -0.40764578368E+01  0.37091343117E+02 -0.49118253637E+02  0.61684675950E+02  0.10566000000E+00 0.  1.
         22    1    1    0    0    0 -0.39830355004E+01 -0.21769783058E+02  0.32485568609E+02  0.39307762516E+02  0.00000000000E+00 0.  1.
</event>
<event>
 5    1  0.1758480E-003  0.9118800E+02  0.7818608E-02  0.1130116E+00
         25   -1    0    0    0    0  0.00000000000E+00  0.00000000000E+00  0.99999998245E-14  0.12500000000E+03  0.12500000000E+03 0.  0.
        -13    1    3    3    0    0 -0.86158252869E+01 -0.26523477440E+01  0.14160477909E+02  0.16786830927E+02  0.10566000000E+00 0. -1.
         23    2    1    0    0    0  0.21266546653E+02 -0.22953095274E+02 -0.35166384192E+02  0.77927872723E+02  0.62104494046E+02 0.  0.
         13    1    3    3    0    0  0.29882371940E+02 -0.20300747530E+02 -0.49326862102E+02  0.61141041796E+02  0.10566000000E+00 0.  1.
         22    1    1    0    0    0 -0.21266546653E+02  0.22953095274E+02  0.35166384192E+02  0.47072127277E+02  0.00000000000E+00 0.  1.
</event>
<event>
 5    1  0.1758480E-003  0.9118800E+02  0.7818608E-02  0.1130116E+00
         25   -1    0    0    0    0  0.00000000000E+00  0.00000000000E+00  0.99999998245E-14  0.12500000000E+03  0.12500000000E+03 0.  0.
        -13    1    3    3    0    0 -0.37632962156E+02 -0.34937071763E+02 -0.42888224956E+01  0.51529059630E+02  0.10566000000E+00 0. -1.
         23    2    1    0    0    0  0.27859075549E+01 -0.15763457967E+02 -0.20392229999E+02  0.99075283370E+02  0.95623327921E+02 0.  0.
         13    1    3    3    0    0  0.40418869711E+02  0.19173613796E+02 -0.16103407504E+02  0.47546223740E+02  0.10566000000E+00 0.  1.
         22    1    1    0    0    0 -0.27859075549E+01  0.15763457967E+02  0.20392229999E+02  0.25924716630E+02  0.00000000000E+00 0. -1.
</event>
<event>
 5    1  0.1758480E-003  0.9118800E+02  0.7818608E-02  0.1130116E+00
         25   -1    0    0    0    0  0.00000000000E+00  0.00000000000E+00  0.99999998245E-14  0.12500000000E+03  0.12500000000E+03 0.  0.
        -13    1    3    3    0    0 -0.11398874798E+02 -0.33078161547E+02  0.16335063237E+02  0.38612751430E+02  0.10566000000E+00 0. -1.
         23    2    1    0    0    0  0.10871167735E+02 -0.16979919792E+01 -0.26567863765E+02  0.96243838057E+02  0.91847479629E+02 0.  0.
         13    1    3    3    0    0  0.22270042533E+02  0.31380169568E+02 -0.42902927001E+02  0.57631086627E+02  0.10566000000E+00 0.  1.
         22    1    1    0    0    0 -0.10871167735E+02  0.16979919792E+01  0.26567863765E+02  0.28756161943E+02  0.00000000000E+00 0.  1.
</event>
<event>
 5    1  0.1758480E-003  0.9118800E+02  0.7818608E-02  0.1130116E+00
         25   -1    0    0    0    0  0.00000000000E+00  0.00000000000E+00  0.99999998245E-14  0.12500000000E+03  0.12500000000E+03 0.  0.
        -13    1    3    3    0    0  0.14753950930E+02 -0.15056567530E+02 -0.31039133259E+02  0.37520904192E+02  0.10566000000E+00 0. -1.
         23    2    1    0    0    0 -0.19919372955E+02 -0.13524261041E+02  0.16083382300E+02  0.96045514306E+02  0.91577172792E+02 0.  0.
         13    1    3    3    0    0 -0.34673323884E+02  0.15323064895E+01  0.47122515559E+02  0.58524610114E+02  0.10566000000E+00 0.  1.
         22    1    1    0    0    0  0.19919372955E+02  0.13524261041E+02 -0.16083382300E+02  0.28954485694E+02  0.00000000000E+00 0.  1.
</event>
<event>
 5    1  0.1758480E-003  0.9118800E+02  0.7818608E-02  0.1130116E+00
         25   -1    0    0    0    0  0.00000000000E+00  0.00000000000E+00  0.99999998245E-14  0.12500000000E+03  0.12500000000E+03 0.  0.
        -13    1    3    3    0    0 -0.59013658495E+02 -0.14158084610E+02 -0.39103605843E+01  0.60814186936E+02  0.10566000000E+00 0. -1.
         23    2    1    0    0    0 -0.30232929586E+02  0.32639805823E+01 -0.11698346950E+01  0.94568895619E+02  0.89538951886E+02 0.  0.
         13    1    3    3    0    0  0.28780728909E+02  0.17422065192E+02  0.27405258893E+01  0.33754708683E+02  0.10566000000E+00 0.  1.
         22    1    1    0    0    0  0.30232929586E+02 -0.32639805823E+01  0.11698346950E+01  0.30431104381E+02  0.00000000000E+00 0. -1.
</event>
<event>
 5    1  0.1758480E-003  0.9118800E+02  0.7818608E-02  0.1130116E+00
         25   -1    0    0    0    0  0.00000000000E+00  0.00000000000E+00  0.99999998245E-14  0.12500000000E+03  0.12500000000E+03 0.  0.
        -13    1    3    3    0    0  0.47860236948E+02  0.45682014736E+01  0.11010897170E+02  0.49322629350E+02  0.10566000000E+00 0. -1.
         23    2    1    0    0    0  0.10889724250E+02  0.26854338451E+02 -0.54329555556E+01  0.95516808281E+02  0.90852639313E+02 0.  0.
         13    1    3    3    0    0 -0.36970512699E+02  0.22286136978E+02 -0.16443852726E+02  0.46194178931E+02  0.10566000000E+00 0.  1.
         22    1    1    0    0    0 -0.10889724250E+02 -0.26854338451E+02  0.54329555556E+01  0.29483191719E+02  0.00000000000E+00 0. -1.
</event>
<event>
 5    1  0.1758480E-003  0.9118800E+02  0.7818608E-02  0.1130116E+00
         25   -1    0    0    0    0  0.00000000000E+00  0.00000000000E+00  0.99999998245E-14  0.12500000000E+03  0.12500000000E+03 0.  0.
        -13    1    3    3    0    0  0.96862979839E+01 -0.24398636233E+02 -0.21160891532E+02  0.33718130332E+02  0.10566000000E+00 0. -1.
         23    2    1    0    0    0 -0.10389625619E+02  0.11755460741E+02  0.24868655619E+02  0.95596170147E+02  0.90961764147E+02 0.  0.
         13    1    3    3    0    0 -0.20075923603E+02  0.36154096973E+02  0.46029547150E+02  0.61878039815E+02  0.10566000000E+00 0.  1.
         22    1    1    0    0    0  0.10389625619E+02 -0.11755460741E+02 -0.24868655619E+02  0.29403829853E+02  0.00000000000E+00 0.  1.
</event>
<event>
 5    1  0.1758480E-003  0.9118800E+02  0.7818608E-02  0.1130116E+00
         25   -1    0    0    0    0  0.00000000000E+00  0.00000000000E+00  0.99999998245E-14  0.12500000000E+03  0.12500000000E+03 0.  0.
        -13    1    3    3    0    0 -0.60396945872E+01 -0.52320116087E+02  0.82789459130E+01  0.53314393624E+02  0.10566000000E+00 0.  1.
         23    2    1    0    0    0 -0.15969581162E+02 -0.12670287583E+02  0.20613060982E+02  0.96009277467E+02  0.91527697265E+02 0.  0.
         13    1    3    3    0    0 -0.99298865751E+01  0.39649828504E+02  0.12334115069E+02  0.42694883843E+02  0.10566000000E+00 0. -1.
         22    1    1    0    0    0  0.15969581162E+02  0.12670287583E+02 -0.20613060982E+02  0.28990722533E+02  0.00000000000E+00 0.  1.
</event>
<event>
 5    1  0.1758480E-003  0.9118800E+02  0.7818608E-02  0.1130116E+00
         25   -1    0    0    0    0  0.00000000000E+00  0.00000000000E+00  0.99999998245E-14  0.12500000000E+03  0.12500000000E+03 0.  0.
        -13    1    3    3    0    0 -0.57111109558E+01 -0.71279163217E+01  0.51530927993E+02  0.52334230512E+02  0.10566000000E+00 0.  1.
         23    2    1    0    0    0 -0.18680606850E+02 -0.20122132480E+02  0.13854255753E+02  0.94246045940E+02  0.89087100553E+02 0.  0.
         13    1    3    3    0    0 -0.12969495894E+02 -0.12994216159E+02 -0.37676672240E+02  0.41911815428E+02  0.10566000000E+00 0. -1.
         22    1    1    0    0    0  0.18680606850E+02  0.20122132480E+02 -0.13854255753E+02  0.30753954060E+02  0.00000000000E+00 0.  1.
</event>
<event>
 5    1  0.1758480E-003  0.9118800E+02  0.7818608E-02  0.1130116E+00
         25   -1    0    0    0    0  0.00000000000E+00  0.00000000000E+00  0.99999998245E-14  0.12500000000E+03  0.12500000000E+03 0.  0.
        -13    1    3    3    0    0  0.24483566532E+01  0.11335909106E+01 -0.45748772983E+02  0.45828385004E+02  0.10566000000E+00 0.  1.
         23    2    1    0    0    0  0.26803009999E+02  0.95397359959E+01 -0.21528506339E+01  0.96468566918E+02  0.92152817263E+02 0.  0.
         13    1    3    3    0    0  0.24354653345E+02  0.84061450853E+01  0.43595922349E+02  0.50640181914E+02  0.10566000000E+00 0. -1.
         22    1    1    0    0    0 -0.26803009999E+02 -0.95397359959E+01  0.21528506339E+01  0.28531433082E+02  0.00000000000E+00 0. -1.
</event>
<event>
 5    1  0.1758480E-003  0.9118800E+02  0.7818608E-02  0.1130116E+00
         25   -1    0    0    0    0  0.00000000000E+00  0.00000000000E+00  0.99999998245E-14  0.12500000000E+03  0.12500000000E+03 0.  0.
        -13    1    3    3    0    0  0.88484812245E+00  0.31992887132E+02  0.21729869044E+02  0.38684960332E+02  0.10566000000E+00 0.  1.
         23    2    1    0    0    0 -0.29557065526E+02 -0.76574693080E+01 -0.27455847677E+01  0.94343920759E+02  0.89224325101E+02 0.  0.
         13    1    3    3    0    0 -0.30441913649E+02 -0.39650356440E+02 -0.24475453811E+02  0.55658960426E+02  0.10566000000E+00 0. -1.
         22    1    1    0    0    0  0.29557065526E+02  0.76574693080E+01  0.27455847677E+01  0.30656079241E+02  0.00000000000E+00 0. -1.
</event>
<event>
 5    1  0.1758480E-003  0.9118800E+02  0.7818608E-02  0.1130116E+00
         25   -1    0    0    0    0  0.00000000000E+00  0.00000000000E+00  0.99999998245E-14  0.12500000000E+03  0.12500000000E+03 0.  0.
        -13    1    3    3    0    0 -0.49729650092E+02  0.84012979437E+01 -0.10539040082E+02  0.51523804550E+02  0.10566000000E+00 0. -1.
         23    2    1    0    0    0 -0.32771090126E+02  0.34606484882E+01  0.19745864976E+02  0.86583602203E+02  0.77594462115E+02 0.  0.
         13    1    3    3    0    0  0.16958559966E+02 -0.49406494555E+01  0.30284905058E+02  0.35059797654E+02  0.10566000000E+00 0.  1.
         22    1    1    0    0    0  0.32771090126E+02 -0.34606484882E+01 -0.19745864976E+02  0.38416397797E+02  0.00000000000E+00 0.  1.
</event>
<event>
 5    1  0.1758480E-003  0.9118800E+02  0.7818608E-02  0.1130116E+00
         25   -1    0    0    0    0  0.00000000000E+00  0.00000000000E+00  0.99999998245E-14  0.12500000000E+03  0.12500000000E+03 0.  0.
        -13    1    3    3    0    0 -0.30003572251E+02 -0.50907193255E+02 -0.17574092902E+02  0.61649140937E+02  0.10566000000E+00 0.  1.
         23    2    1    0    0    0 -0.12085427878E+02 -0.26019002471E+02 -0.15043779564E+01  0.96271804623E+02  0.91885532898E+02 0.  0.
         13    1    3    3    0    0  0.17918144373E+02  0.24888190784E+02  0.16069714945E+02  0.34622663686E+02  0.10566000000E+00 0. -1.
         22    1    1    0    0    0  0.12085427878E+02  0.26019002471E+02  0.15043779564E+01  0.28728195377E+02  0.00000000000E+00 0.  1.
</event>
<event>
 5    1  0.1758480E-003  0.9118800E+02  0.7818608E-02  0.1130116E+00
         25   -1    0    0    0    0  0.00000000000E+00  0.00000000000E+00  0.99999998245E-14  0.12500000000E+03  0.12500000000E+03 0.  0.
        -13    1    3    3    0    0  0.27939421118E+02  0.24522972921E+02 -0.15795287575E+02  0.40391703689E+02  0.10566000000E+00 0. -1.
         23    2    1    0    0    0 -0.10526457481E+01 -0.24230510549E+02 -0.13681843447E+02  0.97153661917E+02  0.93077470309E+02 0.  0.
         13    1    3    3    0    0 -0.28992066866E+02 -0.48753483471E+02  0.21134441279E+01  0.56761958228E+02  0.10566000000E+00 0.  1.
         22    1    1    0    0    0  0.10526457481E+01  0.24230510549E+02  0.13681843447E+02  0.27846338083E+02  0.00000000000E+00 0.  1.
</event>
<event>
 5    1  0.1758480E-003  0.9118800E+02  0.7818608E-02  0.1130116E+00
         25   -1    0    0    0    0  0.00000000000E+00  0.00000000000E+00  0.99999998245E-14  0.12500000000E+03  0.12500000000E+03 0.  0.
        -13    1    3    3    0    0  0.14693670658E+02  0.41368586091E+02 -0.49490382781E+01  0.44178818640E+02  0.10566000000E+00 0.  1.
         23    2    1    0    0    0  0.18902068007E+02 -0.70079430480E+01 -0.21543539792E+02  0.95495363967E+02  0.90823130268E+02 0.  0.
         13    1    3    3    0    0  0.42083973491E+01 -0.48376529139E+02 -0.16594501514E+02  0.51316545327E+02  0.10566000000E+00 0. -1.
         22    1    1    0    0    0 -0.18902068007E+02  0.70079430480E+01  0.21543539792E+02  0.29504636033E+02  0.00000000000E+00 0. -1.
</event>
<event>
 5    1  0.1758480E-003  0.9118800E+02  0.7818608E-02  0.1130116E+00
         25   -1    0    0    0    0  0.00000000000E+00  0.00000000000E+00  0.99999998245E-14  0.12500000000E+03  0.12500000000E+03 0.  0.
        -13    1    3    3    0    0  0.14316797023E+02  0.13508876240E+02 -0.47956272617E+02  0.51838939627E+02  0.10566000000E+00 0.  1.
         23    2    1    0    0    0 -0.13928801758E+02  0.20846276579E+02 -0.15327737718E+02  0.95614317956E+02  0.90986699517E+02 0.  0.
         13    1    3    3    0    0 -0.28245598781E+02  0.73374003387E+01  0.32628534899E+02  0.43775378329E+02  0.10566000000E+00 0. -1.
         22    1    1    0    0    0  0.13928801758E+02 -0.20846276579E+02  0.15327737718E+02  0.29385682044E+02  0.00000000000E+00 0.  1.
</event>
<event>
 5    1  0.1758480E-003  0.9118800E+02  0.7818608E-02  0.1130116E+00
         25   -1    0    0    0    0  0.00000000000E+00  0.00000000000E+00  0.99999998245E-14  0.12500000000E+03  0.12500000000E+03 0.  0.
        -13    1    3    3    0    0  0.53586507361E+01 -0.51749966176E+01 -0.42870823696E+02  0.43513382035E+02  0.10566000000E+00 0. -1.
         23    2    1    0    0    0  0.26939420800E+02  0.65860723703E+01  0.45227855742E+01  0.96900812616E+02  0.92737280281E+02 0.  0.
         13    1    3    3    0    0  0.21580770064E+02  0.11761068988E+02  0.47393609271E+02  0.53387430581E+02  0.10566000000E+00 0.  1.
         22    1    1    0    0    0 -0.26939420800E+02 -0.65860723703E+01 -0.45227855742E+01  0.28099187384E+02  0.00000000000E+00 0. -1.
</event>
<event>
 5    1  0.1758480E-003  0.9118800E+02  0.7818608E-02  0.1130116E+00
         25   -1    0    0    0    0  0.00000000000E+00  0.00000000000E+00  0.99999998245E-14  0.12500000000E+03  0.12500000000E+03 0.  0.
        -13    1    3    3    0    0 -0.19768290972E+02  0.17457811573E+02  0.33730397776E+02  0.42817185931E+02  0.10566000000E+00 0.  1.
         23    2    1    0    0    0 -0.23247115796E+02 -0.53640489073E+01 -0.15055016836E+02  0.96789098819E+02  0.92586579507E+02 0.  0.
         13    1    3    3    0    0 -0.34788248236E+01 -0.22821860480E+02 -0.48785414612E+02  0.53971912888E+02  0.10566000000E+00 0. -1.
         22    1    1    0    0    0  0.23247115796E+02  0.53640489073E+01  0.15055016836E+02  0.28210901181E+02  0.00000000000E+00 0. -1.
</event>
<event>
 5    1  0.1758480E-003  0.9118800E+02  0.7818608E-02  0.1130116E+00
         25   -1    0    0    0    0  0.00000000000E+00  0.00000000000E+00  0.99999998245E-14  0.12500000000E+03  0.12500000000E+03 0.  0.
        -13    1    3    3    0    0 -0.10015532126E+02 -0.34310481888E+02 -0.26801979085E+02  0.44675242563E+02  0.10566000000E+00 0.  1.
         23    2    1    0    0    0  0.27504746691E+02 -0.58007331453E+01 -0.56492913904E+01  0.96328165584E+02  0.91962173723E+02 0.  0.
         13    1    3    3    0    0  0.37520278817E+02  0.28509748742E+02  0.21152687695E+02  0.51652923021E+02  0.10566000000E+00 0. -1.
         22    1    1    0    0    0 -0.27504746691E+02  0.58007331453E+01  0.56492913904E+01  0.28671834416E+02  0.00000000000E+00 0.  1.
</event>
<event>
 5    1  0.1758480E-003  0.9118800E+02  0.7818608E-02  0.1130116E+00
         25   -1    0    0    0    0  0.00000000000E+00  0.00000000000E+00  0.99999998245E-14  0.12500000000E+03  0.12500000000E+03 0.  0.
        -13    1    3    3    0    0  0.40794971109E+02  0.25572457346E+02  0.16776607316E+02  0.50986723365E+02  0.10566000000E+00 0. -1.
         23    2    1    0    0    0  0.13850977438E+02  0.23657510402E+02 -0.15841825827E+02  0.93337864571E+02  0.87803565661E+02 0.  0.
         13    1    3    3    0    0 -0.26943993671E+02 -0.19149469441E+01 -0.32618433142E+02  0.42351141206E+02  0.10566000000E+00 0.  1.
         22    1    1    0    0    0 -0.13850977438E+02 -0.23657510402E+02  0.15841825827E+02  0.31662135429E+02  0.00000000000E+00 0. -1.
</event>
<event>
 5    1  0.1758480E-003  0.9118800E+02  0.7818608E-02  0.1130116E+00
         25   -1    0    0    0    0  0.00000000000E+00  0.00000000000E+00  0.99999998245E-14  0.12500000000E+03  0.12500000000E+03 0.  0.
        -13    1    3    3    0    0  0.11045654514E+02  0.37982480906E+02 -0.13474081812E+02  0.41788005266E+02  0.10566000000E+00 0.  1.
         23    2    1    0    0    0 -0.17053602565E+02  0.13824790305E+02  0.22592223987E+02  0.93498273506E+02  0.88031632817E+02 0.  0.
         13    1    3    3    0    0 -0.28099257079E+02 -0.24157690600E+02  0.36066305798E+02  0.51710268240E+02  0.10566000000E+00 0. -1.
         22    1    1    0    0    0  0.17053602565E+02 -0.13824790305E+02 -0.22592223987E+02  0.31501726494E+02  0.00000000000E+00 0. -1.
</event>
<event>
 5    1  0.1758480E-003  0.9118800E+02  0.7818608E-02  0.1130116E+00
         25   -1    0    0    0    0  0.00000000000E+00  0.00000000000E+00  0.99999998245E-14  0.12500000000E+03  0.12500000000E+03 0.  0.
        -13    1    3    3    0    0 -0.15314440105E+02  0.51006505241E+01 -0.44503586772E+02  0.47340565175E+02  0.10566000000E+00 0.  1.
         23    2    1    0    0    0  0.13848493462E+02  0.23115056994E+02 -0.92535081997E+01  0.96509404271E+02  0.92208194147E+02 0.  0.
         13    1    3    3    0    0  0.29162933567E+02  0.18014406470E+02  0.35250078572E+02  0.49168839096E+02  0.10566000000E+00 0. -1.
         22    1    1    0    0    0 -0.13848493462E+02 -0.23115056994E+02  0.92535081997E+01  0.28490595729E+02  0.00000000000E+00 0. -1.
</event>
<event>
 5    1  0.1758480E-003  0.9118800E+02  0.7818608E-02  0.1130116E+00
         25   -1    0    0    0    0  0.00000000000E+00  0.00000000000E+00  0.99999998245E-14  0.12500000000E+03  0.12500000000E+03 0.  0.
        -13    1    3    3    0    0 -0.32349014621E+02  0.38620782766E+02 -0.25719186364E+02  0.56564222965E+02  0.10566000000E+00 0.  1.
         23    2    1    0    0    0  0.22084650968E+01  0.22180063996E+02 -0.19597953048E+02  0.95319832874E+02  0.90581224426E+02 0.  0.
         13    1    3    3    0    0  0.34557479718E+02 -0.16440718770E+02  0.61212333155E+01  0.38755609909E+02  0.10566000000E+00 0. -1.
         22    1    1    0    0    0 -0.22084650968E+01 -0.22180063996E+02  0.19597953048E+02  0.29680167126E+02  0.00000000000E+00 0.  1.
</event>
<event>
 5    1  0.1758480E-003  0.9118800E+02  0.7818608E-02  0.1130116E+00
         25   -1    0    0    0    0  0.00000000000E+00  0.00000000000E+00  0.99999998245E-14  0.12500000000E+03  0.12500000000E+03 0.  0.
        -13    1    3    3    0    0  0.12710814349E+02 -0.11266034635E+02  0.43793347197E+02  0.46971872015E+02  0.10566000000E+00 0. -1.
         23    2    1    0    0    0 -0.11660508647E+02  0.21053217382E+02  0.17568118511E+02  0.95203285214E+02  0.90420248305E+02 0.  0.
         13    1    3    3    0    0 -0.24371322996E+02  0.32319252017E+02 -0.26225228686E+02  0.48231413199E+02  0.10566000000E+00 0.  1.
         22    1    1    0    0    0  0.11660508647E+02 -0.21053217382E+02 -0.17568118511E+02  0.29796714786E+02  0.00000000000E+00 0.  1.
</event>
<event>
 5    1  0.1758480E-003  0.9118800E+02  0.7818608E-02  0.1130116E+00
         25   -1    0    0    0    0  0.00000000000E+00  0.00000000000E+00  0.99999998245E-14  0.12500000000E+03  0.12500000000E+03 0.  0.
        -13    1    3    3    0    0  0.36494985471E+02  0.55527560806E+01  0.98192688343E+01  0.38198773136E+02  0.10566000000E+00 0.  1.
         23    2    1    0    0    0 -0.19776152320E+02 -0.63964064378E+01  0.19460243022E+02  0.96527007984E+02  0.92232055143E+02 0.  0.
         13    1    3    3    0    0 -0.56271137791E+02 -0.11949162518E+02  0.96409741874E+01  0.58328234848E+02  0.10566000000E+00 0. -1.
         22    1    1    0    0    0  0.19776152320E+02  0.63964064378E+01 -0.19460243022E+02  0.28472992016E+02  0.00000000000E+00 0. -1.
</event>
<event>
 5    1  0.1758480E-003  0.9118800E+02  0.7818608E-02  0.1130116E+00
         25   -1    0    0    0    0  0.00000000000E+00  0.00000000000E+00  0.99999998245E-14  0.12500000000E+03  0.12500000000E+03 0.  0.
        -13    1    3    3    0    0 -0.16515252337E+02  0.23813290713E+02  0.16584525945E+02  0.33389879293E+02  0.10566000000E+00 0.  1.
         23    2    1    0    0    0  0.15771278946E+02 -0.18560280061E+02 -0.16019785289E+02  0.95847800147E+02  0.91306900269E+02 0.  0.
         13    1    3    3    0    0  0.32286531283E+02 -0.42373570774E+02 -0.32604311234E+02  0.62457920855E+02  0.10566000000E+00 0. -1.
         22    1    1    0    0    0 -0.15771278946E+02  0.18560280061E+02  0.16019785289E+02  0.29152199853E+02  0.00000000000E+00 0. -1.
</event>
<event>
 5    1  0.1758480E-003  0.9118800E+02  0.7818608E-02  0.1130116E+00
         25   -1    0    0    0    0  0.00000000000E+00  0.00000000000E+00  0.99999998245E-14  0.12500000000E+03  0.12500000000E+03 0.  0.
        -13    1    3    3    0    0 -0.13643693046E+02 -0.45961786581E+02 -0.48178843251E+01  0.48185675870E+02  0.10566000000E+00 0.  1.
         23    2    1    0    0    0 -0.14406656652E+02 -0.84838581443E+01  0.24196987195E+02  0.95588747150E+02  0.90951562864E+02 0.  0.
         13    1    3    3    0    0 -0.76296360596E+00  0.37477928437E+02  0.29014871520E+02  0.47403071280E+02  0.10566000000E+00 0. -1.
         22    1    1    0    0    0  0.14406656652E+02  0.84838581443E+01 -0.24196987195E+02  0.29411252850E+02  0.00000000000E+00 0.  1.
</event>
<event>
 5    1  0.1758480E-003  0.9118800E+02  0.7818608E-02  0.1130116E+00
         25   -1    0    0    0    0  0.00000000000E+00  0.00000000000E+00  0.99999998245E-14  0.12500000000E+03  0.12500000000E+03 0.  0.
        -13    1    3    3    0    0  0.15287685711E+01 -0.24040729145E+02 -0.30140700718E+02  0.38584540881E+02  0.10566000000E+00 0. -1.
         23    2    1    0    0    0 -0.16289726402E+02  0.23244054346E+02 -0.17092915885E+01  0.96564759076E+02  0.92283204154E+02 0.  0.
         13    1    3    3    0    0 -0.17818494973E+02  0.47284783490E+02  0.28431409130E+02  0.57980218195E+02  0.10566000000E+00 0.  1.
         22    1    1    0    0    0  0.16289726402E+02 -0.23244054346E+02  0.17092915885E+01  0.28435240924E+02  0.00000000000E+00 0.  1.
</event>
<event>
 5    1  0.1758480E-003  0.9118800E+02  0.7818608E-02  0.1130116E+00
         25   -1    0    0    0    0  0.00000000000E+00  0.00000000000E+00  0.99999998245E-14  0.12500000000E+03  0.12500000000E+03 0.  0.
        -13    1    3    3    0    0  0.53220772058E+01  0.18253620928E+02 -0.31802393134E+02  0.37052969596E+02  0.10566000000E+00 0. -1.
         23    2    1    0    0    0 -0.32482572419E+02  0.28076791730E+02 -0.16784749938E+02  0.78900633678E+02  0.64032479410E+02 0.  0.
         13    1    3    3    0    0 -0.37804649625E+02  0.98231708024E+01  0.15017643196E+02  0.41847664082E+02  0.10566000000E+00 0.  1.
         22    1    1    0    0    0  0.32482572419E+02 -0.28076791730E+02  0.16784749938E+02  0.46099366322E+02  0.00000000000E+00 0.  1.
</event>
<event>
 5    1  0.1758480E-003  0.9118800E+02  0.7818608E-02  0.1130116E+00
         25   -1    0    0    0    0  0.00000000000E+00  0.00000000000E+00  0.99999998245E-14  0.12500000000E+03  0.12500000000E+03 0.  0.
        -13    1    3    3    0    0 -0.21211148173E+02 -0.85914041729E+01 -0.34201470705E+02  0.41151874743E+02  0.10566000000E+00 0.  1.
         23    2    1    0    0    0  0.26966965023E+02  0.25860005395E+01 -0.11556770141E+02  0.95547266045E+02  0.90894535101E+02 0.  0.
         13    1    3    3    0    0  0.48178113196E+02  0.11177404712E+02  0.22644700564E+02  0.54395391302E+02  0.10566000000E+00 0. -1.
         22    1    1    0    0    0 -0.26966965023E+02 -0.25860005395E+01  0.11556770141E+02  0.29452733955E+02  0.00000000000E+00 0. -1.
</event>
<event>
 5    1  0.1758480E-003  0.9118800E+02  0.7818608E-02  0.1130116E+00
         25   -1    0    0    0    0  0.00000000000E+00  0.00000000000E+00  0.99999998245E-14  0.12500000000E+03  0.12500000000E+03 0.  0.
        -13    1    3    3    0    0 -0.16559798441E+02 -0.32341516012E+02  0.51705161864E+01  0.36700762717E+02  0.10566000000E+00 0.  1.
         23    2    1    0    0    0 -0.97880398879E+01  0.24880070900E+02 -0.10277319815E+02  0.96356554756E+02  0.92000753742E+02 0.  0.
         13    1    3    3    0    0  0.67717585531E+01  0.57221586912E+02 -0.15447836002E+02  0.59655792039E+02  0.10566000000E+00 0. -1.
         22    1    1    0    0    0  0.97880398879E+01 -0.24880070900E+02  0.10277319815E+02  0.28643445244E+02  0.00000000000E+00 0. -1.
</event>
<event>
 5    1  0.1758480E-003  0.9118800E+02  0.7818608E-02  0.1130116E+00
         25   -1    0    0    0    0  0.00000000000E+00  0.00000000000E+00  0.99999998245E-14  0.12500000000E+03  0.12500000000E+03 0.  0.
        -13    1    3    3    0    0  0.11861776903E+02  0.27917480525E+02 -0.53280936999E+02  0.61310332586E+02  0.10566000000E+00 0.  1.
         23    2    1    0    0    0  0.13439642643E+02  0.11746469862E+02 -0.21082104738E+02  0.97376483049E+02  0.93376232319E+02 0.  0.
         13    1    3    3    0    0  0.15778657400E+01 -0.16171010663E+02  0.32198832262E+02  0.36066150463E+02  0.10566000000E+00 0. -1.
         22    1    1    0    0    0 -0.13439642643E+02 -0.11746469862E+02  0.21082104738E+02  0.27623516951E+02  0.00000000000E+00 0.  1.
</event>
<event>
 5    1  0.1758480E-003  0.9118800E+02  0.7818608E-02  0.1130116E+00
         25   -1    0    0    0    0  0.00000000000E+00  0.00000000000E+00  0.99999998245E-14  0.12500000000E+03  0.12500000000E+03 0.  0.
        -13    1    3    3    0    0 -0.26616020697E+02 -0.16369661734E+02  0.20189719348E+02  0.37202342862E+02  0.10566000000E+00 0.  1.
         23    2    1    0    0    0 -0.21329662005E+01  0.88382315778E+01 -0.27269210306E+02  0.96255022823E+02  0.91862700296E+02 0.  0.
         13    1    3    3    0    0  0.24483054496E+02  0.25207893312E+02 -0.47458929654E+02  0.59052679961E+02  0.10566000000E+00 0. -1.
         22    1    1    0    0    0  0.21329662005E+01 -0.88382315778E+01  0.27269210306E+02  0.28744977177E+02  0.00000000000E+00 0. -1.
</event>
<event>
 5    1  0.1758480E-003  0.9118800E+02  0.7818608E-02  0.1130116E+00
         25   -1    0    0    0    0  0.00000000000E+00  0.00000000000E+00  0.99999998245E-14  0.12500000000E+03  0.12500000000E+03 0.  0.
        -13    1    3    3    0    0  0.44623977833E+02  0.20168636976E+02 -0.24905123225E+02  0.54939508935E+02  0.10566000000E+00 0.  1.
         23    2    1    0    0    0  0.16593467992E+02 -0.30389827453E+01 -0.28887152481E+02  0.91547852467E+02  0.85217152714E+02 0.  0.
         13    1    3    3    0    0 -0.28030509841E+02 -0.23207619722E+02 -0.39820292559E+01  0.36608343531E+02  0.10566000000E+00 0. -1.
         22    1    1    0    0    0 -0.16593467992E+02  0.30389827453E+01  0.28887152481E+02  0.33452147533E+02  0.00000000000E+00 0.  1.
</event>
<event>
 5    1  0.1758480E-003  0.9118800E+02  0.7818608E-02  0.1130116E+00
         25   -1    0    0    0    0  0.00000000000E+00  0.00000000000E+00  0.99999998245E-14  0.12500000000E+03  0.12500000000E+03 0.  0.
        -13    1    3    3    0    0 -0.33922258331E+02  0.38089650702E+02 -0.18542924693E+02  0.54271468757E+02  0.10566000000E+00 0. -1.
         23    2    1    0    0    0 -0.10439480211E+01  0.14256948248E+02 -0.25782655886E+02  0.95519570130E+02  0.90856439136E+02 0.  0.
         13    1    3    3    0    0  0.32878310309E+02 -0.23832702454E+02 -0.72397311934E+01  0.41248101373E+02  0.10566000000E+00 0.  1.
         22    1    1    0    0    0  0.10439480211E+01 -0.14256948248E+02  0.25782655886E+02  0.29480429870E+02  0.00000000000E+00 0.  1.
</event>
<event>
 5    1  0.1758480E-003  0.9118800E+02  0.7818608E-02  0.1130116E+00
         25   -1    0    0    0    0  0.00000000000E+00  0.00000000000E+00  0.99999998245E-14  0.12500000000E+03  0.12500000000E+03 0.  0.
        -13    1    3    3    0    0  0.45981362480E+01  0.47361800426E+02 -0.60663074436E+01  0.47969722186E+02  0.10566000000E+00 0.  1.
         23    2    1    0    0    0 -0.25648228762E+02  0.10931727020E+02 -0.97525370282E+01  0.95462798495E+02  0.90778299299E+02 0.  0.
         13    1    3    3    0    0 -0.30246365010E+02 -0.36430073406E+02 -0.36862295845E+01  0.47493076309E+02  0.10566000000E+00 0. -1.
         22    1    1    0    0    0  0.25648228762E+02 -0.10931727020E+02  0.97525370282E+01  0.29537201505E+02  0.00000000000E+00 0. -1.
</event>
<event>
 5    1  0.1758480E-003  0.9118800E+02  0.7818608E-02  0.1130116E+00
         25   -1    0    0    0    0  0.00000000000E+00  0.00000000000E+00  0.99999998245E-14  0.12500000000E+03  0.12500000000E+03 0.  0.
        -13    1    3    3    0    0 -0.82303784858E+00  0.47520209099E+02  0.20096187669E+02  0.51601507604E+02  0.10566000000E+00 0.  1.
         23    2    1    0    0    0  0.18356838277E+02  0.14714748358E+02 -0.93577636360E+01  0.99680737155E+02  0.96411536077E+02 0.  0.
         13    1    3    3    0    0  0.19179876126E+02 -0.32805460742E+02 -0.29453951305E+02  0.48079229551E+02  0.10566000000E+00 0. -1.
         22    1    1    0    0    0 -0.18356838277E+02 -0.14714748358E+02  0.93577636360E+01  0.25319262845E+02  0.00000000000E+00 0. -1.
</event>
<event>
 5    1  0.1758480E-003  0.9118800E+02  0.7818608E-02  0.1130116E+00
         25   -1    0    0    0    0  0.00000000000E+00  0.00000000000E+00  0.99999998245E-14  0.12500000000E+03  0.12500000000E+03 0.  0.
        -13    1    3    3    0    0  0.13261090759E+02 -0.18266189680E+02  0.55241452714E+02  0.59675283624E+02  0.10566000000E+00 0. -1.
         23    2    1    0    0    0  0.52724139428E+01 -0.20488195855E+02  0.19972845112E+02  0.95905686809E+02  0.91386113290E+02 0.  0.
         13    1    3    3    0    0 -0.79886768164E+01 -0.22220061756E+01 -0.35268607602E+02  0.36230403185E+02  0.10566000000E+00 0.  1.
         22    1    1    0    0    0 -0.52724139428E+01  0.20488195855E+02 -0.19972845112E+02  0.29094313191E+02  0.00000000000E+00 0. -1.
</event>
<event>
 5    1  0.1758480E-003  0.9118800E+02  0.7818608E-02  0.1130116E+00
         25   -1    0    0    0    0  0.00000000000E+00  0.00000000000E+00  0.99999998245E-14  0.12500000000E+03  0.12500000000E+03 0.  0.
        -13    1    3    3    0    0  0.32255463481E+02  0.59040000032E+01 -0.31814090725E+02  0.45688288140E+02  0.10566000000E+00 0.  1.
         23    2    1    0    0    0  0.90240049588E+01 -0.27929167406E+02 -0.37426869892E+01  0.95411509613E+02  0.90707647987E+02 0.  0.
         13    1    3    3    0    0 -0.23231458523E+02 -0.33833167409E+02  0.28071403736E+02  0.49723221474E+02  0.10566000000E+00 0. -1.
         22    1    1    0    0    0 -0.90240049588E+01  0.27929167406E+02  0.37426869892E+01  0.29588490387E+02  0.00000000000E+00 0. -1.
</event>
<event>
 5    1  0.1758480E-003  0.9118800E+02  0.7818608E-02  0.1130116E+00
         25   -1    0    0    0    0  0.00000000000E+00  0.00000000000E+00  0.99999998245E-14  0.12500000000E+03  0.12500000000E+03 0.  0.
        -13    1    3    3    0    0  0.34623815125E+02 -0.14689356703E+02  0.40936046496E+02  0.55590978053E+02  0.10566000000E+00 0.  1.
         23    2    1    0    0    0 -0.31534115702E+01 -0.72749891699E+01  0.27521209215E+02  0.96359357050E+02  0.92004561096E+02 0.  0.
         13    1    3    3    0    0 -0.37777226696E+02  0.74143675327E+01 -0.13414837281E+02  0.40768378997E+02  0.10566000000E+00 0. -1.
         22    1    1    0    0    0  0.31534115702E+01  0.72749891699E+01 -0.27521209215E+02  0.28640642950E+02  0.00000000000E+00 0.  1.
</event>
<event>
 5    1  0.1758480E-003  0.9118800E+02  0.7818608E-02  0.1130116E+00
         25   -1    0    0    0    0  0.00000000000E+00  0.00000000000E+00  0.99999998245E-14  0.12500000000E+03  0.12500000000E+03 0.  0.
        -13    1    3    3    0    0 -0.10696055941E+02 -0.40960755397E+02 -0.29178282573E+02  0.51415682757E+02  0.10566000000E+00 0. -1.
         23    2    1    0    0    0  0.21677125964E+01 -0.21403435824E+02  0.13150449471E+02  0.99786107713E+02  0.96548055020E+02 0.  0.
         13    1    3    3    0    0  0.12863768537E+02  0.19557319573E+02  0.42328732045E+02  0.48370424956E+02  0.10566000000E+00 0.  1.
         22    1    1    0    0    0 -0.21677125964E+01  0.21403435824E+02 -0.13150449471E+02  0.25213892287E+02  0.00000000000E+00 0. -1.
</event>
<event>
 5    1  0.1758480E-003  0.9118800E+02  0.7818608E-02  0.1130116E+00
         25   -1    0    0    0    0  0.00000000000E+00  0.00000000000E+00  0.99999998245E-14  0.12500000000E+03  0.12500000000E+03 0.  0.
        -13    1    3    3    0    0  0.16681679335E+02 -0.54585265725E+02  0.13084838333E+02  0.58558123416E+02  0.10566000000E+00 0.  1.
         23    2    1    0    0    0  0.28732830249E+01 -0.20812300502E+02  0.20337899938E+02  0.95758970924E+02  0.91185211141E+02 0.  0.
         13    1    3    3    0    0 -0.13808396310E+02  0.33772965223E+02  0.72530616050E+01  0.37200847508E+02  0.10566000000E+00 0. -1.
         22    1    1    0    0    0 -0.28732830249E+01  0.20812300502E+02 -0.20337899938E+02  0.29241029076E+02  0.00000000000E+00 0.  1.
</event>
<event>
 5    1  0.1758480E-003  0.9118800E+02  0.7818608E-02  0.1130116E+00
         25   -1    0    0    0    0  0.00000000000E+00  0.00000000000E+00  0.99999998245E-14  0.12500000000E+03  0.12500000000E+03 0.  0.
        -13    1    3    3    0    0 -0.11265189956E+02  0.38658633774E+02  0.14233696579E+02  0.42708356938E+02  0.10566000000E+00 0. -1.
         23    2    1    0    0    0  0.20025944923E+02  0.10721592659E+02 -0.18329273256E+02  0.95811761319E+02  0.91257549439E+02 0.  0.
         13    1    3    3    0    0  0.31291134879E+02 -0.27937041115E+02 -0.32562969835E+02  0.53103404381E+02  0.10566000000E+00 0.  1.
         22    1    1    0    0    0 -0.20025944923E+02 -0.10721592659E+02  0.18329273256E+02  0.29188238681E+02  0.00000000000E+00 0.  1.
</event>
<event>
 5    1  0.1758480E-003  0.9118800E+02  0.7818608E-02  0.1130116E+00
         25   -1    0    0    0    0  0.00000000000E+00  0.00000000000E+00  0.99999998245E-14  0.12500000000E+03  0.12500000000E+03 0.  0.
        -13    1    3    3    0    0  0.24064956655E+01 -0.29711859899E+02 -0.52570081880E+02  0.60433521434E+02  0.10566000000E+00 0. -1.
         23    2    1    0    0    0 -0.10090280687E+02 -0.14871837566E+02 -0.22780395037E+02  0.95983940395E+02  0.91493087711E+02 0.  0.
         13    1    3    3    0    0 -0.12496776353E+02  0.14840022334E+02  0.29789686843E+02  0.35550418961E+02  0.10566000000E+00 0.  1.
         22    1    1    0    0    0  0.10090280687E+02  0.14871837566E+02  0.22780395037E+02  0.29016059605E+02  0.00000000000E+00 0. -1.
</event>
<event>
 5    1  0.1758480E-003  0.9118800E+02  0.7818608E-02  0.1130116E+00
         25   -1    0    0    0    0  0.00000000000E+00  0.00000000000E+00  0.99999998245E-14  0.12500000000E+03  0.12500000000E+03 0.  0.
        -13    1    3    3    0    0  0.58977949578E+01 -0.34153587632E+02  0.19913063445E+01  0.34716393800E+02  0.10566000000E+00 0. -1.
         23    2    1    0    0    0 -0.18990563681E+02  0.21456033959E+02 -0.45354267257E+01  0.95990122411E+02  0.91501533335E+02 0.  0.
         13    1    3    3    0    0 -0.24888358639E+02  0.55609621591E+02 -0.65267330703E+01  0.61273728610E+02  0.10566000000E+00 0.  1.
         22    1    1    0    0    0  0.18990563681E+02 -0.21456033959E+02  0.45354267257E+01  0.29009877589E+02  0.00000000000E+00 0.  1.
</event>
<event>
 5    1  0.1758480E-003  0.9118800E+02  0.7818608E-02  0.1130116E+00
         25   -1    0    0    0    0  0.00000000000E+00  0.00000000000E+00  0.99999998245E-14  0.12500000000E+03  0.12500000000E+03 0.  0.
        -13    1    3    3    0    0  0.38006177689E+02 -0.56009387238E+01 -0.25425446718E+02  0.46068476879E+02  0.10566000000E+00 0. -1.
         23    2    1    0    0    0  0.80461875317E+01  0.28187545524E+02 -0.68576341302E+01  0.94895083419E+02  0.89993171157E+02 0.  0.
         13    1    3    3    0    0 -0.29959990157E+02  0.33788484248E+02  0.18567812588E+02  0.48826606541E+02  0.10566000000E+00 0.  1.
         22    1    1    0    0    0 -0.80461875317E+01 -0.28187545524E+02  0.68576341302E+01  0.30104916581E+02  0.00000000000E+00 0.  1.
</event>
<event>
 5    1  0.1758480E-003  0.9118800E+02  0.7818608E-02  0.1130116E+00
         25   -1    0    0    0    0  0.00000000000E+00  0.00000000000E+00  0.99999998245E-14  0.12500000000E+03  0.12500000000E+03 0.  0.
        -13    1    3    3    0    0  0.25223108070E+02 -0.32617855700E+02 -0.16043397161E+02  0.44243999002E+02  0.10566000000E+00 0. -1.
         23    2    1    0    0    0 -0.16202389981E+02 -0.59263898479E+01 -0.25291897800E+02  0.94384323753E+02  0.89280910268E+02 0.  0.
         13    1    3    3    0    0 -0.41425498051E+02  0.26691465852E+02 -0.92485006390E+01  0.50140324752E+02  0.10566000000E+00 0.  1.
         22    1    1    0    0    0  0.16202389981E+02  0.59263898479E+01  0.25291897800E+02  0.30615676247E+02  0.00000000000E+00 0.  1.
</event>
<event>
 5    1  0.1758480E-003  0.9118800E+02  0.7818608E-02  0.1130116E+00
         25   -1    0    0    0    0  0.00000000000E+00  0.00000000000E+00  0.99999998245E-14  0.12500000000E+03  0.12500000000E+03 0.  0.
        -13    1    3    3    0    0 -0.41960257124E+02  0.19709069447E+02  0.12296431964E+02  0.47961693042E+02  0.10566000000E+00 0.  1.
         23    2    1    0    0    0  0.77411371173E+01  0.19420996904E+02  0.17229682790E+02  0.97908261523E+02  0.94085415346E+02 0.  0.
         13    1    3    3    0    0  0.49701394241E+02 -0.28807254306E+00  0.49332508267E+01  0.49946568481E+02  0.10566000000E+00 0. -1.
         22    1    1    0    0    0 -0.77411371173E+01 -0.19420996904E+02 -0.17229682790E+02  0.27091738477E+02  0.00000000000E+00 0.  1.
</event>
<event>
 5    1  0.1758480E-003  0.9118800E+02  0.7818608E-02  0.1130116E+00
         25   -1    0    0    0    0  0.00000000000E+00  0.00000000000E+00  0.99999998245E-14  0.12500000000E+03  0.12500000000E+03 0.  0.
        -13    1    3    3    0    0 -0.42011936699E+01  0.52241467804E+01  0.56380272671E+02  0.56777531193E+02  0.10566000000E+00 0. -1.
         23    2    1    0    0    0 -0.12628200280E+02  0.16679227925E+02  0.19124025873E+02  0.96655750988E+02  0.92406372870E+02 0.  0.
         13    1    3    3    0    0 -0.84270066106E+01  0.11455081144E+02 -0.37256246799E+02  0.39878219795E+02  0.10566000000E+00 0.  1.
         22    1    1    0    0    0  0.12628200280E+02 -0.16679227925E+02 -0.19124025873E+02  0.28344249012E+02  0.00000000000E+00 0. -1.
</event>
<event>
 5    1  0.1758480E-003  0.9118800E+02  0.7818608E-02  0.1130116E+00
         25   -1    0    0    0    0  0.00000000000E+00  0.00000000000E+00  0.99999998245E-14  0.12500000000E+03  0.12500000000E+03 0.  0.
        -13    1    3    3    0    0 -0.20821611432E+02 -0.32432670577E+02  0.51598914255E+01  0.38885129124E+02  0.10566000000E+00 0. -1.
         23    2    1    0    0    0  0.23586219002E+02  0.34860565063E+01 -0.11705654336E+02  0.98439038794E+02  0.94787972330E+02 0.  0.
         13    1    3    3    0    0  0.44407830434E+02  0.35918727083E+02 -0.16865545762E+02  0.59553909670E+02  0.10566000000E+00 0.  1.
         22    1    1    0    0    0 -0.23586219002E+02 -0.34860565063E+01  0.11705654336E+02  0.26560961206E+02  0.00000000000E+00 0.  1.
</event>
<event>
 5    1  0.1758480E-003  0.9118800E+02  0.7818608E-02  0.1130116E+00
         25   -1    0    0    0    0  0.00000000000E+00  0.00000000000E+00  0.99999998245E-14  0.12500000000E+03  0.12500000000E+03 0.  0.
        -13    1    3    3    0    0 -0.32535527370E+02 -0.34719497738E+02 -0.13035137064E+02  0.49334876373E+02  0.10566000000E+00 0.  1.
         23    2    1    0    0    0  0.97040076263E+01 -0.17431109954E+02 -0.21407872773E+02  0.95737252779E+02  0.91155434258E+02 0.  0.
         13    1    3    3    0    0  0.42239534996E+02  0.17288387783E+02 -0.83727357092E+01  0.46402376406E+02  0.10566000000E+00 0. -1.
         22    1    1    0    0    0 -0.97040076263E+01  0.17431109954E+02  0.21407872773E+02  0.29262747221E+02  0.00000000000E+00 0.  1.
</event>
<event>
 5    1  0.1758480E-003  0.9118800E+02  0.7818608E-02  0.1130116E+00
         25   -1    0    0    0    0  0.00000000000E+00  0.00000000000E+00  0.99999998245E-14  0.12500000000E+03  0.12500000000E+03 0.  0.
        -13    1    3    3    0    0 -0.50753405409E+02 -0.11300759478E+02 -0.24391313750E+02  0.57433114802E+02  0.10566000000E+00 0.  1.
         23    2    1    0    0    0 -0.11921927386E+02 -0.80005403124E+01 -0.24727833345E+02  0.96406176544E+02  0.92068149411E+02 0.  0.
         13    1    3    3    0    0  0.38831478024E+02  0.33002191658E+01 -0.33651959552E+00  0.38973061742E+02  0.10566000000E+00 0. -1.
         22    1    1    0    0    0  0.11921927386E+02  0.80005403124E+01  0.24727833345E+02  0.28593823456E+02  0.00000000000E+00 0.  1.
</event>
<event>
 5    1  0.1758480E-003  0.9118800E+02  0.7818608E-02  0.1130116E+00
         25   -1    0    0    0    0  0.00000000000E+00  0.00000000000E+00  0.99999998245E-14  0.12500000000E+03  0.12500000000E+03 0.  0.
        -13    1    3    3    0    0 -0.20834922331E+02  0.33437814259E+02 -0.43230932573E+02  0.58490222312E+02  0.10566000000E+00 0. -1.
         23    2    1    0    0    0 -0.74106535579E+01  0.22170962659E+01 -0.28391878031E+02  0.95573276769E+02  0.90930298538E+02 0.  0.
         13    1    3    3    0    0  0.13424268773E+02 -0.31220717993E+02  0.14839054543E+02  0.37083054457E+02  0.10566000000E+00 0.  1.
         22    1    1    0    0    0  0.74106535579E+01 -0.22170962659E+01  0.28391878031E+02  0.29426723231E+02  0.00000000000E+00 0. -1.
</event>
<event>
 5    1  0.1758480E-003  0.9118800E+02  0.7818608E-02  0.1130116E+00
         25   -1    0    0    0    0  0.00000000000E+00  0.00000000000E+00  0.99999998245E-14  0.12500000000E+03  0.12500000000E+03 0.  0.
        -13    1    3    3    0    0 -0.22880527389E+02 -0.52127609783E+02  0.25765429611E+01  0.56986454294E+02  0.10566000000E+00 0. -1.
         23    2    1    0    0    0 -0.11893768529E+02 -0.19415623542E+02  0.19131936832E+02  0.95260141657E+02  0.90498814435E+02 0.  0.
         13    1    3    3    0    0  0.10986758861E+02  0.32711986241E+02  0.16555393871E+02  0.38273687363E+02  0.10566000000E+00 0.  1.
         22    1    1    0    0    0  0.11893768529E+02  0.19415623542E+02 -0.19131936832E+02  0.29739858343E+02  0.00000000000E+00 0. -1.
</event>
<event>
 5    1  0.1758480E-003  0.9118800E+02  0.7818608E-02  0.1130116E+00
         25   -1    0    0    0    0  0.00000000000E+00  0.00000000000E+00  0.99999998245E-14  0.12500000000E+03  0.12500000000E+03 0.  0.
        -13    1    3    3    0    0  0.34402765777E+02 -0.14552441441E+02 -0.69133856099E+01  0.37988549717E+02  0.10566000000E+00 0. -1.
         23    2    1    0    0    0 -0.10586053425E+02 -0.22308309979E+01  0.27167139595E+02  0.95757999250E+02  0.91183879127E+02 0.  0.
         13    1    3    3    0    0 -0.44988819202E+02  0.12321610443E+02  0.34080525205E+02  0.57769449533E+02  0.10566000000E+00 0.  1.
         22    1    1    0    0    0  0.10586053425E+02  0.22308309979E+01 -0.27167139595E+02  0.29242000750E+02  0.00000000000E+00 0.  1.
</event>
<event>
 5    1  0.1758480E-003  0.9118800E+02  0.7818608E-02  0.1130116E+00
         25   -1    0    0    0    0  0.00000000000E+00  0.00000000000E+00  0.99999998245E-14  0.12500000000E+03  0.12500000000E+03 0.  0.
        -13    1    3    3    0    0  0.16941603025E+02  0.49934758448E+01 -0.31714188079E+02  0.36300876072E+02  0.10566000000E+00 0.  1.
         23    2    1    0    0    0 -0.15833895400E+02 -0.21594676609E+02  0.10726443766E+02  0.96153875524E+02  0.91724963238E+02 0.  0.
         13    1    3    3    0    0 -0.32775498425E+02 -0.26588152454E+02  0.42440631845E+02  0.59852999452E+02  0.10566000000E+00 0. -1.
         22    1    1    0    0    0  0.15833895400E+02  0.21594676609E+02 -0.10726443766E+02  0.28846124476E+02  0.00000000000E+00 0. -1.
</event>
<event>
 5    1  0.1758480E-003  0.9118800E+02  0.7818608E-02  0.1130116E+00
         25   -1    0    0    0    0  0.00000000000E+00  0.00000000000E+00  0.99999998245E-14  0.12500000000E+03  0.12500000000E+03 0.  0.
        -13    1    3    3    0    0 -0.27245877977E+02  0.20229382491E+02 -0.11244142438E+02  0.35749233361E+02  0.10566000000E+00 0.  1.
         23    2    1    0    0    0  0.13754059862E+02 -0.12340746004E+02  0.20830445128E+02  0.97154432689E+02  0.93078505426E+02 0.  0.
         13    1    3    3    0    0  0.40999937839E+02 -0.32570128494E+02  0.32074587566E+02  0.61405199328E+02  0.10566000000E+00 0. -1.
         22    1    1    0    0    0 -0.13754059862E+02  0.12340746004E+02 -0.20830445128E+02  0.27845567311E+02  0.00000000000E+00 0. -1.
</event>
<event>
 5    1  0.1758480E-003  0.9118800E+02  0.7818608E-02  0.1130116E+00
         25   -1    0    0    0    0  0.00000000000E+00  0.00000000000E+00  0.99999998245E-14  0.12500000000E+03  0.12500000000E+03 0.  0.
        -13    1    3    3    0    0 -0.32054036062E+02  0.37637215568E+02  0.62652885371E+01  0.49832581993E+02  0.10566000000E+00 0.  1.
         23    2    1    0    0    0  0.93381039424E+00  0.37038367214E+02  0.16591961358E+02  0.84404361941E+02  0.74000611384E+02 0.  0.
         13    1    3    3    0    0  0.32987846457E+02 -0.59884835377E+00  0.10326672821E+02  0.34571779948E+02  0.10566000000E+00 0. -1.
         22    1    1    0    0    0 -0.93381039424E+00 -0.37038367214E+02 -0.16591961358E+02  0.40595638059E+02  0.00000000000E+00 0.  1.
</event>
<event>
 5    1  0.1758480E-003  0.9118800E+02  0.7818608E-02  0.1130116E+00
         25   -1    0    0    0    0  0.00000000000E+00  0.00000000000E+00  0.99999998245E-14  0.12500000000E+03  0.12500000000E+03 0.  0.
        -13    1    3    3    0    0  0.52733643965E+02 -0.48032175922E+00  0.19193249759E+02  0.56120049137E+02  0.10566000000E+00 0.  1.
         23    2    1    0    0    0  0.17543229068E+02  0.13391524410E+02  0.21725559915E+02  0.94030696396E+02  0.88784424867E+02 0.  0.
         13    1    3    3    0    0 -0.35190414897E+02  0.13871846169E+02  0.25323101560E+01  0.37910647258E+02  0.10566000000E+00 0. -1.
         22    1    1    0    0    0 -0.17543229068E+02 -0.13391524410E+02 -0.21725559915E+02  0.30969303604E+02  0.00000000000E+00 0.  1.
</event>
<event>
 5    1  0.1758480E-003  0.9118800E+02  0.7818608E-02  0.1130116E+00
         25   -1    0    0    0    0  0.00000000000E+00  0.00000000000E+00  0.99999998245E-14  0.12500000000E+03  0.12500000000E+03 0.  0.
        -13    1    3    3    0    0  0.42042373342E+02 -0.25147203338E+01  0.44192213911E+02  0.61047914862E+02  0.10566000000E+00 0.  1.
         23    2    1    0    0    0  0.22038497231E+02 -0.93328827826E+01  0.16296904405E+02  0.96045084106E+02  0.91576585581E+02 0.  0.
         13    1    3    3    0    0 -0.20003876111E+02 -0.68181624488E+01 -0.27895309506E+02  0.34997169245E+02  0.10566000000E+00 0. -1.
         22    1    1    0    0    0 -0.22038497231E+02  0.93328827826E+01 -0.16296904405E+02  0.28954915894E+02  0.00000000000E+00 0.  1.
</event>
<event>
 5    1  0.1758480E-003  0.9118800E+02  0.7818608E-02  0.1130116E+00
         25   -1    0    0    0    0  0.00000000000E+00  0.00000000000E+00  0.99999998245E-14  0.12500000000E+03  0.12500000000E+03 0.  0.
        -13    1    3    3    0    0 -0.33063465118E+02  0.18962795569E+02 -0.63180033230E+00  0.38120738150E+02  0.10566000000E+00 0.  1.
         23    2    1    0    0    0  0.10457501649E+02 -0.14181471298E+01  0.28699535186E+02  0.94421677582E+02  0.89333193133E+02 0.  0.
         13    1    3    3    0    0  0.43520966766E+02 -0.20380942699E+02  0.29331335519E+02  0.56300939432E+02  0.10566000000E+00 0. -1.
         22    1    1    0    0    0 -0.10457501649E+02  0.14181471298E+01 -0.28699535186E+02  0.30578322418E+02  0.00000000000E+00 0. -1.
</event>
<event>
 5    1  0.1758480E-003  0.9118800E+02  0.7818608E-02  0.1130116E+00
         25   -1    0    0    0    0  0.00000000000E+00  0.00000000000E+00  0.99999998245E-14  0.12500000000E+03  0.12500000000E+03 0.  0.
        -13    1    3    3    0    0  0.59321631570E+02  0.18476960279E+02 -0.11902861212E+01  0.62144042179E+02  0.10566000000E+00 0.  1.
         23    2    1    0    0    0  0.27670048226E+02  0.13468392042E+02  0.30771442855E+00  0.94224622810E+02  0.89057036233E+02 0.  0.
         13    1    3    3    0    0 -0.31651583344E+02 -0.50085682371E+01  0.14980005497E+01  0.32080580632E+02  0.10566000000E+00 0. -1.
         22    1    1    0    0    0 -0.27670048226E+02 -0.13468392042E+02 -0.30771442855E+00  0.30775377190E+02  0.00000000000E+00 0.  1.
</event>
<event>
 5    1  0.1758480E-003  0.9118800E+02  0.7818608E-02  0.1130116E+00
         25   -1    0    0    0    0  0.00000000000E+00  0.00000000000E+00  0.99999998245E-14  0.12500000000E+03  0.12500000000E+03 0.  0.
        -13    1    3    3    0    0 -0.31476364987E+02 -0.81410411627E+01  0.34741734725E+02  0.47581902019E+02  0.10566000000E+00 0. -1.
         23    2    1    0    0    0  0.13253524854E+02 -0.17253145793E+02  0.19714294796E+02  0.95640497618E+02  0.91022658742E+02 0.  0.
         13    1    3    3    0    0  0.44729889842E+02 -0.91121046302E+01 -0.15027439929E+02  0.48058595599E+02  0.10566000000E+00 0.  1.
         22    1    1    0    0    0 -0.13253524854E+02  0.17253145793E+02 -0.19714294796E+02  0.29359502382E+02  0.00000000000E+00 0.  1.
</event>
<event>
 5    1  0.1758480E-003  0.9118800E+02  0.7818608E-02  0.1130116E+00
         25   -1    0    0    0    0  0.00000000000E+00  0.00000000000E+00  0.99999998245E-14  0.12500000000E+03  0.12500000000E+03 0.  0.
        -13    1    3    3    0    0 -0.12958146082E+02 -0.22860518113E+02  0.20752427538E+02  0.33484194048E+02  0.10566000000E+00 0.  1.
         23    2    1    0    0    0  0.11890737475E+02  0.21210549821E+02 -0.15889004022E+02  0.95952839894E+02  0.91450587606E+02 0.  0.
         13    1    3    3    0    0  0.24848883558E+02  0.44071067934E+02 -0.36641431560E+02  0.62468645845E+02  0.10566000000E+00 0. -1.
         22    1    1    0    0    0 -0.11890737475E+02 -0.21210549821E+02  0.15889004022E+02  0.29047160106E+02  0.00000000000E+00 0. -1.
</event>
<event>
 5    1  0.1758480E-003  0.9118800E+02  0.7818608E-02  0.1130116E+00
         25   -1    0    0    0    0  0.00000000000E+00  0.00000000000E+00  0.99999998245E-14  0.12500000000E+03  0.12500000000E+03 0.  0.
        -13    1    3    3    0    0 -0.20184342309E+02  0.60007072364E+01 -0.30154611954E+02  0.36779450076E+02  0.10566000000E+00 0.  1.
         23    2    1    0    0    0  0.22107633756E+02 -0.18097324976E+02  0.38710029363E+01  0.96168674929E+02  0.91745129202E+02 0.  0.
         13    1    3    3    0    0  0.42291976065E+02 -0.24098032213E+02  0.34025614890E+02  0.59389224853E+02  0.10566000000E+00 0. -1.
         22    1    1    0    0    0 -0.22107633756E+02  0.18097324976E+02 -0.38710029363E+01  0.28831325071E+02  0.00000000000E+00 0. -1.
</event>
<event>
 5    1  0.1758480E-003  0.9118800E+02  0.7818608E-02  0.1130116E+00
         25   -1    0    0    0    0  0.00000000000E+00  0.00000000000E+00  0.99999998245E-14  0.12500000000E+03  0.12500000000E+03 0.  0.
        -13    1    3    3    0    0 -0.16670209975E+02  0.17367177047E+02  0.32500555426E+02  0.40445172842E+02  0.10566000000E+00 0.  1.
         23    2    1    0    0    0  0.27733617781E+02 -0.51129752404E+01  0.13694013694E+02  0.93650006666E+02  0.88246822415E+02 0.  0.
         13    1    3    3    0    0  0.44403827756E+02 -0.22480152288E+02 -0.18806541732E+02  0.53204833823E+02  0.10566000000E+00 0. -1.
         22    1    1    0    0    0 -0.27733617781E+02  0.51129752404E+01 -0.13694013694E+02  0.31349993334E+02  0.00000000000E+00 0. -1.
</event>
<event>
 5    1  0.1758480E-003  0.9118800E+02  0.7818608E-02  0.1130116E+00
         25   -1    0    0    0    0  0.00000000000E+00  0.00000000000E+00  0.99999998245E-14  0.12500000000E+03  0.12500000000E+03 0.  0.
        -13    1    3    3    0    0  0.42744014280E+02  0.19696331048E+02 -0.37394409765E+02  0.60111140891E+02  0.10566000000E+00 0.  1.
         23    2    1    0    0    0  0.21397047847E+02 -0.19498935546E+01 -0.90170093499E+01  0.10169887988E+03  0.98993534985E+02 0.  0.
         13    1    3    3    0    0 -0.21346966433E+02 -0.21646224603E+02  0.28377400415E+02  0.41587738984E+02  0.10566000000E+00 0. -1.
         22    1    1    0    0    0 -0.21397047847E+02  0.19498935546E+01  0.90170093499E+01  0.23301120125E+02  0.00000000000E+00 0.  1.
</event>
<event>
 5    1  0.1758480E-003  0.9118800E+02  0.7818608E-02  0.1130116E+00
         25   -1    0    0    0    0  0.00000000000E+00  0.00000000000E+00  0.99999998245E-14  0.12500000000E+03  0.12500000000E+03 0.  0.
        -13    1    3    3    0    0  0.13552011035E+02 -0.20614341590E+02  0.23602079755E+02  0.34142018322E+02  0.10566000000E+00 0.  1.
         23    2    1    0    0    0 -0.19094409861E+02  0.91719957702E+01 -0.19742470033E+02  0.96043357976E+02  0.91574229420E+02 0.  0.
         13    1    3    3    0    0 -0.32646420896E+02  0.29786337360E+02 -0.43344549788E+02  0.61901339654E+02  0.10566000000E+00 0. -1.
         22    1    1    0    0    0  0.19094409861E+02 -0.91719957702E+01  0.19742470033E+02  0.28956642024E+02  0.00000000000E+00 0. -1.
</event>
<event>
 5    1  0.1758480E-003  0.9118800E+02  0.7818608E-02  0.1130116E+00
         25   -1    0    0    0    0  0.00000000000E+00  0.00000000000E+00  0.99999998245E-14  0.12500000000E+03  0.12500000000E+03 0.  0.
        -13    1    3    3    0    0 -0.27152489183E+02 -0.24988268026E+02 -0.44198081411E+01  0.37164728921E+02  0.10566000000E+00 0.  1.
         23    2    1    0    0    0 -0.92119830874E+00  0.25987937242E+02  0.11354729417E+02  0.96624810687E+02  0.92364509807E+02 0.  0.
         13    1    3    3    0    0  0.26231290874E+02  0.50976205268E+02  0.15774537558E+02  0.59460081766E+02  0.10566000000E+00 0. -1.
         22    1    1    0    0    0  0.92119830874E+00 -0.25987937242E+02 -0.11354729417E+02  0.28375189313E+02  0.00000000000E+00 0. -1.
</event>
<event>
 5    1  0.1758480E-003  0.9118800E+02  0.7818608E-02  0.1130116E+00
         25   -1    0    0    0    0  0.00000000000E+00  0.00000000000E+00  0.99999998245E-14  0.12500000000E+03  0.12500000000E+03 0.  0.
        -13    1    3    3    0    0 -0.36898331637E+02  0.11508152662E+02 -0.40781011422E+02  0.56187423076E+02  0.10566000000E+00 0. -1.
         23    2    1    0    0    0 -0.12234352424E+02  0.23657890173E+02 -0.12680182254E+02  0.95501488704E+02  0.90831559361E+02 0.  0.
         13    1    3    3    0    0  0.24663979213E+02  0.12149737511E+02  0.28100829168E+02  0.39314065627E+02  0.10566000000E+00 0.  1.
         22    1    1    0    0    0  0.12234352424E+02 -0.23657890173E+02  0.12680182254E+02  0.29498511296E+02  0.00000000000E+00 0. -1.
</event>
<event>
 5    1  0.1758480E-003  0.9118800E+02  0.7818608E-02  0.1130116E+00
         25   -1    0    0    0    0  0.00000000000E+00  0.00000000000E+00  0.99999998245E-14  0.12500000000E+03  0.12500000000E+03 0.  0.
        -13    1    3    3    0    0  0.52809746873E+02  0.77368275028E+01  0.85751095788E+00  0.53380467904E+02  0.10566000000E+00 0. -1.
         23    2    1    0    0    0  0.18395392254E+02  0.24856783928E+01 -0.22895732894E+02  0.95524864072E+02  0.90863722233E+02 0.  0.
         13    1    3    3    0    0 -0.34414354619E+02 -0.52511491101E+01 -0.23753243851E+02  0.42144396168E+02  0.10566000000E+00 0.  1.
         22    1    1    0    0    0 -0.18395392254E+02 -0.24856783928E+01  0.22895732894E+02  0.29475135928E+02  0.00000000000E+00 0. -1.
</event>
<event>
 5    1  0.1758480E-003  0.9118800E+02  0.7818608E-02  0.1130116E+00
         25   -1    0    0    0    0  0.00000000000E+00  0.00000000000E+00  0.99999998245E-14  0.12500000000E+03  0.12500000000E+03 0.  0.
        -13    1    3    3    0    0  0.18179244149E+02  0.44745293842E+02  0.73009873135E+01  0.48846103413E+02  0.10566000000E+00 0.  1.
         23    2    1    0    0    0  0.15635912000E+02  0.61045520218E+01  0.27697175780E+02  0.92613570038E+02  0.86766309761E+02 0.  0.
         13    1    3    3    0    0 -0.25433321489E+01 -0.38640741820E+02  0.20396188466E+02  0.43767466626E+02  0.10566000000E+00 0. -1.
         22    1    1    0    0    0 -0.15635912000E+02 -0.61045520218E+01 -0.27697175780E+02  0.32386429962E+02  0.00000000000E+00 0.  1.
</event>
<event>
 5    1  0.1758480E-003  0.9118800E+02  0.7818608E-02  0.1130116E+00
         25   -1    0    0    0    0  0.00000000000E+00  0.00000000000E+00  0.99999998245E-14  0.12500000000E+03  0.12500000000E+03 0.  0.
        -13    1    3    3    0    0 -0.23090546084E+02 -0.14726709372E+02  0.19042080442E+02  0.33356577747E+02  0.10566000000E+00 0. -1.
         23    2    1    0    0    0 -0.16488263657E+02  0.35101100792E+02  0.30646875585E+01  0.86098297916E+02  0.76808687523E+02 0.  0.
         13    1    3    3    0    0  0.66022824268E+01  0.49827810164E+02 -0.15977392883E+02  0.52741720169E+02  0.10566000000E+00 0.  1.
         22    1    1    0    0    0  0.16488263657E+02 -0.35101100792E+02 -0.30646875585E+01  0.38901702084E+02  0.00000000000E+00 0.  1.
</event>
<event>
 5    1  0.1758480E-003  0.9118800E+02  0.7818608E-02  0.1130116E+00
         25   -1    0    0    0    0  0.00000000000E+00  0.00000000000E+00  0.99999998245E-14  0.12500000000E+03  0.12500000000E+03 0.  0.
        -13    1    3    3    0    0 -0.34194985923E+02  0.29555725207E+02 -0.20172523814E+01  0.45242882600E+02  0.10566000000E+00 0. -1.
         23    2    1    0    0    0 -0.75849872674E+01 -0.70682518985E+00  0.28313390367E+02  0.95679704849E+02  0.91076485506E+02 0.  0.
         13    1    3    3    0    0  0.26609998655E+02 -0.30262550397E+02  0.30330642748E+02  0.50436822248E+02  0.10566000000E+00 0.  1.
         22    1    1    0    0    0  0.75849872674E+01  0.70682518985E+00 -0.28313390367E+02  0.29320295151E+02  0.00000000000E+00 0. -1.
</event>
<event>
 5    1  0.1758480E-003  0.9118800E+02  0.7818608E-02  0.1130116E+00
         25   -1    0    0    0    0  0.00000000000E+00  0.00000000000E+00  0.99999998245E-14  0.12500000000E+03  0.12500000000E+03 0.  0.
        -13    1    3    3    0    0  0.31960578464E+02  0.72477632135E+01 -0.14485302112E+02  0.35830765952E+02  0.10566000000E+00 0. -1.
         23    2    1    0    0    0 -0.23840809944E+02  0.18127263255E+02  0.18796872301E+01  0.94991415962E+02  0.90126877181E+02 0.  0.
         13    1    3    3    0    0 -0.55801388408E+02  0.10879500041E+02  0.16364989342E+02  0.59160650010E+02  0.10566000000E+00 0.  1.
         22    1    1    0    0    0  0.23840809944E+02 -0.18127263255E+02 -0.18796872301E+01  0.30008584038E+02  0.00000000000E+00 0.  1.
</event>
<event>
 5    1  0.1758480E-003  0.9118800E+02  0.7818608E-02  0.1130116E+00
         25   -1    0    0    0    0  0.00000000000E+00  0.00000000000E+00  0.99999998245E-14  0.12500000000E+03  0.12500000000E+03 0.  0.
        -13    1    3    3    0    0 -0.36211973419E+02  0.16629252233E+02 -0.73567560602E+01  0.40521254577E+02  0.10566000000E+00 0.  1.
         23    2    1    0    0    0 -0.73932447929E+01 -0.29011667812E+02 -0.56914779091E+01  0.94524930540E+02  0.89477553805E+02 0.  0.
         13    1    3    3    0    0  0.28818728626E+02 -0.45640920045E+02  0.16652781510E+01  0.54003675963E+02  0.10566000000E+00 0. -1.
         22    1    1    0    0    0  0.73932447929E+01  0.29011667812E+02  0.56914779091E+01  0.30475069460E+02  0.00000000000E+00 0. -1.
</event>
<event>
 5    1  0.1758480E-003  0.9118800E+02  0.7818608E-02  0.1130116E+00
         25   -1    0    0    0    0  0.00000000000E+00  0.00000000000E+00  0.99999998245E-14  0.12500000000E+03  0.12500000000E+03 0.  0.
        -13    1    3    3    0    0  0.58443525882E+02 -0.77910529411E+01  0.13463642769E+02  0.60478318959E+02  0.10566000000E+00 0.  1.
         23    2    1    0    0    0  0.24601989097E+02 -0.13666644889E+02  0.16221902796E+01  0.96810169362E+02  0.92615022219E+02 0.  0.
         13    1    3    3    0    0 -0.33841536784E+02 -0.58755919479E+01 -0.11841452490E+02  0.36331850404E+02  0.10566000000E+00 0. -1.
         22    1    1    0    0    0 -0.24601989097E+02  0.13666644889E+02 -0.16221902796E+01  0.28189830638E+02  0.00000000000E+00 0.  1.
</event>
<event>
 5    1  0.1758480E-003  0.9118800E+02  0.7818608E-02  0.1130116E+00
         25   -1    0    0    0    0  0.00000000000E+00  0.00000000000E+00  0.99999998245E-14  0.12500000000E+03  0.12500000000E+03 0.  0.
        -13    1    3    3    0    0  0.28338019897E+02  0.34936426784E+02 -0.36718367404E+02  0.58067606779E+02  0.10566000000E+00 0.  1.
         23    2    1    0    0    0  0.14642453722E+02  0.22840628875E+01 -0.26017907389E+02  0.95057556894E+02  0.90218563630E+02 0.  0.
         13    1    3    3    0    0 -0.13695566175E+02 -0.32652363897E+02  0.10700460015E+02  0.36989950115E+02  0.10566000000E+00 0. -1.
         22    1    1    0    0    0 -0.14642453722E+02 -0.22840628875E+01  0.26017907389E+02  0.29942443106E+02  0.00000000000E+00 0. -1.
</event>
<event>
 5    1  0.1758480E-003  0.9118800E+02  0.7818608E-02  0.1130116E+00
         25   -1    0    0    0    0  0.00000000000E+00  0.00000000000E+00  0.99999998245E-14  0.12500000000E+03  0.12500000000E+03 0.  0.
        -13    1    3    3    0    0 -0.53076975115E+02 -0.47678327275E+01  0.24189927050E+00  0.53291342595E+02  0.10566000000E+00 0.  1.
         23    2    1    0    0    0 -0.19250958236E+02 -0.94298177064E+01 -0.22190362584E+02  0.94146587764E+02  0.88947439205E+02 0.  0.
         13    1    3    3    0    0  0.33826016880E+02 -0.46619849789E+01 -0.22432261855E+02  0.40855245169E+02  0.10566000000E+00 0. -1.
         22    1    1    0    0    0  0.19250958236E+02  0.94298177064E+01  0.22190362584E+02  0.30853412236E+02  0.00000000000E+00 0.  1.
</event>
<event>
 5    1  0.1758480E-003  0.9118800E+02  0.7818608E-02  0.1130116E+00
         25   -1    0    0    0    0  0.00000000000E+00  0.00000000000E+00  0.99999998245E-14  0.12500000000E+03  0.12500000000E+03 0.  0.
        -13    1    3    3    0    0 -0.45364447659E+01  0.39118017702E+02  0.16168240371E+02  0.42570198505E+02  0.10566000000E+00 0. -1.
         23    2    1    0    0    0 -0.26731160839E+02 -0.85948771355E+01  0.34322953751E+01  0.96712060444E+02  0.92482512461E+02 0.  0.
         13    1    3    3    0    0 -0.22194716073E+02 -0.47712894837E+02 -0.12735944996E+02  0.54141861939E+02  0.10566000000E+00 0.  1.
         22    1    1    0    0    0  0.26731160839E+02  0.85948771355E+01 -0.34322953751E+01  0.28287939556E+02  0.00000000000E+00 0.  1.
</event>
<event>
 5    1  0.1758480E-003  0.9118800E+02  0.7818608E-02  0.1130116E+00
         25   -1    0    0    0    0  0.00000000000E+00  0.00000000000E+00  0.99999998245E-14  0.12500000000E+03  0.12500000000E+03 0.  0.
        -13    1    3    3    0    0  0.47701346358E+02  0.18009553771E+02  0.24839419484E+02  0.56716579549E+02  0.10566000000E+00 0. -1.
         23    2    1    0    0    0  0.29417250845E+02 -0.36748395974E+01 -0.13512050548E+01  0.95323328211E+02  0.90586047783E+02 0.  0.
         13    1    3    3    0    0 -0.18284095513E+02 -0.21684393368E+02 -0.26190624539E+02  0.38606748662E+02  0.10566000000E+00 0.  1.
         22    1    1    0    0    0 -0.29417250845E+02  0.36748395974E+01  0.13512050548E+01  0.29676671789E+02  0.00000000000E+00 0. -1.
</event>
<event>
 5    1  0.1758480E-003  0.9118800E+02  0.7818608E-02  0.1130116E+00
         25   -1    0    0    0    0  0.00000000000E+00  0.00000000000E+00  0.99999998245E-14  0.12500000000E+03  0.12500000000E+03 0.  0.
        -13    1    3    3    0    0 -0.37804376468E+02 -0.15283221640E+02  0.47073542700E+02  0.62279028013E+02  0.10566000000E+00 0. -1.
         23    2    1    0    0    0 -0.15218303149E+02 -0.57832990763E+01  0.24429483155E+02  0.95642838248E+02  0.91025873036E+02 0.  0.
         13    1    3    3    0    0  0.22586073320E+02  0.94999225632E+01 -0.22644059545E+02  0.33363810235E+02  0.10566000000E+00 0.  1.
         22    1    1    0    0    0  0.15218303149E+02  0.57832990763E+01 -0.24429483155E+02  0.29357161752E+02  0.00000000000E+00 0. -1.
</event>
<event>
 5    1  0.1758480E-003  0.9118800E+02  0.7818608E-02  0.1130116E+00
         25   -1    0    0    0    0  0.00000000000E+00  0.00000000000E+00  0.99999998245E-14  0.12500000000E+03  0.12500000000E+03 0.  0.
        -13    1    3    3    0    0 -0.47122596463E+02  0.60872799743E+01 -0.32971712996E+02  0.57833719375E+02  0.10566000000E+00 0. -1.
         23    2    1    0    0    0 -0.28564174966E+02 -0.38666599531E+01 -0.95032600081E+00  0.96159641643E+02  0.91732820794E+02 0.  0.
         13    1    3    3    0    0  0.18558421497E+02 -0.99539399274E+01  0.32021386995E+02  0.38325922268E+02  0.10566000000E+00 0.  1.
         22    1    1    0    0    0  0.28564174966E+02  0.38666599531E+01  0.95032600081E+00  0.28840358357E+02  0.00000000000E+00 0. -1.
</event>
<event>
 5    1  0.1758480E-003  0.9118800E+02  0.7818608E-02  0.1130116E+00
         25   -1    0    0    0    0  0.00000000000E+00  0.00000000000E+00  0.99999998245E-14  0.12500000000E+03  0.12500000000E+03 0.  0.
        -13    1    3    3    0    0 -0.16362226098E+02 -0.34074542423E+02  0.33573276228E+02  0.50556630870E+02  0.10566000000E+00 0.  1.
         23    2    1    0    0    0  0.18835913233E+02 -0.21902956456E+02  0.11115743993E+02  0.94046956639E+02  0.88807314787E+02 0.  0.
         13    1    3    3    0    0  0.35198139330E+02  0.12171585967E+02 -0.22457532235E+02  0.43490325768E+02  0.10566000000E+00 0. -1.
         22    1    1    0    0    0 -0.18835913233E+02  0.21902956456E+02 -0.11115743993E+02  0.30953043361E+02  0.00000000000E+00 0.  1.
</event>
<event>
 5    1  0.1758480E-003  0.9118800E+02  0.7818608E-02  0.1130116E+00
         25   -1    0    0    0    0  0.00000000000E+00  0.00000000000E+00  0.99999998245E-14  0.12500000000E+03  0.12500000000E+03 0.  0.
        -13    1    3    3    0    0  0.24910575260E+02 -0.19573132798E+02  0.51372254039E+02  0.60355314069E+02  0.10566000000E+00 0.  1.
         23    2    1    0    0    0  0.40069324827E+01 -0.17766884938E+02  0.22320172156E+02  0.96191879732E+02  0.91776739608E+02 0.  0.
         13    1    3    3    0    0 -0.20903642778E+02  0.18062478598E+01 -0.29052081883E+02  0.35836565663E+02  0.10566000000E+00 0. -1.
         22    1    1    0    0    0 -0.40069324827E+01  0.17766884938E+02 -0.22320172156E+02  0.28808120268E+02  0.00000000000E+00 0.  1.
</event>
<event>
 5    1  0.1758480E-003  0.9118800E+02  0.7818608E-02  0.1130116E+00
         25   -1    0    0    0    0  0.00000000000E+00  0.00000000000E+00  0.99999998245E-14  0.12500000000E+03  0.12500000000E+03 0.  0.
        -13    1    3    3    0    0 -0.43536615428E+02  0.61723222330E+01 -0.10796290593E+02  0.45278090720E+02  0.10566000000E+00 0. -1.
         23    2    1    0    0    0 -0.56176240920E+01 -0.27551538290E+02 -0.59849757349E+01  0.96251697491E+02  0.91858175318E+02 0.  0.
         13    1    3    3    0    0  0.37918991336E+02 -0.33723860523E+02  0.48113148586E+01  0.50973606771E+02  0.10566000000E+00 0.  1.
         22    1    1    0    0    0  0.56176240920E+01  0.27551538290E+02  0.59849757349E+01  0.28748302509E+02  0.00000000000E+00 0. -1.
</event>
<event>
 5    1  0.1758480E-003  0.9118800E+02  0.7818608E-02  0.1130116E+00
         25   -1    0    0    0    0  0.00000000000E+00  0.00000000000E+00  0.99999998245E-14  0.12500000000E+03  0.12500000000E+03 0.  0.
        -13    1    3    3    0    0 -0.29294436777E+02  0.19610369201E+02 -0.38034274873E+02  0.51858922428E+02  0.10566000000E+00 0.  1.
         23    2    1    0    0    0 -0.77028828546E+01  0.27937132495E+02 -0.42552605386E+00  0.96017266368E+02  0.91538607112E+02 0.  0.
         13    1    3    3    0    0  0.21591553922E+02  0.83267632949E+01  0.37608748820E+02  0.44158343940E+02  0.10566000000E+00 0. -1.
         22    1    1    0    0    0  0.77028828546E+01 -0.27937132495E+02  0.42552605386E+00  0.28982733632E+02  0.00000000000E+00 0. -1.
</event>
<event>
 5    1  0.1758480E-003  0.9118800E+02  0.7818608E-02  0.1130116E+00
         25   -1    0    0    0    0  0.00000000000E+00  0.00000000000E+00  0.99999998245E-14  0.12500000000E+03  0.12500000000E+03 0.  0.
        -13    1    3    3    0    0  0.40659024085E+02  0.20752411997E+02  0.42091308954E+02  0.62092739485E+02  0.10566000000E+00 0.  1.
         23    2    1    0    0    0  0.21490620723E+02  0.14434302053E+02  0.18272697036E+02  0.93312663226E+02  0.87767680877E+02 0.  0.
         13    1    3    3    0    0 -0.19168403362E+02 -0.63181099439E+01 -0.23818611918E+02  0.31219923741E+02  0.10566000000E+00 0. -1.
         22    1    1    0    0    0 -0.21490620723E+02 -0.14434302053E+02 -0.18272697036E+02  0.31687336774E+02  0.00000000000E+00 0.  1.
</event>
<event>
 5    1  0.1758480E-003  0.9118800E+02  0.7818608E-02  0.1130116E+00
         25   -1    0    0    0    0  0.00000000000E+00  0.00000000000E+00  0.99999998245E-14  0.12500000000E+03  0.12500000000E+03 0.  0.
        -13    1    3    3    0    0  0.43913565892E+02  0.18909060677E+01  0.39853715993E+02  0.59332172028E+02  0.10566000000E+00 0.  1.
         23    2    1    0    0    0  0.26332514429E+02 -0.80627184907E+01  0.93558511564E+01  0.95914940322E+02  0.91398769579E+02 0.  0.
         13    1    3    3    0    0 -0.17581051463E+02 -0.99536245584E+01 -0.30497864837E+02  0.36582768294E+02  0.10566000000E+00 0. -1.
         22    1    1    0    0    0 -0.26332514429E+02  0.80627184907E+01 -0.93558511564E+01  0.29085059678E+02  0.00000000000E+00 0.  1.
</event>
<event>
 5    1  0.1758480E-003  0.9118800E+02  0.7818608E-02  0.1130116E+00
         25   -1    0    0    0    0  0.00000000000E+00  0.00000000000E+00  0.99999998245E-14  0.12500000000E+03  0.12500000000E+03 0.  0.
        -13    1    3    3    0    0  0.45633669198E+01 -0.27308879386E+02 -0.44327930191E+01  0.28040328617E+02  0.10566000000E+00 0.  1.
         23    2    1    0    0    0 -0.58139008779E+01  0.33488418172E+02  0.56762260449E+01  0.90539948677E+02  0.83725666132E+02 0.  0.
         13    1    3    3    0    0 -0.10377267798E+02  0.60797297557E+02  0.10109019064E+02  0.62499620060E+02  0.10566000000E+00 0. -1.
         22    1    1    0    0    0  0.58139008779E+01 -0.33488418172E+02 -0.56762260449E+01  0.34460051323E+02  0.00000000000E+00 0. -1.
</event>
<event>
 5    1  0.1758480E-003  0.9118800E+02  0.7818608E-02  0.1130116E+00
         25   -1    0    0    0    0  0.00000000000E+00  0.00000000000E+00  0.99999998245E-14  0.12500000000E+03  0.12500000000E+03 0.  0.
        -13    1    3    3    0    0 -0.62788408561E+01  0.41116907008E+02 -0.32625213825E+01  0.41721446454E+02  0.10566000000E+00 0. -1.
         23    2    1    0    0    0  0.56290389178E+01 -0.14860496528E+01  0.28328376267E+02  0.96079569079E+02  0.91623644709E+02 0.  0.
         13    1    3    3    0    0  0.11907879774E+02 -0.42602956661E+02  0.31590897650E+02  0.54358122625E+02  0.10566000000E+00 0.  1.
         22    1    1    0    0    0 -0.56290389178E+01  0.14860496528E+01 -0.28328376267E+02  0.28920430921E+02  0.00000000000E+00 0. -1.
</event>
<event>
 5    1  0.1758480E-003  0.9118800E+02  0.7818608E-02  0.1130116E+00
         25   -1    0    0    0    0  0.00000000000E+00  0.00000000000E+00  0.99999998245E-14  0.12500000000E+03  0.12500000000E+03 0.  0.
        -13    1    3    3    0    0 -0.14170613896E+02 -0.44294922956E+02 -0.14563093284E+02  0.48733369963E+02  0.10566000000E+00 0.  1.
         23    2    1    0    0    0  0.13733133111E+02 -0.28157210640E+02  0.12938612948E+02  0.91105529048E+02  0.84565845719E+02 0.  0.
         13    1    3    3    0    0  0.27903747007E+02  0.16137712317E+02  0.27501706232E+02  0.42372159086E+02  0.10566000000E+00 0. -1.
         22    1    1    0    0    0 -0.13733133111E+02  0.28157210640E+02 -0.12938612948E+02  0.33894470952E+02  0.00000000000E+00 0.  1.
</event>
<event>
 5    1  0.1758480E-003  0.9118800E+02  0.7818608E-02  0.1130116E+00
         25   -1    0    0    0    0  0.00000000000E+00  0.00000000000E+00  0.99999998245E-14  0.12500000000E+03  0.12500000000E+03 0.  0.
        -13    1    3    3    0    0  0.31202883976E+02 -0.27947971862E+02 -0.36455026817E+02  0.55530975535E+02  0.10566000000E+00 0.  1.
         23    2    1    0    0    0  0.20091609392E+02 -0.21020809219E+02  0.17017209978E+01  0.95871954365E+02  0.91339961633E+02 0.  0.
         13    1    3    3    0    0 -0.11111274584E+02  0.69271626428E+01  0.38156747814E+02  0.40340978830E+02  0.10566000000E+00 0. -1.
         22    1    1    0    0    0 -0.20091609392E+02  0.21020809219E+02 -0.17017209978E+01  0.29128045635E+02  0.00000000000E+00 0.  1.
</event>
<event>
 5    1  0.1758480E-003  0.9118800E+02  0.7818608E-02  0.1130116E+00
         25   -1    0    0    0    0  0.00000000000E+00  0.00000000000E+00  0.99999998245E-14  0.12500000000E+03  0.12500000000E+03 0.  0.
        -13    1    3    3    0    0 -0.45794154773E+01 -0.14046102096E+02  0.33008019844E+02  0.36163580689E+02  0.10566000000E+00 0. -1.
         23    2    1    0    0    0  0.16236996709E+02 -0.84810200949E+01 -0.22663070101E+02  0.95859263729E+02  0.91322592672E+02 0.  0.
         13    1    3    3    0    0  0.20816412187E+02  0.55650820009E+01 -0.55671089945E+02  0.59695683041E+02  0.10566000000E+00 0.  1.
         22    1    1    0    0    0 -0.16236996709E+02  0.84810200949E+01  0.22663070101E+02  0.29140736271E+02  0.00000000000E+00 0.  1.
</event>
<event>
 5    1  0.1758480E-003  0.9118800E+02  0.7818608E-02  0.1130116E+00
         25   -1    0    0    0    0  0.00000000000E+00  0.00000000000E+00  0.99999998245E-14  0.12500000000E+03  0.12500000000E+03 0.  0.
        -13    1    3    3    0    0  0.46467483479E+02  0.20923726815E+02 -0.35246888296E+01  0.51082912604E+02  0.10566000000E+00 0.  1.
         23    2    1    0    0    0  0.88528439786E+01  0.25484900851E+02 -0.18990115885E+02  0.92007917325E+02  0.85889343525E+02 0.  0.
         13    1    3    3    0    0 -0.37614639501E+02  0.45611740364E+01 -0.15465427056E+02  0.40925004721E+02  0.10566000000E+00 0. -1.
         22    1    1    0    0    0 -0.88528439786E+01 -0.25484900851E+02  0.18990115885E+02  0.32992082675E+02  0.00000000000E+00 0. -1.
</event>
<event>
 5    1  0.1758480E-003  0.9118800E+02  0.7818608E-02  0.1130116E+00
         25   -1    0    0    0    0  0.00000000000E+00  0.00000000000E+00  0.99999998245E-14  0.12500000000E+03  0.12500000000E+03 0.  0.
        -13    1    3    3    0    0 -0.42837583776E+01 -0.25181654757E+02  0.25007662519E+02  0.35747177103E+02  0.10566000000E+00 0.  1.
         23    2    1    0    0    0  0.16632551265E+02  0.22906307915E+02 -0.51306608318E+01  0.96230843175E+02  0.91829792517E+02 0.  0.
         13    1    3    3    0    0  0.20916309643E+02  0.48087962672E+02 -0.30138323350E+02  0.60483666071E+02  0.10566000000E+00 0. -1.
         22    1    1    0    0    0 -0.16632551265E+02 -0.22906307915E+02  0.51306608318E+01  0.28769156825E+02  0.00000000000E+00 0. -1.
</event>
<event>
 5    1  0.1758480E-003  0.9118800E+02  0.7818608E-02  0.1130116E+00
         25   -1    0    0    0    0  0.00000000000E+00  0.00000000000E+00  0.99999998245E-14  0.12500000000E+03  0.12500000000E+03 0.  0.
        -13    1    3    3    0    0  0.11351306942E+02  0.71295821006E+01  0.35794154531E+02  0.38221927906E+02  0.10566000000E+00 0. -1.
         23    2    1    0    0    0  0.12267933226E+02 -0.22820487879E+02 -0.13405748045E+02  0.95828251110E+02  0.91280133531E+02 0.  0.
         13    1    3    3    0    0  0.91662628481E+00 -0.29950069979E+02 -0.49199902576E+02  0.57606323204E+02  0.10566000000E+00 0.  1.
         22    1    1    0    0    0 -0.12267933226E+02  0.22820487879E+02  0.13405748045E+02  0.29171748890E+02  0.00000000000E+00 0.  1.
</event>
<event>
 5    1  0.1758480E-003  0.9118800E+02  0.7818608E-02  0.1130116E+00
         25   -1    0    0    0    0  0.00000000000E+00  0.00000000000E+00  0.99999998245E-14  0.12500000000E+03  0.12500000000E+03 0.  0.
        -13    1    3    3    0    0  0.17733037520E+02 -0.91549597287E+01  0.54038030013E+02  0.57605501118E+02  0.10566000000E+00 0. -1.
         23    2    1    0    0    0  0.44020137582E+01  0.13063845403E+02  0.24415111053E+02  0.96961821929E+02  0.92819477924E+02 0.  0.
         13    1    3    3    0    0 -0.13331023762E+02  0.22218805131E+02 -0.29622918960E+02  0.39356320811E+02  0.10566000000E+00 0.  1.
         22    1    1    0    0    0 -0.44020137582E+01 -0.13063845403E+02 -0.24415111053E+02  0.28038178071E+02  0.00000000000E+00 0. -1.
</event>
<event>
 5    1  0.1758480E-003  0.9118800E+02  0.7818608E-02  0.1130116E+00
         25   -1    0    0    0    0  0.00000000000E+00  0.00000000000E+00  0.99999998245E-14  0.12500000000E+03  0.12500000000E+03 0.  0.
        -13    1    3    3    0    0 -0.23767634770E+01 -0.38686482933E+02 -0.39026343546E+02  0.55003269184E+02  0.10566000000E+00 0.  1.
         23    2    1    0    0    0  0.19630276178E+02 -0.16550233327E+02 -0.10598835650E+02  0.97222432015E+02  0.93169780529E+02 0.  0.
         13    1    3    3    0    0  0.22007039655E+02  0.22136249605E+02  0.28427507896E+02  0.42219162831E+02  0.10566000000E+00 0. -1.
         22    1    1    0    0    0 -0.19630276178E+02  0.16550233327E+02  0.10598835650E+02  0.27777567985E+02  0.00000000000E+00 0.  1.
</event>
<event>
 5    1  0.1758480E-003  0.9118800E+02  0.7818608E-02  0.1130116E+00
         25   -1    0    0    0    0  0.00000000000E+00  0.00000000000E+00  0.99999998245E-14  0.12500000000E+03  0.12500000000E+03 0.  0.
        -13    1    3    3    0    0  0.18987967879E+02 -0.43693846892E+02  0.36823116509E+02  0.60213356109E+02  0.10566000000E+00 0. -1.
         23    2    1    0    0    0  0.14122254998E+02 -0.91717206942E+01  0.19790129259E+02  0.99015239797E+02  0.95544805978E+02 0.  0.
         13    1    3    3    0    0 -0.48657128809E+01  0.34522126198E+02 -0.17032987251E+02  0.38801883689E+02  0.10566000000E+00 0.  1.
         22    1    1    0    0    0 -0.14122254998E+02  0.91717206942E+01 -0.19790129259E+02  0.25984760203E+02  0.00000000000E+00 0. -1.
</event>
<event>
 5    1  0.1758480E-003  0.9118800E+02  0.7818608E-02  0.1130116E+00
         25   -1    0    0    0    0  0.00000000000E+00  0.00000000000E+00  0.99999998245E-14  0.12500000000E+03  0.12500000000E+03 0.  0.
        -13    1    3    3    0    0 -0.41938167500E+02  0.36952364133E+02  0.14273277819E+02  0.57689034764E+02  0.10566000000E+00 0.  1.
         23    2    1    0    0    0 -0.10977689112E+02  0.22674729983E+02  0.20712775307E+02  0.92386013752E+02  0.86437858824E+02 0.  0.
         13    1    3    3    0    0  0.30960478389E+02 -0.14277634150E+02  0.64394974885E+01  0.34696978988E+02  0.10566000000E+00 0. -1.
         22    1    1    0    0    0  0.10977689112E+02 -0.22674729983E+02 -0.20712775307E+02  0.32613986248E+02  0.00000000000E+00 0.  1.
</event>
<event>
 5    1  0.1758480E-003  0.9118800E+02  0.7818608E-02  0.1130116E+00
         25   -1    0    0    0    0  0.00000000000E+00  0.00000000000E+00  0.99999998245E-14  0.12500000000E+03  0.12500000000E+03 0.  0.
        -13    1    3    3    0    0 -0.89662837016E+01 -0.28734922830E+02  0.20031697946E+02  0.36157573482E+02  0.10566000000E+00 0.  1.
         23    2    1    0    0    0  0.19916750682E+02  0.10290746094E+02 -0.16705822631E+02  0.97041800440E+02  0.92927122574E+02 0.  0.
         13    1    3    3    0    0  0.28883034383E+02  0.39025668924E+02 -0.36737520577E+02  0.60884226958E+02  0.10566000000E+00 0. -1.
         22    1    1    0    0    0 -0.19916750682E+02 -0.10290746094E+02  0.16705822631E+02  0.27958199560E+02  0.00000000000E+00 0. -1.
</event>
<event>
 5    1  0.1758480E-003  0.9118800E+02  0.7818608E-02  0.1130116E+00
         25   -1    0    0    0    0  0.00000000000E+00  0.00000000000E+00  0.99999998245E-14  0.12500000000E+03  0.12500000000E+03 0.  0.
        -13    1    3    3    0    0  0.37125351507E+02  0.38421752097E+02 -0.25417846532E+02  0.59165875680E+02  0.10566000000E+00 0. -1.
         23    2    1    0    0    0  0.20348158423E+02  0.65451794360E+01 -0.20248310445E+02  0.95557157051E+02  0.90908136394E+02 0.  0.
         13    1    3    3    0    0 -0.16777193084E+02 -0.31876572661E+02  0.51695360866E+01  0.36391281370E+02  0.10566000000E+00 0.  1.
         22    1    1    0    0    0 -0.20348158423E+02 -0.65451794360E+01  0.20248310445E+02  0.29442842949E+02  0.00000000000E+00 0. -1.
</event>
<event>
 5    1  0.1758480E-003  0.9118800E+02  0.7818608E-02  0.1130116E+00
         25   -1    0    0    0    0  0.00000000000E+00  0.00000000000E+00  0.99999998245E-14  0.12500000000E+03  0.12500000000E+03 0.  0.
        -13    1    3    3    0    0  0.25964616263E+02 -0.17373946408E+02 -0.28392424910E+02  0.42215592709E+02  0.10566000000E+00 0.  1.
         23    2    1    0    0    0  0.14111656258E+02  0.41560371324E+01  0.22145984838E+02  0.98413233905E+02  0.94753936468E+02 0.  0.
         13    1    3    3    0    0 -0.11852960005E+02  0.21529983540E+02  0.50538409748E+02  0.56197641196E+02  0.10566000000E+00 0. -1.
         22    1    1    0    0    0 -0.14111656258E+02 -0.41560371324E+01 -0.22145984838E+02  0.26586766095E+02  0.00000000000E+00 0. -1.
</event>
<event>
 5    1  0.1758480E-003  0.9118800E+02  0.7818608E-02  0.1130116E+00
         25   -1    0    0    0    0  0.00000000000E+00  0.00000000000E+00  0.99999998245E-14  0.12500000000E+03  0.12500000000E+03 0.  0.
        -13    1    3    3    0    0  0.14907796878E+02  0.27502368664E+02  0.17205995812E+02  0.35702663007E+02  0.10566000000E+00 0.  1.
         23    2    1    0    0    0 -0.25830948151E+02 -0.12357284550E+02 -0.30797289607E+01  0.96200258780E+02  0.91788151170E+02 0.  0.
         13    1    3    3    0    0 -0.40738745029E+02 -0.39859653214E+02 -0.20285724772E+02  0.60497595774E+02  0.10566000000E+00 0. -1.
         22    1    1    0    0    0  0.25830948151E+02  0.12357284550E+02  0.30797289607E+01  0.28799741220E+02  0.00000000000E+00 0. -1.
</event>
<event>
 5    1  0.1758480E-003  0.9118800E+02  0.7818608E-02  0.1130116E+00
         25   -1    0    0    0    0  0.00000000000E+00  0.00000000000E+00  0.99999998245E-14  0.12500000000E+03  0.12500000000E+03 0.  0.
        -13    1    3    3    0    0  0.32260442601E+02  0.37978023236E+02  0.26932005296E+02  0.56642832547E+02  0.10566000000E+00 0.  1.
         23    2    1    0    0    0  0.25120013817E+01  0.28929708777E+02  0.31461920794E+01  0.95791495665E+02  0.91229786343E+02 0.  0.
         13    1    3    3    0    0 -0.29748441219E+02 -0.90483144587E+01 -0.23785813216E+02  0.39148663118E+02  0.10566000000E+00 0. -1.
         22    1    1    0    0    0 -0.25120013817E+01 -0.28929708777E+02 -0.31461920794E+01  0.29208504335E+02  0.00000000000E+00 0.  1.
</event>
<event>
 5    1  0.1758480E-003  0.9118800E+02  0.7818608E-02  0.1130116E+00
         25   -1    0    0    0    0  0.00000000000E+00  0.00000000000E+00  0.99999998245E-14  0.12500000000E+03  0.12500000000E+03 0.  0.
        -13    1    3    3    0    0 -0.42004460292E+02  0.18283029852E+02  0.41713968907E+02  0.61957325886E+02  0.10566000000E+00 0.  1.
         23    2    1    0    0    0 -0.18018926265E+02  0.42470901480E+01  0.23060914187E+02  0.95427627055E+02  0.90729855966E+02 0.  0.
         13    1    3    3    0    0  0.23985534027E+02 -0.14035939704E+02 -0.18653054719E+02  0.33470301169E+02  0.10566000000E+00 0. -1.
         22    1    1    0    0    0  0.18018926265E+02 -0.42470901480E+01 -0.23060914187E+02  0.29572372945E+02  0.00000000000E+00 0.  1.
</event>
<event>
 5    1  0.1758480E-003  0.9118800E+02  0.7818608E-02  0.1130116E+00
         25   -1    0    0    0    0  0.00000000000E+00  0.00000000000E+00  0.99999998245E-14  0.12500000000E+03  0.12500000000E+03 0.  0.
        -13    1    3    3    0    0 -0.16140141742E+02  0.21774528678E+01  0.15210193141E+02  0.22284672219E+02  0.10566000000E+00 0.  1.
         23    2    1    0    0    0  0.31504547527E+02  0.30799014562E+02 -0.31759656361E+01  0.80827581337E+02  0.67689698878E+02 0.  0.
         13    1    3    3    0    0  0.47644689270E+02  0.28621561694E+02 -0.18386158777E+02  0.58542909118E+02  0.10566000000E+00 0. -1.
         22    1    1    0    0    0 -0.31504547527E+02 -0.30799014562E+02  0.31759656361E+01  0.44172418663E+02  0.00000000000E+00 0. -1.
</event>
<event>
 5    1  0.1758480E-003  0.9118800E+02  0.7818608E-02  0.1130116E+00
         25   -1    0    0    0    0  0.00000000000E+00  0.00000000000E+00  0.99999998245E-14  0.12500000000E+03  0.12500000000E+03 0.  0.
        -13    1    3    3    0    0 -0.39794443330E+02  0.60657679002E+01 -0.21146201144E+02  0.45470476652E+02  0.10566000000E+00 0. -1.
         23    2    1    0    0    0 -0.23539804632E+01  0.13684098741E+01 -0.38074799021E+02  0.86827967174E+02  0.77987125818E+02 0.  0.
         13    1    3    3    0    0  0.37440462867E+02 -0.46973580261E+01 -0.16928597877E+02  0.41357490521E+02  0.10566000000E+00 0.  1.
         22    1    1    0    0    0  0.23539804632E+01 -0.13684098741E+01  0.38074799021E+02  0.38172032826E+02  0.00000000000E+00 0.  1.
</event>
<event>
 5    1  0.1758480E-003  0.9118800E+02  0.7818608E-02  0.1130116E+00
         25   -1    0    0    0    0  0.00000000000E+00  0.00000000000E+00  0.99999998245E-14  0.12500000000E+03  0.12500000000E+03 0.  0.
        -13    1    3    3    0    0 -0.26516974997E+01 -0.66251243216E+01 -0.52654683751E+02  0.53136152070E+02  0.10566000000E+00 0.  1.
         23    2    1    0    0    0 -0.16170661769E+02 -0.20363235701E+02 -0.16225776493E+02  0.94349918547E+02  0.89232727387E+02 0.  0.
         13    1    3    3    0    0 -0.13518964269E+02 -0.13738111379E+02  0.36428907258E+02  0.41213766477E+02  0.10566000000E+00 0. -1.
         22    1    1    0    0    0  0.16170661769E+02  0.20363235701E+02  0.16225776493E+02  0.30650081453E+02  0.00000000000E+00 0.  1.
</event>
<event>
 5    1  0.1758480E-003  0.9118800E+02  0.7818608E-02  0.1130116E+00
         25   -1    0    0    0    0  0.00000000000E+00  0.00000000000E+00  0.99999998245E-14  0.12500000000E+03  0.12500000000E+03 0.  0.
        -13    1    3    3    0    0  0.24619347300E+02  0.31521824383E+02 -0.42294725672E+02  0.58211619610E+02  0.10566000000E+00 0.  1.
         23    2    1    0    0    0 -0.43538618395E+01  0.18153321026E+02 -0.22509230521E+02  0.95756801888E+02  0.91182237700E+02 0.  0.
         13    1    3    3    0    0 -0.28973209139E+02 -0.13368503358E+02  0.19785495152E+02  0.37545182278E+02  0.10566000000E+00 0. -1.
         22    1    1    0    0    0  0.43538618395E+01 -0.18153321026E+02  0.22509230521E+02  0.29243198112E+02  0.00000000000E+00 0.  1.
</event>
<event>
 5    1  0.1758480E-003  0.9118800E+02  0.7818608E-02  0.1130116E+00
         25   -1    0    0    0    0  0.00000000000E+00  0.00000000000E+00  0.99999998245E-14  0.12500000000E+03  0.12500000000E+03 0.  0.
        -13    1    3    3    0    0  0.41179495551E+02  0.29483260101E+02 -0.53455541917E+01  0.50927395316E+02  0.10566000000E+00 0. -1.
         23    2    1    0    0    0  0.87114777412E+01  0.11287036707E+02  0.23156178025E+02  0.97806331201E+02  0.93949895158E+02 0.  0.
         13    1    3    3    0    0 -0.32468017810E+02 -0.18196223394E+02  0.28501732216E+02  0.46878935885E+02  0.10566000000E+00 0.  1.
         22    1    1    0    0    0 -0.87114777412E+01 -0.11287036707E+02 -0.23156178025E+02  0.27193668799E+02  0.00000000000E+00 0. -1.
</event>
<event>
 5    1  0.1758480E-003  0.9118800E+02  0.7818608E-02  0.1130116E+00
         25   -1    0    0    0    0  0.00000000000E+00  0.00000000000E+00  0.99999998245E-14  0.12500000000E+03  0.12500000000E+03 0.  0.
        -13    1    3    3    0    0  0.12556107363E+02 -0.15654535400E+02 -0.56154802652E+02  0.59632988653E+02  0.10566000000E+00 0.  1.
         23    2    1    0    0    0  0.79493700175E+01  0.59414682409E+01 -0.27191142142E+02  0.96054331247E+02  0.91589206852E+02 0.  0.
         13    1    3    3    0    0 -0.46067373456E+01  0.21596003641E+02  0.28963660510E+02  0.36421342595E+02  0.10566000000E+00 0. -1.
         22    1    1    0    0    0 -0.79493700175E+01 -0.59414682409E+01  0.27191142142E+02  0.28945668753E+02  0.00000000000E+00 0.  1.
</event>
<event>
 5    1  0.1758480E-003  0.9118800E+02  0.7818608E-02  0.1130116E+00
         25   -1    0    0    0    0  0.00000000000E+00  0.00000000000E+00  0.99999998245E-14  0.12500000000E+03  0.12500000000E+03 0.  0.
        -13    1    3    3    0    0 -0.15645428394E+02 -0.44009657171E+02  0.23283542547E+02  0.52189691238E+02  0.10566000000E+00 0.  1.
         23    2    1    0    0    0 -0.12555121739E+02 -0.22276438810E+02 -0.14290837222E+02  0.95706675906E+02  0.91113495030E+02 0.  0.
         13    1    3    3    0    0  0.30903066550E+01  0.21733218361E+02 -0.37574379770E+02  0.43516984668E+02  0.10566000000E+00 0. -1.
         22    1    1    0    0    0  0.12555121739E+02  0.22276438810E+02  0.14290837222E+02  0.29293324094E+02  0.00000000000E+00 0. -1.
</event>
<event>
 5    1  0.1758480E-003  0.9118800E+02  0.7818608E-02  0.1130116E+00
         25   -1    0    0    0    0  0.00000000000E+00  0.00000000000E+00  0.99999998245E-14  0.12500000000E+03  0.12500000000E+03 0.  0.
        -13    1    3    3    0    0  0.63620702713E+01  0.21366800678E+02  0.25489895259E+02  0.33863875054E+02  0.10566000000E+00 0.  1.
         23    2    1    0    0    0 -0.63374779932E+01 -0.18045342850E+02 -0.21318898544E+02  0.96359234281E+02  0.92004394298E+02 0.  0.
         13    1    3    3    0    0 -0.12699548264E+02 -0.39412143527E+02 -0.46808793803E+02  0.62495359226E+02  0.10566000000E+00 0. -1.
         22    1    1    0    0    0  0.63374779932E+01  0.18045342850E+02  0.21318898544E+02  0.28640765719E+02  0.00000000000E+00 0. -1.
</event>
<event>
 5    1  0.1758480E-003  0.9118800E+02  0.7818608E-02  0.1130116E+00
         25   -1    0    0    0    0  0.00000000000E+00  0.00000000000E+00  0.99999998245E-14  0.12500000000E+03  0.12500000000E+03 0.  0.
        -13    1    3    3    0    0 -0.27905228867E+02  0.35017518823E+02 -0.36821777916E+02  0.57972259880E+02  0.10566000000E+00 0. -1.
         23    2    1    0    0    0 -0.25853872028E+02  0.71572211459E+01 -0.11026818682E+02  0.95995875404E+02  0.91509392146E+02 0.  0.
         13    1    3    3    0    0  0.20513568394E+01 -0.27860297677E+02  0.25794959235E+02  0.38023615524E+02  0.10566000000E+00 0.  1.
         22    1    1    0    0    0  0.25853872028E+02 -0.71572211459E+01  0.11026818682E+02  0.29004124596E+02  0.00000000000E+00 0. -1.
</event>
<event>
 5    1  0.1758480E-003  0.9118800E+02  0.7818608E-02  0.1130116E+00
         25   -1    0    0    0    0  0.00000000000E+00  0.00000000000E+00  0.99999998245E-14  0.12500000000E+03  0.12500000000E+03 0.  0.
        -13    1    3    3    0    0  0.37878126400E+02  0.29193578270E+02  0.66939058810E+01  0.48289098270E+02  0.10566000000E+00 0.  1.
         23    2    1    0    0    0 -0.74047496093E+01  0.29415209369E+02  0.81336573232E+01  0.93595521968E+02  0.88169612067E+02 0.  0.
         13    1    3    3    0    0 -0.45282876009E+02  0.22163109922E+00  0.14397514423E+01  0.45306423698E+02  0.10566000000E+00 0. -1.
         22    1    1    0    0    0  0.74047496093E+01 -0.29415209369E+02 -0.81336573232E+01  0.31404478032E+02  0.00000000000E+00 0. -1.
</event>
<event>
 5    1  0.1758480E-003  0.9118800E+02  0.7818608E-02  0.1130116E+00
         25   -1    0    0    0    0  0.00000000000E+00  0.00000000000E+00  0.99999998245E-14  0.12500000000E+03  0.12500000000E+03 0.  0.
        -13    1    3    3    0    0  0.15200450693E+02  0.93696434757E+01  0.54577161441E+02  0.57424051017E+02  0.10566000000E+00 0.  1.
         23    2    1    0    0    0  0.21853302474E+02  0.83415268442E+01  0.15820646788E+02  0.96761006323E+02  0.92548644402E+02 0.  0.
         13    1    3    3    0    0  0.66528517811E+01 -0.10281166315E+01 -0.38756514654E+02  0.39336955306E+02  0.10566000000E+00 0. -1.
         22    1    1    0    0    0 -0.21853302474E+02 -0.83415268442E+01 -0.15820646788E+02  0.28238993677E+02  0.00000000000E+00 0.  1.
</event>
<event>
 5    1  0.1758480E-003  0.9118800E+02  0.7818608E-02  0.1130116E+00
         25   -1    0    0    0    0  0.00000000000E+00  0.00000000000E+00  0.99999998245E-14  0.12500000000E+03  0.12500000000E+03 0.  0.
        -13    1    3    3    0    0 -0.35455409921E+02  0.18404571083E+02 -0.41367385487E+02  0.57507269762E+02  0.10566000000E+00 0.  1.
         23    2    1    0    0    0 -0.27270720209E+02  0.97544548615E+01 -0.52139068285E+01  0.95571673599E+02  0.90928094667E+02 0.  0.
         13    1    3    3    0    0  0.81846897124E+01 -0.86501162220E+01  0.36153478658E+02  0.38064403837E+02  0.10566000000E+00 0. -1.
         22    1    1    0    0    0  0.27270720209E+02 -0.97544548615E+01  0.52139068285E+01  0.29428326401E+02  0.00000000000E+00 0.  1.
</event>
<event>
 5    1  0.1758480E-003  0.9118800E+02  0.7818608E-02  0.1130116E+00
         25   -1    0    0    0    0  0.00000000000E+00  0.00000000000E+00  0.99999998245E-14  0.12500000000E+03  0.12500000000E+03 0.  0.
        -13    1    3    3    0    0 -0.23192378294E+02  0.46720067308E+02 -0.34373346686E+02  0.62467505366E+02  0.10566000000E+00 0.  1.
         23    2    1    0    0    0 -0.10012879870E+02  0.22485452464E+02 -0.15035013420E+02  0.96157237228E+02  0.91729544352E+02 0.  0.
         13    1    3    3    0    0  0.13179498424E+02 -0.24234614845E+02  0.19338333266E+02  0.33689731862E+02  0.10566000000E+00 0. -1.
         22    1    1    0    0    0  0.10012879870E+02 -0.22485452464E+02  0.15035013420E+02  0.28842762772E+02  0.00000000000E+00 0.  1.
</event>
<event>
 5    1  0.1758480E-003  0.9118800E+02  0.7818608E-02  0.1130116E+00
         25   -1    0    0    0    0  0.00000000000E+00  0.00000000000E+00  0.99999998245E-14  0.12500000000E+03  0.12500000000E+03 0.  0.
        -13    1    3    3    0    0  0.38494949157E+02 -0.44066648290E+01  0.23110259194E+02  0.45115131049E+02  0.10566000000E+00 0.  1.
         23    2    1    0    0    0  0.17719985204E+02  0.24967588141E+01 -0.22822568024E+02  0.95998253649E+02  0.91512640724E+02 0.  0.
         13    1    3    3    0    0 -0.20774963953E+02  0.69034236431E+01 -0.45932827218E+02  0.50883122600E+02  0.10566000000E+00 0. -1.
         22    1    1    0    0    0 -0.17719985204E+02 -0.24967588141E+01  0.22822568024E+02  0.29001746351E+02  0.00000000000E+00 0. -1.
</event>
<event>
 5    1  0.1758480E-003  0.9118800E+02  0.7818608E-02  0.1130116E+00
         25   -1    0    0    0    0  0.00000000000E+00  0.00000000000E+00  0.99999998245E-14  0.12500000000E+03  0.12500000000E+03 0.  0.
        -13    1    3    3    0    0  0.32354057941E+02 -0.54168824616E+01 -0.51080138899E+02  0.60706831863E+02  0.10566000000E+00 0.  1.
         23    2    1    0    0    0  0.14427949377E+02  0.81290894429E+01 -0.22547499167E+02  0.97024340274E+02  0.92903633236E+02 0.  0.
         13    1    3    3    0    0 -0.17926108563E+02  0.13545971905E+02  0.28532639732E+02  0.36317508411E+02  0.10566000000E+00 0. -1.
         22    1    1    0    0    0 -0.14427949377E+02 -0.81290894429E+01  0.22547499167E+02  0.27975659726E+02  0.00000000000E+00 0.  1.
</event>
<event>
 5    1  0.1758480E-003  0.9118800E+02  0.7818608E-02  0.1130116E+00
         25   -1    0    0    0    0  0.00000000000E+00  0.00000000000E+00  0.99999998245E-14  0.12500000000E+03  0.12500000000E+03 0.  0.
        -13    1    3    3    0    0  0.39994195579E+02  0.66367474950E+01 -0.46779493340E+01  0.40810249587E+02  0.10566000000E+00 0. -1.
         23    2    1    0    0    0 -0.10686903247E+02  0.14561414167E+02 -0.23420077211E+02  0.95423916755E+02  0.90724744082E+02 0.  0.
         13    1    3    3    0    0 -0.50681098827E+02  0.79246666724E+01 -0.18742127877E+02  0.54613667168E+02  0.10566000000E+00 0.  1.
         22    1    1    0    0    0  0.10686903247E+02 -0.14561414167E+02  0.23420077211E+02  0.29576083245E+02  0.00000000000E+00 0.  1.
</event>
<event>
 5    1  0.1758480E-003  0.9118800E+02  0.7818608E-02  0.1130116E+00
         25   -1    0    0    0    0  0.00000000000E+00  0.00000000000E+00  0.99999998245E-14  0.12500000000E+03  0.12500000000E+03 0.  0.
        -13    1    3    3    0    0  0.32916537497E+02 -0.48627384005E+01 -0.78144395246E+01  0.34179252401E+02  0.10566000000E+00 0. -1.
         23    2    1    0    0    0 -0.25113778164E+02  0.58382063912E+01 -0.17306747564E+02  0.93946658493E+02  0.88666028575E+02 0.  0.
         13    1    3    3    0    0 -0.58030315660E+02  0.10700944792E+02 -0.94923080391E+01  0.59767406093E+02  0.10566000000E+00 0.  1.
         22    1    1    0    0    0  0.25113778164E+02 -0.58382063912E+01  0.17306747564E+02  0.31053341507E+02  0.00000000000E+00 0.  1.
</event>
<event>
 5    1  0.1758480E-003  0.9118800E+02  0.7818608E-02  0.1130116E+00
         25   -1    0    0    0    0  0.00000000000E+00  0.00000000000E+00  0.99999998245E-14  0.12500000000E+03  0.12500000000E+03 0.  0.
        -13    1    3    3    0    0  0.26990806587E+02  0.18925452458E+02 -0.48382150154E+02  0.58545025480E+02  0.10566000000E+00 0.  1.
         23    2    1    0    0    0  0.24466197650E+02  0.41489828457E+01 -0.12970144577E+02  0.96999401141E+02  0.92870072065E+02 0.  0.
         13    1    3    3    0    0 -0.25246089368E+01 -0.14776469612E+02  0.35412005577E+02  0.38454375661E+02  0.10566000000E+00 0. -1.
         22    1    1    0    0    0 -0.24466197650E+02 -0.41489828457E+01  0.12970144577E+02  0.28000598859E+02  0.00000000000E+00 0.  1.
</event>
<event>
 5    1  0.1758480E-003  0.9118800E+02  0.7818608E-02  0.1130116E+00
         25   -1    0    0    0    0  0.00000000000E+00  0.00000000000E+00  0.99999998245E-14  0.12500000000E+03  0.12500000000E+03 0.  0.
        -13    1    3    3    0    0 -0.38240351778E+02 -0.30191848995E+02  0.35450242120E+02  0.60254485976E+02  0.10566000000E+00 0. -1.
         23    2    1    0    0    0 -0.79822467483E+01 -0.17654485486E+02  0.22061854332E+02  0.95638076741E+02  0.91019334129E+02 0.  0.
         13    1    3    3    0    0  0.30258105030E+02  0.12537363509E+02 -0.13388387788E+02  0.35383590764E+02  0.10566000000E+00 0.  1.
         22    1    1    0    0    0  0.79822467483E+01  0.17654485486E+02 -0.22061854332E+02  0.29361923259E+02  0.00000000000E+00 0. -1.
</event>
<event>
 5    1  0.1758480E-003  0.9118800E+02  0.7818608E-02  0.1130116E+00
         25   -1    0    0    0    0  0.00000000000E+00  0.00000000000E+00  0.99999998245E-14  0.12500000000E+03  0.12500000000E+03 0.  0.
        -13    1    3    3    0    0 -0.51173383154E+02 -0.15092512599E+02 -0.29777106316E+02  0.61099806093E+02  0.10566000000E+00 0.  1.
         23    2    1    0    0    0 -0.19133896041E+02 -0.79339638684E+01 -0.21889295544E+02  0.94863725848E+02  0.89949605124E+02 0.  0.
         13    1    3    3    0    0  0.32039487113E+02  0.71585487311E+01  0.78878107721E+01  0.33763919755E+02  0.10566000000E+00 0. -1.
         22    1    1    0    0    0  0.19133896041E+02  0.79339638684E+01  0.21889295544E+02  0.30136274152E+02  0.00000000000E+00 0.  1.
</event>
<event>
 5    1  0.1758480E-003  0.9118800E+02  0.7818608E-02  0.1130116E+00
         25   -1    0    0    0    0  0.00000000000E+00  0.00000000000E+00  0.99999998245E-14  0.12500000000E+03  0.12500000000E+03 0.  0.
        -13    1    3    3    0    0 -0.17601210370E+02  0.16342704733E+02 -0.10090815964E+02  0.26052300001E+02  0.10566000000E+00 0.  1.
         23    2    1    0    0    0 -0.35480098437E+01 -0.39946163677E+02 -0.26186631088E+00  0.84895724164E+02  0.74826005111E+02 0.  0.
         13    1    3    3    0    0  0.14053200526E+02 -0.56288868410E+02  0.98289496535E+01  0.58843424163E+02  0.10566000000E+00 0. -1.
         22    1    1    0    0    0  0.35480098437E+01  0.39946163677E+02  0.26186631088E+00  0.40104275836E+02  0.00000000000E+00 0. -1.
</event>
<event>
 5    1  0.1758480E-003  0.9118800E+02  0.7818608E-02  0.1130116E+00
         25   -1    0    0    0    0  0.00000000000E+00  0.00000000000E+00  0.99999998245E-14  0.12500000000E+03  0.12500000000E+03 0.  0.
        -13    1    3    3    0    0  0.62909753813E+01  0.38581518397E+02 -0.23856098484E+01  0.39163914915E+02  0.10566000000E+00 0.  1.
         23    2    1    0    0    0  0.22681764256E+02 -0.15982851637E+02 -0.71809868562E+01  0.96338518034E+02  0.91976244262E+02 0.  0.
         13    1    3    3    0    0  0.16390788875E+02 -0.54564370034E+02 -0.47953770078E+01  0.57174603119E+02  0.10566000000E+00 0. -1.
         22    1    1    0    0    0 -0.22681764256E+02  0.15982851637E+02  0.71809868562E+01  0.28661481966E+02  0.00000000000E+00 0.  1.
</event>
<event>
 5    1  0.1758480E-003  0.9118800E+02  0.7818608E-02  0.1130116E+00
         25   -1    0    0    0    0  0.00000000000E+00  0.00000000000E+00  0.99999998245E-14  0.12500000000E+03  0.12500000000E+03 0.  0.
        -13    1    3    3    0    0  0.20109884651E+02  0.30127030914E+02 -0.93187047127E+01  0.37401803084E+02  0.10566000000E+00 0.  1.
         23    2    1    0    0    0  0.12194036743E+02 -0.22072633905E+02  0.15138441587E+02  0.95587959723E+02  0.90950480651E+02 0.  0.
         13    1    3    3    0    0 -0.79158479080E+01 -0.52199664819E+02  0.24457146299E+02  0.58186156639E+02  0.10566000000E+00 0. -1.
         22    1    1    0    0    0 -0.12194036743E+02  0.22072633905E+02 -0.15138441587E+02  0.29412040277E+02  0.00000000000E+00 0. -1.
</event>
<event>
 5    1  0.1758480E-003  0.9118800E+02  0.7818608E-02  0.1130116E+00
         25   -1    0    0    0    0  0.00000000000E+00  0.00000000000E+00  0.99999998245E-14  0.12500000000E+03  0.12500000000E+03 0.  0.
        -13    1    3    3    0    0  0.22915527392E+00 -0.28696223055E+02  0.19021212710E+02  0.34428816808E+02  0.10566000000E+00 0. -1.
         23    2    1    0    0    0 -0.51225343748E+01  0.18954578891E+02 -0.20534437534E+02  0.96589094626E+02  0.92316161405E+02 0.  0.
         13    1    3    3    0    0 -0.53516896487E+01  0.47650801946E+02 -0.39555650244E+02  0.62160277818E+02  0.10566000000E+00 0.  1.
         22    1    1    0    0    0  0.51225343748E+01 -0.18954578891E+02  0.20534437534E+02  0.28410905374E+02  0.00000000000E+00 0.  1.
</event>
<event>
 5    1  0.1758480E-003  0.9118800E+02  0.7818608E-02  0.1130116E+00
         25   -1    0    0    0    0  0.00000000000E+00  0.00000000000E+00  0.99999998245E-14  0.12500000000E+03  0.12500000000E+03 0.  0.
        -13    1    3    3    0    0 -0.92733723877E+01  0.13549098119E+02  0.43748109436E+02  0.46727740567E+02  0.10566000000E+00 0. -1.
         23    2    1    0    0    0  0.25371492233E+02  0.10668030979E+02  0.85991063011E+01  0.96164880228E+02  0.91739958889E+02 0.  0.
         13    1    3    3    0    0  0.34644864620E+02 -0.28810671399E+01 -0.35149003135E+02  0.49437139661E+02  0.10566000000E+00 0.  1.
         22    1    1    0    0    0 -0.25371492233E+02 -0.10668030979E+02 -0.85991063011E+01  0.28835119772E+02  0.00000000000E+00 0.  1.
</event>
<event>
 5    1  0.1758480E-003  0.9118800E+02  0.7818608E-02  0.1130116E+00
         25   -1    0    0    0    0  0.00000000000E+00  0.00000000000E+00  0.99999998245E-14  0.12500000000E+03  0.12500000000E+03 0.  0.
        -13    1    3    3    0    0 -0.38644136680E+01  0.98579048032E+01 -0.35828430900E+02  0.37360401563E+02  0.10566000000E+00 0. -1.
         23    2    1    0    0    0  0.14379662270E+02  0.19397427826E+02  0.17929017957E+02  0.94925349908E+02  0.90035201322E+02 0.  0.
         13    1    3    3    0    0  0.18244075938E+02  0.95395230225E+01  0.53757448857E+02  0.57564948345E+02  0.10566000000E+00 0.  1.
         22    1    1    0    0    0 -0.14379662270E+02 -0.19397427826E+02 -0.17929017957E+02  0.30074650092E+02  0.00000000000E+00 0.  1.
</event>
<event>
 5    1  0.1758480E-003  0.9118800E+02  0.7818608E-02  0.1130116E+00
         25   -1    0    0    0    0  0.00000000000E+00  0.00000000000E+00  0.99999998245E-14  0.12500000000E+03  0.12500000000E+03 0.  0.
        -13    1    3    3    0    0  0.17941806791E+02  0.47021802784E+02 -0.24651919459E+02  0.56041829601E+02  0.10566000000E+00 0.  1.
         23    2    1    0    0    0  0.21577378874E+02  0.80993691713E+01 -0.59121450641E+00  0.10194500933E+03  0.99303838462E+02 0.  0.
         13    1    3    3    0    0  0.36355720829E+01 -0.38922433613E+02  0.24060704952E+02  0.45903179732E+02  0.10566000000E+00 0. -1.
         22    1    1    0    0    0 -0.21577378874E+02 -0.80993691713E+01  0.59121450641E+00  0.23054990667E+02  0.00000000000E+00 0.  1.
</event>
<event>
 5    1  0.1758480E-003  0.9118800E+02  0.7818608E-02  0.1130116E+00
         25   -1    0    0    0    0  0.00000000000E+00  0.00000000000E+00  0.99999998245E-14  0.12500000000E+03  0.12500000000E+03 0.  0.
        -13    1    3    3    0    0  0.38038354198E+02 -0.18827277204E+02  0.35894061587E+02  0.55585767767E+02  0.10566000000E+00 0.  1.
         23    2    1    0    0    0  0.77989913902E+01 -0.26230146875E+02  0.10768210006E+02  0.95592531246E+02  0.90956763418E+02 0.  0.
         13    1    3    3    0    0 -0.30239362808E+02 -0.74028696714E+01 -0.25125851580E+02  0.40006763479E+02  0.10566000000E+00 0. -1.
         22    1    1    0    0    0 -0.77989913902E+01  0.26230146875E+02 -0.10768210006E+02  0.29407468754E+02  0.00000000000E+00 0.  1.
</event>
<event>
 5    1  0.1758480E-003  0.9118800E+02  0.7818608E-02  0.1130116E+00
         25   -1    0    0    0    0  0.00000000000E+00  0.00000000000E+00  0.99999998245E-14  0.12500000000E+03  0.12500000000E+03 0.  0.
        -13    1    3    3    0    0 -0.40016321734E+02  0.23893861617E+02 -0.33765307295E+02  0.57552843274E+02  0.10566000000E+00 0.  1.
         23    2    1    0    0    0 -0.73631528290E+01  0.14567642166E+01 -0.26016388924E+02  0.97922506132E+02  0.94104338545E+02 0.  0.
         13    1    3    3    0    0  0.32653168905E+02 -0.22437097400E+02  0.77489183715E+01  0.40369662858E+02  0.10566000000E+00 0. -1.
         22    1    1    0    0    0  0.73631528290E+01 -0.14567642166E+01  0.26016388924E+02  0.27077493868E+02  0.00000000000E+00 0.  1.
</event>
<event>
 5    1  0.1758480E-003  0.9118800E+02  0.7818608E-02  0.1130116E+00
         25   -1    0    0    0    0  0.00000000000E+00  0.00000000000E+00  0.99999998245E-14  0.12500000000E+03  0.12500000000E+03 0.  0.
        -13    1    3    3    0    0 -0.16908050582E+02 -0.20367966469E+02 -0.30037523570E+02  0.40037485171E+02  0.10566000000E+00 0. -1.
         23    2    1    0    0    0  0.21106855759E+02  0.16281418442E+02 -0.10839136324E+02  0.96223780256E+02  0.91820177870E+02 0.  0.
         13    1    3    3    0    0  0.38014906341E+02  0.36649384911E+02  0.19198387247E+02  0.56186295085E+02  0.10566000000E+00 0.  1.
         22    1    1    0    0    0 -0.21106855759E+02 -0.16281418442E+02  0.10839136324E+02  0.28776219744E+02  0.00000000000E+00 0.  1.
</event>
<event>
 5    1  0.1758480E-003  0.9118800E+02  0.7818608E-02  0.1130116E+00
         25   -1    0    0    0    0  0.00000000000E+00  0.00000000000E+00  0.99999998245E-14  0.12500000000E+03  0.12500000000E+03 0.  0.
        -13    1    3    3    0    0  0.20775553630E+01 -0.41119497842E+02  0.41173263293E+02  0.58226953495E+02  0.10566000000E+00 0.  1.
         23    2    1    0    0    0  0.44111257106E+00 -0.69965944272E+01  0.30032803287E+02  0.94159828354E+02  0.88966044581E+02 0.  0.
         13    1    3    3    0    0 -0.16364427920E+01  0.34122903415E+02 -0.11140460005E+02  0.35932874859E+02  0.10566000000E+00 0. -1.
         22    1    1    0    0    0 -0.44111257106E+00  0.69965944272E+01 -0.30032803287E+02  0.30840171646E+02  0.00000000000E+00 0.  1.
</event>
<event>
 5    1  0.1758480E-003  0.9118800E+02  0.7818608E-02  0.1130116E+00
         25   -1    0    0    0    0  0.00000000000E+00  0.00000000000E+00  0.99999998245E-14  0.12500000000E+03  0.12500000000E+03 0.  0.
        -13    1    3    3    0    0  0.45132101194E+02  0.28842229722E+01  0.38011892702E+02  0.59077410668E+02  0.10566000000E+00 0. -1.
         23    2    1    0    0    0  0.10548780878E+02 -0.35675724270E+01  0.26763797856E+02  0.96011981325E+02  0.91531389869E+02 0.  0.
         13    1    3    3    0    0 -0.34583320316E+02 -0.64517953992E+01 -0.11248094847E+02  0.36934570658E+02  0.10566000000E+00 0.  1.
         22    1    1    0    0    0 -0.10548780878E+02  0.35675724270E+01 -0.26763797856E+02  0.28988018675E+02  0.00000000000E+00 0. -1.
</event>
<event>
 5    1  0.1758480E-003  0.9118800E+02  0.7818608E-02  0.1130116E+00
         25   -1    0    0    0    0  0.00000000000E+00  0.00000000000E+00  0.99999998245E-14  0.12500000000E+03  0.12500000000E+03 0.  0.
        -13    1    3    3    0    0 -0.30371787290E+02 -0.38915724077E+02 -0.32977881705E+02  0.59366917466E+02  0.10566000000E+00 0.  1.
         23    2    1    0    0    0 -0.20360868575E+02 -0.23631041353E+02 -0.41012107207E+01  0.93538737884E+02  0.88089071235E+02 0.  0.
         13    1    3    3    0    0  0.10010918715E+02  0.15284682724E+02  0.28876670984E+02  0.34171820418E+02  0.10566000000E+00 0. -1.
         22    1    1    0    0    0  0.20360868575E+02  0.23631041353E+02  0.41012107207E+01  0.31461262116E+02  0.00000000000E+00 0.  1.
</event>
<event>
 5    1  0.1758480E-003  0.9118800E+02  0.7818608E-02  0.1130116E+00
         25   -1    0    0    0    0  0.00000000000E+00  0.00000000000E+00  0.99999998245E-14  0.12500000000E+03  0.12500000000E+03 0.  0.
        -13    1    3    3    0    0 -0.87789695057E+01  0.12294730879E+02 -0.34033746430E+02  0.37236242736E+02  0.10566000000E+00 0. -1.
         23    2    1    0    0    0 -0.35131722065E+02 -0.85245042769E+01  0.47476456443E+01  0.88538442057E+02  0.80682157348E+02 0.  0.
         13    1    3    3    0    0 -0.26352752560E+02 -0.20819235156E+02  0.38781392074E+02  0.51302199322E+02  0.10566000000E+00 0.  1.
         22    1    1    0    0    0  0.35131722065E+02  0.85245042769E+01 -0.47476456443E+01  0.36461557943E+02  0.00000000000E+00 0.  1.
</event>
<event>
 5    1  0.1758480E-003  0.9118800E+02  0.7818608E-02  0.1130116E+00
         25   -1    0    0    0    0  0.00000000000E+00  0.00000000000E+00  0.99999998245E-14  0.12500000000E+03  0.12500000000E+03 0.  0.
        -13    1    3    3    0    0  0.44167696598E+02 -0.23546425705E+02 -0.15162689105E+02  0.52298545785E+02  0.10566000000E+00 0. -1.
         23    2    1    0    0    0  0.12640415868E+02 -0.19089640961E+02  0.16169875420E+02  0.96970383941E+02  0.92831007671E+02 0.  0.
         13    1    3    3    0    0 -0.31527280730E+02  0.44567847446E+01  0.31332564526E+02  0.44671838156E+02  0.10566000000E+00 0.  1.
         22    1    1    0    0    0 -0.12640415868E+02  0.19089640961E+02 -0.16169875420E+02  0.28029616059E+02  0.00000000000E+00 0. -1.
</event>
<event>
 5    1  0.1758480E-003  0.9118800E+02  0.7818608E-02  0.1130116E+00
         25   -1    0    0    0    0  0.00000000000E+00  0.00000000000E+00  0.99999998245E-14  0.12500000000E+03  0.12500000000E+03 0.  0.
        -13    1    3    3    0    0 -0.68397040580E+01  0.34378522458E+02 -0.88382029689E+01  0.36149541543E+02  0.10566000000E+00 0. -1.
         23    2    1    0    0    0 -0.15416682573E+02 -0.18225929255E+02  0.17305609314E+02  0.95515381765E+02  0.90850676614E+02 0.  0.
         13    1    3    3    0    0 -0.85769785150E+01 -0.52604451713E+02  0.26143812283E+02  0.59365840222E+02  0.10566000000E+00 0.  1.
         22    1    1    0    0    0  0.15416682573E+02  0.18225929255E+02 -0.17305609314E+02  0.29484618235E+02  0.00000000000E+00 0.  1.
</event>
<event>
 5    1  0.1758480E-003  0.9118800E+02  0.7818608E-02  0.1130116E+00
         25   -1    0    0    0    0  0.00000000000E+00  0.00000000000E+00  0.99999998245E-14  0.12500000000E+03  0.12500000000E+03 0.  0.
        -13    1    3    3    0    0  0.35093349090E+02 -0.24272020024E+02  0.30655905437E+02  0.52540173283E+02  0.10566000000E+00 0. -1.
         23    2    1    0    0    0  0.97975668742E+01 -0.23967668547E+02 -0.72488697447E+01  0.98111571916E+02  0.94355142833E+02 0.  0.
         13    1    3    3    0    0 -0.25295782216E+02  0.30435147681E+00 -0.37904775182E+02  0.45571398633E+02  0.10566000000E+00 0.  1.
         22    1    1    0    0    0 -0.97975668742E+01  0.23967668547E+02  0.72488697447E+01  0.26888428084E+02  0.00000000000E+00 0.  1.
</event>
<event>
 5    1  0.1758480E-003  0.9118800E+02  0.7818608E-02  0.1130116E+00
         25   -1    0    0    0    0  0.00000000000E+00  0.00000000000E+00  0.99999998245E-14  0.12500000000E+03  0.12500000000E+03 0.  0.
        -13    1    3    3    0    0 -0.45653283743E+02  0.24667078501E+01  0.37726387036E+02  0.59275613932E+02  0.10566000000E+00 0. -1.
         23    2    1    0    0    0 -0.12500418281E+02 -0.63768064673E+01  0.25852734322E+02  0.95584222094E+02  0.90945343605E+02 0.  0.
         13    1    3    3    0    0  0.33152865462E+02 -0.88435143174E+01 -0.11873652714E+02  0.36308608162E+02  0.10566000000E+00 0.  1.
         22    1    1    0    0    0  0.12500418281E+02  0.63768064673E+01 -0.25852734322E+02  0.29415777906E+02  0.00000000000E+00 0. -1.
</event>
<event>
 5    1  0.1758480E-003  0.9118800E+02  0.7818608E-02  0.1130116E+00
         25   -1    0    0    0    0  0.00000000000E+00  0.00000000000E+00  0.99999998245E-14  0.12500000000E+03  0.12500000000E+03 0.  0.
        -13    1    3    3    0    0  0.64534188153E+01 -0.52821388570E+02  0.17090666703E+02  0.55891392515E+02  0.10566000000E+00 0.  1.
         23    2    1    0    0    0 -0.14376505208E+01 -0.15234446257E+02  0.25549719749E+02  0.95218405498E+02  0.90441148680E+02 0.  0.
         13    1    3    3    0    0 -0.78910693361E+01  0.37586942313E+02  0.84590530464E+01  0.39327012983E+02  0.10566000000E+00 0. -1.
         22    1    1    0    0    0  0.14376505208E+01  0.15234446257E+02 -0.25549719749E+02  0.29781594502E+02  0.00000000000E+00 0.  1.
</event>
<event>
 5    1  0.1758480E-003  0.9118800E+02  0.7818608E-02  0.1130116E+00
         25   -1    0    0    0    0  0.00000000000E+00  0.00000000000E+00  0.99999998245E-14  0.12500000000E+03  0.12500000000E+03 0.  0.
        -13    1    3    3    0    0  0.12070269724E+02 -0.38457761383E+02 -0.30236966033E+02  0.50388253598E+02  0.10566000000E+00 0. -1.
         23    2    1    0    0    0  0.95605994039E+01  0.64551559651E+01 -0.27177865371E+02  0.95475256722E+02  0.90795452422E+02 0.  0.
         13    1    3    3    0    0 -0.25096703202E+01  0.44912917348E+02  0.30591006611E+01  0.45087003124E+02  0.10566000000E+00 0.  1.
         22    1    1    0    0    0 -0.95605994039E+01 -0.64551559651E+01  0.27177865371E+02  0.29524743278E+02  0.00000000000E+00 0. -1.
</event>
<event>
 5    1  0.1758480E-003  0.9118800E+02  0.7818608E-02  0.1130116E+00
         25   -1    0    0    0    0  0.00000000000E+00  0.00000000000E+00  0.99999998245E-14  0.12500000000E+03  0.12500000000E+03 0.  0.
        -13    1    3    3    0    0 -0.24352344600E+02  0.34150468435E+02 -0.29321464075E+02  0.51176660709E+02  0.10566000000E+00 0.  1.
         23    2    1    0    0    0 -0.26067750713E+02 -0.65043216265E+01 -0.14399716658E+02  0.94517453077E+02  0.89467107192E+02 0.  0.
         13    1    3    3    0    0 -0.17154061131E+01 -0.40654790061E+02  0.14921747417E+02  0.43340792368E+02  0.10566000000E+00 0. -1.
         22    1    1    0    0    0  0.26067750713E+02  0.65043216265E+01  0.14399716658E+02  0.30482546923E+02  0.00000000000E+00 0.  1.
</event>
<event>
 5    1  0.1758480E-003  0.9118800E+02  0.7818608E-02  0.1130116E+00
         25   -1    0    0    0    0  0.00000000000E+00  0.00000000000E+00  0.99999998245E-14  0.12500000000E+03  0.12500000000E+03 0.  0.
        -13    1    3    3    0    0  0.30438214646E+02  0.14073542083E+02  0.29396873246E+01  0.33663072100E+02  0.10566000000E+00 0.  1.
         23    2    1    0    0    0 -0.27452868853E+02  0.34029330751E+01 -0.12684312337E+02  0.94567587325E+02  0.89537125436E+02 0.  0.
         13    1    3    3    0    0 -0.57891083499E+02 -0.10670609008E+02 -0.15623999661E+02  0.60904515225E+02  0.10566000000E+00 0. -1.
         22    1    1    0    0    0  0.27452868853E+02 -0.34029330751E+01  0.12684312337E+02  0.30432412675E+02  0.00000000000E+00 0. -1.
</event>
<event>
 5    1  0.1758480E-003  0.9118800E+02  0.7818608E-02  0.1130116E+00
         25   -1    0    0    0    0  0.00000000000E+00  0.00000000000E+00  0.99999998245E-14  0.12500000000E+03  0.12500000000E+03 0.  0.
        -13    1    3    3    0    0 -0.56320865566E+02  0.24366168222E+02 -0.36174875316E+01  0.61472330622E+02  0.10566000000E+00 0. -1.
         23    2    1    0    0    0 -0.27905333700E+02  0.39895537537E+01 -0.45216682234E+01  0.96450574934E+02  0.92128408939E+02 0.  0.
         13    1    3    3    0    0  0.28415531866E+02 -0.20376614468E+02 -0.90418069183E+00  0.34978244313E+02  0.10566000000E+00 0.  1.
         22    1    1    0    0    0  0.27905333700E+02 -0.39895537537E+01  0.45216682234E+01  0.28549425066E+02  0.00000000000E+00 0. -1.
</event>
<event>
 5    1  0.1758480E-003  0.9118800E+02  0.7818608E-02  0.1130116E+00
         25   -1    0    0    0    0  0.00000000000E+00  0.00000000000E+00  0.99999998245E-14  0.12500000000E+03  0.12500000000E+03 0.  0.
        -13    1    3    3    0    0 -0.43827561396E+02 -0.92849712447E+01  0.37502342837E+02  0.58425189013E+02  0.10566000000E+00 0.  1.
         23    2    1    0    0    0 -0.88948331559E+01  0.69594948165E+00  0.27472538898E+02  0.96115007425E+02  0.91671979668E+02 0.  0.
         13    1    3    3    0    0  0.34932728240E+02  0.99809207264E+01 -0.10029803939E+02  0.37689818412E+02  0.10566000000E+00 0. -1.
         22    1    1    0    0    0  0.88948331559E+01 -0.69594948165E+00 -0.27472538898E+02  0.28884992575E+02  0.00000000000E+00 0.  1.
</event>
<event>
 5    1  0.1758480E-003  0.9118800E+02  0.7818608E-02  0.1130116E+00
         25   -1    0    0    0    0  0.00000000000E+00  0.00000000000E+00  0.99999998245E-14  0.12500000000E+03  0.12500000000E+03 0.  0.
        -13    1    3    3    0    0  0.92465340478E+01  0.22734203756E+02  0.25711887681E+02  0.35545108588E+02  0.10566000000E+00 0. -1.
         23    2    1    0    0    0 -0.50312525805E+01  0.12430633822E+02 -0.29015597220E+02  0.93035346994E+02  0.87371830407E+02 0.  0.
         13    1    3    3    0    0 -0.14277786628E+02 -0.10303569935E+02 -0.54727484901E+02  0.57490238407E+02  0.10566000000E+00 0.  1.
         22    1    1    0    0    0  0.50312525805E+01 -0.12430633822E+02  0.29015597220E+02  0.31964653006E+02  0.00000000000E+00 0.  1.
</event>
<event>
 5    1  0.1758480E-003  0.9118800E+02  0.7818608E-02  0.1130116E+00
         25   -1    0    0    0    0  0.00000000000E+00  0.00000000000E+00  0.99999998245E-14  0.12500000000E+03  0.12500000000E+03 0.  0.
        -13    1    3    3    0    0 -0.38942916731E+02  0.11225101960E+02  0.13713827258E+02  0.42785907723E+02  0.10566000000E+00 0. -1.
         23    2    1    0    0    0  0.47698458266E+01  0.22565938771E+02 -0.16075409323E+02  0.96886092290E+02  0.92717436723E+02 0.  0.
         13    1    3    3    0    0  0.43712762558E+02  0.11340836811E+02 -0.29789236582E+02  0.54100184567E+02  0.10566000000E+00 0.  1.
         22    1    1    0    0    0 -0.47698458266E+01 -0.22565938771E+02  0.16075409323E+02  0.28113907710E+02  0.00000000000E+00 0.  1.
</event>
<event>
 5    1  0.1758480E-003  0.9118800E+02  0.7818608E-02  0.1130116E+00
         25   -1    0    0    0    0  0.00000000000E+00  0.00000000000E+00  0.99999998245E-14  0.12500000000E+03  0.12500000000E+03 0.  0.
        -13    1    3    3    0    0  0.46226225452E+02 -0.23666981258E+02  0.36490362251E+01  0.52060700637E+02  0.10566000000E+00 0.  1.
         23    2    1    0    0    0  0.10645744350E+02 -0.88431392482E+01  0.25220782479E+02  0.96231599742E+02  0.91830822362E+02 0.  0.
         13    1    3    3    0    0 -0.35580481102E+02  0.14823842009E+02  0.21571746254E+02  0.44170899106E+02  0.10566000000E+00 0. -1.
         22    1    1    0    0    0 -0.10645744350E+02  0.88431392482E+01 -0.25220782479E+02  0.28768400258E+02  0.00000000000E+00 0.  1.
</event>
<event>
 5    1  0.1758480E-003  0.9118800E+02  0.7818608E-02  0.1130116E+00
         25   -1    0    0    0    0  0.00000000000E+00  0.00000000000E+00  0.99999998245E-14  0.12500000000E+03  0.12500000000E+03 0.  0.
        -13    1    3    3    0    0 -0.34171661208E+02  0.38226575843E+01 -0.32320649349E+02  0.47190578288E+02  0.10566000000E+00 0.  1.
         23    2    1    0    0    0  0.14691221702E+02  0.84015318092E+01 -0.21833084634E+02  0.97375711476E+02  0.93375199432E+02 0.  0.
         13    1    3    3    0    0  0.48862882910E+02  0.45788742249E+01  0.10487564715E+02  0.50185133188E+02  0.10566000000E+00 0. -1.
         22    1    1    0    0    0 -0.14691221702E+02 -0.84015318092E+01  0.21833084634E+02  0.27624288524E+02  0.00000000000E+00 0.  1.
</event>
<event>
 5    1  0.1758480E-003  0.9118800E+02  0.7818608E-02  0.1130116E+00
         25   -1    0    0    0    0  0.00000000000E+00  0.00000000000E+00  0.99999998245E-14  0.12500000000E+03  0.12500000000E+03 0.  0.
        -13    1    3    3    0    0 -0.44025183551E+02  0.13774095941E+02 -0.39996515203E+02  0.61054687765E+02  0.10566000000E+00 0. -1.
         23    2    1    0    0    0 -0.22281523967E+02  0.13642233523E+02 -0.12707868914E+02  0.95947172631E+02  0.91442840932E+02 0.  0.
         13    1    3    3    0    0  0.21743659584E+02 -0.13186241775E+00  0.27288646289E+02  0.34892484866E+02  0.10566000000E+00 0.  1.
         22    1    1    0    0    0  0.22281523967E+02 -0.13642233523E+02  0.12707868914E+02  0.29052827369E+02  0.00000000000E+00 0. -1.
</event>
<event>
 5    1  0.1758480E-003  0.9118800E+02  0.7818608E-02  0.1130116E+00
         25   -1    0    0    0    0  0.00000000000E+00  0.00000000000E+00  0.99999998245E-14  0.12500000000E+03  0.12500000000E+03 0.  0.
        -13    1    3    3    0    0 -0.19746523378E+01 -0.28234793874E+02  0.44922665934E+02  0.53095761748E+02  0.10566000000E+00 0.  1.
         23    2    1    0    0    0 -0.15036902549E+02  0.71195870063E+01  0.22720727846E+02  0.96839239512E+02  0.92654249110E+02 0.  0.
         13    1    3    3    0    0 -0.13062250211E+02  0.35354380881E+02 -0.22201938088E+02  0.43743477764E+02  0.10566000000E+00 0. -1.
         22    1    1    0    0    0  0.15036902549E+02 -0.71195870063E+01 -0.22720727846E+02  0.28160760488E+02  0.00000000000E+00 0.  1.
</event>
<event>
 5    1  0.1758480E-003  0.9118800E+02  0.7818608E-02  0.1130116E+00
         25   -1    0    0    0    0  0.00000000000E+00  0.00000000000E+00  0.99999998245E-14  0.12500000000E+03  0.12500000000E+03 0.  0.
        -13    1    3    3    0    0  0.40142916606E+02 -0.23523929090E+02  0.73025606573E+01  0.47097426147E+02  0.10566000000E+00 0.  1.
         23    2    1    0    0    0  0.12074292880E+02  0.44025901327E+01 -0.24135957601E+02  0.97655607563E+02  0.93749143414E+02 0.  0.
         13    1    3    3    0    0 -0.28068623726E+02  0.27926519223E+02 -0.31438518258E+02  0.50558181416E+02  0.10566000000E+00 0. -1.
         22    1    1    0    0    0 -0.12074292880E+02 -0.44025901327E+01  0.24135957601E+02  0.27344392437E+02  0.00000000000E+00 0. -1.
</event>
<event>
 5    1  0.1758480E-003  0.9118800E+02  0.7818608E-02  0.1130116E+00
         25   -1    0    0    0    0  0.00000000000E+00  0.00000000000E+00  0.99999998245E-14  0.12500000000E+03  0.12500000000E+03 0.  0.
        -13    1    3    3    0    0  0.73333376062E+00 -0.51319881438E+02  0.64918825200E+01  0.51734163876E+02  0.10566000000E+00 0. -1.
         23    2    1    0    0    0 -0.51410019317E+01 -0.11987014627E+02  0.25911069911E+02  0.95991346732E+02  0.91503205861E+02 0.  0.
         13    1    3    3    0    0 -0.58743356923E+01  0.39332866811E+02  0.19419187391E+02  0.44257182856E+02  0.10566000000E+00 0.  1.
         22    1    1    0    0    0  0.51410019317E+01  0.11987014627E+02 -0.25911069911E+02  0.29008653268E+02  0.00000000000E+00 0.  1.
</event>
<event>
 5    1  0.1758480E-003  0.9118800E+02  0.7818608E-02  0.1130116E+00
         25   -1    0    0    0    0  0.00000000000E+00  0.00000000000E+00  0.99999998245E-14  0.12500000000E+03  0.12500000000E+03 0.  0.
        -13    1    3    3    0    0 -0.24435489837E+02 -0.50232237485E+01  0.32251498376E+02  0.40773720114E+02  0.10566000000E+00 0. -1.
         23    2    1    0    0    0  0.23981337108E+01 -0.29269263026E+02 -0.76769220269E+01  0.94645825078E+02  0.89646284193E+02 0.  0.
         13    1    3    3    0    0  0.26833623548E+02 -0.24246039277E+02 -0.39928420403E+02  0.53872104964E+02  0.10566000000E+00 0.  1.
         22    1    1    0    0    0 -0.23981337108E+01  0.29269263026E+02  0.76769220269E+01  0.30354174922E+02  0.00000000000E+00 0.  1.
</event>
<event>
 5    1  0.1758480E-003  0.9118800E+02  0.7818608E-02  0.1130116E+00
         25   -1    0    0    0    0  0.00000000000E+00  0.00000000000E+00  0.99999998245E-14  0.12500000000E+03  0.12500000000E+03 0.  0.
        -13    1    3    3    0    0 -0.27215895833E+02 -0.23107777334E+01 -0.50225105869E+02  0.57171820885E+02  0.10566000000E+00 0.  1.
         23    2    1    0    0    0 -0.29042546096E+02 -0.70103218483E+01 -0.17310024919E+02  0.90471011326E+02  0.83622681322E+02 0.  0.
         13    1    3    3    0    0 -0.18266502629E+01 -0.46995441149E+01  0.32915080950E+02  0.33299190441E+02  0.10566000000E+00 0. -1.
         22    1    1    0    0    0  0.29042546096E+02  0.70103218483E+01  0.17310024919E+02  0.34528988674E+02  0.00000000000E+00 0.  1.
</event>
<event>
 5    1  0.1758480E-003  0.9118800E+02  0.7818608E-02  0.1130116E+00
         25   -1    0    0    0    0  0.00000000000E+00  0.00000000000E+00  0.99999998245E-14  0.12500000000E+03  0.12500000000E+03 0.  0.
        -13    1    3    3    0    0  0.31766137454E+01 -0.52995991724E+02 -0.10413546968E+02  0.54102857024E+02  0.10566000000E+00 0. -1.
         23    2    1    0    0    0  0.36287662256E+01 -0.20133591540E+02  0.18153800645E+02  0.97648767295E+02  0.93740022530E+02 0.  0.
         13    1    3    3    0    0  0.45215248021E+00  0.32862400184E+02  0.28567347613E+02  0.43545910272E+02  0.10566000000E+00 0.  1.
         22    1    1    0    0    0 -0.36287662256E+01  0.20133591540E+02 -0.18153800645E+02  0.27351232705E+02  0.00000000000E+00 0. -1.
</event>
<event>
 5    1  0.1758480E-003  0.9118800E+02  0.7818608E-02  0.1130116E+00
         25   -1    0    0    0    0  0.00000000000E+00  0.00000000000E+00  0.99999998245E-14  0.12500000000E+03  0.12500000000E+03 0.  0.
        -13    1    3    3    0    0  0.42949293106E+02 -0.56169195239E+00 -0.22045796664E+02  0.48280281593E+02  0.10566000000E+00 0. -1.
         23    2    1    0    0    0 -0.77175833820E+01  0.49989068156E+01 -0.24010177164E+02  0.99289325757E+02  0.95902718622E+02 0.  0.
         13    1    3    3    0    0 -0.50666876488E+02  0.55605987680E+01 -0.19643805001E+01  0.51009044164E+02  0.10566000000E+00 0.  1.
         22    1    1    0    0    0  0.77175833820E+01 -0.49989068156E+01  0.24010177164E+02  0.25710674243E+02  0.00000000000E+00 0.  1.
</event>
<event>
 5    1  0.1758480E-003  0.9118800E+02  0.7818608E-02  0.1130116E+00
         25   -1    0    0    0    0  0.00000000000E+00  0.00000000000E+00  0.99999998245E-14  0.12500000000E+03  0.12500000000E+03 0.  0.
        -13    1    3    3    0    0  0.65453121262E+01  0.22768649716E+02 -0.36777126207E+02  0.43747236448E+02  0.10566000000E+00 0.  1.
         23    2    1    0    0    0 -0.13776291169E+02 -0.20305036130E+02 -0.15987184003E+02  0.95713983833E+02  0.91123520335E+02 0.  0.
         13    1    3    3    0    0 -0.20321603296E+02 -0.43073685846E+02  0.20789942204E+02  0.51966747385E+02  0.10566000000E+00 0. -1.
         22    1    1    0    0    0  0.13776291169E+02  0.20305036130E+02  0.15987184003E+02  0.29286016167E+02  0.00000000000E+00 0. -1.
</event>
<event>
 5    1  0.1758480E-003  0.9118800E+02  0.7818608E-02  0.1130116E+00
         25   -1    0    0    0    0  0.00000000000E+00  0.00000000000E+00  0.99999998245E-14  0.12500000000E+03  0.12500000000E+03 0.  0.
        -13    1    3    3    0    0 -0.46742888302E+02  0.22153634687E+02  0.25058961805E+02  0.57477333510E+02  0.10566000000E+00 0. -1.
         23    2    1    0    0    0 -0.11017536517E+02  0.24513521554E+02  0.98696686583E+01  0.96369435749E+02  0.92018253283E+02 0.  0.
         13    1    3    3    0    0  0.35725351785E+02  0.23598868677E+01 -0.15189293147E+02  0.38892102239E+02  0.10566000000E+00 0.  1.
         22    1    1    0    0    0  0.11017536517E+02 -0.24513521554E+02 -0.98696686583E+01  0.28630564251E+02  0.00000000000E+00 0. -1.
</event>
<event>
 5    1  0.1758480E-003  0.9118800E+02  0.7818608E-02  0.1130116E+00
         25   -1    0    0    0    0  0.00000000000E+00  0.00000000000E+00  0.99999998245E-14  0.12500000000E+03  0.12500000000E+03 0.  0.
        -13    1    3    3    0    0  0.45877203288E+02  0.23410353829E+02 -0.85703288132E+01  0.52213256439E+02  0.10566000000E+00 0.  1.
         23    2    1    0    0    0  0.19296163178E+02 -0.75390728468E+01 -0.21629467965E+02  0.95049817743E+02  0.90207840212E+02 0.  0.
         13    1    3    3    0    0 -0.26581040110E+02 -0.30949426676E+02 -0.13059139152E+02  0.42836561304E+02  0.10566000000E+00 0. -1.
         22    1    1    0    0    0 -0.19296163178E+02  0.75390728468E+01  0.21629467965E+02  0.29950182257E+02  0.00000000000E+00 0. -1.
</event>
<event>
 5    1  0.1758480E-003  0.9118800E+02  0.7818608E-02  0.1130116E+00
         25   -1    0    0    0    0  0.00000000000E+00  0.00000000000E+00  0.99999998245E-14  0.12500000000E+03  0.12500000000E+03 0.  0.
        -13    1    3    3    0    0 -0.35680849123E+02  0.14722849041E+02 -0.41248276758E+02  0.56491740791E+02  0.10566000000E+00 0.  1.
         23    2    1    0    0    0 -0.17304006804E+01  0.18436870897E+02 -0.23802177788E+02  0.94842809109E+02  0.89920533124E+02 0.  0.
         13    1    3    3    0    0  0.33950448443E+02  0.37140218561E+01  0.17446098971E+02  0.38351068318E+02  0.10566000000E+00 0. -1.
         22    1    1    0    0    0  0.17304006804E+01 -0.18436870897E+02  0.23802177788E+02  0.30157190891E+02  0.00000000000E+00 0.  1.
</event>
<event>
 5    1  0.1758480E-003  0.9118800E+02  0.7818608E-02  0.1130116E+00
         25   -1    0    0    0    0  0.00000000000E+00  0.00000000000E+00  0.99999998245E-14  0.12500000000E+03  0.12500000000E+03 0.  0.
        -13    1    3    3    0    0  0.33550352994E+02  0.48967815412E+02  0.14462866480E+02  0.61095489221E+02  0.10566000000E+00 0. -1.
         23    2    1    0    0    0  0.16542598545E+02  0.17905117214E+02  0.14743915600E+02  0.96510811941E+02  0.92210102403E+02 0.  0.
         13    1    3    3    0    0 -0.17007754449E+02 -0.31062698198E+02  0.28104911964E+00  0.35415322720E+02  0.10566000000E+00 0.  1.
         22    1    1    0    0    0 -0.16542598545E+02 -0.17905117214E+02 -0.14743915600E+02  0.28489188059E+02  0.00000000000E+00 0. -1.
</event>
<event>
 5    1  0.1758480E-003  0.9118800E+02  0.7818608E-02  0.1130116E+00
         25   -1    0    0    0    0  0.00000000000E+00  0.00000000000E+00  0.99999998245E-14  0.12500000000E+03  0.12500000000E+03 0.  0.
        -13    1    3    3    0    0  0.28690902756E+02  0.16501859704E+02  0.35552749020E+01  0.33288592916E+02  0.10566000000E+00 0. -1.
         23    2    1    0    0    0 -0.10573889560E+02 -0.29282476255E+02 -0.16142728534E+01  0.93825067235E+02  0.88494445072E+02 0.  0.
         13    1    3    3    0    0 -0.39264792317E+02 -0.45784335959E+02 -0.51695477554E+01  0.60536474319E+02  0.10566000000E+00 0.  1.
         22    1    1    0    0    0  0.10573889560E+02  0.29282476255E+02  0.16142728534E+01  0.31174932765E+02  0.00000000000E+00 0.  1.
</event>
<event>
 5    1  0.1758480E-003  0.9118800E+02  0.7818608E-02  0.1130116E+00
         25   -1    0    0    0    0  0.00000000000E+00  0.00000000000E+00  0.99999998245E-14  0.12500000000E+03  0.12500000000E+03 0.  0.
        -13    1    3    3    0    0  0.22135618116E+02  0.81089214900E+00 -0.41598492170E+02  0.47128429322E+02  0.10566000000E+00 0.  1.
         23    2    1    0    0    0  0.21084918296E+02  0.22957230399E+02 -0.50072118874E+00  0.93825347975E+02  0.88494841622E+02 0.  0.
         13    1    3    3    0    0 -0.10506998192E+01  0.22146338250E+02  0.41097770982E+02  0.46696918653E+02  0.10566000000E+00 0. -1.
         22    1    1    0    0    0 -0.21084918296E+02 -0.22957230399E+02  0.50072118874E+00  0.31174652025E+02  0.00000000000E+00 0. -1.
</event>
<event>
 5    1  0.1758480E-003  0.9118800E+02  0.7818608E-02  0.1130116E+00
         25   -1    0    0    0    0  0.00000000000E+00  0.00000000000E+00  0.99999998245E-14  0.12500000000E+03  0.12500000000E+03 0.  0.
        -13    1    3    3    0    0 -0.20111646382E+02  0.38967462805E+02  0.32927369154E+02  0.54837617391E+02  0.10566000000E+00 0.  1.
         23    2    1    0    0    0  0.12289389381E+02  0.14265221399E+02  0.19878368683E+02  0.97619803243E+02  0.93701391723E+02 0.  0.
         13    1    3    3    0    0  0.32401035763E+02 -0.24702241406E+02 -0.13049000471E+02  0.42782185853E+02  0.10566000000E+00 0. -1.
         22    1    1    0    0    0 -0.12289389381E+02 -0.14265221399E+02 -0.19878368683E+02  0.27380196757E+02  0.00000000000E+00 0.  1.
</event>
<event>
 5    1  0.1758480E-003  0.9118800E+02  0.7818608E-02  0.1130116E+00
         25   -1    0    0    0    0  0.00000000000E+00  0.00000000000E+00  0.99999998245E-14  0.12500000000E+03  0.12500000000E+03 0.  0.
        -13    1    3    3    0    0 -0.37563381996E+00  0.56870799037E+02 -0.24092415261E+02  0.61764751445E+02  0.10566000000E+00 0.  1.
         23    2    1    0    0    0  0.36423012840E+01  0.28005896081E+02 -0.58136337101E+01  0.96166080549E+02  0.91741594369E+02 0.  0.
         13    1    3    3    0    0  0.40179351040E+01 -0.28864902956E+02  0.18278781551E+02  0.34401329105E+02  0.10566000000E+00 0. -1.
         22    1    1    0    0    0 -0.36423012840E+01 -0.28005896081E+02  0.58136337101E+01  0.28833919451E+02  0.00000000000E+00 0.  1.
</event>
<event>
 5    1  0.1758480E-003  0.9118800E+02  0.7818608E-02  0.1130116E+00
         25   -1    0    0    0    0  0.00000000000E+00  0.00000000000E+00  0.99999998245E-14  0.12500000000E+03  0.12500000000E+03 0.  0.
        -13    1    3    3    0    0 -0.17392302728E+02  0.15988755210E+02 -0.37542787305E+02  0.44357688511E+02  0.10566000000E+00 0.  1.
         23    2    1    0    0    0  0.12029657891E+02  0.32692842091E+02 -0.80381204840E+01  0.89248832553E+02  0.81775351654E+02 0.  0.
         13    1    3    3    0    0  0.29421960619E+02  0.16704086881E+02  0.29504666821E+02  0.44891144042E+02  0.10566000000E+00 0. -1.
         22    1    1    0    0    0 -0.12029657891E+02 -0.32692842091E+02  0.80381204840E+01  0.35751167447E+02  0.00000000000E+00 0. -1.
</event>
<event>
 5    1  0.1758480E-003  0.9118800E+02  0.7818608E-02  0.1130116E+00
         25   -1    0    0    0    0  0.00000000000E+00  0.00000000000E+00  0.99999998245E-14  0.12500000000E+03  0.12500000000E+03 0.  0.
        -13    1    3    3    0    0  0.16804190466E+01  0.33603687435E+02 -0.41500036422E+02  0.53425610006E+02  0.10566000000E+00 0. -1.
         23    2    1    0    0    0  0.17896022391E+02  0.77365284487E+00 -0.26540887167E+02  0.92979930547E+02  0.87292511917E+02 0.  0.
         13    1    3    3    0    0  0.16215603345E+02 -0.32830034590E+02  0.14959149256E+02  0.39554320541E+02  0.10566000000E+00 0.  1.
         22    1    1    0    0    0 -0.17896022391E+02 -0.77365284487E+00  0.26540887167E+02  0.32020069453E+02  0.00000000000E+00 0.  1.
</event>
<event>
 5    1  0.1758480E-003  0.9118800E+02  0.7818608E-02  0.1130116E+00
         25   -1    0    0    0    0  0.00000000000E+00  0.00000000000E+00  0.99999998245E-14  0.12500000000E+03  0.12500000000E+03 0.  0.
        -13    1    3    3    0    0  0.28688793229E+02  0.50148553700E+02  0.19755917554E+02  0.61059247764E+02  0.10566000000E+00 0.  1.
         23    2    1    0    0    0  0.12376710124E+02  0.19119318555E+02  0.17663810360E+02  0.96177413511E+02  0.91757034487E+02 0.  0.
         13    1    3    3    0    0 -0.16312083105E+02 -0.31029235145E+02 -0.20921071948E+01  0.35118165747E+02  0.10566000000E+00 0. -1.
         22    1    1    0    0    0 -0.12376710124E+02 -0.19119318555E+02 -0.17663810360E+02  0.28822586489E+02  0.00000000000E+00 0.  1.
</event>
<event>
 5    1  0.1758480E-003  0.9118800E+02  0.7818608E-02  0.1130116E+00
         25   -1    0    0    0    0  0.00000000000E+00  0.00000000000E+00  0.99999998245E-14  0.12500000000E+03  0.12500000000E+03 0.  0.
        -13    1    3    3    0    0 -0.48453471733E+02  0.23377492426E+02 -0.17541461972E+02  0.56585865084E+02  0.10566000000E+00 0.  1.
         23    2    1    0    0    0 -0.21241917860E+02  0.19486435230E+02  0.90049688710E+01  0.94800170584E+02  0.89861241067E+02 0.  0.
         13    1    3    3    0    0  0.27211553873E+02 -0.38910571956E+01  0.26546430843E+02  0.38214305500E+02  0.10566000000E+00 0. -1.
         22    1    1    0    0    0  0.21241917860E+02 -0.19486435230E+02 -0.90049688710E+01  0.30199829416E+02  0.00000000000E+00 0.  1.
</event>
<event>
 5    1  0.1758480E-003  0.9118800E+02  0.7818608E-02  0.1130116E+00
         25   -1    0    0    0    0  0.00000000000E+00  0.00000000000E+00  0.99999998245E-14  0.12500000000E+03  0.12500000000E+03 0.  0.
        -13    1    3    3    0    0  0.14769684212E+02 -0.39603664653E+02 -0.36172532227E+02  0.55633237164E+02  0.10566000000E+00 0. -1.
         23    2    1    0    0    0 -0.42914661600E+01 -0.53411840026E+01 -0.28631995364E+02  0.95559618093E+02  0.90911520299E+02 0.  0.
         13    1    3    3    0    0 -0.19061150372E+02  0.34262480650E+02  0.75405368630E+01  0.39926380928E+02  0.10566000000E+00 0.  1.
         22    1    1    0    0    0  0.42914661600E+01  0.53411840026E+01  0.28631995364E+02  0.29440381907E+02  0.00000000000E+00 0. -1.
</event>
<event>
 5    1  0.1758480E-003  0.9118800E+02  0.7818608E-02  0.1130116E+00
         25   -1    0    0    0    0  0.00000000000E+00  0.00000000000E+00  0.99999998245E-14  0.12500000000E+03  0.12500000000E+03 0.  0.
        -13    1    3    3    0    0 -0.63283735646E+01  0.16408140974E+02  0.30037590545E+02  0.34807232179E+02  0.10566000000E+00 0. -1.
         23    2    1    0    0    0  0.18747991984E+02 -0.10996575827E+02 -0.18866042689E+02  0.96219113111E+02  0.91813824001E+02 0.  0.
         13    1    3    3    0    0  0.25076365549E+02 -0.27404716801E+02 -0.48903633234E+02  0.61411880932E+02  0.10566000000E+00 0.  1.
         22    1    1    0    0    0 -0.18747991984E+02  0.10996575827E+02  0.18866042689E+02  0.28780886889E+02  0.00000000000E+00 0.  1.
</event>
<event>
 5    1  0.1758480E-003  0.9118800E+02  0.7818608E-02  0.1130116E+00
         25   -1    0    0    0    0  0.00000000000E+00  0.00000000000E+00  0.99999998245E-14  0.12500000000E+03  0.12500000000E+03 0.  0.
        -13    1    3    3    0    0  0.43114284910E+02 -0.26176079155E+02 -0.84891384962E+01  0.51147876981E+02  0.10566000000E+00 0. -1.
         23    2    1    0    0    0 -0.13696024225E+01 -0.25726620684E+02  0.70832241576E+01  0.98280963956E+02  0.94579284143E+02 0.  0.
         13    1    3    3    0    0 -0.44483887333E+02  0.44945847095E+00  0.15572362654E+02  0.47133086975E+02  0.10566000000E+00 0.  1.
         22    1    1    0    0    0  0.13696024225E+01  0.25726620684E+02 -0.70832241576E+01  0.26719036044E+02  0.00000000000E+00 0. -1.
</event>
<event>
 5    1  0.1758480E-003  0.9118800E+02  0.7818608E-02  0.1130116E+00
         25   -1    0    0    0    0  0.00000000000E+00  0.00000000000E+00  0.99999998245E-14  0.12500000000E+03  0.12500000000E+03 0.  0.
        -13    1    3    3    0    0 -0.28038250178E+02 -0.49464364004E+02 -0.25602407258E+02  0.62356725385E+02  0.10566000000E+00 0. -1.
         23    2    1    0    0    0 -0.14818272187E+02 -0.20864458187E+02 -0.98969108639E+01  0.97561784849E+02  0.93623961741E+02 0.  0.
         13    1    3    3    0    0  0.13219977991E+02  0.28599905817E+02  0.15705496394E+02  0.35205059463E+02  0.10566000000E+00 0.  1.
         22    1    1    0    0    0  0.14818272187E+02  0.20864458187E+02  0.98969108639E+01  0.27438215151E+02  0.00000000000E+00 0. -1.
</event>
<event>
 5    1  0.1758480E-003  0.9118800E+02  0.7818608E-02  0.1130116E+00
         25   -1    0    0    0    0  0.00000000000E+00  0.00000000000E+00  0.99999998245E-14  0.12500000000E+03  0.12500000000E+03 0.  0.
        -13    1    3    3    0    0 -0.18996534246E+02  0.18872687530E+02 -0.28001677454E+02  0.38744699666E+02  0.10566000000E+00 0.  1.
         23    2    1    0    0    0 -0.10082910188E+02  0.11111335337E+02  0.26518321787E+02  0.94531192323E+02  0.89486301079E+02 0.  0.
         13    1    3    3    0    0  0.89136240577E+01 -0.77613521930E+01  0.54519999241E+02  0.55786492657E+02  0.10566000000E+00 0. -1.
         22    1    1    0    0    0  0.10082910188E+02 -0.11111335337E+02 -0.26518321787E+02  0.30468807677E+02  0.00000000000E+00 0. -1.
</event>
<event>
 5    1  0.1758480E-003  0.9118800E+02  0.7818608E-02  0.1130116E+00
         25   -1    0    0    0    0  0.00000000000E+00  0.00000000000E+00  0.99999998245E-14  0.12500000000E+03  0.12500000000E+03 0.  0.
        -13    1    3    3    0    0 -0.21746053506E+02 -0.30658379568E+02 -0.71386167399E+01  0.38259614397E+02  0.10566000000E+00 0. -1.
         23    2    1    0    0    0 -0.63491969424E+01  0.20138996384E+02  0.18242282151E+02  0.97095299047E+02  0.92999057855E+02 0.  0.
         13    1    3    3    0    0  0.15396856564E+02  0.50797375952E+02  0.25380898891E+02  0.58835684650E+02  0.10566000000E+00 0.  1.
         22    1    1    0    0    0  0.63491969424E+01 -0.20138996384E+02 -0.18242282151E+02  0.27904700953E+02  0.00000000000E+00 0.  1.
</event>
<event>
 5    1  0.1758480E-003  0.9118800E+02  0.7818608E-02  0.1130116E+00
         25   -1    0    0    0    0  0.00000000000E+00  0.00000000000E+00  0.99999998245E-14  0.12500000000E+03  0.12500000000E+03 0.  0.
        -13    1    3    3    0    0  0.14516646683E+02 -0.40989466842E+02  0.30038248732E+02  0.52850515360E+02  0.10566000000E+00 0.  1.
         23    2    1    0    0    0  0.31097360818E+02 -0.17588479157E+02  0.97955313793E+01  0.87954718467E+02  0.79772674624E+02 0.  0.
         13    1    3    3    0    0  0.16580714135E+02  0.23400987685E+02 -0.20242717353E+02  0.35104203106E+02  0.10566000000E+00 0. -1.
         22    1    1    0    0    0 -0.31097360818E+02  0.17588479157E+02 -0.97955313793E+01  0.37045281533E+02  0.00000000000E+00 0.  1.
</event>
<event>
 5    1  0.1758480E-003  0.9118800E+02  0.7818608E-02  0.1130116E+00
         25   -1    0    0    0    0  0.00000000000E+00  0.00000000000E+00  0.99999998245E-14  0.12500000000E+03  0.12500000000E+03 0.  0.
        -13    1    3    3    0    0 -0.19999600584E+02  0.27759032463E+02  0.92648972658E+00  0.34225976305E+02  0.10566000000E+00 0.  1.
         23    2    1    0    0    0  0.22693768204E+02 -0.16703711708E+02  0.63805500266E+01  0.96108262102E+02  0.91662781572E+02 0.  0.
         13    1    3    3    0    0  0.42693368788E+02 -0.44462744171E+02  0.54540603000E+01  0.61882285797E+02  0.10566000000E+00 0. -1.
         22    1    1    0    0    0 -0.22693768204E+02  0.16703711708E+02 -0.63805500266E+01  0.28891737898E+02  0.00000000000E+00 0. -1.
</event>
<event>
 5    1  0.1758480E-003  0.9118800E+02  0.7818608E-02  0.1130116E+00
         25   -1    0    0    0    0  0.00000000000E+00  0.00000000000E+00  0.99999998245E-14  0.12500000000E+03  0.12500000000E+03 0.  0.
        -13    1    3    3    0    0 -0.37481198342E+02  0.31612394243E+02  0.87764633049E+01  0.49811857736E+02  0.10566000000E+00 0. -1.
         23    2    1    0    0    0  0.66919323620E+01  0.27108904236E+02 -0.56746961214E+01  0.96506547705E+02  0.92204321625E+02 0.  0.
         13    1    3    3    0    0  0.44173130704E+02 -0.45034900073E+01 -0.14451159426E+02  0.46694689969E+02  0.10566000000E+00 0.  1.
         22    1    1    0    0    0 -0.66919323620E+01 -0.27108904236E+02  0.56746961214E+01  0.28493452295E+02  0.00000000000E+00 0.  1.
</event>
<event>
 5    1  0.1758480E-003  0.9118800E+02  0.7818608E-02  0.1130116E+00
         25   -1    0    0    0    0  0.00000000000E+00  0.00000000000E+00  0.99999998245E-14  0.12500000000E+03  0.12500000000E+03 0.  0.
        -13    1    3    3    0    0  0.15439954162E+02  0.25803572811E+02 -0.34542748826E+02  0.45797698795E+02  0.10566000000E+00 0. -1.
         23    2    1    0    0    0 -0.14337584189E+02 -0.12748358715E+02 -0.21413163568E+02  0.96249164459E+02  0.91854728321E+02 0.  0.
         13    1    3    3    0    0 -0.29777538351E+02 -0.38551931526E+02  0.13129585259E+02  0.50451465665E+02  0.10566000000E+00 0.  1.
         22    1    1    0    0    0  0.14337584189E+02  0.12748358715E+02  0.21413163568E+02  0.28750835541E+02  0.00000000000E+00 0. -1.
</event>
<event>
 5    1  0.1758480E-003  0.9118800E+02  0.7818608E-02  0.1130116E+00
         25   -1    0    0    0    0  0.00000000000E+00  0.00000000000E+00  0.99999998245E-14  0.12500000000E+03  0.12500000000E+03 0.  0.
        -13    1    3    3    0    0  0.21336589147E+02  0.77851666568E+01  0.25801011224E+02  0.34373859261E+02  0.10566000000E+00 0.  1.
         23    2    1    0    0    0 -0.28085222421E+02  0.19651148378E+01 -0.93882352610E+01  0.95322056067E+02  0.90584292330E+02 0.  0.
         13    1    3    3    0    0 -0.49421811567E+02 -0.58200518190E+01 -0.35189246485E+02  0.60948196807E+02  0.10566000000E+00 0. -1.
         22    1    1    0    0    0  0.28085222421E+02 -0.19651148378E+01  0.93882352610E+01  0.29677943933E+02  0.00000000000E+00 0. -1.
</event>
<event>
 5    1  0.1758480E-003  0.9118800E+02  0.7818608E-02  0.1130116E+00
         25   -1    0    0    0    0  0.00000000000E+00  0.00000000000E+00  0.99999998245E-14  0.12500000000E+03  0.12500000000E+03 0.  0.
        -13    1    3    3    0    0  0.24816293846E+02 -0.33748711467E+02  0.99285085837E-02  0.41890753497E+02  0.10566000000E+00 0.  1.
         23    2    1    0    0    0 -0.20585081333E+02 -0.13976620302E+02  0.17688467470E+02  0.94471761105E+02  0.89403245334E+02 0.  0.
         13    1    3    3    0    0 -0.45401375179E+02  0.19772091165E+02  0.17678538961E+02  0.52581007608E+02  0.10566000000E+00 0. -1.
         22    1    1    0    0    0  0.20585081333E+02  0.13976620302E+02 -0.17688467470E+02  0.30528238895E+02  0.00000000000E+00 0. -1.
</event>
<event>
 5    1  0.1758480E-003  0.9118800E+02  0.7818608E-02  0.1130116E+00
         25   -1    0    0    0    0  0.00000000000E+00  0.00000000000E+00  0.99999998245E-14  0.12500000000E+03  0.12500000000E+03 0.  0.
        -13    1    3    3    0    0  0.75201221233E+01  0.30437045051E+02 -0.52922596535E+02  0.61512424243E+02  0.10566000000E+00 0. -1.
         23    2    1    0    0    0  0.31544396643E+01  0.11907511259E+02 -0.35882577333E+02  0.87061910037E+02  0.78361199003E+02 0.  0.
         13    1    3    3    0    0 -0.43656824590E+01 -0.18529533792E+02  0.17040019202E+02  0.25549485794E+02  0.10566000000E+00 0.  1.
         22    1    1    0    0    0 -0.31544396643E+01 -0.11907511259E+02  0.35882577333E+02  0.37938089963E+02  0.00000000000E+00 0. -1.
</event>
<event>
 5    1  0.1758480E-003  0.9118800E+02  0.7818608E-02  0.1130116E+00
         25   -1    0    0    0    0  0.00000000000E+00  0.00000000000E+00  0.99999998245E-14  0.12500000000E+03  0.12500000000E+03 0.  0.
        -13    1    3    3    0    0  0.14659805499E+02  0.16863502867E+02 -0.43463040294E+02  0.48870590971E+02  0.10566000000E+00 0.  1.
         23    2    1    0    0    0 -0.21768655999E+02  0.13905364775E+02 -0.15653195660E+02  0.94796422598E+02  0.89856027341E+02 0.  0.
         13    1    3    3    0    0 -0.36428461498E+02 -0.29581380918E+01  0.27809844634E+02  0.45925831627E+02  0.10566000000E+00 0. -1.
         22    1    1    0    0    0  0.21768655999E+02 -0.13905364775E+02  0.15653195660E+02  0.30203577402E+02  0.00000000000E+00 0. -1.
</event>
<event>
 5    1  0.1758480E-003  0.9118800E+02  0.7818608E-02  0.1130116E+00
         25   -1    0    0    0    0  0.00000000000E+00  0.00000000000E+00  0.99999998245E-14  0.12500000000E+03  0.12500000000E+03 0.  0.
        -13    1    3    3    0    0  0.98196491481E+01 -0.83606341652E+01 -0.32340815065E+02  0.34817598943E+02  0.10566000000E+00 0.  1.
         23    2    1    0    0    0  0.86686504993E+01  0.19175237137E+00  0.27956682987E+02  0.95729564505E+02  0.91144890840E+02 0.  0.
         13    1    3    3    0    0 -0.11509986489E+01  0.85523865366E+01  0.60297498052E+02  0.60911965562E+02  0.10566000000E+00 0. -1.
         22    1    1    0    0    0 -0.86686504993E+01 -0.19175237137E+00 -0.27956682987E+02  0.29270435495E+02  0.00000000000E+00 0. -1.
</event>
<event>
 5    1  0.1758480E-003  0.9118800E+02  0.7818608E-02  0.1130116E+00
         25   -1    0    0    0    0  0.00000000000E+00  0.00000000000E+00  0.99999998245E-14  0.12500000000E+03  0.12500000000E+03 0.  0.
        -13    1    3    3    0    0  0.55182669809E+01  0.34014627342E+02 -0.72058892868E+01  0.35204859724E+02  0.10566000000E+00 0.  1.
         23    2    1    0    0    0 -0.18430957883E+02 -0.21353275278E+02 -0.84847516963E+01  0.95544039908E+02  0.90890098344E+02 0.  0.
         13    1    3    3    0    0 -0.23949224864E+02 -0.55367902620E+02 -0.12788624095E+01  0.60339180184E+02  0.10566000000E+00 0. -1.
         22    1    1    0    0    0  0.18430957883E+02  0.21353275278E+02  0.84847516963E+01  0.29455960092E+02  0.00000000000E+00 0. -1.
</event>
<event>
 5    1  0.1758480E-003  0.9118800E+02  0.7818608E-02  0.1130116E+00
         25   -1    0    0    0    0  0.00000000000E+00  0.00000000000E+00  0.99999998245E-14  0.12500000000E+03  0.12500000000E+03 0.  0.
        -13    1    3    3    0    0  0.30450836198E+02 -0.43660134735E+01  0.17014548739E+02  0.35154253393E+02  0.10566000000E+00 0.  1.
         23    2    1    0    0    0 -0.93921170408E+01  0.14815474270E+02 -0.23869455669E+02  0.95378030884E+02  0.90661500766E+02 0.  0.
         13    1    3    3    0    0 -0.39842953239E+02  0.19181487743E+02 -0.40884004408E+02  0.60223777491E+02  0.10566000000E+00 0. -1.
         22    1    1    0    0    0  0.93921170408E+01 -0.14815474270E+02  0.23869455669E+02  0.29621969116E+02  0.00000000000E+00 0. -1.
</event>
<event>
 5    1  0.1758480E-003  0.9118800E+02  0.7818608E-02  0.1130116E+00
         25   -1    0    0    0    0  0.00000000000E+00  0.00000000000E+00  0.99999998245E-14  0.12500000000E+03  0.12500000000E+03 0.  0.
        -13    1    3    3    0    0  0.54874757808E+02 -0.10343074830E+02 -0.21890462708E+02  0.59978510843E+02  0.10566000000E+00 0.  1.
         23    2    1    0    0    0  0.25780563492E+02  0.58597580060E+01 -0.16821926453E+02  0.93663895784E+02  0.88266493904E+02 0.  0.
         13    1    3    3    0    0 -0.29094194316E+02  0.16202832836E+02  0.50685362552E+01  0.33685384941E+02  0.10566000000E+00 0. -1.
         22    1    1    0    0    0 -0.25780563492E+02 -0.58597580060E+01  0.16821926453E+02  0.31336104216E+02  0.00000000000E+00 0.  1.
</event>
<event>
 5    1  0.1758480E-003  0.9118800E+02  0.7818608E-02  0.1130116E+00
         25   -1    0    0    0    0  0.00000000000E+00  0.00000000000E+00  0.99999998245E-14  0.12500000000E+03  0.12500000000E+03 0.  0.
        -13    1    3    3    0    0  0.43786124946E+01  0.61356598514E+02 -0.34846126498E+01  0.61611347314E+02  0.10566000000E+00 0.  1.
         23    2    1    0    0    0  0.54202901718E+01  0.28606089650E+02  0.49987022313E+01  0.95458928005E+02  0.90772969551E+02 0.  0.
         13    1    3    3    0    0  0.10416776772E+01 -0.32750508863E+02  0.84833148811E+01  0.33847580690E+02  0.10566000000E+00 0. -1.
         22    1    1    0    0    0 -0.54202901718E+01 -0.28606089650E+02 -0.49987022313E+01  0.29541071995E+02  0.00000000000E+00 0.  1.
</event>
<event>
 5    1  0.1758480E-003  0.9118800E+02  0.7818608E-02  0.1130116E+00
         25   -1    0    0    0    0  0.00000000000E+00  0.00000000000E+00  0.99999998245E-14  0.12500000000E+03  0.12500000000E+03 0.  0.
        -13    1    3    3    0    0  0.13254753497E+02  0.70128915766E+01 -0.27522125456E+02  0.31342426393E+02  0.10566000000E+00 0. -1.
         23    2    1    0    0    0  0.89455065053E+01  0.61195813843E+01  0.32096275995E+02  0.91123130373E+02  0.84591858906E+02 0.  0.
         13    1    3    3    0    0 -0.43092469921E+01 -0.89331019233E+00  0.59618401451E+02  0.59780703980E+02  0.10566000000E+00 0.  1.
         22    1    1    0    0    0 -0.89455065053E+01 -0.61195813843E+01 -0.32096275995E+02  0.33876869627E+02  0.00000000000E+00 0.  1.
</event>
<event>
 5    1  0.1758480E-003  0.9118800E+02  0.7818608E-02  0.1130116E+00
         25   -1    0    0    0    0  0.00000000000E+00  0.00000000000E+00  0.99999998245E-14  0.12500000000E+03  0.12500000000E+03 0.  0.
        -13    1    3    3    0    0  0.18371196232E+02  0.51913677409E+02 -0.13937264594E+02  0.56804834843E+02  0.10566000000E+00 0. -1.
         23    2    1    0    0    0 -0.92046003183E+01  0.23956668887E+02 -0.13335190478E+02  0.96078140511E+02  0.91621695727E+02 0.  0.
         13    1    3    3    0    0 -0.27575796550E+02 -0.27957008522E+02  0.60207411596E+00  0.39273305668E+02  0.10566000000E+00 0.  1.
         22    1    1    0    0    0  0.92046003183E+01 -0.23956668887E+02  0.13335190478E+02  0.28921859489E+02  0.00000000000E+00 0. -1.
</event>
<event>
 5    1  0.1758480E-003  0.9118800E+02  0.7818608E-02  0.1130116E+00
         25   -1    0    0    0    0  0.00000000000E+00  0.00000000000E+00  0.99999998245E-14  0.12500000000E+03  0.12500000000E+03 0.  0.
        -13    1    3    3    0    0 -0.33757834642E+02 -0.20949926794E+01 -0.46791564332E+02  0.57735968431E+02  0.10566000000E+00 0.  1.
         23    2    1    0    0    0 -0.69455506639E+01 -0.15872028490E+02 -0.23359740458E+02  0.95916681127E+02  0.91401150331E+02 0.  0.
         13    1    3    3    0    0  0.26812283978E+02 -0.13777035811E+02  0.23431823874E+02  0.38180712696E+02  0.10566000000E+00 0. -1.
         22    1    1    0    0    0  0.69455506639E+01  0.15872028490E+02  0.23359740458E+02  0.29083318873E+02  0.00000000000E+00 0.  1.
</event>
<event>
 5    1  0.1758480E-003  0.9118800E+02  0.7818608E-02  0.1130116E+00
         25   -1    0    0    0    0  0.00000000000E+00  0.00000000000E+00  0.99999998245E-14  0.12500000000E+03  0.12500000000E+03 0.  0.
        -13    1    3    3    0    0 -0.11298030286E+02 -0.30408443833E+02 -0.47770950074E+02  0.57744209923E+02  0.10566000000E+00 0. -1.
         23    2    1    0    0    0  0.11135233077E+02 -0.73814399547E+01 -0.23282176006E+02  0.98157146369E+02  0.94415499746E+02 0.  0.
         13    1    3    3    0    0  0.22433263363E+02  0.23027003879E+02  0.24488774068E+02  0.40412936445E+02  0.10566000000E+00 0.  1.
         22    1    1    0    0    0 -0.11135233077E+02  0.73814399547E+01  0.23282176006E+02  0.26842853631E+02  0.00000000000E+00 0.  1.
</event>
<event>
 5    1  0.1758480E-003  0.9118800E+02  0.7818608E-02  0.1130116E+00
         25   -1    0    0    0    0  0.00000000000E+00  0.00000000000E+00  0.99999998245E-14  0.12500000000E+03  0.12500000000E+03 0.  0.
        -13    1    3    3    0    0  0.18849692760E+02 -0.16801405497E+02 -0.25840912194E+02  0.36129794504E+02  0.10566000000E+00 0.  1.
         23    2    1    0    0    0 -0.72932851040E+00 -0.47132236667E+01  0.29004174264E+02  0.95606318330E+02  0.90975708749E+02 0.  0.
         13    1    3    3    0    0 -0.19579021270E+02  0.12088181830E+02  0.54845086458E+02  0.59476523826E+02  0.10566000000E+00 0. -1.
         22    1    1    0    0    0  0.72932851040E+00  0.47132236667E+01 -0.29004174264E+02  0.29393681670E+02  0.00000000000E+00 0. -1.
</event>
<event>
 5    1  0.1758480E-003  0.9118800E+02  0.7818608E-02  0.1130116E+00
         25   -1    0    0    0    0  0.00000000000E+00  0.00000000000E+00  0.99999998245E-14  0.12500000000E+03  0.12500000000E+03 0.  0.
        -13    1    3    3    0    0  0.56575431654E+02  0.82567636809E+01  0.24430012881E+01  0.57227030612E+02  0.10566000000E+00 0. -1.
         23    2    1    0    0    0  0.28245281855E+02 -0.66623997261E+01 -0.13497607316E+02  0.92994236137E+02  0.87312994648E+02 0.  0.
         13    1    3    3    0    0 -0.28330149799E+02 -0.14919163407E+02 -0.15940608604E+02  0.35767205525E+02  0.10566000000E+00 0.  1.
         22    1    1    0    0    0 -0.28245281855E+02  0.66623997261E+01  0.13497607316E+02  0.32005763863E+02  0.00000000000E+00 0. -1.
</event>
<event>
 5    1  0.1758480E-003  0.9118800E+02  0.7818608E-02  0.1130116E+00
         25   -1    0    0    0    0  0.00000000000E+00  0.00000000000E+00  0.99999998245E-14  0.12500000000E+03  0.12500000000E+03 0.  0.
        -13    1    3    3    0    0 -0.29541662670E+02 -0.10139741125E+02  0.15959754766E+02  0.35074907265E+02  0.10566000000E+00 0. -1.
         23    2    1    0    0    0  0.22234293732E+02  0.17675800564E+02  0.12545338289E+02  0.93948699607E+02  0.88668906059E+02 0.  0.
         13    1    3    3    0    0  0.51775956402E+02  0.27815541689E+02 -0.34144164766E+01  0.58873792342E+02  0.10566000000E+00 0.  1.
         22    1    1    0    0    0 -0.22234293732E+02 -0.17675800564E+02 -0.12545338289E+02  0.31051300393E+02  0.00000000000E+00 0.  1.
</event>
<event>
 5    1  0.1758480E-003  0.9118800E+02  0.7818608E-02  0.1130116E+00
         25   -1    0    0    0    0  0.00000000000E+00  0.00000000000E+00  0.99999998245E-14  0.12500000000E+03  0.12500000000E+03 0.  0.
        -13    1    3    3    0    0  0.45175402384E+01 -0.57271667400E+01  0.47315298368E+02  0.47874390151E+02  0.10566000000E+00 0.  1.
         23    2    1    0    0    0  0.18355289320E+02 -0.21944497948E+02  0.40516760405E+01  0.96105472578E+02  0.91658977435E+02 0.  0.
         13    1    3    3    0    0  0.13837749082E+02 -0.16217331208E+02 -0.43263622327E+02  0.48231082427E+02  0.10566000000E+00 0. -1.
         22    1    1    0    0    0 -0.18355289320E+02  0.21944497948E+02 -0.40516760405E+01  0.28894527422E+02  0.00000000000E+00 0. -1.
</event>
<event>
 5    1  0.1758480E-003  0.9118800E+02  0.7818608E-02  0.1130116E+00
         25   -1    0    0    0    0  0.00000000000E+00  0.00000000000E+00  0.99999998245E-14  0.12500000000E+03  0.12500000000E+03 0.  0.
        -13    1    3    3    0    0  0.15894578520E+02 -0.49176600678E+02  0.11767295213E+02  0.53004302478E+02  0.10566000000E+00 0.  1.
         23    2    1    0    0    0  0.17878467006E+02 -0.16983387998E+02 -0.16033674679E+02  0.95586503539E+02  0.90948479287E+02 0.  0.
         13    1    3    3    0    0  0.19838884859E+01  0.32193212680E+02 -0.27800969892E+02  0.42582201061E+02  0.10566000000E+00 0. -1.
         22    1    1    0    0    0 -0.17878467006E+02  0.16983387998E+02  0.16033674679E+02  0.29413496461E+02  0.00000000000E+00 0.  1.
</event>
<event>
 5    1  0.1758480E-003  0.9118800E+02  0.7818608E-02  0.1130116E+00
         25   -1    0    0    0    0  0.00000000000E+00  0.00000000000E+00  0.99999998245E-14  0.12500000000E+03  0.12500000000E+03 0.  0.
        -13    1    3    3    0    0 -0.10304651943E+02  0.52360556686E+02  0.28194188521E+02  0.60355092400E+02  0.10566000000E+00 0.  1.
         23    2    1    0    0    0  0.36812980002E+00  0.18234694923E+02  0.21627062717E+02  0.96709198310E+02  0.92478643900E+02 0.  0.
         13    1    3    3    0    0  0.10672781743E+02 -0.34125861763E+02 -0.65671258043E+01  0.36354105911E+02  0.10566000000E+00 0. -1.
         22    1    1    0    0    0 -0.36812980002E+00 -0.18234694923E+02 -0.21627062717E+02  0.28290801690E+02  0.00000000000E+00 0.  1.
</event>
<event>
 5    1  0.1758480E-003  0.9118800E+02  0.7818608E-02  0.1130116E+00
         25   -1    0    0    0    0  0.00000000000E+00  0.00000000000E+00  0.99999998245E-14  0.12500000000E+03  0.12500000000E+03 0.  0.
        -13    1    3    3    0    0 -0.59575583527E+00 -0.20083841474E+01 -0.61664324995E+02  0.61699989247E+02  0.10566000000E+00 0. -1.
         23    2    1    0    0    0 -0.63897458770E+01  0.25852736905E+01 -0.28616097731E+02  0.95565436273E+02  0.90919519732E+02 0.  0.
         13    1    3    3    0    0 -0.57939900417E+01  0.45936578379E+01  0.33048227264E+02  0.33865447026E+02  0.10566000000E+00 0.  1.
         22    1    1    0    0    0  0.63897458770E+01 -0.25852736905E+01  0.28616097731E+02  0.29434563727E+02  0.00000000000E+00 0. -1.
</event>
<event>
 5    1  0.1758480E-003  0.9118800E+02  0.7818608E-02  0.1130116E+00
         25   -1    0    0    0    0  0.00000000000E+00  0.00000000000E+00  0.99999998245E-14  0.12500000000E+03  0.12500000000E+03 0.  0.
        -13    1    3    3    0    0  0.51363089006E+02  0.23465427227E+02  0.11493697516E+02  0.57627332350E+02  0.10566000000E+00 0. -1.
         23    2    1    0    0    0  0.19256665969E+02  0.23016423962E+02 -0.62979182352E+01  0.94336687551E+02  0.89214191067E+02 0.  0.
         13    1    3    3    0    0 -0.32106423037E+02 -0.44900326515E+00 -0.17791615752E+02  0.36709355201E+02  0.10566000000E+00 0.  1.
         22    1    1    0    0    0 -0.19256665969E+02 -0.23016423962E+02  0.62979182352E+01  0.30663312449E+02  0.00000000000E+00 0. -1.
</event>
<event>
 5    1  0.1758480E-003  0.9118800E+02  0.7818608E-02  0.1130116E+00
         25   -1    0    0    0    0  0.00000000000E+00  0.00000000000E+00  0.99999998245E-14  0.12500000000E+03  0.12500000000E+03 0.  0.
        -13    1    3    3    0    0 -0.19836015443E+02 -0.19789045666E+02  0.49997442024E+02  0.57313429578E+02  0.10566000000E+00 0. -1.
         23    2    1    0    0    0  0.87085078552E+01 -0.87111547677E+01  0.26048685585E+02  0.96185830792E+02  0.91768500576E+02 0.  0.
         13    1    3    3    0    0  0.28544523298E+02  0.11077890898E+02 -0.23948756439E+02  0.38872401213E+02  0.10566000000E+00 0.  1.
         22    1    1    0    0    0 -0.87085078552E+01  0.87111547677E+01 -0.26048685585E+02  0.28814169208E+02  0.00000000000E+00 0. -1.
</event>
<event>
 5    1  0.1758480E-003  0.9118800E+02  0.7818608E-02  0.1130116E+00
         25   -1    0    0    0    0  0.00000000000E+00  0.00000000000E+00  0.99999998245E-14  0.12500000000E+03  0.12500000000E+03 0.  0.
        -13    1    3    3    0    0 -0.51537087142E+02 -0.84988246178E+01 -0.32777957338E+02  0.61666092970E+02  0.10566000000E+00 0.  1.
         23    2    1    0    0    0 -0.27765019531E+02 -0.11327370987E+01 -0.98129646074E+01  0.95530122544E+02  0.90870955954E+02 0.  0.
         13    1    3    3    0    0  0.23772067611E+02  0.73660875191E+01  0.22964992730E+02  0.33864029574E+02  0.10566000000E+00 0. -1.
         22    1    1    0    0    0  0.27765019531E+02  0.11327370987E+01  0.98129646074E+01  0.29469877456E+02  0.00000000000E+00 0.  1.
</event>
<event>
 5    1  0.1758480E-003  0.9118800E+02  0.7818608E-02  0.1130116E+00
         25   -1    0    0    0    0  0.00000000000E+00  0.00000000000E+00  0.99999998245E-14  0.12500000000E+03  0.12500000000E+03 0.  0.
        -13    1    3    3    0    0 -0.26583262546E+02  0.47197215810E+02 -0.85428405456E+01  0.54838292428E+02  0.10566000000E+00 0.  1.
         23    2    1    0    0    0 -0.27870455387E+02  0.61167464963E+01 -0.30818824258E+01  0.96300263582E+02  0.91924239978E+02 0.  0.
         13    1    3    3    0    0 -0.12871928411E+01 -0.41080469313E+02  0.54609581198E+01  0.41461971155E+02  0.10566000000E+00 0. -1.
         22    1    1    0    0    0  0.27870455387E+02 -0.61167464963E+01  0.30818824258E+01  0.28699736418E+02  0.00000000000E+00 0.  1.
</event>
<event>
 5    1  0.1758480E-003  0.9118800E+02  0.7818608E-02  0.1130116E+00
         25   -1    0    0    0    0  0.00000000000E+00  0.00000000000E+00  0.99999998245E-14  0.12500000000E+03  0.12500000000E+03 0.  0.
        -13    1    3    3    0    0  0.27686426910E+02  0.33649092671E+01  0.50238226435E+02  0.57460868500E+02  0.10566000000E+00 0. -1.
         23    2    1    0    0    0  0.26037667980E+02 -0.25099820930E+01  0.11934454407E+02  0.96247758941E+02  0.91852815609E+02 0.  0.
         13    1    3    3    0    0 -0.16487589303E+01 -0.58748913601E+01 -0.38303772028E+02  0.38786890441E+02  0.10566000000E+00 0.  1.
         22    1    1    0    0    0 -0.26037667980E+02  0.25099820930E+01 -0.11934454407E+02  0.28752241059E+02  0.00000000000E+00 0. -1.
</event>
<event>
 5    1  0.1758480E-003  0.9118800E+02  0.7818608E-02  0.1130116E+00
         25   -1    0    0    0    0  0.00000000000E+00  0.00000000000E+00  0.99999998245E-14  0.12500000000E+03  0.12500000000E+03 0.  0.
        -13    1    3    3    0    0 -0.46861141496E+02  0.22250682181E+00  0.10980972565E+02  0.48131164687E+02  0.10566000000E+00 0.  1.
         23    2    1    0    0    0 -0.12205072832E+02 -0.19303417675E+02 -0.16798251180E+02  0.96649215540E+02  0.92397531813E+02 0.  0.
         13    1    3    3    0    0  0.34656068664E+02 -0.19525924497E+02 -0.27779223745E+02  0.48518050853E+02  0.10566000000E+00 0. -1.
         22    1    1    0    0    0  0.12205072832E+02  0.19303417675E+02  0.16798251180E+02  0.28350784460E+02  0.00000000000E+00 0.  1.
</event>
<event>
 5    1  0.1758480E-003  0.9118800E+02  0.7818608E-02  0.1130116E+00
         25   -1    0    0    0    0  0.00000000000E+00  0.00000000000E+00  0.99999998245E-14  0.12500000000E+03  0.12500000000E+03 0.  0.
        -13    1    3    3    0    0 -0.23062537412E+02  0.27147447980E+02  0.90250632573E+01  0.36746802508E+02  0.10566000000E+00 0. -1.
         23    2    1    0    0    0  0.29271015232E+02  0.31880086050E+01 -0.25110632444E+01  0.95449007290E+02  0.90759307084E+02 0.  0.
         13    1    3    3    0    0  0.52333552644E+02 -0.23959439375E+02 -0.11536126502E+02  0.58702204781E+02  0.10566000000E+00 0.  1.
         22    1    1    0    0    0 -0.29271015232E+02 -0.31880086050E+01  0.25110632444E+01  0.29550992710E+02  0.00000000000E+00 0.  1.
</event>
<event>
 5    1  0.1758480E-003  0.9118800E+02  0.7818608E-02  0.1130116E+00
         25   -1    0    0    0    0  0.00000000000E+00  0.00000000000E+00  0.99999998245E-14  0.12500000000E+03  0.12500000000E+03 0.  0.
        -13    1    3    3    0    0 -0.12372426614E+02 -0.36398552319E+02  0.29533069412E+02  0.48478293124E+02  0.10566000000E+00 0. -1.
         23    2    1    0    0    0 -0.21900694256E+02 -0.18135774890E+02 -0.11449433146E+02  0.94346513100E+02  0.89227956801E+02 0.  0.
         13    1    3    3    0    0 -0.95282676425E+01  0.18262777429E+02 -0.40982502559E+02  0.45868219975E+02  0.10566000000E+00 0.  1.
         22    1    1    0    0    0  0.21900694256E+02  0.18135774890E+02  0.11449433146E+02  0.30653486900E+02  0.00000000000E+00 0. -1.
</event>
<event>
 5    1  0.1758480E-003  0.9118800E+02  0.7818608E-02  0.1130116E+00
         25   -1    0    0    0    0  0.00000000000E+00  0.00000000000E+00  0.99999998245E-14  0.12500000000E+03  0.12500000000E+03 0.  0.
        -13    1    3    3    0    0 -0.38231776148E+02 -0.89269918226E+01  0.10875302578E+01  0.39275358388E+02  0.10566000000E+00 0. -1.
         23    2    1    0    0    0  0.15507961199E+02 -0.19403021206E+02 -0.14546331870E+02  0.96215110503E+02  0.91808374486E+02 0.  0.
         13    1    3    3    0    0  0.53739737347E+02 -0.10476029384E+02 -0.15633862128E+02  0.56939752115E+02  0.10566000000E+00 0.  1.
         22    1    1    0    0    0 -0.15507961199E+02  0.19403021206E+02  0.14546331870E+02  0.28784889497E+02  0.00000000000E+00 0.  1.
</event>
<event>
 5    1  0.1758480E-003  0.9118800E+02  0.7818608E-02  0.1130116E+00
         25   -1    0    0    0    0  0.00000000000E+00  0.00000000000E+00  0.99999998245E-14  0.12500000000E+03  0.12500000000E+03 0.  0.
        -13    1    3    3    0    0 -0.58954501456E+01  0.47065813809E+02 -0.38033289721E+02  0.60798761936E+02  0.10566000000E+00 0. -1.
         23    2    1    0    0    0 -0.26684054251E+01  0.15538983127E+02 -0.25788436142E+02  0.94773789142E+02  0.89824536100E+02 0.  0.
         13    1    3    3    0    0  0.32270447206E+01 -0.31526830682E+02  0.12244853579E+02  0.33975027206E+02  0.10566000000E+00 0.  1.
         22    1    1    0    0    0  0.26684054251E+01 -0.15538983127E+02  0.25788436142E+02  0.30226210858E+02  0.00000000000E+00 0. -1.
</event>
<event>
 5    1  0.1758480E-003  0.9118800E+02  0.7818608E-02  0.1130116E+00
         25   -1    0    0    0    0  0.00000000000E+00  0.00000000000E+00  0.99999998245E-14  0.12500000000E+03  0.12500000000E+03 0.  0.
        -13    1    3    3    0    0  0.13373409492E+02 -0.35713261993E+02 -0.27368088221E+01  0.38233315972E+02  0.10566000000E+00 0.  1.
         23    2    1    0    0    0  0.32690759123E+02  0.12049803202E+02 -0.49868694405E+01  0.89804086089E+02  0.82619740511E+02 0.  0.
         13    1    3    3    0    0  0.19317349631E+02  0.47763065195E+02 -0.22500606183E+01  0.51570770117E+02  0.10566000000E+00 0. -1.
         22    1    1    0    0    0 -0.32690759123E+02 -0.12049803202E+02  0.49868694405E+01  0.35195913911E+02  0.00000000000E+00 0.  1.
</event>
<event>
 5    1  0.1758480E-003  0.9118800E+02  0.7818608E-02  0.1130116E+00
         25   -1    0    0    0    0  0.00000000000E+00  0.00000000000E+00  0.99999998245E-14  0.12500000000E+03  0.12500000000E+03 0.  0.
        -13    1    3    3    0    0  0.25594567080E+02 -0.91196495474E+01  0.31672796906E+02  0.41730409772E+02  0.10566000000E+00 0. -1.
         23    2    1    0    0    0  0.39012228915E+01  0.27822583225E+02 -0.28650526413E+01  0.96759528970E+02  0.92546649007E+02 0.  0.
         13    1    3    3    0    0 -0.21693344189E+02  0.36942232772E+02 -0.34537849547E+02  0.55029119198E+02  0.10566000000E+00 0.  1.
         22    1    1    0    0    0 -0.39012228915E+01 -0.27822583225E+02  0.28650526413E+01  0.28240471030E+02  0.00000000000E+00 0.  1.
</event>
<event>
 5    1  0.1758480E-003  0.9118800E+02  0.7818608E-02  0.1130116E+00
         25   -1    0    0    0    0  0.00000000000E+00  0.00000000000E+00  0.99999998245E-14  0.12500000000E+03  0.12500000000E+03 0.  0.
        -13    1    3    3    0    0 -0.95204559453E+00 -0.45665981964E+02  0.95217348243E+01  0.46657934991E+02  0.10566000000E+00 0. -1.
         23    2    1    0    0    0 -0.14941750754E+02  0.22901378188E+01  0.22149105409E+02  0.98184267356E+02  0.94451399349E+02 0.  0.
         13    1    3    3    0    0 -0.13989705159E+02  0.47956119783E+02  0.12627370585E+02  0.51526332365E+02  0.10566000000E+00 0.  1.
         22    1    1    0    0    0  0.14941750754E+02 -0.22901378188E+01 -0.22149105409E+02  0.26815732644E+02  0.00000000000E+00 0.  1.
</event>
<event>
 5    1  0.1758480E-003  0.9118800E+02  0.7818608E-02  0.1130116E+00
         25   -1    0    0    0    0  0.00000000000E+00  0.00000000000E+00  0.99999998245E-14  0.12500000000E+03  0.12500000000E+03 0.  0.
        -13    1    3    3    0    0  0.19345624362E+02  0.34012689669E+02 -0.88778891710E+00  0.39139693071E+02  0.10566000000E+00 0.  1.
         23    2    1    0    0    0 -0.25616105859E+02 -0.39758362622E+01 -0.65188428545E+01  0.98270101656E+02  0.94564926975E+02 0.  0.
         13    1    3    3    0    0 -0.44961730221E+02 -0.37988525931E+02 -0.56310539374E+01  0.59130408584E+02  0.10566000000E+00 0. -1.
         22    1    1    0    0    0  0.25616105859E+02  0.39758362622E+01  0.65188428545E+01  0.26729898344E+02  0.00000000000E+00 0. -1.
</event>
<event>
 5    1  0.1758480E-003  0.9118800E+02  0.7818608E-02  0.1130116E+00
         25   -1    0    0    0    0  0.00000000000E+00  0.00000000000E+00  0.99999998245E-14  0.12500000000E+03  0.12500000000E+03 0.  0.
        -13    1    3    3    0    0 -0.42447402778E+02 -0.80727409777E+01  0.37513683548E+02  0.57220964400E+02  0.10566000000E+00 0.  1.
         23    2    1    0    0    0 -0.57783817997E+01 -0.77687804069E+01  0.28382981315E+02  0.95011047474E+02  0.90154100675E+02 0.  0.
         13    1    3    3    0    0  0.36669020978E+02  0.30396057077E+00 -0.91307022322E+01  0.37790083075E+02  0.10566000000E+00 0. -1.
         22    1    1    0    0    0  0.57783817997E+01  0.77687804069E+01 -0.28382981315E+02  0.29988952526E+02  0.00000000000E+00 0.  1.
</event>
<event>
 5    1  0.1758480E-003  0.9118800E+02  0.7818608E-02  0.1130116E+00
         25   -1    0    0    0    0  0.00000000000E+00  0.00000000000E+00  0.99999998245E-14  0.12500000000E+03  0.12500000000E+03 0.  0.
        -13    1    3    3    0    0 -0.45917041199E+01  0.33051378002E+02 -0.35406783454E+02  0.48653148029E+02  0.10566000000E+00 0. -1.
         23    2    1    0    0    0  0.10506363772E+02  0.25732818811E+02  0.87256981839E+01  0.95867553270E+02  0.91333938476E+02 0.  0.
         13    1    3    3    0    0  0.15098067892E+02 -0.73185591917E+01  0.44132481638E+02  0.47214405241E+02  0.10566000000E+00 0.  1.
         22    1    1    0    0    0 -0.10506363772E+02 -0.25732818811E+02 -0.87256981839E+01  0.29132446730E+02  0.00000000000E+00 0.  1.
</event>
<event>
 5    1  0.1758480E-003  0.9118800E+02  0.7818608E-02  0.1130116E+00
         25   -1    0    0    0    0  0.00000000000E+00  0.00000000000E+00  0.99999998245E-14  0.12500000000E+03  0.12500000000E+03 0.  0.
        -13    1    3    3    0    0 -0.44837695206E+02 -0.35178550582E+02 -0.72227116049E+01  0.57446741069E+02  0.10566000000E+00 0. -1.
         23    2    1    0    0    0 -0.28991723465E+02 -0.12272707837E+01  0.15981457515E+01  0.95938336371E+02  0.91430761195E+02 0.  0.
         13    1    3    3    0    0  0.15845971741E+02  0.33951279798E+02  0.88208573565E+01  0.38491595302E+02  0.10566000000E+00 0.  1.
         22    1    1    0    0    0  0.28991723465E+02  0.12272707837E+01 -0.15981457515E+01  0.29061663629E+02  0.00000000000E+00 0. -1.
</event>
<event>
 5    1  0.1758480E-003  0.9118800E+02  0.7818608E-02  0.1130116E+00
         25   -1    0    0    0    0  0.00000000000E+00  0.00000000000E+00  0.99999998245E-14  0.12500000000E+03  0.12500000000E+03 0.  0.
        -13    1    3    3    0    0 -0.36168592787E+02 -0.47027323258E+02  0.83865041122E+00  0.59333386348E+02  0.10566000000E+00 0.  1.
         23    2    1    0    0    0 -0.10863044619E+02 -0.22781225629E+02  0.13227515151E+02  0.96505138417E+02  0.92202411054E+02 0.  0.
         13    1    3    3    0    0  0.25305548168E+02  0.24246097628E+02  0.12388864740E+02  0.37171752069E+02  0.10566000000E+00 0. -1.
         22    1    1    0    0    0  0.10863044619E+02  0.22781225629E+02 -0.13227515151E+02  0.28494861583E+02  0.00000000000E+00 0.  1.
</event>
<event>
 5    1  0.1758480E-003  0.9118800E+02  0.7818608E-02  0.1130116E+00
         25   -1    0    0    0    0  0.00000000000E+00  0.00000000000E+00  0.99999998245E-14  0.12500000000E+03  0.12500000000E+03 0.  0.
        -13    1    3    3    0    0 -0.26911396502E+02 -0.46736767572E+02 -0.15622254744E+02  0.56148149676E+02  0.10566000000E+00 0.  1.
         23    2    1    0    0    0  0.88615486976E+01 -0.16983538678E+02 -0.11009023159E+02  0.10290551602E+03  0.10050561679E+03 0.  0.
         13    1    3    3    0    0  0.35772945200E+02  0.29753228894E+02  0.46132315848E+01  0.46757366345E+02  0.10566000000E+00 0. -1.
         22    1    1    0    0    0 -0.88615486976E+01  0.16983538678E+02  0.11009023159E+02  0.22094483978E+02  0.00000000000E+00 0. -1.
</event>
<event>
 4    1  0.1758480E-003  0.9118800E+02  0.7818608E-02  0.1130116E+00
         25   -1    0    0    0    0  0.00000000000E+00  0.00000000000E+00  0.99999998245E-14  0.12500000000E+03  0.12500000000E+03 0.  0.
        -13    1    1    0    0    0 -0.27382715906E+02 -0.32965316365E+02 -0.40921514567E+02  0.59254592496E+02  0.10566000000E+00 0.  1.
         13    1    1    0    0    0 -0.33733186892E+01 -0.26036407663E+01  0.20177228320E+01  0.47159933928E+01  0.10566000000E+00 0. -1.
         22    1    1    0    0    0  0.30756034595E+02  0.35568957131E+02  0.38903791735E+02  0.61029414111E+02  0.00000000000E+00 0.  1.
</event>
<event>
 5    1  0.1758480E-003  0.9118800E+02  0.7818608E-02  0.1130116E+00
         25   -1    0    0    0    0  0.00000000000E+00  0.00000000000E+00  0.99999998245E-14  0.12500000000E+03  0.12500000000E+03 0.  0.
        -13    1    3    3    0    0 -0.27067525247E+02  0.11782819735E+02 -0.40986770560E+02  0.50511506500E+02  0.10566000000E+00 0. -1.
         23    2    1    0    0    0  0.15188017005E+02  0.51777398327E+01 -0.23108351064E+02  0.96866732518E+02  0.92691332548E+02 0.  0.
         13    1    3    3    0    0  0.42255542252E+02 -0.66050799020E+01  0.17878419496E+02  0.46355226019E+02  0.10566000000E+00 0.  1.
         22    1    1    0    0    0 -0.15188017005E+02 -0.51777398327E+01  0.23108351064E+02  0.28133267482E+02  0.00000000000E+00 0. -1.
</event>
<event>
 5    1  0.1758480E-003  0.9118800E+02  0.7818608E-02  0.1130116E+00
         25   -1    0    0    0    0  0.00000000000E+00  0.00000000000E+00  0.99999998245E-14  0.12500000000E+03  0.12500000000E+03 0.  0.
        -13    1    3    3    0    0 -0.39120559235E+02 -0.13587688920E+02  0.10373924312E+02  0.42692773566E+02  0.10566000000E+00 0. -1.
         23    2    1    0    0    0  0.59330018078E+01  0.15517115218E+02  0.21858050065E+02  0.97545387860E+02  0.93602067098E+02 0.  0.
         13    1    3    3    0    0  0.45053561043E+02  0.29104804138E+02  0.11484125752E+02  0.54852614294E+02  0.10566000000E+00 0.  1.
         22    1    1    0    0    0 -0.59330018078E+01 -0.15517115218E+02 -0.21858050065E+02  0.27454612140E+02  0.00000000000E+00 0.  1.
</event>
<event>
 5    1  0.1758480E-003  0.9118800E+02  0.7818608E-02  0.1130116E+00
         25   -1    0    0    0    0  0.00000000000E+00  0.00000000000E+00  0.99999998245E-14  0.12500000000E+03  0.12500000000E+03 0.  0.
        -13    1    3    3    0    0 -0.16004590609E+02  0.45654556931E+02  0.39434018002E+02  0.62414248605E+02  0.10566000000E+00 0. -1.
         23    2    1    0    0    0 -0.91276029346E+01  0.21750075574E+02  0.16842510714E+02  0.96016399638E+02  0.91537423546E+02 0.  0.
         13    1    3    3    0    0  0.68769876741E+01 -0.23904481357E+02 -0.22591507288E+02  0.33602151033E+02  0.10566000000E+00 0.  1.
         22    1    1    0    0    0  0.91276029346E+01 -0.21750075574E+02 -0.16842510714E+02  0.28983600362E+02  0.00000000000E+00 0. -1.
</event>
<event>
 5    1  0.1758480E-003  0.9118800E+02  0.7818608E-02  0.1130116E+00
         25   -1    0    0    0    0  0.00000000000E+00  0.00000000000E+00  0.99999998245E-14  0.12500000000E+03  0.12500000000E+03 0.  0.
        -13    1    3    3    0    0  0.78760991364E+01 -0.56829594154E+02  0.35982635989E+01  0.57485601452E+02  0.10566000000E+00 0.  1.
         23    2    1    0    0    0  0.84587518769E+01 -0.28003176628E+02 -0.15327652133E+02  0.91974777753E+02  0.85841099936E+02 0.  0.
         13    1    3    3    0    0  0.58265274049E+00  0.28826417526E+02 -0.18925915732E+02  0.34489176301E+02  0.10566000000E+00 0. -1.
         22    1    1    0    0    0 -0.84587518769E+01  0.28003176628E+02  0.15327652133E+02  0.33025222247E+02  0.00000000000E+00 0.  1.
</event>
<event>
 4    1  0.1758480E-003  0.9118800E+02  0.7818608E-02  0.1130116E+00
         25   -1    0    0    0    0  0.00000000000E+00  0.00000000000E+00  0.99999998245E-14  0.12500000000E+03  0.12500000000E+03 0.  0.
        -13    1    1    0    0    0  0.70748987714E+01  0.10058355110E+02 -0.45476944402E+01  0.13111727152E+02  0.10566000000E+00 0. -1.
         13    1    1    0    0    0  0.89432029186E+01  0.41671606234E+02 -0.25790132653E+02  0.49816119388E+02  0.10566000000E+00 0.  1.
         22    1    1    0    0    0 -0.16018101690E+02 -0.51729961344E+02  0.30337827093E+02  0.62072153460E+02  0.00000000000E+00 0.  1.
</event>
<event>
 5    1  0.1758480E-003  0.9118800E+02  0.7818608E-02  0.1130116E+00
         25   -1    0    0    0    0  0.00000000000E+00  0.00000000000E+00  0.99999998245E-14  0.12500000000E+03  0.12500000000E+03 0.  0.
        -13    1    3    3    0    0  0.38849498214E+02 -0.21073199267E+02 -0.18984141145E+02  0.48101684148E+02  0.10566000000E+00 0. -1.
         23    2    1    0    0    0  0.42164155605E+02 -0.71154526919E+00  0.80094811066E+01  0.82075949607E+02  0.69957039686E+02 0.  0.
         13    1    3    3    0    0  0.33146573911E+01  0.20361653998E+02  0.26993622251E+02  0.33974265458E+02  0.10566000000E+00 0.  1.
         22    1    1    0    0    0 -0.42164155605E+02  0.71154526919E+00 -0.80094811066E+01  0.42924050393E+02  0.00000000000E+00 0. -1.
</event>
<event>
 5    1  0.1758480E-003  0.9118800E+02  0.7818608E-02  0.1130116E+00
         25   -1    0    0    0    0  0.00000000000E+00  0.00000000000E+00  0.99999998245E-14  0.12500000000E+03  0.12500000000E+03 0.  0.
        -13    1    3    3    0    0 -0.16335929013E+02  0.33515110412E+02  0.56632831845E+01  0.37712188256E+02  0.10566000000E+00 0. -1.
         23    2    1    0    0    0  0.31691340237E+01 -0.10410638890E+02 -0.27044857770E+02  0.95847827794E+02  0.91306938118E+02 0.  0.
         13    1    3    3    0    0  0.19505063036E+02 -0.43925749302E+02 -0.32708140954E+02  0.58135639538E+02  0.10566000000E+00 0.  1.
         22    1    1    0    0    0 -0.31691340237E+01  0.10410638890E+02  0.27044857770E+02  0.29152172206E+02  0.00000000000E+00 0.  1.
</event>
<event>
 5    1  0.1758480E-003  0.9118800E+02  0.7818608E-02  0.1130116E+00
         25   -1    0    0    0    0  0.00000000000E+00  0.00000000000E+00  0.99999998245E-14  0.12500000000E+03  0.12500000000E+03 0.  0.
        -13    1    3    3    0    0 -0.18136829250E+02  0.38931013207E+02  0.37460098832E+02  0.56989810784E+02  0.10566000000E+00 0.  1.
         23    2    1    0    0    0 -0.98495696359E+01  0.34345863156E+01  0.28677778252E+02  0.94484014506E+02  0.89420375903E+02 0.  0.
         13    1    3    3    0    0  0.82872596143E+01 -0.35496426892E+02 -0.87823205802E+01  0.37494203723E+02  0.10566000000E+00 0. -1.
         22    1    1    0    0    0  0.98495696359E+01 -0.34345863156E+01 -0.28677778252E+02  0.30515985494E+02  0.00000000000E+00 0.  1.
</event>
<event>
 5    1  0.1758480E-003  0.9118800E+02  0.7818608E-02  0.1130116E+00
         25   -1    0    0    0    0  0.00000000000E+00  0.00000000000E+00  0.99999998245E-14  0.12500000000E+03  0.12500000000E+03 0.  0.
        -13    1    3    3    0    0  0.23059612111E+02  0.21579090094E+02 -0.30931799088E+01  0.31732976003E+02  0.10566000000E+00 0. -1.
         23    2    1    0    0    0 -0.12871130142E+02  0.17671699114E+02 -0.37473234634E+02  0.81615691147E+02  0.69129753267E+02 0.  0.
         13    1    3    3    0    0 -0.35930742253E+02 -0.39073909802E+01 -0.34380054726E+02  0.49882715144E+02  0.10566000000E+00 0.  1.
         22    1    1    0    0    0  0.12871130142E+02 -0.17671699114E+02  0.37473234634E+02  0.43384308853E+02  0.00000000000E+00 0.  1.
</event>
<event>
 5    1  0.1758480E-003  0.9118800E+02  0.7818608E-02  0.1130116E+00
         25   -1    0    0    0    0  0.00000000000E+00  0.00000000000E+00  0.99999998245E-14  0.12500000000E+03  0.12500000000E+03 0.  0.
        -13    1    3    3    0    0 -0.39564215185E+02 -0.42272872657E+01  0.42171441401E+02  0.57979640519E+02  0.10566000000E+00 0.  1.
         23    2    1    0    0    0 -0.37485394781E+01 -0.45408744636E+01  0.27817717557E+02  0.96565927143E+02  0.92284786318E+02 0.  0.
         13    1    3    3    0    0  0.35815675707E+02 -0.31358719784E+00 -0.14353723844E+02  0.38586286625E+02  0.10566000000E+00 0. -1.
         22    1    1    0    0    0  0.37485394781E+01  0.45408744636E+01 -0.27817717557E+02  0.28434072857E+02  0.00000000000E+00 0.  1.
</event>
<event>
 5    1  0.1758480E-003  0.9118800E+02  0.7818608E-02  0.1130116E+00
         25   -1    0    0    0    0  0.00000000000E+00  0.00000000000E+00  0.99999998245E-14  0.12500000000E+03  0.12500000000E+03 0.  0.
        -13    1    3    3    0    0  0.18687554420E+02  0.25336882769E+02 -0.14932915716E+02  0.34845164005E+02  0.10566000000E+00 0.  1.
         23    2    1    0    0    0  0.46951056431E+01 -0.19945830402E+02  0.22002918873E+02  0.94933264122E+02  0.90046188318E+02 0.  0.
         13    1    3    3    0    0 -0.13992448777E+02 -0.45282713171E+02  0.36935834589E+02  0.60088100118E+02  0.10566000000E+00 0. -1.
         22    1    1    0    0    0 -0.46951056431E+01  0.19945830402E+02 -0.22002918873E+02  0.30066735878E+02  0.00000000000E+00 0. -1.
</event>
<event>
 5    1  0.1758480E-003  0.9118800E+02  0.7818608E-02  0.1130116E+00
         25   -1    0    0    0    0  0.00000000000E+00  0.00000000000E+00  0.99999998245E-14  0.12500000000E+03  0.12500000000E+03 0.  0.
        -13    1    3    3    0    0  0.78242574588E+01  0.29416137431E+02  0.50363689745E+02  0.58847604496E+02  0.10566000000E+00 0.  1.
         23    2    1    0    0    0  0.16345709015E+02  0.52219117841E+01  0.22187177286E+02  0.96951445638E+02  0.92805503121E+02 0.  0.
         13    1    3    3    0    0  0.85214515566E+01 -0.24194225647E+02 -0.28176512460E+02  0.38103841142E+02  0.10566000000E+00 0. -1.
         22    1    1    0    0    0 -0.16345709015E+02 -0.52219117841E+01 -0.22187177286E+02  0.28048554362E+02  0.00000000000E+00 0.  1.
</event>
<event>
 5    1  0.1758480E-003  0.9118800E+02  0.7818608E-02  0.1130116E+00
         25   -1    0    0    0    0  0.00000000000E+00  0.00000000000E+00  0.99999998245E-14  0.12500000000E+03  0.12500000000E+03 0.  0.
        -13    1    3    3    0    0 -0.24414851108E+02  0.10861363062E+02 -0.33606560927E+02  0.42935606011E+02  0.10566000000E+00 0.  1.
         23    2    1    0    0    0  0.13888379511E+02  0.27313767099E+02 -0.39302373482E+01  0.94107027915E+02  0.88891827402E+02 0.  0.
         13    1    3    3    0    0  0.38303230619E+02  0.16452404038E+02  0.29676323579E+02  0.51171421904E+02  0.10566000000E+00 0. -1.
         22    1    1    0    0    0 -0.13888379511E+02 -0.27313767099E+02  0.39302373482E+01  0.30892972085E+02  0.00000000000E+00 0.  1.
</event>
<event>
 5    1  0.1758480E-003  0.9118800E+02  0.7818608E-02  0.1130116E+00
         25   -1    0    0    0    0  0.00000000000E+00  0.00000000000E+00  0.99999998245E-14  0.12500000000E+03  0.12500000000E+03 0.  0.
        -13    1    3    3    0    0 -0.22862044913E+01 -0.61356888003E+02 -0.99618588095E+01  0.62202445542E+02  0.10566000000E+00 0.  1.
         23    2    1    0    0    0 -0.24950698352E+01 -0.30619576078E+02 -0.83277241709E+00  0.94267650227E+02  0.89117408831E+02 0.  0.
         13    1    3    3    0    0 -0.20886534394E+00  0.30737311925E+02  0.91290863925E+01  0.32065204685E+02  0.10566000000E+00 0. -1.
         22    1    1    0    0    0  0.24950698352E+01  0.30619576078E+02  0.83277241709E+00  0.30732349773E+02  0.00000000000E+00 0.  1.
</event>
<event>
 5    1  0.1758480E-003  0.9118800E+02  0.7818608E-02  0.1130116E+00
         25   -1    0    0    0    0  0.00000000000E+00  0.00000000000E+00  0.99999998245E-14  0.12500000000E+03  0.12500000000E+03 0.  0.
        -13    1    3    3    0    0 -0.10790466398E+02  0.13003630009E+02 -0.45728047185E+02  0.48750323301E+02  0.10566000000E+00 0.  1.
         23    2    1    0    0    0 -0.23519054969E+02  0.19937753592E+02 -0.28224325364E+01  0.94038312540E+02  0.88795147024E+02 0.  0.
         13    1    3    3    0    0 -0.12728588572E+02  0.69341235832E+01  0.42905614649E+02  0.45287989239E+02  0.10566000000E+00 0. -1.
         22    1    1    0    0    0  0.23519054969E+02 -0.19937753592E+02  0.28224325364E+01  0.30961687460E+02  0.00000000000E+00 0. -1.
</event>
<event>
 5    1  0.1758480E-003  0.9118800E+02  0.7818608E-02  0.1130116E+00
         25   -1    0    0    0    0  0.00000000000E+00  0.00000000000E+00  0.99999998245E-14  0.12500000000E+03  0.12500000000E+03 0.  0.
        -13    1    3    3    0    0  0.36022880012E+02  0.34008445247E+01 -0.58063968760E+01  0.36646132628E+02  0.10566000000E+00 0.  1.
         23    2    1    0    0    0  0.58258476077E+01 -0.20305244001E+02 -0.34480317144E+02  0.84563188744E+02  0.74268413110E+02 0.  0.
         13    1    3    3    0    0 -0.30197032405E+02 -0.23706088525E+02 -0.28673920268E+02  0.47917056115E+02  0.10566000000E+00 0. -1.
         22    1    1    0    0    0 -0.58258476077E+01  0.20305244001E+02  0.34480317144E+02  0.40436811256E+02  0.00000000000E+00 0.  1.
</event>
<event>
 5    1  0.1758480E-003  0.9118800E+02  0.7818608E-02  0.1130116E+00
         25   -1    0    0    0    0  0.00000000000E+00  0.00000000000E+00  0.99999998245E-14  0.12500000000E+03  0.12500000000E+03 0.  0.
        -13    1    3    3    0    0 -0.97032447744E+01 -0.31026134015E+02  0.45083878188E+02  0.55581842247E+02  0.10566000000E+00 0. -1.
         23    2    1    0    0    0  0.12436331745E+02 -0.33072576700E+01  0.26293283500E+02  0.95726512716E+02  0.91140705389E+02 0.  0.
         13    1    3    3    0    0  0.22139576520E+02  0.27718876345E+02 -0.18790594688E+02  0.40144670469E+02  0.10566000000E+00 0.  1.
         22    1    1    0    0    0 -0.12436331745E+02  0.33072576700E+01 -0.26293283500E+02  0.29273487284E+02  0.00000000000E+00 0. -1.
</event>
<event>
 5    1  0.1758480E-003  0.9118800E+02  0.7818608E-02  0.1130116E+00
         25   -1    0    0    0    0  0.00000000000E+00  0.00000000000E+00  0.99999998245E-14  0.12500000000E+03  0.12500000000E+03 0.  0.
        -13    1    3    3    0    0  0.11143564261E+02  0.32473945392E+02  0.18117580459E+02  0.38820021117E+02  0.10566000000E+00 0.  1.
         23    2    1    0    0    0  0.22958692026E+01 -0.23887234405E+02  0.16468412953E+02  0.95895367927E+02  0.91371997799E+02 0.  0.
         13    1    3    3    0    0 -0.88476950587E+01 -0.56361179797E+02 -0.16491675062E+01  0.57075346810E+02  0.10566000000E+00 0. -1.
         22    1    1    0    0    0 -0.22958692026E+01  0.23887234405E+02 -0.16468412953E+02  0.29104632073E+02  0.00000000000E+00 0. -1.
</event>
<event>
 5    1  0.1758480E-003  0.9118800E+02  0.7818608E-02  0.1130116E+00
         25   -1    0    0    0    0  0.00000000000E+00  0.00000000000E+00  0.99999998245E-14  0.12500000000E+03  0.12500000000E+03 0.  0.
        -13    1    3    3    0    0  0.42324019918E+02  0.65898966262E+01 -0.75273013955E+01  0.43490468265E+02  0.10566000000E+00 0.  1.
         23    2    1    0    0    0  0.15857044285E+02 -0.23924759543E+02  0.17854983176E+02  0.91197035679E+02  0.84700997159E+02 0.  0.
         13    1    3    3    0    0 -0.26466975633E+02 -0.30514656169E+02  0.25382284572E+02  0.47706567414E+02  0.10566000000E+00 0. -1.
         22    1    1    0    0    0 -0.15857044285E+02  0.23924759543E+02 -0.17854983176E+02  0.33802964321E+02  0.00000000000E+00 0. -1.
</event>
<event>
 5    1  0.1758480E-003  0.9118800E+02  0.7818608E-02  0.1130116E+00
         25   -1    0    0    0    0  0.00000000000E+00  0.00000000000E+00  0.99999998245E-14  0.12500000000E+03  0.12500000000E+03 0.  0.
        -13    1    3    3    0    0  0.17522299122E+02 -0.15401948386E+02  0.27036677313E+02  0.35710559570E+02  0.10566000000E+00 0. -1.
         23    2    1    0    0    0  0.39121153614E+01  0.26890216440E+02 -0.12413094003E+02  0.95125708552E+02  0.90312940036E+02 0.  0.
         13    1    3    3    0    0 -0.13610183761E+02  0.42292164827E+02 -0.39449771315E+02  0.59415148982E+02  0.10566000000E+00 0.  1.
         22    1    1    0    0    0 -0.39121153614E+01 -0.26890216440E+02  0.12413094003E+02  0.29874291448E+02  0.00000000000E+00 0.  1.
</event>
<event>
 5    1  0.1758480E-003  0.9118800E+02  0.7818608E-02  0.1130116E+00
         25   -1    0    0    0    0  0.00000000000E+00  0.00000000000E+00  0.99999998245E-14  0.12500000000E+03  0.12500000000E+03 0.  0.
        -13    1    3    3    0    0  0.47907257558E+02  0.17160320044E+02 -0.34081491094E+02  0.61246559985E+02  0.10566000000E+00 0.  1.
         23    2    1    0    0    0  0.17558752963E+02  0.37062831851E+01 -0.22081034736E+02  0.96546205250E+02  0.92258069091E+02 0.  0.
         13    1    3    3    0    0 -0.30348504595E+02 -0.13454036859E+02  0.12000456358E+02  0.35299645265E+02  0.10566000000E+00 0. -1.
         22    1    1    0    0    0 -0.17558752963E+02 -0.37062831851E+01  0.22081034736E+02  0.28453794750E+02  0.00000000000E+00 0.  1.
</event>
<event>
 5    1  0.1758480E-003  0.9118800E+02  0.7818608E-02  0.1130116E+00
         25   -1    0    0    0    0  0.00000000000E+00  0.00000000000E+00  0.99999998245E-14  0.12500000000E+03  0.12500000000E+03 0.  0.
        -13    1    3    3    0    0  0.23817860903E+02  0.26810223611E+02  0.53059165502E+01  0.36252482708E+02  0.10566000000E+00 0.  1.
         23    2    1    0    0    0 -0.16282055991E+02 -0.61665344498E+01 -0.23598221979E+02  0.95674114251E+02  0.91068812239E+02 0.  0.
         13    1    3    3    0    0 -0.40099916893E+02 -0.32976758060E+02 -0.28904138529E+02  0.59421631543E+02  0.10566000000E+00 0. -1.
         22    1    1    0    0    0  0.16282055991E+02  0.61665344498E+01  0.23598221979E+02  0.29325885749E+02  0.00000000000E+00 0. -1.
</event>
<event>
 5    1  0.1758480E-003  0.9118800E+02  0.7818608E-02  0.1130116E+00
         25   -1    0    0    0    0  0.00000000000E+00  0.00000000000E+00  0.99999998245E-14  0.12500000000E+03  0.12500000000E+03 0.  0.
        -13    1    3    3    0    0 -0.15314704644E+02 -0.66263163486E+01 -0.29735934399E+02  0.34098170117E+02  0.10566000000E+00 0.  1.
         23    2    1    0    0    0  0.53358336580E+01 -0.33475732909E+01  0.28415570685E+02  0.95894639237E+02  0.91371000921E+02 0.  0.
         13    1    3    3    0    0  0.20650538302E+02  0.32787430578E+01  0.58151505084E+02  0.61796469121E+02  0.10566000000E+00 0. -1.
         22    1    1    0    0    0 -0.53358336580E+01  0.33475732909E+01 -0.28415570685E+02  0.29105360763E+02  0.00000000000E+00 0. -1.
</event>
<event>
 5    1  0.1758480E-003  0.9118800E+02  0.7818608E-02  0.1130116E+00
         25   -1    0    0    0    0  0.00000000000E+00  0.00000000000E+00  0.99999998245E-14  0.12500000000E+03  0.12500000000E+03 0.  0.
        -13    1    3    3    0    0  0.19423338058E+02  0.77764336727E+00 -0.60813948528E+01  0.20368242878E+02  0.10566000000E+00 0.  1.
         23    2    1    0    0    0 -0.39738189072E+02  0.34852889189E+01 -0.18735493708E+02  0.80928584841E+02  0.67875961948E+02 0.  0.
         13    1    3    3    0    0 -0.59161527131E+02  0.27076455517E+01 -0.12654098855E+02  0.60560341964E+02  0.10566000000E+00 0. -1.
         22    1    1    0    0    0  0.39738189072E+02 -0.34852889189E+01  0.18735493708E+02  0.44071415159E+02  0.00000000000E+00 0. -1.
</event>
<event>
 5    1  0.1758480E-003  0.9118800E+02  0.7818608E-02  0.1130116E+00
         25   -1    0    0    0    0  0.00000000000E+00  0.00000000000E+00  0.99999998245E-14  0.12500000000E+03  0.12500000000E+03 0.  0.
        -13    1    3    3    0    0 -0.36395089090E+02 -0.12633958317E+02 -0.21386127689E+02  0.44063556758E+02  0.10566000000E+00 0. -1.
         23    2    1    0    0    0  0.89848999833E+01  0.10526419334E+02 -0.26332977252E+02  0.95251729081E+02  0.90487193958E+02 0.  0.
         13    1    3    3    0    0  0.45379989073E+02  0.23160377651E+02 -0.49468495628E+01  0.51188172323E+02  0.10566000000E+00 0.  1.
         22    1    1    0    0    0 -0.89848999833E+01 -0.10526419334E+02  0.26332977252E+02  0.29748270919E+02  0.00000000000E+00 0.  1.
</event>
<event>
 5    1  0.1758480E-003  0.9118800E+02  0.7818608E-02  0.1130116E+00
         25   -1    0    0    0    0  0.00000000000E+00  0.00000000000E+00  0.99999998245E-14  0.12500000000E+03  0.12500000000E+03 0.  0.
        -13    1    3    3    0    0 -0.55680496886E+01  0.20652005603E+02 -0.40300071771E+02  0.45624724235E+02  0.10566000000E+00 0. -1.
         23    2    1    0    0    0  0.22658333427E+02 -0.11610765118E+02 -0.13468537318E+02  0.96197023803E+02  0.91783745569E+02 0.  0.
         13    1    3    3    0    0  0.28226383116E+02 -0.32262770721E+02  0.26831534453E+02  0.50572299568E+02  0.10566000000E+00 0.  1.
         22    1    1    0    0    0 -0.22658333427E+02  0.11610765118E+02  0.13468537318E+02  0.28802976197E+02  0.00000000000E+00 0.  1.
</event>
<event>
 5    1  0.1758480E-003  0.9118800E+02  0.7818608E-02  0.1130116E+00
         25   -1    0    0    0    0  0.00000000000E+00  0.00000000000E+00  0.99999998245E-14  0.12500000000E+03  0.12500000000E+03 0.  0.
        -13    1    3    3    0    0  0.64037450959E+01 -0.28336301977E+02  0.31332692687E+02  0.42728243072E+02  0.10566000000E+00 0.  1.
         23    2    1    0    0    0 -0.28838348901E+02 -0.23110061648E+00  0.29179408176E+01  0.96013483247E+02  0.91533440949E+02 0.  0.
         13    1    3    3    0    0 -0.35242093997E+02  0.28105201360E+02 -0.28414751869E+02  0.53285240176E+02  0.10566000000E+00 0. -1.
         22    1    1    0    0    0  0.28838348901E+02  0.23110061648E+00 -0.29179408176E+01  0.28986516753E+02  0.00000000000E+00 0. -1.
</event>
<event>
 5    1  0.1758480E-003  0.9118800E+02  0.7818608E-02  0.1130116E+00
         25   -1    0    0    0    0  0.00000000000E+00  0.00000000000E+00  0.99999998245E-14  0.12500000000E+03  0.12500000000E+03 0.  0.
        -13    1    3    3    0    0 -0.20241509950E+02  0.22838112816E+02 -0.68995963765E+01  0.31287596844E+02  0.10566000000E+00 0. -1.
         23    2    1    0    0    0  0.13164251665E+02 -0.24736850510E+02 -0.19616696808E+02  0.90794385129E+02  0.84104674557E+02 0.  0.
         13    1    3    3    0    0  0.33405761615E+02 -0.47574963326E+02 -0.12717100431E+02  0.59506788285E+02  0.10566000000E+00 0.  1.
         22    1    1    0    0    0 -0.13164251665E+02  0.24736850510E+02  0.19616696808E+02  0.34205614871E+02  0.00000000000E+00 0.  1.
</event>
<event>
 5    1  0.1758480E-003  0.9118800E+02  0.7818608E-02  0.1130116E+00
         25   -1    0    0    0    0  0.00000000000E+00  0.00000000000E+00  0.99999998245E-14  0.12500000000E+03  0.12500000000E+03 0.  0.
        -13    1    3    3    0    0  0.98701476403E+01  0.33549643551E+01  0.32417733437E+02  0.34052844308E+02  0.10566000000E+00 0.  1.
         23    2    1    0    0    0  0.25837060467E+01 -0.19565466383E+02 -0.23136499287E+02  0.94589794296E+02  0.89568122533E+02 0.  0.
         13    1    3    3    0    0 -0.72864415936E+01 -0.22920430738E+02 -0.55554232724E+02  0.60536949988E+02  0.10566000000E+00 0. -1.
         22    1    1    0    0    0 -0.25837060467E+01  0.19565466383E+02  0.23136499287E+02  0.30410205704E+02  0.00000000000E+00 0. -1.
</event>
<event>
 5    1  0.1758480E-003  0.9118800E+02  0.7818608E-02  0.1130116E+00
         25   -1    0    0    0    0  0.00000000000E+00  0.00000000000E+00  0.99999998245E-14  0.12500000000E+03  0.12500000000E+03 0.  0.
        -13    1    3    3    0    0 -0.16472976610E+02  0.11115952251E+01  0.37567157901E+02  0.41035315512E+02  0.10566000000E+00 0.  1.
         23    2    1    0    0    0  0.22668059505E+02  0.18188322176E+02  0.33742614252E+01  0.95741810967E+02  0.91161684615E+02 0.  0.
         13    1    3    3    0    0  0.39141036116E+02  0.17076726951E+02 -0.34192896476E+02  0.54706495455E+02  0.10566000000E+00 0. -1.
         22    1    1    0    0    0 -0.22668059505E+02 -0.18188322176E+02 -0.33742614252E+01  0.29258189033E+02  0.00000000000E+00 0. -1.
</event>
<event>
 5    1  0.1758480E-003  0.9118800E+02  0.7818608E-02  0.1130116E+00
         25   -1    0    0    0    0  0.00000000000E+00  0.00000000000E+00  0.99999998245E-14  0.12500000000E+03  0.12500000000E+03 0.  0.
        -13    1    3    3    0    0 -0.28271147875E+02 -0.12516125874E+02 -0.26781482374E+02  0.40904402834E+02  0.10566000000E+00 0.  1.
         23    2    1    0    0    0 -0.82980219260E+01 -0.12895705337E+02  0.24588212285E+02  0.96021791508E+02  0.91544786181E+02 0.  0.
         13    1    3    3    0    0  0.19973125949E+02 -0.37957946276E+00  0.51369694659E+02  0.55117388673E+02  0.10566000000E+00 0. -1.
         22    1    1    0    0    0  0.82980219260E+01  0.12895705337E+02 -0.24588212285E+02  0.28978208492E+02  0.00000000000E+00 0.  1.
</event>
<event>
 5    1  0.1758480E-003  0.9118800E+02  0.7818608E-02  0.1130116E+00
         25   -1    0    0    0    0  0.00000000000E+00  0.00000000000E+00  0.99999998245E-14  0.12500000000E+03  0.12500000000E+03 0.  0.
        -13    1    3    3    0    0  0.11817476086E+02  0.30682238818E+02 -0.29268086985E+02  0.44019139016E+02  0.10566000000E+00 0.  1.
         23    2    1    0    0    0 -0.28135933964E+02  0.68036806481E+01 -0.11997648039E+02  0.93665284287E+02  0.88268460232E+02 0.  0.
         13    1    3    3    0    0 -0.39953410049E+02 -0.23878558169E+02  0.17270438947E+02  0.49646145271E+02  0.10566000000E+00 0. -1.
         22    1    1    0    0    0  0.28135933964E+02 -0.68036806481E+01  0.11997648039E+02  0.31334715713E+02  0.00000000000E+00 0.  1.
</event>
<event>
 5    1  0.1758480E-003  0.9118800E+02  0.7818608E-02  0.1130116E+00
         25   -1    0    0    0    0  0.00000000000E+00  0.00000000000E+00  0.99999998245E-14  0.12500000000E+03  0.12500000000E+03 0.  0.
        -13    1    3    3    0    0 -0.36026772283E+02 -0.42204316035E+01 -0.19930721624E+02  0.41388225288E+02  0.10566000000E+00 0.  1.
         23    2    1    0    0    0 -0.46370920095E+01  0.30494269365E+02  0.39025911836E+01  0.93909273016E+02  0.88613307432E+02 0.  0.
         13    1    3    3    0    0  0.31389680273E+02  0.34714700969E+02  0.23833312807E+02  0.52521047728E+02  0.10566000000E+00 0. -1.
         22    1    1    0    0    0  0.46370920095E+01 -0.30494269365E+02 -0.39025911836E+01  0.31090726984E+02  0.00000000000E+00 0. -1.
</event>
<event>
 5    1  0.1758480E-003  0.9118800E+02  0.7818608E-02  0.1130116E+00
         25   -1    0    0    0    0  0.00000000000E+00  0.00000000000E+00  0.99999998245E-14  0.12500000000E+03  0.12500000000E+03 0.  0.
        -13    1    3    3    0    0  0.25520195725E+02  0.12903358075E+02 -0.21948353704E+02  0.36048834015E+02  0.10566000000E+00 0.  1.
         23    2    1    0    0    0 -0.11245650017E+02  0.19544796101E+02  0.21838841328E+02  0.93608939339E+02  0.88188632117E+02 0.  0.
         13    1    3    3    0    0 -0.36765845741E+02  0.66414380255E+01  0.43787195032E+02  0.57560105324E+02  0.10566000000E+00 0. -1.
         22    1    1    0    0    0  0.11245650017E+02 -0.19544796101E+02 -0.21838841328E+02  0.31391060661E+02  0.00000000000E+00 0. -1.
</event>
<event>
 5    1  0.1758480E-003  0.9118800E+02  0.7818608E-02  0.1130116E+00
         25   -1    0    0    0    0  0.00000000000E+00  0.00000000000E+00  0.99999998245E-14  0.12500000000E+03  0.12500000000E+03 0.  0.
        -13    1    3    3    0    0  0.11123248722E+02 -0.21465900271E+02 -0.33805176672E+02  0.41560951269E+02  0.10566000000E+00 0. -1.
         23    2    1    0    0    0 -0.16423051502E+02 -0.19948714677E+02  0.13139383383E+02  0.96011877716E+02  0.91531248374E+02 0.  0.
         13    1    3    3    0    0 -0.27546300224E+02  0.15171855940E+01  0.46944560055E+02  0.54450926447E+02  0.10566000000E+00 0.  1.
         22    1    1    0    0    0  0.16423051502E+02  0.19948714677E+02 -0.13139383383E+02  0.28988122284E+02  0.00000000000E+00 0.  1.
</event>
<event>
 5    1  0.1758480E-003  0.9118800E+02  0.7818608E-02  0.1130116E+00
         25   -1    0    0    0    0  0.00000000000E+00  0.00000000000E+00  0.99999998245E-14  0.12500000000E+03  0.12500000000E+03 0.  0.
        -13    1    3    3    0    0 -0.77759137113E+01  0.11978694620E+02 -0.34144233942E+02  0.37010725936E+02  0.10566000000E+00 0.  1.
         23    2    1    0    0    0  0.11600250664E+01  0.87414477660E+01  0.25815942332E+02  0.97719577612E+02  0.93834398826E+02 0.  0.
         13    1    3    3    0    0  0.89359387777E+01 -0.32372468540E+01  0.59960176273E+02  0.60708851676E+02  0.10566000000E+00 0. -1.
         22    1    1    0    0    0 -0.11600250664E+01 -0.87414477660E+01 -0.25815942332E+02  0.27280422388E+02  0.00000000000E+00 0. -1.
</event>
<event>
 5    1  0.1758480E-003  0.9118800E+02  0.7818608E-02  0.1130116E+00
         25   -1    0    0    0    0  0.00000000000E+00  0.00000000000E+00  0.99999998245E-14  0.12500000000E+03  0.12500000000E+03 0.  0.
        -13    1    3    3    0    0  0.34738716407E+02 -0.34905571972E+02 -0.26700287545E+02  0.56018692339E+02  0.10566000000E+00 0.  1.
         23    2    1    0    0    0  0.23836718537E+02  0.25309025737E+01 -0.14978786501E+02  0.96734143150E+02  0.92512354782E+02 0.  0.
         13    1    3    3    0    0 -0.10901997870E+02  0.37436474546E+02  0.11721501044E+02  0.40715450811E+02  0.10566000000E+00 0. -1.
         22    1    1    0    0    0 -0.23836718537E+02 -0.25309025737E+01  0.14978786501E+02  0.28265856850E+02  0.00000000000E+00 0.  1.
</event>
<event>
 5    1  0.1758480E-003  0.9118800E+02  0.7818608E-02  0.1130116E+00
         25   -1    0    0    0    0  0.00000000000E+00  0.00000000000E+00  0.99999998245E-14  0.12500000000E+03  0.12500000000E+03 0.  0.
        -13    1    3    3    0    0  0.11875368966E+02 -0.31742017394E+02 -0.68926135808E+01  0.34584669181E+02  0.10566000000E+00 0.  1.
         23    2    1    0    0    0 -0.28897582426E+01  0.21526165721E+02  0.19474868256E+02  0.95828147008E+02  0.91279990973E+02 0.  0.
         13    1    3    3    0    0 -0.14765127209E+02  0.53268183116E+02  0.26367481837E+02  0.61243477827E+02  0.10566000000E+00 0. -1.
         22    1    1    0    0    0  0.28897582426E+01 -0.21526165721E+02 -0.19474868256E+02  0.29171852992E+02  0.00000000000E+00 0. -1.
</event>
<event>
 5    1  0.1758480E-003  0.9118800E+02  0.7818608E-02  0.1130116E+00
         25   -1    0    0    0    0  0.00000000000E+00  0.00000000000E+00  0.99999998245E-14  0.12500000000E+03  0.12500000000E+03 0.  0.
        -13    1    3    3    0    0 -0.19584810945E+02  0.29405384434E+02 -0.45745915217E+02  0.57800876953E+02  0.10566000000E+00 0.  1.
         23    2    1    0    0    0  0.16212314335E+01  0.25183002426E+02 -0.14205746027E+02  0.96041146039E+02  0.91571210049E+02 0.  0.
         13    1    3    3    0    0  0.21206042378E+02 -0.42223820083E+01  0.31540169190E+02  0.38240269086E+02  0.10566000000E+00 0. -1.
         22    1    1    0    0    0 -0.16212314335E+01 -0.25183002426E+02  0.14205746027E+02  0.28958853961E+02  0.00000000000E+00 0.  1.
</event>
<event>
 5    1  0.1758480E-003  0.9118800E+02  0.7818608E-02  0.1130116E+00
         25   -1    0    0    0    0  0.00000000000E+00  0.00000000000E+00  0.99999998245E-14  0.12500000000E+03  0.12500000000E+03 0.  0.
        -13    1    3    3    0    0 -0.97906514758E+01  0.31718983923E+02 -0.30941994805E+02  0.45380271088E+02  0.10566000000E+00 0.  1.
         23    2    1    0    0    0 -0.29385415036E+02 -0.57687140420E+01 -0.60895393437E+01  0.94440825143E+02  0.89359981456E+02 0.  0.
         13    1    3    3    0    0 -0.19594763560E+02 -0.37487697965E+02  0.24852455462E+02  0.49060554055E+02  0.10566000000E+00 0. -1.
         22    1    1    0    0    0  0.29385415036E+02  0.57687140420E+01  0.60895393437E+01  0.30559174857E+02  0.00000000000E+00 0.  1.
</event>
<event>
 5    1  0.1758480E-003  0.9118800E+02  0.7818608E-02  0.1130116E+00
         25   -1    0    0    0    0  0.00000000000E+00  0.00000000000E+00  0.99999998245E-14  0.12500000000E+03  0.12500000000E+03 0.  0.
        -13    1    3    3    0    0 -0.49758472901E+02 -0.34345351593E+01 -0.14524525485E+02  0.51948769589E+02  0.10566000000E+00 0.  1.
         23    2    1    0    0    0 -0.11670661456E+02  0.14611800293E+01 -0.29557938250E+02  0.93187878105E+02  0.87589779805E+02 0.  0.
         13    1    3    3    0    0  0.38087811444E+02  0.48957151886E+01 -0.15033412764E+02  0.41239108516E+02  0.10566000000E+00 0. -1.
         22    1    1    0    0    0  0.11670661456E+02 -0.14611800293E+01  0.29557938250E+02  0.31812121895E+02  0.00000000000E+00 0. -1.
</event>
<event>
 5    1  0.1758480E-003  0.9118800E+02  0.7818608E-02  0.1130116E+00
         25   -1    0    0    0    0  0.00000000000E+00  0.00000000000E+00  0.99999998245E-14  0.12500000000E+03  0.12500000000E+03 0.  0.
        -13    1    3    3    0    0  0.43923336371E+02  0.22563777800E+02  0.29872114056E+02  0.57712545506E+02  0.10566000000E+00 0.  1.
         23    2    1    0    0    0  0.65201770672E+01  0.16486278178E+02  0.22563352814E+02  0.96304791909E+02  0.91930397461E+02 0.  0.
         13    1    3    3    0    0 -0.37403159303E+02 -0.60774996218E+01 -0.73087612420E+01  0.38592246403E+02  0.10566000000E+00 0. -1.
         22    1    1    0    0    0 -0.65201770672E+01 -0.16486278178E+02 -0.22563352814E+02  0.28695208091E+02  0.00000000000E+00 0.  1.
</event>
<event>
 5    1  0.1758480E-003  0.9118800E+02  0.7818608E-02  0.1130116E+00
         25   -1    0    0    0    0  0.00000000000E+00  0.00000000000E+00  0.99999998245E-14  0.12500000000E+03  0.12500000000E+03 0.  0.
        -13    1    3    3    0    0 -0.20027654106E+02  0.16122754631E+02 -0.15482195762E+02  0.30012658922E+02  0.10566000000E+00 0. -1.
         23    2    1    0    0    0  0.26811573663E+02 -0.11288511955E+02  0.15012179557E+02  0.92263834686E+02  0.86260991598E+02 0.  0.
         13    1    3    3    0    0  0.46839227769E+02 -0.27411266586E+02  0.30494375319E+02  0.62251175764E+02  0.10566000000E+00 0.  1.
         22    1    1    0    0    0 -0.26811573663E+02  0.11288511955E+02 -0.15012179557E+02  0.32736165314E+02  0.00000000000E+00 0.  1.
</event>
<event>
 5    1  0.1758480E-003  0.9118800E+02  0.7818608E-02  0.1130116E+00
         25   -1    0    0    0    0  0.00000000000E+00  0.00000000000E+00  0.99999998245E-14  0.12500000000E+03  0.12500000000E+03 0.  0.
        -13    1    3    3    0    0  0.24918612109E+02 -0.15862535032E+02  0.18021613152E+02  0.34602701509E+02  0.10566000000E+00 0.  1.
         23    2    1    0    0    0 -0.29413481006E+02  0.58599297133E+01  0.43228183751E+01  0.94698541292E+02  0.89719759936E+02 0.  0.
         13    1    3    3    0    0 -0.54332093115E+02  0.21722464746E+02 -0.13698794777E+02  0.60095839783E+02  0.10566000000E+00 0. -1.
         22    1    1    0    0    0  0.29413481006E+02 -0.58599297133E+01 -0.43228183751E+01  0.30301458708E+02  0.00000000000E+00 0. -1.
</event>
<event>
 5    1  0.1758480E-003  0.9118800E+02  0.7818608E-02  0.1130116E+00
         25   -1    0    0    0    0  0.00000000000E+00  0.00000000000E+00  0.99999998245E-14  0.12500000000E+03  0.12500000000E+03 0.  0.
        -13    1    3    3    0    0 -0.41914756802E+01 -0.32066474653E+02 -0.51478972816E+02  0.60794103918E+02  0.10566000000E+00 0.  1.
         23    2    1    0    0    0 -0.26913615326E+00 -0.23780445260E+02 -0.18947069313E+02  0.94593200652E+02  0.89572876268E+02 0.  0.
         13    1    3    3    0    0  0.39223395269E+01  0.82860293927E+01  0.32531903502E+02  0.33799096733E+02  0.10566000000E+00 0. -1.
         22    1    1    0    0    0  0.26913615326E+00  0.23780445260E+02  0.18947069313E+02  0.30406799348E+02  0.00000000000E+00 0.  1.
</event>
<event>
 5    1  0.1758480E-003  0.9118800E+02  0.7818608E-02  0.1130116E+00
         25   -1    0    0    0    0  0.00000000000E+00  0.00000000000E+00  0.99999998245E-14  0.12500000000E+03  0.12500000000E+03 0.  0.
        -13    1    3    3    0    0  0.12428470994E+02 -0.30484953890E+02  0.17199514723E+02  0.37143421701E+02  0.10566000000E+00 0.  1.
         23    2    1    0    0    0  0.14051566058E+02  0.23577353383E+02 -0.74168614950E+01  0.96568539685E+02  0.92288324945E+02 0.  0.
         13    1    3    3    0    0  0.16230950646E+01  0.54062307273E+02 -0.24616376218E+02  0.59425117984E+02  0.10566000000E+00 0. -1.
         22    1    1    0    0    0 -0.14051566058E+02 -0.23577353383E+02  0.74168614950E+01  0.28431460315E+02  0.00000000000E+00 0. -1.
</event>
<event>
 5    1  0.1758480E-003  0.9118800E+02  0.7818608E-02  0.1130116E+00
         25   -1    0    0    0    0  0.00000000000E+00  0.00000000000E+00  0.99999998245E-14  0.12500000000E+03  0.12500000000E+03 0.  0.
        -13    1    3    3    0    0  0.42165237174E+02  0.25658975087E+02 -0.48080758498E+01  0.49592529537E+02  0.10566000000E+00 0.  1.
         23    2    1    0    0    0  0.25215822327E+02 -0.16245305047E+02 -0.49719819022E+00  0.95000086038E+02  0.90138901200E+02 0.  0.
         13    1    3    3    0    0 -0.16949414847E+02 -0.41904280134E+02  0.43108776596E+01  0.45407556501E+02  0.10566000000E+00 0. -1.
         22    1    1    0    0    0 -0.25215822327E+02  0.16245305047E+02  0.49719819022E+00  0.29999913962E+02  0.00000000000E+00 0. -1.
</event>
<event>
 5    1  0.1758480E-003  0.9118800E+02  0.7818608E-02  0.1130116E+00
         25   -1    0    0    0    0  0.00000000000E+00  0.00000000000E+00  0.99999998245E-14  0.12500000000E+03  0.12500000000E+03 0.  0.
        -13    1    3    3    0    0  0.28465098579E+02 -0.22212547229E+02 -0.29194336067E+02  0.46432526465E+02  0.10566000000E+00 0.  1.
         23    2    1    0    0    0  0.19922325244E+02 -0.12915345335E+02  0.17948320854E+02  0.95236811164E+02  0.90466583836E+02 0.  0.
         13    1    3    3    0    0 -0.85427733355E+01  0.92972018944E+01  0.47142656921E+02  0.48804284698E+02  0.10566000000E+00 0. -1.
         22    1    1    0    0    0 -0.19922325244E+02  0.12915345335E+02 -0.17948320854E+02  0.29763188836E+02  0.00000000000E+00 0. -1.
</event>
<event>
 5    1  0.1758480E-003  0.9118800E+02  0.7818608E-02  0.1130116E+00
         25   -1    0    0    0    0  0.00000000000E+00  0.00000000000E+00  0.99999998245E-14  0.12500000000E+03  0.12500000000E+03 0.  0.
        -13    1    3    3    0    0  0.91359901868E+01  0.31753060119E+00  0.54526817819E+02  0.55287902545E+02  0.10566000000E+00 0. -1.
         23    2    1    0    0    0  0.23946505013E+02  0.78913095345E+00  0.17035141200E+02  0.95601805060E+02  0.90969507337E+02 0.  0.
         13    1    3    3    0    0  0.14810514826E+02  0.47160035226E+00 -0.37491676618E+02  0.40313902515E+02  0.10566000000E+00 0.  1.
         22    1    1    0    0    0 -0.23946505013E+02 -0.78913095345E+00 -0.17035141200E+02  0.29398194940E+02  0.00000000000E+00 0. -1.
</event>
<event>
 5    1  0.1758480E-003  0.9118800E+02  0.7818608E-02  0.1130116E+00
         25   -1    0    0    0    0  0.00000000000E+00  0.00000000000E+00  0.99999998245E-14  0.12500000000E+03  0.12500000000E+03 0.  0.
        -13    1    3    3    0    0 -0.48990991039E+02 -0.35133429813E+02 -0.12260175035E+02  0.61520713173E+02  0.10566000000E+00 0.  1.
         23    2    1    0    0    0 -0.26480675622E+02 -0.10908875715E+02 -0.14043440341E+01  0.96325936233E+02  0.91959143419E+02 0.  0.
         13    1    3    3    0    0  0.22510315417E+02  0.24224554099E+02  0.10855831001E+02  0.34805223060E+02  0.10566000000E+00 0. -1.
         22    1    1    0    0    0  0.26480675622E+02  0.10908875715E+02  0.14043440341E+01  0.28674063767E+02  0.00000000000E+00 0.  1.
</event>
<event>
 5    1  0.1758480E-003  0.9118800E+02  0.7818608E-02  0.1130116E+00
         25   -1    0    0    0    0  0.00000000000E+00  0.00000000000E+00  0.99999998245E-14  0.12500000000E+03  0.12500000000E+03 0.  0.
        -13    1    3    3    0    0  0.58321548991E+01 -0.34697053192E+02  0.96608020548E+00  0.35197215884E+02  0.10566000000E+00 0. -1.
         23    2    1    0    0    0 -0.13978336954E+02  0.18036263587E+02 -0.19350861827E+02  0.95080832872E+02  0.90250807299E+02 0.  0.
         13    1    3    3    0    0 -0.19810491853E+02  0.52733316779E+02 -0.20316942032E+02  0.59883616988E+02  0.10566000000E+00 0.  1.
         22    1    1    0    0    0  0.13978336954E+02 -0.18036263587E+02  0.19350861827E+02  0.29919167128E+02  0.00000000000E+00 0.  1.
</event>
<event>
 5    1  0.1758480E-003  0.9118800E+02  0.7818608E-02  0.1130116E+00
         25   -1    0    0    0    0  0.00000000000E+00  0.00000000000E+00  0.99999998245E-14  0.12500000000E+03  0.12500000000E+03 0.  0.
        -13    1    3    3    0    0 -0.34219074679E+02 -0.22248778699E+02  0.14414641232E+01  0.40841672448E+02  0.10566000000E+00 0. -1.
         23    2    1    0    0    0 -0.66162806994E+01  0.17310990473E+02  0.24477901818E+02  0.94297992918E+02  0.89159958667E+02 0.  0.
         13    1    3    3    0    0  0.27602793980E+02  0.39559769173E+02  0.23036437695E+02  0.53456320470E+02  0.10566000000E+00 0.  1.
         22    1    1    0    0    0  0.66162806994E+01 -0.17310990473E+02 -0.24477901818E+02  0.30702007082E+02  0.00000000000E+00 0.  1.
</event>
<event>
 5    1  0.1758480E-003  0.9118800E+02  0.7818608E-02  0.1130116E+00
         25   -1    0    0    0    0  0.00000000000E+00  0.00000000000E+00  0.99999998245E-14  0.12500000000E+03  0.12500000000E+03 0.  0.
        -13    1    3    3    0    0  0.57404956406E+00  0.44349584033E+02 -0.43336847973E+02  0.62010553079E+02  0.10566000000E+00 0. -1.
         23    2    1    0    0    0 -0.37457751259E+01  0.23720707409E+02 -0.17880060558E+02  0.95060070861E+02  0.90222046724E+02 0.  0.
         13    1    3    3    0    0 -0.43198246900E+01 -0.20628876624E+02  0.25456787415E+02  0.33049517782E+02  0.10566000000E+00 0.  1.
         22    1    1    0    0    0  0.37457751259E+01 -0.23720707409E+02  0.17880060558E+02  0.29939929139E+02  0.00000000000E+00 0. -1.
</event>
<event>
 5    1  0.1758480E-003  0.9118800E+02  0.7818608E-02  0.1130116E+00
         25   -1    0    0    0    0  0.00000000000E+00  0.00000000000E+00  0.99999998245E-14  0.12500000000E+03  0.12500000000E+03 0.  0.
        -13    1    3    3    0    0  0.32463034901E+02  0.32844553425E+02  0.24437295298E+02  0.52247544345E+02  0.10566000000E+00 0.  1.
         23    2    1    0    0    0  0.14088831824E+02  0.19398342900E+02 -0.14229768949E+02  0.97120308219E+02  0.93032666600E+02 0.  0.
         13    1    3    3    0    0 -0.18374203076E+02 -0.13446210525E+02 -0.38667064247E+02  0.44872763874E+02  0.10566000000E+00 0. -1.
         22    1    1    0    0    0 -0.14088831824E+02 -0.19398342900E+02  0.14229768949E+02  0.27879691781E+02  0.00000000000E+00 0.  1.
</event>
<event>
 5    1  0.1758480E-003  0.9118800E+02  0.7818608E-02  0.1130116E+00
         25   -1    0    0    0    0  0.00000000000E+00  0.00000000000E+00  0.99999998245E-14  0.12500000000E+03  0.12500000000E+03 0.  0.
        -13    1    3    3    0    0  0.40531684894E+02 -0.49665596903E+01  0.59770272100E+01  0.41270088609E+02  0.10566000000E+00 0.  1.
         23    2    1    0    0    0 -0.83079169557E+01 -0.34071655507E+01  0.28531537252E+02  0.95088816820E+02  0.90261864622E+02 0.  0.
         13    1    3    3    0    0 -0.48839601850E+02  0.15593941397E+01  0.22554510042E+02  0.53818728211E+02  0.10566000000E+00 0. -1.
         22    1    1    0    0    0  0.83079169557E+01  0.34071655507E+01 -0.28531537252E+02  0.29911183180E+02  0.00000000000E+00 0. -1.
</event>
<event>
 5    1  0.1758480E-003  0.9118800E+02  0.7818608E-02  0.1130116E+00
         25   -1    0    0    0    0  0.00000000000E+00  0.00000000000E+00  0.99999998245E-14  0.12500000000E+03  0.12500000000E+03 0.  0.
        -13    1    3    3    0    0  0.22157047411E+02  0.23639511250E+02  0.52655461071E+01  0.32825270478E+02  0.10566000000E+00 0. -1.
         23    2    1    0    0    0 -0.22206597247E+02 -0.66377259437E+01 -0.21985577718E+02  0.93053826605E+02  0.87398264578E+02 0.  0.
         13    1    3    3    0    0 -0.44363644658E+02 -0.30277237194E+02 -0.27251123825E+02  0.60228556127E+02  0.10566000000E+00 0.  1.
         22    1    1    0    0    0  0.22206597247E+02  0.66377259437E+01  0.21985577718E+02  0.31946173395E+02  0.00000000000E+00 0.  1.
</event>
<event>
 5    1  0.1758480E-003  0.9118800E+02  0.7818608E-02  0.1130116E+00
         25   -1    0    0    0    0  0.00000000000E+00  0.00000000000E+00  0.99999998245E-14  0.12500000000E+03  0.12500000000E+03 0.  0.
        -13    1    3    3    0    0  0.42948847850E+01  0.46172773485E+02 -0.14813648216E+01  0.46395868915E+02  0.10566000000E+00 0. -1.
         23    2    1    0    0    0  0.14923607446E+02  0.68885999200E+01  0.25094637523E+02  0.95001538365E+02  0.90140915190E+02 0.  0.
         13    1    3    3    0    0  0.10628722661E+02 -0.39284173565E+02  0.26576002344E+02  0.48605669450E+02  0.10566000000E+00 0.  1.
         22    1    1    0    0    0 -0.14923607446E+02 -0.68885999200E+01 -0.25094637523E+02  0.29998461635E+02  0.00000000000E+00 0. -1.
</event>
<event>
 5    1  0.1758480E-003  0.9118800E+02  0.7818608E-02  0.1130116E+00
         25   -1    0    0    0    0  0.00000000000E+00  0.00000000000E+00  0.99999998245E-14  0.12500000000E+03  0.12500000000E+03 0.  0.
        -13    1    3    3    0    0 -0.22595024424E+02  0.24690951040E+02  0.98158156315E+01  0.34878927629E+02  0.10566000000E+00 0. -1.
         23    2    1    0    0    0  0.25681249091E+02 -0.10977861417E+02 -0.48113500492E+01  0.96659409226E+02  0.92411321311E+02 0.  0.
         13    1    3    3    0    0  0.48276273514E+02 -0.35668812457E+02 -0.14627165681E+02  0.61780481597E+02  0.10566000000E+00 0.  1.
         22    1    1    0    0    0 -0.25681249091E+02  0.10977861417E+02  0.48113500492E+01  0.28340590774E+02  0.00000000000E+00 0.  1.
</event>
<event>
 5    1  0.1758480E-003  0.9118800E+02  0.7818608E-02  0.1130116E+00
         25   -1    0    0    0    0  0.00000000000E+00  0.00000000000E+00  0.99999998245E-14  0.12500000000E+03  0.12500000000E+03 0.  0.
        -13    1    3    3    0    0  0.69717234734E+01 -0.35652870404E+02 -0.11688481210E+01  0.36347069568E+02  0.10566000000E+00 0. -1.
         23    2    1    0    0    0 -0.97874984826E+01  0.15493292842E+02  0.23205329410E+02  0.95431020264E+02  0.90734530725E+02 0.  0.
         13    1    3    3    0    0 -0.16759221956E+02  0.51146163246E+02  0.24374177531E+02  0.59083950695E+02  0.10566000000E+00 0.  1.
         22    1    1    0    0    0  0.97874984826E+01 -0.15493292842E+02 -0.23205329410E+02  0.29568979736E+02  0.00000000000E+00 0.  1.
</event>
<event>
 5    1  0.1758480E-003  0.9118800E+02  0.7818608E-02  0.1130116E+00
         25   -1    0    0    0    0  0.00000000000E+00  0.00000000000E+00  0.99999998245E-14  0.12500000000E+03  0.12500000000E+03 0.  0.
        -13    1    3    3    0    0 -0.35727206609E+02  0.40214581300E+02 -0.11022765537E+02  0.54910457705E+02  0.10566000000E+00 0. -1.
         23    2    1    0    0    0 -0.34689029255E+02  0.18193286341E+02 -0.22564675865E+02  0.79795033288E+02  0.65755291209E+02 0.  0.
         13    1    3    3    0    0  0.10381773537E+01 -0.22021294959E+02 -0.11541910328E+02  0.24884575583E+02  0.10566000000E+00 0.  1.
         22    1    1    0    0    0  0.34689029255E+02 -0.18193286341E+02  0.22564675865E+02  0.45204966712E+02  0.00000000000E+00 0. -1.
</event>
<event>
 5    1  0.1758480E-003  0.9118800E+02  0.7818608E-02  0.1130116E+00
         25   -1    0    0    0    0  0.00000000000E+00  0.00000000000E+00  0.99999998245E-14  0.12500000000E+03  0.12500000000E+03 0.  0.
        -13    1    3    3    0    0 -0.52040617954E+01  0.22312245845E+02  0.31760236677E+02  0.39161746279E+02  0.10566000000E+00 0.  1.
         23    2    1    0    0    0 -0.27179627486E+01 -0.28168282141E+02  0.53077096227E+01  0.96207445029E+02  0.91797937108E+02 0.  0.
         13    1    3    3    0    0  0.24860990469E+01 -0.50480527987E+02 -0.26452527054E+02  0.57045698750E+02  0.10566000000E+00 0. -1.
         22    1    1    0    0    0  0.27179627486E+01  0.28168282141E+02 -0.53077096227E+01  0.28792554971E+02  0.00000000000E+00 0. -1.
</event>
<event>
 5    1  0.1758480E-003  0.9118800E+02  0.7818608E-02  0.1130116E+00
         25   -1    0    0    0    0  0.00000000000E+00  0.00000000000E+00  0.99999998245E-14  0.12500000000E+03  0.12500000000E+03 0.  0.
        -13    1    3    3    0    0  0.19867600347E+00 -0.45611311823E+02 -0.21409134607E+01  0.45662083974E+02  0.10566000000E+00 0. -1.
         23    2    1    0    0    0 -0.11621597770E+02 -0.10411112231E+02  0.27639175387E+02  0.93260800125E+02  0.87693785591E+02 0.  0.
         13    1    3    3    0    0 -0.11820273773E+02  0.35200199592E+02  0.29780088848E+02  0.47598716151E+02  0.10566000000E+00 0.  1.
         22    1    1    0    0    0  0.11621597770E+02  0.10411112231E+02 -0.27639175387E+02  0.31739199875E+02  0.00000000000E+00 0.  1.
</event>
<event>
 5    1  0.1758480E-003  0.9118800E+02  0.7818608E-02  0.1130116E+00
         25   -1    0    0    0    0  0.00000000000E+00  0.00000000000E+00  0.99999998245E-14  0.12500000000E+03  0.12500000000E+03 0.  0.
        -13    1    3    3    0    0 -0.30533740714E+02 -0.15409885801E+02  0.20036066222E+02  0.39638731262E+02  0.10566000000E+00 0. -1.
         23    2    1    0    0    0 -0.25346284370E+01 -0.41246466076E+02  0.22738536913E+02  0.77832888937E+02  0.61913021524E+02 0.  0.
         13    1    3    3    0    0  0.27999112277E+02 -0.25836580276E+02  0.27024706906E+01  0.38194157675E+02  0.10566000000E+00 0.  1.
         22    1    1    0    0    0  0.25346284370E+01  0.41246466076E+02 -0.22738536913E+02  0.47167111063E+02  0.00000000000E+00 0.  1.
</event>
<event>
 5    1  0.1758480E-003  0.9118800E+02  0.7818608E-02  0.1130116E+00
         25   -1    0    0    0    0  0.00000000000E+00  0.00000000000E+00  0.99999998245E-14  0.12500000000E+03  0.12500000000E+03 0.  0.
        -13    1    3    3    0    0  0.96137091530E+01  0.45398662193E+02  0.10372255872E+02  0.47550570853E+02  0.10566000000E+00 0.  1.
         23    2    1    0    0    0 -0.11502404261E+02  0.64398422193E+01  0.27058144439E+02  0.94901494189E+02  0.90002075238E+02 0.  0.
         13    1    3    3    0    0 -0.21116113414E+02 -0.38958819973E+02  0.16685888567E+02  0.47350923336E+02  0.10566000000E+00 0. -1.
         22    1    1    0    0    0  0.11502404261E+02 -0.64398422193E+01 -0.27058144439E+02  0.30098505811E+02  0.00000000000E+00 0. -1.
</event>
<event>
 5    1  0.1758480E-003  0.9118800E+02  0.7818608E-02  0.1130116E+00
         25   -1    0    0    0    0  0.00000000000E+00  0.00000000000E+00  0.99999998245E-14  0.12500000000E+03  0.12500000000E+03 0.  0.
        -13    1    3    3    0    0 -0.30648997056E+02 -0.11566231669E+02  0.40862462415E+02  0.52372614354E+02  0.10566000000E+00 0.  1.
         23    2    1    0    0    0 -0.87728259103E+01 -0.25287769704E+02  0.31926402846E+01  0.98043985402E+02  0.94265562908E+02 0.  0.
         13    1    3    3    0    0  0.21876171146E+02 -0.13721538034E+02 -0.37669822130E+02  0.45671371048E+02  0.10566000000E+00 0. -1.
         22    1    1    0    0    0  0.87728259103E+01  0.25287769704E+02 -0.31926402846E+01  0.26956014598E+02  0.00000000000E+00 0.  1.
</event>
<event>
 5    1  0.1758480E-003  0.9118800E+02  0.7818608E-02  0.1130116E+00
         25   -1    0    0    0    0  0.00000000000E+00  0.00000000000E+00  0.99999998245E-14  0.12500000000E+03  0.12500000000E+03 0.  0.
        -13    1    3    3    0    0 -0.25210362639E+02 -0.12748603666E+02  0.27767500112E+02  0.39612302462E+02  0.10566000000E+00 0. -1.
         23    2    1    0    0    0 -0.28835213303E+02  0.13389637036E+02 -0.14985051720E+02  0.89853112780E+02  0.82693882453E+02 0.  0.
         13    1    3    3    0    0 -0.36248506638E+01  0.26138240702E+02 -0.42752551831E+02  0.50240810319E+02  0.10566000000E+00 0.  1.
         22    1    1    0    0    0  0.28835213303E+02 -0.13389637036E+02  0.14985051720E+02  0.35146887220E+02  0.00000000000E+00 0.  1.
</event>
<event>
 5    1  0.1758480E-003  0.9118800E+02  0.7818608E-02  0.1130116E+00
         25   -1    0    0    0    0  0.00000000000E+00  0.00000000000E+00  0.99999998245E-14  0.12500000000E+03  0.12500000000E+03 0.  0.
        -13    1    3    3    0    0  0.51219880489E+02  0.23007454050E+02  0.20690292868E+02  0.59840776083E+02  0.10566000000E+00 0. -1.
         23    2    1    0    0    0  0.18996585524E+02  0.15377735061E+02  0.20724950822E+02  0.92955209725E+02  0.87257105333E+02 0.  0.
         13    1    3    3    0    0 -0.32223294965E+02 -0.76297189890E+01  0.34657954266E-01  0.33114433642E+02  0.10566000000E+00 0.  1.
         22    1    1    0    0    0 -0.18996585524E+02 -0.15377735061E+02 -0.20724950822E+02  0.32044790275E+02  0.00000000000E+00 0. -1.
</event>
<event>
 5    1  0.1758480E-003  0.9118800E+02  0.7818608E-02  0.1130116E+00
         25   -1    0    0    0    0  0.00000000000E+00  0.00000000000E+00  0.99999998245E-14  0.12500000000E+03  0.12500000000E+03 0.  0.
        -13    1    3    3    0    0  0.34097657270E+02  0.40062917651E+01 -0.15591555976E+02  0.37706874530E+02  0.10566000000E+00 0.  1.
         23    2    1    0    0    0 -0.22503347954E+02 -0.62946209137E+01 -0.18327738889E+02  0.95302711666E+02  0.90557594472E+02 0.  0.
         13    1    3    3    0    0 -0.56601005224E+02 -0.10300912679E+02 -0.27361829131E+01  0.57595837136E+02  0.10566000000E+00 0. -1.
         22    1    1    0    0    0  0.22503347954E+02  0.62946209137E+01  0.18327738889E+02  0.29697288334E+02  0.00000000000E+00 0. -1.
</event>
<event>
 5    1  0.1758480E-003  0.9118800E+02  0.7818608E-02  0.1130116E+00
         25   -1    0    0    0    0  0.00000000000E+00  0.00000000000E+00  0.99999998245E-14  0.12500000000E+03  0.12500000000E+03 0.  0.
        -13    1    3    3    0    0 -0.27777348540E+02 -0.23575621700E+02 -0.38879411910E+01  0.36640391389E+02  0.10566000000E+00 0.  1.
         23    2    1    0    0    0  0.22537636775E+02 -0.29406172404E+02 -0.66107163440E+01  0.87365313640E+02  0.78843696070E+02 0.  0.
         13    1    3    3    0    0  0.50314985315E+02 -0.58305507042E+01 -0.27227751530E+01  0.50724922250E+02  0.10566000000E+00 0. -1.
         22    1    1    0    0    0 -0.22537636775E+02  0.29406172404E+02  0.66107163440E+01  0.37634686360E+02  0.00000000000E+00 0.  1.
</event>
<event>
 5    1  0.1758480E-003  0.9118800E+02  0.7818608E-02  0.1130116E+00
         25   -1    0    0    0    0  0.00000000000E+00  0.00000000000E+00  0.99999998245E-14  0.12500000000E+03  0.12500000000E+03 0.  0.
        -13    1    3    3    0    0 -0.17139540271E+02 -0.44084012769E+01 -0.51005659197E+02  0.53988760651E+02  0.10566000000E+00 0.  1.
         23    2    1    0    0    0 -0.57850119485E+01  0.20839827436E+02 -0.20202044593E+02  0.95404605485E+02  0.90698133228E+02 0.  0.
         13    1    3    3    0    0  0.11354528322E+02  0.25248228713E+02  0.30803614604E+02  0.41415844833E+02  0.10566000000E+00 0. -1.
         22    1    1    0    0    0  0.57850119485E+01 -0.20839827436E+02  0.20202044593E+02  0.29595394515E+02  0.00000000000E+00 0.  1.
</event>
<event>
 5    1  0.1758480E-003  0.9118800E+02  0.7818608E-02  0.1130116E+00
         25   -1    0    0    0    0  0.00000000000E+00  0.00000000000E+00  0.99999998245E-14  0.12500000000E+03  0.12500000000E+03 0.  0.
        -13    1    3    3    0    0 -0.37764254238E+02 -0.22543819570E+02  0.25699808157E+02  0.50939709484E+02  0.10566000000E+00 0.  1.
         23    2    1    0    0    0 -0.16992025218E+02  0.17078023793E+02  0.13816792301E+02  0.97227863475E+02  0.93177067290E+02 0.  0.
         13    1    3    3    0    0  0.20772229021E+02  0.39621843363E+02 -0.11883015856E+02  0.46288153991E+02  0.10566000000E+00 0. -1.
         22    1    1    0    0    0  0.16992025218E+02 -0.17078023793E+02 -0.13816792301E+02  0.27772136525E+02  0.00000000000E+00 0.  1.
</event>
<event>
 5    1  0.1758480E-003  0.9118800E+02  0.7818608E-02  0.1130116E+00
         25   -1    0    0    0    0  0.00000000000E+00  0.00000000000E+00  0.99999998245E-14  0.12500000000E+03  0.12500000000E+03 0.  0.
        -13    1    3    3    0    0 -0.35657624450E+02  0.13903877983E+00  0.29189554522E+02  0.46081740097E+02  0.10566000000E+00 0. -1.
         23    2    1    0    0    0 -0.21588658160E+02  0.17247782819E+01 -0.18926659168E+02  0.96237812174E+02  0.91839278326E+02 0.  0.
         13    1    3    3    0    0  0.14068966290E+02  0.15857395021E+01 -0.48116213690E+02  0.50156072076E+02  0.10566000000E+00 0.  1.
         22    1    1    0    0    0  0.21588658160E+02 -0.17247782819E+01  0.18926659168E+02  0.28762187826E+02  0.00000000000E+00 0.  1.
</event>
<event>
 5    1  0.1758480E-003  0.9118800E+02  0.7818608E-02  0.1130116E+00
         25   -1    0    0    0    0  0.00000000000E+00  0.00000000000E+00  0.99999998245E-14  0.12500000000E+03  0.12500000000E+03 0.  0.
        -13    1    3    3    0    0  0.22754279778E+02 -0.55365793381E+02 -0.14685354243E+01  0.59877342002E+02  0.10566000000E+00 0. -1.
         23    2    1    0    0    0  0.17864888420E+02 -0.19402797504E+02 -0.93496626370E+01  0.97017166322E+02  0.92893980324E+02 0.  0.
         13    1    3    3    0    0 -0.48893913582E+01  0.35962995877E+02 -0.78811272127E+01  0.37139824320E+02  0.10566000000E+00 0.  1.
         22    1    1    0    0    0 -0.17864888420E+02  0.19402797504E+02  0.93496626370E+01  0.27982833678E+02  0.00000000000E+00 0. -1.
</event>
<event>
 5    1  0.1758480E-003  0.9118800E+02  0.7818608E-02  0.1130116E+00
         25   -1    0    0    0    0  0.00000000000E+00  0.00000000000E+00  0.99999998245E-14  0.12500000000E+03  0.12500000000E+03 0.  0.
        -13    1    3    3    0    0  0.26127305161E+02 -0.24549638950E+02  0.46705872835E+02  0.58879288114E+02  0.10566000000E+00 0.  1.
         23    2    1    0    0    0 -0.19458156379E+01 -0.12598761029E+02  0.26835660521E+02  0.95290276784E+02  0.90540428517E+02 0.  0.
         13    1    3    3    0    0 -0.28073120799E+02  0.11950877921E+02 -0.19870212314E+02  0.36410988670E+02  0.10566000000E+00 0. -1.
         22    1    1    0    0    0  0.19458156379E+01  0.12598761029E+02 -0.26835660521E+02  0.29709723216E+02  0.00000000000E+00 0.  1.
</event>
<event>
 5    1  0.1758480E-003  0.9118800E+02  0.7818608E-02  0.1130116E+00
         25   -1    0    0    0    0  0.00000000000E+00  0.00000000000E+00  0.99999998245E-14  0.12500000000E+03  0.12500000000E+03 0.  0.
        -13    1    3    3    0    0 -0.30701741439E+01  0.28000368115E+02 -0.41813424645E+02  0.50416467829E+02  0.10566000000E+00 0. -1.
         23    2    1    0    0    0  0.35954398016E+01  0.24025499857E+02  0.69013594530E+01  0.99745681695E+02  0.96495701582E+02 0.  0.
         13    1    3    3    0    0  0.66656139454E+01 -0.39748682579E+01  0.48714784098E+02  0.49329213866E+02  0.10566000000E+00 0.  1.
         22    1    1    0    0    0 -0.35954398016E+01 -0.24025499857E+02 -0.69013594530E+01  0.25254318305E+02  0.00000000000E+00 0. -1.
</event>
<event>
 5    1  0.1758480E-003  0.9118800E+02  0.7818608E-02  0.1130116E+00
         25   -1    0    0    0    0  0.00000000000E+00  0.00000000000E+00  0.99999998245E-14  0.12500000000E+03  0.12500000000E+03 0.  0.
        -13    1    3    3    0    0  0.27646331831E+02  0.23685822530E+02 -0.43684985612E+02  0.56865868363E+02  0.10566000000E+00 0.  1.
         23    2    1    0    0    0 -0.27753784008E+01  0.21510819470E+02 -0.20222469742E+02  0.95345887941E+02  0.90617172684E+02 0.  0.
         13    1    3    3    0    0 -0.30421710232E+02 -0.21750030598E+01  0.23462515870E+02  0.38480019578E+02  0.10566000000E+00 0. -1.
         22    1    1    0    0    0  0.27753784008E+01 -0.21510819470E+02  0.20222469742E+02  0.29654112059E+02  0.00000000000E+00 0. -1.
</event>
<event>
 5    1  0.1758480E-003  0.9118800E+02  0.7818608E-02  0.1130116E+00
         25   -1    0    0    0    0  0.00000000000E+00  0.00000000000E+00  0.99999998245E-14  0.12500000000E+03  0.12500000000E+03 0.  0.
        -13    1    3    3    0    0 -0.80883895378E+01  0.15742326530E+02 -0.30477763303E+02  0.35244121636E+02  0.10566000000E+00 0.  1.
         23    2    1    0    0    0 -0.14111634234E+02 -0.17327216649E+02  0.19410779444E+02  0.95400185538E+02  0.90692041462E+02 0.  0.
         13    1    3    3    0    0 -0.60232446963E+01 -0.33069543179E+02  0.49888542747E+02  0.60156063902E+02  0.10566000000E+00 0. -1.
         22    1    1    0    0    0  0.14111634234E+02  0.17327216649E+02 -0.19410779444E+02  0.29599814462E+02  0.00000000000E+00 0. -1.
</event>
<event>
 5    1  0.1758480E-003  0.9118800E+02  0.7818608E-02  0.1130116E+00
         25   -1    0    0    0    0  0.00000000000E+00  0.00000000000E+00  0.99999998245E-14  0.12500000000E+03  0.12500000000E+03 0.  0.
        -13    1    3    3    0    0  0.56119017307E+02 -0.28818667584E+00  0.12379301046E+02  0.57468995236E+02  0.10566000000E+00 0. -1.
         23    2    1    0    0    0  0.21883883921E+02 -0.17117289639E+02  0.91297316304E+01  0.95755205939E+02  0.91180049817E+02 0.  0.
         13    1    3    3    0    0 -0.34235133386E+02 -0.16829102963E+02 -0.32495694151E+01  0.38286210702E+02  0.10566000000E+00 0.  1.
         22    1    1    0    0    0 -0.21883883921E+02  0.17117289639E+02 -0.91297316304E+01  0.29244794061E+02  0.00000000000E+00 0.  1.
</event>
<event>
 5    1  0.1758480E-003  0.9118800E+02  0.7818608E-02  0.1130116E+00
         25   -1    0    0    0    0  0.00000000000E+00  0.00000000000E+00  0.99999998245E-14  0.12500000000E+03  0.12500000000E+03 0.  0.
        -13    1    3    3    0    0  0.29454669757E+02 -0.54124370622E+02 -0.91325363775E-01  0.61620163665E+02  0.10566000000E+00 0. -1.
         23    2    1    0    0    0  0.12028367727E+02 -0.34941556605E+02 -0.40015425206E+01  0.87830034293E+02  0.79577060596E+02 0.  0.
         13    1    3    3    0    0 -0.17426302030E+02  0.19182814017E+02 -0.39102171569E+01  0.26209870628E+02  0.10566000000E+00 0.  1.
         22    1    1    0    0    0 -0.12028367727E+02  0.34941556605E+02  0.40015425206E+01  0.37169965707E+02  0.00000000000E+00 0. -1.
</event>
<event>
 5    1  0.1758480E-003  0.9118800E+02  0.7818608E-02  0.1130116E+00
         25   -1    0    0    0    0  0.00000000000E+00  0.00000000000E+00  0.99999998245E-14  0.12500000000E+03  0.12500000000E+03 0.  0.
        -13    1    3    3    0    0  0.24196541580E+02  0.98222634686E+01 -0.26997049554E+02  0.37560635414E+02  0.10566000000E+00 0.  1.
         23    2    1    0    0    0 -0.21011048422E+02  0.17665138023E+02  0.92493399757E+01  0.96033268270E+02  0.91560455806E+02 0.  0.
         13    1    3    3    0    0 -0.45207590002E+02  0.78428745541E+01  0.36246389529E+02  0.58472632855E+02  0.10566000000E+00 0. -1.
         22    1    1    0    0    0  0.21011048422E+02 -0.17665138023E+02 -0.92493399757E+01  0.28966731730E+02  0.00000000000E+00 0. -1.
</event>
<event>
 5    1  0.1758480E-003  0.9118800E+02  0.7818608E-02  0.1130116E+00
         25   -1    0    0    0    0  0.00000000000E+00  0.00000000000E+00  0.99999998245E-14  0.12500000000E+03  0.12500000000E+03 0.  0.
        -13    1    3    3    0    0  0.37619728807E+02  0.83262432688E+00  0.99320155415E+01  0.38917776857E+02  0.10566000000E+00 0. -1.
         23    2    1    0    0    0 -0.15458275308E+02  0.17568069037E+02  0.18425214514E+02  0.95216047020E+02  0.90437888935E+02 0.  0.
         13    1    3    3    0    0 -0.53078004115E+02  0.16735444711E+02  0.84931989730E+01  0.56298270163E+02  0.10566000000E+00 0.  1.
         22    1    1    0    0    0  0.15458275308E+02 -0.17568069037E+02 -0.18425214514E+02  0.29783952980E+02  0.00000000000E+00 0.  1.
</event>
<event>
 5    1  0.1758480E-003  0.9118800E+02  0.7818608E-02  0.1130116E+00
         25   -1    0    0    0    0  0.00000000000E+00  0.00000000000E+00  0.99999998245E-14  0.12500000000E+03  0.12500000000E+03 0.  0.
        -13    1    3    3    0    0  0.10817056421E+02  0.35264724655E+01  0.51326617542E+02  0.52572593145E+02  0.10566000000E+00 0. -1.
         23    2    1    0    0    0  0.43616631264E+01 -0.22777363632E+02  0.17276874754E+02  0.96080753805E+02  0.91625260988E+02 0.  0.
         13    1    3    3    0    0 -0.64553932943E+01 -0.26303836097E+02 -0.34049742788E+02  0.43508160660E+02  0.10566000000E+00 0.  1.
         22    1    1    0    0    0 -0.43616631264E+01  0.22777363632E+02 -0.17276874754E+02  0.28919246195E+02  0.00000000000E+00 0. -1.
</event>
<event>
 5    1  0.1758480E-003  0.9118800E+02  0.7818608E-02  0.1130116E+00
         25   -1    0    0    0    0  0.00000000000E+00  0.00000000000E+00  0.99999998245E-14  0.12500000000E+03  0.12500000000E+03 0.  0.
        -13    1    3    3    0    0 -0.79878197647E+01  0.17194506915E+02 -0.59086206875E+02  0.62053584421E+02  0.10566000000E+00 0.  1.
         23    2    1    0    0    0 -0.27811921580E+01  0.78761712465E+01 -0.41826317032E+02  0.82347803107E+02  0.70441115670E+02 0.  0.
         13    1    3    3    0    0  0.52066276067E+01 -0.93183356686E+01  0.17259889842E+02  0.20294218686E+02  0.10566000000E+00 0. -1.
         22    1    1    0    0    0  0.27811921580E+01 -0.78761712465E+01  0.41826317032E+02  0.42652196893E+02  0.00000000000E+00 0.  1.
</event>
<event>
 5    1  0.1758480E-003  0.9118800E+02  0.7818608E-02  0.1130116E+00
         25   -1    0    0    0    0  0.00000000000E+00  0.00000000000E+00  0.99999998245E-14  0.12500000000E+03  0.12500000000E+03 0.  0.
        -13    1    3    3    0    0  0.47099014573E+02  0.30178996497E+02 -0.23330768244E+02  0.60608785783E+02  0.10566000000E+00 0.  1.
         23    2    1    0    0    0  0.19635541356E+02  0.18053619302E+02 -0.50603180409E+00  0.98321474508E+02  0.94632809463E+02 0.  0.
         13    1    3    3    0    0 -0.27463473217E+02 -0.12125377194E+02  0.22824736440E+02  0.37712688724E+02  0.10566000000E+00 0. -1.
         22    1    1    0    0    0 -0.19635541356E+02 -0.18053619302E+02  0.50603180409E+00  0.26678525492E+02  0.00000000000E+00 0.  1.
</event>
<event>
 5    1  0.1758480E-003  0.9118800E+02  0.7818608E-02  0.1130116E+00
         25   -1    0    0    0    0  0.00000000000E+00  0.00000000000E+00  0.99999998245E-14  0.12500000000E+03  0.12500000000E+03 0.  0.
        -13    1    3    3    0    0 -0.15027536084E+02  0.49427949549E+02 -0.31988323512E+02  0.60763583194E+02  0.10566000000E+00 0.  1.
         23    2    1    0    0    0  0.20434076245E+01  0.27760852911E+02 -0.12821655022E+02  0.94353053878E+02  0.89237119348E+02 0.  0.
         13    1    3    3    0    0  0.17070943708E+02 -0.21667096638E+02  0.19166668490E+02  0.33589470684E+02  0.10566000000E+00 0. -1.
         22    1    1    0    0    0 -0.20434076245E+01 -0.27760852911E+02  0.12821655022E+02  0.30646946122E+02  0.00000000000E+00 0.  1.
</event>
<event>
 5    1  0.1758480E-003  0.9118800E+02  0.7818608E-02  0.1130116E+00
         25   -1    0    0    0    0  0.00000000000E+00  0.00000000000E+00  0.99999998245E-14  0.12500000000E+03  0.12500000000E+03 0.  0.
        -13    1    3    3    0    0  0.70479755242E+01  0.11413085943E+02 -0.42838811789E+02  0.44889948198E+02  0.10566000000E+00 0.  1.
         23    2    1    0    0    0 -0.10569175393E+02 -0.24733657672E+02 -0.12090465829E+02  0.95510329702E+02  0.90843725296E+02 0.  0.
         13    1    3    3    0    0 -0.17617150917E+02 -0.36146743614E+02  0.30748345960E+02  0.50620381504E+02  0.10566000000E+00 0. -1.
         22    1    1    0    0    0  0.10569175393E+02  0.24733657672E+02  0.12090465829E+02  0.29489670298E+02  0.00000000000E+00 0. -1.
</event>
<event>
 5    1  0.1758480E-003  0.9118800E+02  0.7818608E-02  0.1130116E+00
         25   -1    0    0    0    0  0.00000000000E+00  0.00000000000E+00  0.99999998245E-14  0.12500000000E+03  0.12500000000E+03 0.  0.
        -13    1    3    3    0    0 -0.54361866024E+01 -0.34216474588E+02 -0.47888389283E+02  0.59106922185E+02  0.10566000000E+00 0.  1.
         23    2    1    0    0    0 -0.64067484921E+01 -0.85111852529E+01 -0.36021918742E+02  0.87435850462E+02  0.78955447029E+02 0.  0.
         13    1    3    3    0    0 -0.97056188962E+00  0.25705289335E+02  0.11866470542E+02  0.28328928277E+02  0.10566000000E+00 0. -1.
         22    1    1    0    0    0  0.64067484921E+01  0.85111852529E+01  0.36021918742E+02  0.37564149538E+02  0.00000000000E+00 0.  1.
</event>
<event>
 5    1  0.1758480E-003  0.9118800E+02  0.7818608E-02  0.1130116E+00
         25   -1    0    0    0    0  0.00000000000E+00  0.00000000000E+00  0.99999998245E-14  0.12500000000E+03  0.12500000000E+03 0.  0.
        -13    1    3    3    0    0  0.25794324552E+02 -0.12015807260E+02  0.14007605413E+02  0.31716730233E+02  0.10566000000E+00 0.  1.
         23    2    1    0    0    0 -0.29365141039E+02  0.58827540622E+01 -0.84151138141E+01  0.93891601711E+02  0.88588376369E+02 0.  0.
         13    1    3    3    0    0 -0.55159465591E+02  0.17898561322E+02 -0.22422719227E+02  0.62174871478E+02  0.10566000000E+00 0. -1.
         22    1    1    0    0    0  0.29365141039E+02 -0.58827540622E+01  0.84151138141E+01  0.31108398289E+02  0.00000000000E+00 0. -1.
</event>
<event>
 5    1  0.1758480E-003  0.9118800E+02  0.7818608E-02  0.1130116E+00
         25   -1    0    0    0    0  0.00000000000E+00  0.00000000000E+00  0.99999998245E-14  0.12500000000E+03  0.12500000000E+03 0.  0.
        -13    1    3    3    0    0  0.14373259434E+01 -0.39310340405E+02  0.40155736547E+02  0.56212659698E+02  0.10566000000E+00 0. -1.
         23    2    1    0    0    0  0.14214974223E+02 -0.23910297413E+02  0.48950973254E+01  0.96755889244E+02  0.92541732808E+02 0.  0.
         13    1    3    3    0    0  0.12777648280E+02  0.15400042992E+02 -0.35260639222E+02  0.40543229547E+02  0.10566000000E+00 0.  1.
         22    1    1    0    0    0 -0.14214974223E+02  0.23910297413E+02 -0.48950973254E+01  0.28244110756E+02  0.00000000000E+00 0. -1.
</event>
<event>
 5    1  0.1758480E-003  0.9118800E+02  0.7818608E-02  0.1130116E+00
         25   -1    0    0    0    0  0.00000000000E+00  0.00000000000E+00  0.99999998245E-14  0.12500000000E+03  0.12500000000E+03 0.  0.
        -13    1    3    3    0    0  0.60336140699E+01  0.56555386880E+02  0.22405018176E+02  0.61130289443E+02  0.10566000000E+00 0. -1.
         23    2    1    0    0    0  0.11780597940E+02  0.24987540988E+02  0.85388463619E+01  0.96085097447E+02  0.91631186622E+02 0.  0.
         13    1    3    3    0    0  0.57469838696E+01 -0.31567845891E+02 -0.13866171814E+02  0.34954808004E+02  0.10566000000E+00 0.  1.
         22    1    1    0    0    0 -0.11780597940E+02 -0.24987540988E+02 -0.85388463619E+01  0.28914902553E+02  0.00000000000E+00 0. -1.
</event>
<event>
 5    1  0.1758480E-003  0.9118800E+02  0.7818608E-02  0.1130116E+00
         25   -1    0    0    0    0  0.00000000000E+00  0.00000000000E+00  0.99999998245E-14  0.12500000000E+03  0.12500000000E+03 0.  0.
        -13    1    3    3    0    0  0.15453721587E+02  0.40007760661E+02  0.44786149547E+02  0.62010069983E+02  0.10566000000E+00 0. -1.
         23    2    1    0    0    0  0.87559641593E+01  0.25517961981E+02  0.20312225497E+02  0.91229897888E+02  0.84749480659E+02 0.  0.
         13    1    3    3    0    0 -0.66977574279E+01 -0.14489798680E+02 -0.24473924050E+02  0.29219827905E+02  0.10566000000E+00 0.  1.
         22    1    1    0    0    0 -0.87559641593E+01 -0.25517961981E+02 -0.20312225497E+02  0.33770102112E+02  0.00000000000E+00 0. -1.
</event>
<event>
 5    1  0.1758480E-003  0.9118800E+02  0.7818608E-02  0.1130116E+00
         25   -1    0    0    0    0  0.00000000000E+00  0.00000000000E+00  0.99999998245E-14  0.12500000000E+03  0.12500000000E+03 0.  0.
        -13    1    3    3    0    0  0.12248258939E+01 -0.39857006229E+02 -0.40128225789E+01  0.40077363350E+02  0.10566000000E+00 0. -1.
         23    2    1    0    0    0  0.27791413132E+02  0.44440778417E+01  0.12352444883E+02  0.94264102969E+02  0.89112433152E+02 0.  0.
         13    1    3    3    0    0  0.26566587238E+02  0.44301084071E+02  0.16365267462E+02  0.54186739618E+02  0.10566000000E+00 0.  1.
         22    1    1    0    0    0 -0.27791413132E+02 -0.44440778417E+01 -0.12352444883E+02  0.30735897031E+02  0.00000000000E+00 0.  1.
</event>
<event>
 5    1  0.1758480E-003  0.9118800E+02  0.7818608E-02  0.1130116E+00
         25   -1    0    0    0    0  0.00000000000E+00  0.00000000000E+00  0.99999998245E-14  0.12500000000E+03  0.12500000000E+03 0.  0.
        -13    1    3    3    0    0 -0.13396251219E+02  0.10219042137E+02  0.59520323057E+02  0.61859262765E+02  0.10566000000E+00 0. -1.
         23    2    1    0    0    0 -0.10252212830E+02  0.12709661429E+02  0.39858734717E+02  0.81926085681E+02  0.69688746725E+02 0.  0.
         13    1    3    3    0    0  0.31440383889E+01  0.24906192924E+01 -0.19661588340E+02  0.20066822916E+02  0.10566000000E+00 0.  1.
         22    1    1    0    0    0  0.10252212830E+02 -0.12709661429E+02 -0.39858734717E+02  0.43073914319E+02  0.00000000000E+00 0. -1.
</event>
<event>
 5    1  0.1758480E-003  0.9118800E+02  0.7818608E-02  0.1130116E+00
         25   -1    0    0    0    0  0.00000000000E+00  0.00000000000E+00  0.99999998245E-14  0.12500000000E+03  0.12500000000E+03 0.  0.
        -13    1    3    3    0    0 -0.33126816226E+02 -0.12742446729E+02 -0.20653260323E+01  0.35553236668E+02  0.10566000000E+00 0. -1.
         23    2    1    0    0    0  0.26564663994E+02 -0.13105493181E+02 -0.27619577699E+01  0.95249979238E+02  0.90484776672E+02 0.  0.
         13    1    3    3    0    0  0.59691480220E+02 -0.36304645218E+00 -0.69663173757E+00  0.59696742570E+02  0.10566000000E+00 0.  1.
         22    1    1    0    0    0 -0.26564663994E+02  0.13105493181E+02  0.27619577699E+01  0.29750020762E+02  0.00000000000E+00 0.  1.
</event>
<event>
 5    1  0.1758480E-003  0.9118800E+02  0.7818608E-02  0.1130116E+00
         25   -1    0    0    0    0  0.00000000000E+00  0.00000000000E+00  0.99999998245E-14  0.12500000000E+03  0.12500000000E+03 0.  0.
        -13    1    3    3    0    0 -0.37890896412E+02 -0.34329211551E+01  0.32039577187E+02  0.49739829603E+02  0.10566000000E+00 0. -1.
         23    2    1    0    0    0 -0.10199231684E+02  0.25852252751E+02  0.13456547081E+02  0.94122144528E+02  0.88913081894E+02 0.  0.
         13    1    3    3    0    0  0.27691664728E+02  0.29285173906E+02 -0.18583030106E+02  0.44382314925E+02  0.10566000000E+00 0.  1.
         22    1    1    0    0    0  0.10199231684E+02 -0.25852252751E+02 -0.13456547081E+02  0.30877855472E+02  0.00000000000E+00 0. -1.
</event>
<event>
 5    1  0.1758480E-003  0.9118800E+02  0.7818608E-02  0.1130116E+00
         25   -1    0    0    0    0  0.00000000000E+00  0.00000000000E+00  0.99999998245E-14  0.12500000000E+03  0.12500000000E+03 0.  0.
        -13    1    3    3    0    0  0.30315035595E+02 -0.23194444984E+02 -0.27986730326E+02  0.47331299365E+02  0.10566000000E+00 0.  1.
         23    2    1    0    0    0 -0.15220835825E+02 -0.63785695667E+01 -0.23779197018E+02  0.96055048734E+02  0.91590186066E+02 0.  0.
         13    1    3    3    0    0 -0.45535871420E+02  0.16815875417E+02  0.42075333076E+01  0.48723749369E+02  0.10566000000E+00 0. -1.
         22    1    1    0    0    0  0.15220835825E+02  0.63785695667E+01  0.23779197018E+02  0.28944951266E+02  0.00000000000E+00 0. -1.
</event>
<event>
 5    1  0.1758480E-003  0.9118800E+02  0.7818608E-02  0.1130116E+00
         25   -1    0    0    0    0  0.00000000000E+00  0.00000000000E+00  0.99999998245E-14  0.12500000000E+03  0.12500000000E+03 0.  0.
        -13    1    3    3    0    0  0.12547177185E+02 -0.35604716317E+02 -0.21193552045E+02  0.43293247645E+02  0.10566000000E+00 0.  1.
         23    2    1    0    0    0  0.35195366836E+01  0.17931287473E+02 -0.20429383381E+02  0.97590550640E+02  0.93662359889E+02 0.  0.
         13    1    3    3    0    0 -0.90276405013E+01  0.53536003790E+02  0.76416866428E+00  0.54297302995E+02  0.10566000000E+00 0. -1.
         22    1    1    0    0    0 -0.35195366836E+01 -0.17931287473E+02  0.20429383381E+02  0.27409449360E+02  0.00000000000E+00 0. -1.
</event>
<event>
 5    1  0.1758480E-003  0.9118800E+02  0.7818608E-02  0.1130116E+00
         25   -1    0    0    0    0  0.00000000000E+00  0.00000000000E+00  0.99999998245E-14  0.12500000000E+03  0.12500000000E+03 0.  0.
        -13    1    3    3    0    0 -0.27165760700E+02  0.23862932532E+02  0.45045422444E+02  0.57762612049E+02  0.10566000000E+00 0.  1.
         23    2    1    0    0    0 -0.24293560010E+02  0.21652060593E+01  0.10981983709E+02  0.98251745077E+02  0.94540659344E+02 0.  0.
         13    1    3    3    0    0  0.28722006904E+01 -0.21697726472E+02 -0.34063438735E+02  0.40489133029E+02  0.10566000000E+00 0. -1.
         22    1    1    0    0    0  0.24293560010E+02 -0.21652060593E+01 -0.10981983709E+02  0.26748254923E+02  0.00000000000E+00 0.  1.
</event>
<event>
 5    1  0.1758480E-003  0.9118800E+02  0.7818608E-02  0.1130116E+00
         25   -1    0    0    0    0  0.00000000000E+00  0.00000000000E+00  0.99999998245E-14  0.12500000000E+03  0.12500000000E+03 0.  0.
        -13    1    3    3    0    0  0.48132419714E+02  0.74020682205E+01 -0.16299552560E+02  0.51353743964E+02  0.10566000000E+00 0. -1.
         23    2    1    0    0    0  0.11307441362E+02  0.27070509669E+02 -0.11928530993E+02  0.93330447184E+02  0.87793005393E+02 0.  0.
         13    1    3    3    0    0 -0.36824978351E+02  0.19668441449E+02  0.43710215665E+01  0.41976703220E+02  0.10566000000E+00 0.  1.
         22    1    1    0    0    0 -0.11307441362E+02 -0.27070509669E+02  0.11928530993E+02  0.31669552816E+02  0.00000000000E+00 0.  1.
</event>
<event>
 5    1  0.1758480E-003  0.9118800E+02  0.7818608E-02  0.1130116E+00
         25   -1    0    0    0    0  0.00000000000E+00  0.00000000000E+00  0.99999998245E-14  0.12500000000E+03  0.12500000000E+03 0.  0.
        -13    1    3    3    0    0  0.36606664968E+01  0.20000636688E+02  0.36131267913E+02  0.41459686831E+02  0.10566000000E+00 0. -1.
         23    2    1    0    0    0  0.23303500393E+02  0.20590743674E+02 -0.10592711517E+02  0.92148251296E+02  0.86093337861E+02 0.  0.
         13    1    3    3    0    0  0.19642833896E+02  0.59010698648E+00 -0.46723979430E+02  0.50688564465E+02  0.10566000000E+00 0.  1.
         22    1    1    0    0    0 -0.23303500393E+02 -0.20590743674E+02  0.10592711517E+02  0.32851748704E+02  0.00000000000E+00 0. -1.
</event>
<event>
 5    1  0.1758480E-003  0.9118800E+02  0.7818608E-02  0.1130116E+00
         25   -1    0    0    0    0  0.00000000000E+00  0.00000000000E+00  0.99999998245E-14  0.12500000000E+03  0.12500000000E+03 0.  0.
        -13    1    3    3    0    0  0.57420992189E+02  0.13711876337E+02 -0.41137456737E+01  0.59178712085E+02  0.10566000000E+00 0. -1.
         23    2    1    0    0    0  0.21381945683E+02  0.19561936351E+02  0.73632392939E+00  0.96010361714E+02  0.91529178018E+02 0.  0.
         13    1    3    3    0    0 -0.36039046505E+02  0.58500600146E+01  0.48500696031E+01  0.36831649629E+02  0.10566000000E+00 0.  1.
         22    1    1    0    0    0 -0.21381945683E+02 -0.19561936351E+02 -0.73632392939E+00  0.28989638286E+02  0.00000000000E+00 0. -1.
</event>
<event>
 5    1  0.1758480E-003  0.9118800E+02  0.7818608E-02  0.1130116E+00
         25   -1    0    0    0    0  0.00000000000E+00  0.00000000000E+00  0.99999998245E-14  0.12500000000E+03  0.12500000000E+03 0.  0.
        -13    1    3    3    0    0 -0.52358419170E+02 -0.10268184495E+02  0.16595547970E+02  0.55877214026E+02  0.10566000000E+00 0.  1.
         23    2    1    0    0    0 -0.19863136002E+02 -0.22334095569E+02 -0.16811969923E+01  0.95063693948E+02  0.90227066267E+02 0.  0.
         13    1    3    3    0    0  0.32495283169E+02 -0.12065911074E+02 -0.18276744963E+02  0.39186479922E+02  0.10566000000E+00 0. -1.
         22    1    1    0    0    0  0.19863136002E+02  0.22334095569E+02  0.16811969923E+01  0.29936306052E+02  0.00000000000E+00 0.  1.
</event>
<event>
 5    1  0.1758480E-003  0.9118800E+02  0.7818608E-02  0.1130116E+00
         25   -1    0    0    0    0  0.00000000000E+00  0.00000000000E+00  0.99999998245E-14  0.12500000000E+03  0.12500000000E+03 0.  0.
        -13    1    3    3    0    0 -0.41270217634E+02 -0.33979740821E+02 -0.15996326500E+01  0.53482928477E+02  0.10566000000E+00 0.  1.
         23    2    1    0    0    0 -0.23071705783E+02 -0.18371616450E+01  0.18350469367E+02  0.95463268688E+02  0.90778946744E+02 0.  0.
         13    1    3    3    0    0  0.18198511852E+02  0.32142579176E+02  0.19950102017E+02  0.41980340211E+02  0.10566000000E+00 0. -1.
         22    1    1    0    0    0  0.23071705783E+02  0.18371616450E+01 -0.18350469367E+02  0.29536731312E+02  0.00000000000E+00 0.  1.
</event>
<event>
 5    1  0.1758480E-003  0.9118800E+02  0.7818608E-02  0.1130116E+00
         25   -1    0    0    0    0  0.00000000000E+00  0.00000000000E+00  0.99999998245E-14  0.12500000000E+03  0.12500000000E+03 0.  0.
        -13    1    3    3    0    0 -0.95427201730E+01 -0.54602424604E+02  0.28256522947E+02  0.62216802667E+02  0.10566000000E+00 0.  1.
         23    2    1    0    0    0 -0.91466965360E+01 -0.27930666045E+02  0.14836792619E+02  0.92077142007E+02  0.85990031409E+02 0.  0.
         13    1    3    3    0    0  0.39602363702E+00  0.26671758560E+02 -0.13419730328E+02  0.29860339340E+02  0.10566000000E+00 0. -1.
         22    1    1    0    0    0  0.91466965360E+01  0.27930666045E+02 -0.14836792619E+02  0.32922857993E+02  0.00000000000E+00 0.  1.
</event>
<event>
 5    1  0.1758480E-003  0.9118800E+02  0.7818608E-02  0.1130116E+00
         25   -1    0    0    0    0  0.00000000000E+00  0.00000000000E+00  0.99999998245E-14  0.12500000000E+03  0.12500000000E+03 0.  0.
        -13    1    3    3    0    0 -0.23901444772E+02 -0.59846997269E+01 -0.26832605628E+02  0.36429323104E+02  0.10566000000E+00 0.  1.
         23    2    1    0    0    0 -0.38514959985E+01  0.52391687736E+01  0.28196661302E+02  0.96063265225E+02  0.91601399041E+02 0.  0.
         13    1    3    3    0    0  0.20049948773E+02  0.11223868501E+02  0.55029266930E+02  0.59633942121E+02  0.10566000000E+00 0. -1.
         22    1    1    0    0    0  0.38514959985E+01 -0.52391687736E+01 -0.28196661302E+02  0.28936734775E+02  0.00000000000E+00 0. -1.
</event>
<event>
 5    1  0.1758480E-003  0.9118800E+02  0.7818608E-02  0.1130116E+00
         25   -1    0    0    0    0  0.00000000000E+00  0.00000000000E+00  0.99999998245E-14  0.12500000000E+03  0.12500000000E+03 0.  0.
        -13    1    3    3    0    0  0.27428067773E+02  0.27520860717E+02 -0.26264971145E+02  0.46899430164E+02  0.10566000000E+00 0.  1.
         23    2    1    0    0    0 -0.17355066343E+02  0.22547991016E+02 -0.89224136364E+01  0.95180213083E+02  0.90388346986E+02 0.  0.
         13    1    3    3    0    0 -0.44783134116E+02 -0.49728697010E+01  0.17342557509E+02  0.48280782920E+02  0.10566000000E+00 0. -1.
         22    1    1    0    0    0  0.17355066343E+02 -0.22547991016E+02  0.89224136364E+01  0.29819786917E+02  0.00000000000E+00 0.  1.
</event>
<event>
 5    1  0.1758480E-003  0.9118800E+02  0.7818608E-02  0.1130116E+00
         25   -1    0    0    0    0  0.00000000000E+00  0.00000000000E+00  0.99999998245E-14  0.12500000000E+03  0.12500000000E+03 0.  0.
        -13    1    3    3    0    0 -0.58851294115E+02  0.28979531318E+01  0.11817179673E+01  0.58934544817E+02  0.10566000000E+00 0.  1.
         23    2    1    0    0    0 -0.26246137995E+02 -0.10579365437E+02 -0.83780558885E+01  0.95487721993E+02  0.90812612000E+02 0.  0.
         13    1    3    3    0    0  0.32605156121E+02 -0.13477318569E+02 -0.95597738558E+01  0.36553177176E+02  0.10566000000E+00 0. -1.
         22    1    1    0    0    0  0.26246137995E+02  0.10579365437E+02  0.83780558885E+01  0.29512278007E+02  0.00000000000E+00 0.  1.
</event>
<event>
 5    1  0.1758480E-003  0.9118800E+02  0.7818608E-02  0.1130116E+00
         25   -1    0    0    0    0  0.00000000000E+00  0.00000000000E+00  0.99999998245E-14  0.12500000000E+03  0.12500000000E+03 0.  0.
        -13    1    3    3    0    0 -0.73551352496E+01  0.58237856492E+01  0.33648636742E+02  0.34932168734E+02  0.10566000000E+00 0. -1.
         23    2    1    0    0    0 -0.54876310306E+01  0.50649983491E+01 -0.27698474847E+02  0.96312479865E+02  0.91940850368E+02 0.  0.
         13    1    3    3    0    0  0.18675042190E+01 -0.75878730013E+00 -0.61347111589E+02  0.61380311131E+02  0.10566000000E+00 0.  1.
         22    1    1    0    0    0  0.54876310306E+01 -0.50649983491E+01  0.27698474847E+02  0.28687520135E+02  0.00000000000E+00 0.  1.
</event>
<event>
 5    1  0.1758480E-003  0.9118800E+02  0.7818608E-02  0.1130116E+00
         25   -1    0    0    0    0  0.00000000000E+00  0.00000000000E+00  0.99999998245E-14  0.12500000000E+03  0.12500000000E+03 0.  0.
        -13    1    3    3    0    0 -0.23216443244E+02 -0.85370952797E+01  0.28503372009E+02  0.37740410870E+02  0.10566000000E+00 0. -1.
         23    2    1    0    0    0  0.28530801319E+02  0.50432238240E+01  0.99161762381E+01  0.94376948525E+02  0.89270583796E+02 0.  0.
         13    1    3    3    0    0  0.51747244563E+02  0.13580319104E+02 -0.18587195771E+02  0.56636537655E+02  0.10566000000E+00 0.  1.
         22    1    1    0    0    0 -0.28530801319E+02 -0.50432238240E+01 -0.99161762381E+01  0.30623051475E+02  0.00000000000E+00 0.  1.
</event>
<event>
 5    1  0.1758480E-003  0.9118800E+02  0.7818608E-02  0.1130116E+00
         25   -1    0    0    0    0  0.00000000000E+00  0.00000000000E+00  0.99999998245E-14  0.12500000000E+03  0.12500000000E+03 0.  0.
        -13    1    3    3    0    0 -0.13806206955E+02 -0.24537875508E+02  0.25050798745E+02  0.37686501121E+02  0.10566000000E+00 0. -1.
         23    2    1    0    0    0  0.25634392560E+02  0.11152555919E+02 -0.12320842701E+01  0.97017512314E+02  0.92894445897E+02 0.  0.
         13    1    3    3    0    0  0.39440599515E+02  0.35690431427E+02 -0.26282883015E+02  0.59331011193E+02  0.10566000000E+00 0.  1.
         22    1    1    0    0    0 -0.25634392560E+02 -0.11152555919E+02  0.12320842701E+01  0.27982487686E+02  0.00000000000E+00 0.  1.
</event>
<event>
 5    1  0.1758480E-003  0.9118800E+02  0.7818608E-02  0.1130116E+00
         25   -1    0    0    0    0  0.00000000000E+00  0.00000000000E+00  0.99999998245E-14  0.12500000000E+03  0.12500000000E+03 0.  0.
        -13    1    3    3    0    0  0.10923044927E+02  0.24519103697E+02 -0.23422562509E+02  0.35624808141E+02  0.10566000000E+00 0.  1.
         23    2    1    0    0    0 -0.20190318685E+02 -0.20992710214E+02  0.84801680513E+00  0.95861331821E+02  0.91325423379E+02 0.  0.
         13    1    3    3    0    0 -0.31113363612E+02 -0.45511813911E+02  0.24270579314E+02  0.60236523680E+02  0.10566000000E+00 0. -1.
         22    1    1    0    0    0  0.20190318685E+02  0.20992710214E+02 -0.84801680513E+00  0.29138668179E+02  0.00000000000E+00 0. -1.
</event>
<event>
 5    1  0.1758480E-003  0.9118800E+02  0.7818608E-02  0.1130116E+00
         25   -1    0    0    0    0  0.00000000000E+00  0.00000000000E+00  0.99999998245E-14  0.12500000000E+03  0.12500000000E+03 0.  0.
        -13    1    3    3    0    0  0.17058341145E+02 -0.43169635054E+02  0.18530903141E+02  0.49980095324E+02  0.10566000000E+00 0. -1.
         23    2    1    0    0    0  0.26040098517E+02  0.19113799339E+01  0.11450616047E+02  0.96489357919E+02  0.92181014747E+02 0.  0.
         13    1    3    3    0    0  0.89817573719E+01  0.45081014988E+02 -0.70802870940E+01  0.46509262596E+02  0.10566000000E+00 0.  1.
         22    1    1    0    0    0 -0.26040098517E+02 -0.19113799339E+01 -0.11450616047E+02  0.28510642081E+02  0.00000000000E+00 0.  1.
</event>
<event>
 5    1  0.1758480E-003  0.9118800E+02  0.7818608E-02  0.1130116E+00
         25   -1    0    0    0    0  0.00000000000E+00  0.00000000000E+00  0.99999998245E-14  0.12500000000E+03  0.12500000000E+03 0.  0.
        -13    1    3    3    0    0  0.49950869771E+01 -0.28884938427E+02 -0.13750230841E+02  0.32378551142E+02  0.10566000000E+00 0.  1.
         23    2    1    0    0    0 -0.21948553464E+02  0.22333312240E+02  0.51638663392E+01  0.93263879406E+02  0.87698174733E+02 0.  0.
         13    1    3    3    0    0 -0.26943640441E+02  0.51218250667E+02  0.18914097180E+02  0.60885328264E+02  0.10566000000E+00 0. -1.
         22    1    1    0    0    0  0.21948553464E+02 -0.22333312240E+02 -0.51638663392E+01  0.31736120594E+02  0.00000000000E+00 0. -1.
</event>
<event>
 5    1  0.1758480E-003  0.9118800E+02  0.7818608E-02  0.1130116E+00
         25   -1    0    0    0    0  0.00000000000E+00  0.00000000000E+00  0.99999998245E-14  0.12500000000E+03  0.12500000000E+03 0.  0.
        -13    1    3    3    0    0 -0.22100098215E+02 -0.47952598597E+02  0.31703922404E+01  0.52895449751E+02  0.10566000000E+00 0. -1.
         23    2    1    0    0    0 -0.16175030296E+02 -0.11614650705E+02 -0.20304528437E+02  0.96560492425E+02  0.92277424683E+02 0.  0.
         13    1    3    3    0    0  0.59250679191E+01  0.36337947892E+02 -0.23474920677E+02  0.43665042674E+02  0.10566000000E+00 0.  1.
         22    1    1    0    0    0  0.16175030296E+02  0.11614650705E+02  0.20304528437E+02  0.28439507575E+02  0.00000000000E+00 0. -1.
</event>
<event>
 5    1  0.1758480E-003  0.9118800E+02  0.7818608E-02  0.1130116E+00
         25   -1    0    0    0    0  0.00000000000E+00  0.00000000000E+00  0.99999998245E-14  0.12500000000E+03  0.12500000000E+03 0.  0.
        -13    1    3    3    0    0 -0.30148266632E+02  0.30587281482E+02  0.15702065524E+02  0.45728172882E+02  0.10566000000E+00 0.  1.
         23    2    1    0    0    0  0.97266966848E+01  0.48024041266E+01  0.28161788339E+02  0.94821232029E+02  0.89890533469E+02 0.  0.
         13    1    3    3    0    0  0.39874963317E+02 -0.25784877355E+02  0.12459722815E+02  0.49093059147E+02  0.10566000000E+00 0. -1.
         22    1    1    0    0    0 -0.97266966848E+01 -0.48024041266E+01 -0.28161788339E+02  0.30178767971E+02  0.00000000000E+00 0. -1.
</event>
<event>
 5    1  0.1758480E-003  0.9118800E+02  0.7818608E-02  0.1130116E+00
         25   -1    0    0    0    0  0.00000000000E+00  0.00000000000E+00  0.99999998245E-14  0.12500000000E+03  0.12500000000E+03 0.  0.
        -13    1    3    3    0    0  0.25850880703E+02  0.40457920686E+02  0.36326019978E+02  0.60205500337E+02  0.10566000000E+00 0.  1.
         23    2    1    0    0    0  0.18110883504E+02  0.21585212364E+02  0.69335997373E+01  0.95982758583E+02  0.91491473077E+02 0.  0.
         13    1    3    3    0    0 -0.77399971982E+01 -0.18872708322E+02 -0.29392420241E+02  0.35777258247E+02  0.10566000000E+00 0. -1.
         22    1    1    0    0    0 -0.18110883504E+02 -0.21585212364E+02 -0.69335997373E+01  0.29017241417E+02  0.00000000000E+00 0.  1.
</event>
<event>
 5    1  0.1758480E-003  0.9118800E+02  0.7818608E-02  0.1130116E+00
         25   -1    0    0    0    0  0.00000000000E+00  0.00000000000E+00  0.99999998245E-14  0.12500000000E+03  0.12500000000E+03 0.  0.
        -13    1    3    3    0    0  0.47471489184E+02 -0.10504623142E+02 -0.28174587063E+01  0.48701525955E+02  0.10566000000E+00 0. -1.
         23    2    1    0    0    0  0.88242278479E+01 -0.96383206564E+01  0.25314676823E+02  0.96511456955E+02  0.92210976780E+02 0.  0.
         13    1    3    3    0    0 -0.38647261336E+02  0.86630248549E+00  0.28132135529E+02  0.47809931000E+02  0.10566000000E+00 0.  1.
         22    1    1    0    0    0 -0.88242278479E+01  0.96383206564E+01 -0.25314676823E+02  0.28488543045E+02  0.00000000000E+00 0.  1.
</event>
<event>
 5    1  0.1758480E-003  0.9118800E+02  0.7818608E-02  0.1130116E+00
         25   -1    0    0    0    0  0.00000000000E+00  0.00000000000E+00  0.99999998245E-14  0.12500000000E+03  0.12500000000E+03 0.  0.
        -13    1    3    3    0    0  0.43881763469E+02 -0.28912603762E+01  0.24495726273E+02  0.50339053640E+02  0.10566000000E+00 0. -1.
         23    2    1    0    0    0  0.97183456197E+01  0.24745627420E+02  0.92492478004E+01  0.96851449365E+02  0.92670719978E+02 0.  0.
         13    1    3    3    0    0 -0.34163417849E+02  0.27636887796E+02 -0.15246478472E+02  0.46512395725E+02  0.10566000000E+00 0.  1.
         22    1    1    0    0    0 -0.97183456197E+01 -0.24745627420E+02 -0.92492478004E+01  0.28148550635E+02  0.00000000000E+00 0. -1.
</event>
<event>
 5    1  0.1758480E-003  0.9118800E+02  0.7818608E-02  0.1130116E+00
         25   -1    0    0    0    0  0.00000000000E+00  0.00000000000E+00  0.99999998245E-14  0.12500000000E+03  0.12500000000E+03 0.  0.
        -13    1    3    3    0    0  0.42610300567E+02 -0.17477137022E+02  0.99940423491E+01  0.47127275323E+02  0.10566000000E+00 0.  1.
         23    2    1    0    0    0 -0.64677735214E+01 -0.25517579566E+02  0.99445634679E+01  0.96859756508E+02  0.92681924489E+02 0.  0.
         13    1    3    3    0    0 -0.49078074089E+02 -0.80404425445E+01 -0.49478881196E-01  0.49732481184E+02  0.10566000000E+00 0. -1.
         22    1    1    0    0    0  0.64677735214E+01  0.25517579566E+02 -0.99445634679E+01  0.28140243492E+02  0.00000000000E+00 0. -1.
</event>
<event>
 5    1  0.1758480E-003  0.9118800E+02  0.7818608E-02  0.1130116E+00
         25   -1    0    0    0    0  0.00000000000E+00  0.00000000000E+00  0.99999998245E-14  0.12500000000E+03  0.12500000000E+03 0.  0.
        -13    1    3    3    0    0  0.16320132394E+02  0.35312292915E+02  0.25021437144E+02  0.46253521304E+02  0.10566000000E+00 0.  1.
         23    2    1    0    0    0  0.25499111082E+02  0.37482049378E+01 -0.12682922008E+02  0.96275268201E+02  0.91890244588E+02 0.  0.
         13    1    3    3    0    0  0.91789786878E+01 -0.31564087977E+02 -0.37704359152E+02  0.50021746897E+02  0.10566000000E+00 0. -1.
         22    1    1    0    0    0 -0.25499111082E+02 -0.37482049378E+01  0.12682922008E+02  0.28724731799E+02  0.00000000000E+00 0. -1.
</event>
<event>
 5    1  0.1758480E-003  0.9118800E+02  0.7818608E-02  0.1130116E+00
         25   -1    0    0    0    0  0.00000000000E+00  0.00000000000E+00  0.99999998245E-14  0.12500000000E+03  0.12500000000E+03 0.  0.
        -13    1    3    3    0    0  0.16126077353E+02 -0.42048343995E+00 -0.41338844799E+02  0.44374975273E+02  0.10566000000E+00 0.  1.
         23    2    1    0    0    0  0.26291135173E+02  0.30211360911E+01  0.99142679008E+01  0.96739714086E+02  0.92519881763E+02 0.  0.
         13    1    3    3    0    0  0.10165057820E+02  0.34416195310E+01  0.51253112700E+02  0.52364738813E+02  0.10566000000E+00 0. -1.
         22    1    1    0    0    0 -0.26291135173E+02 -0.30211360911E+01 -0.99142679008E+01  0.28260285914E+02  0.00000000000E+00 0. -1.
</event>
<event>
 5    1  0.1758480E-003  0.9118800E+02  0.7818608E-02  0.1130116E+00
         25   -1    0    0    0    0  0.00000000000E+00  0.00000000000E+00  0.99999998245E-14  0.12500000000E+03  0.12500000000E+03 0.  0.
        -13    1    3    3    0    0  0.29429235873E+02  0.17227713221E+02  0.18362107139E+02  0.38730506962E+02  0.10566000000E+00 0.  1.
         23    2    1    0    0    0 -0.15683175371E+02 -0.17332773689E+02  0.17894845336E+02  0.95561716710E+02  0.90914405775E+02 0.  0.
         13    1    3    3    0    0 -0.45112411244E+02 -0.34560486910E+02 -0.46726180298E+00  0.56831209747E+02  0.10566000000E+00 0. -1.
         22    1    1    0    0    0  0.15683175371E+02  0.17332773689E+02 -0.17894845336E+02  0.29438283290E+02  0.00000000000E+00 0. -1.
</event>
<event>
 5    1  0.1758480E-003  0.9118800E+02  0.7818608E-02  0.1130116E+00
         25   -1    0    0    0    0  0.00000000000E+00  0.00000000000E+00  0.99999998245E-14  0.12500000000E+03  0.12500000000E+03 0.  0.
        -13    1    3    3    0    0  0.45887020555E+02 -0.12735126187E+02 -0.62552423609E+01  0.48030628931E+02  0.10566000000E+00 0. -1.
         23    2    1    0    0    0 -0.14012421912E+02 -0.55835178816E+01 -0.70249278464E+01  0.10836049126E+03  0.10707531375E+03 0.  0.
         13    1    3    3    0    0 -0.59899442467E+02  0.71516083055E+01 -0.76968548547E+00  0.60329862332E+02  0.10566000000E+00 0.  1.
         22    1    1    0    0    0  0.14012421912E+02  0.55835178816E+01  0.70249278464E+01  0.16639508737E+02  0.00000000000E+00 0.  1.
</event>
<event>
 5    1  0.1758480E-003  0.9118800E+02  0.7818608E-02  0.1130116E+00
         25   -1    0    0    0    0  0.00000000000E+00  0.00000000000E+00  0.99999998245E-14  0.12500000000E+03  0.12500000000E+03 0.  0.
        -13    1    3    3    0    0  0.10994680787E+01 -0.32994626482E+02  0.25771068971E+02  0.41880942763E+02  0.10566000000E+00 0. -1.
         23    2    1    0    0    0 -0.15641172793E+02 -0.17525523523E+02 -0.20731728817E+02  0.93669586009E+02  0.88274551839E+02 0.  0.
         13    1    3    3    0    0 -0.16740640871E+02  0.15469102959E+02 -0.46502797788E+02  0.51788643246E+02  0.10566000000E+00 0.  1.
         22    1    1    0    0    0  0.15641172793E+02  0.17525523523E+02  0.20731728817E+02  0.31330413991E+02  0.00000000000E+00 0.  1.
</event>
<event>
 5    1  0.1758480E-003  0.9118800E+02  0.7818608E-02  0.1130116E+00
         25   -1    0    0    0    0  0.00000000000E+00  0.00000000000E+00  0.99999998245E-14  0.12500000000E+03  0.12500000000E+03 0.  0.
        -13    1    3    3    0    0  0.53596427163E+02  0.12439199653E+02 -0.19512990140E+02  0.58378751622E+02  0.10566000000E+00 0.  1.
         23    2    1    0    0    0  0.26133616032E+02  0.71455282344E+01  0.71070084206E+01  0.96990465385E+02  0.92858044057E+02 0.  0.
         13    1    3    3    0    0 -0.27462811131E+02 -0.52936714183E+01  0.26619998561E+02  0.38611713763E+02  0.10566000000E+00 0. -1.
         22    1    1    0    0    0 -0.26133616032E+02 -0.71455282344E+01 -0.71070084206E+01  0.28009534615E+02  0.00000000000E+00 0.  1.
</event>
<event>
 5    1  0.1758480E-003  0.9118800E+02  0.7818608E-02  0.1130116E+00
         25   -1    0    0    0    0  0.00000000000E+00  0.00000000000E+00  0.99999998245E-14  0.12500000000E+03  0.12500000000E+03 0.  0.
        -13    1    3    3    0    0 -0.74205556291E+01  0.32695500656E+02  0.30885113841E+02  0.45584666611E+02  0.10566000000E+00 0. -1.
         23    2    1    0    0    0 -0.32272941887E+02  0.76947120991E+00  0.94920811564E+01  0.91351308069E+02  0.84928364033E+02 0.  0.
         13    1    3    3    0    0 -0.24852386258E+02 -0.31926029447E+02 -0.21393032684E+02  0.45766641459E+02  0.10566000000E+00 0.  1.
         22    1    1    0    0    0  0.32272941887E+02 -0.76947120991E+00 -0.94920811564E+01  0.33648691931E+02  0.00000000000E+00 0.  1.
</event>
<event>
 5    1  0.1758480E-003  0.9118800E+02  0.7818608E-02  0.1130116E+00
         25   -1    0    0    0    0  0.00000000000E+00  0.00000000000E+00  0.99999998245E-14  0.12500000000E+03  0.12500000000E+03 0.  0.
        -13    1    3    3    0    0  0.27175731328E+02  0.22860347034E+02 -0.22243825574E+02  0.41903636834E+02  0.10566000000E+00 0. -1.
         23    2    1    0    0    0 -0.12902205384E+02  0.20293438834E+02  0.14985309754E+02  0.96665390916E+02  0.92419412079E+02 0.  0.
         13    1    3    3    0    0 -0.40077936712E+02 -0.25669082001E+01  0.37229135328E+02  0.54761754082E+02  0.10566000000E+00 0.  1.
         22    1    1    0    0    0  0.12902205384E+02 -0.20293438834E+02 -0.14985309754E+02  0.28334609084E+02  0.00000000000E+00 0.  1.
</event>
<event>
 5    1  0.1758480E-003  0.9118800E+02  0.7818608E-02  0.1130116E+00
         25   -1    0    0    0    0  0.00000000000E+00  0.00000000000E+00  0.99999998245E-14  0.12500000000E+03  0.12500000000E+03 0.  0.
        -13    1    3    3    0    0 -0.29446429274E+01 -0.58931079083E+02 -0.68326282251E+01  0.59398981274E+02  0.10566000000E+00 0. -1.
         23    2    1    0    0    0  0.40140970067E+01 -0.23927813234E+02 -0.15608738423E+02  0.96150633697E+02  0.91720545268E+02 0.  0.
         13    1    3    3    0    0  0.69587399341E+01  0.35003265849E+02 -0.87761101983E+01  0.36751652423E+02  0.10566000000E+00 0.  1.
         22    1    1    0    0    0 -0.40140970067E+01  0.23927813234E+02  0.15608738423E+02  0.28849366303E+02  0.00000000000E+00 0. -1.
</event>
<event>
 5    1  0.1758480E-003  0.9118800E+02  0.7818608E-02  0.1130116E+00
         25   -1    0    0    0    0  0.00000000000E+00  0.00000000000E+00  0.99999998245E-14  0.12500000000E+03  0.12500000000E+03 0.  0.
        -13    1    3    3    0    0 -0.27693808859E+02 -0.47711867329E+01  0.33821690748E+02  0.43973050850E+02  0.10566000000E+00 0. -1.
         23    2    1    0    0    0  0.16778908602E+02 -0.16478546715E+02  0.24771279266E+02  0.90843147801E+02  0.84177116547E+02 0.  0.
         13    1    3    3    0    0  0.44472717461E+02 -0.11707359982E+02 -0.90504114819E+01  0.46870096951E+02  0.10566000000E+00 0.  1.
         22    1    1    0    0    0 -0.16778908602E+02  0.16478546715E+02 -0.24771279266E+02  0.34156852199E+02  0.00000000000E+00 0.  1.
</event>
<event>
 5    1  0.1758480E-003  0.9118800E+02  0.7818608E-02  0.1130116E+00
         25   -1    0    0    0    0  0.00000000000E+00  0.00000000000E+00  0.99999998245E-14  0.12500000000E+03  0.12500000000E+03 0.  0.
        -13    1    3    3    0    0  0.40978589178E+02 -0.27596479496E+02 -0.23211289534E+02  0.54585580307E+02  0.10566000000E+00 0.  1.
         23    2    1    0    0    0  0.30062881547E+02 -0.64613709626E+01  0.74193025823E+01  0.93368177219E+02  0.87846709129E+02 0.  0.
         13    1    3    3    0    0 -0.10915707632E+02  0.21135108534E+02  0.30630592116E+02  0.38782596912E+02  0.10566000000E+00 0. -1.
         22    1    1    0    0    0 -0.30062881547E+02  0.64613709626E+01 -0.74193025823E+01  0.31631822781E+02  0.00000000000E+00 0. -1.
</event>
<event>
 5    1  0.1758480E-003  0.9118800E+02  0.7818608E-02  0.1130116E+00
         25   -1    0    0    0    0  0.00000000000E+00  0.00000000000E+00  0.99999998245E-14  0.12500000000E+03  0.12500000000E+03 0.  0.
        -13    1    3    3    0    0  0.37513508888E+02 -0.12915950219E+02  0.15542751639E+02  0.42610719446E+02  0.10566000000E+00 0.  1.
         23    2    1    0    0    0 -0.28339212806E+01 -0.27314728110E+02 -0.13532458464E+02  0.94385413385E+02  0.89282435822E+02 0.  0.
         13    1    3    3    0    0 -0.40347430168E+02 -0.14398777891E+02 -0.29075210103E+02  0.51774693939E+02  0.10566000000E+00 0. -1.
         22    1    1    0    0    0  0.28339212806E+01  0.27314728110E+02  0.13532458464E+02  0.30614586615E+02  0.00000000000E+00 0. -1.
</event>
<event>
 5    1  0.1758480E-003  0.9118800E+02  0.7818608E-02  0.1130116E+00
         25   -1    0    0    0    0  0.00000000000E+00  0.00000000000E+00  0.99999998245E-14  0.12500000000E+03  0.12500000000E+03 0.  0.
        -13    1    3    3    0    0  0.39030692913E+02  0.13258480308E+02 -0.46097920762E+02  0.61840211448E+02  0.10566000000E+00 0. -1.
         23    2    1    0    0    0  0.13229336385E+02  0.50857486892E+01 -0.25402869260E+02  0.95910724527E+02  0.91393003735E+02 0.  0.
         13    1    3    3    0    0 -0.25801356528E+02 -0.81727316190E+01  0.20695051502E+02  0.34070513079E+02  0.10566000000E+00 0.  1.
         22    1    1    0    0    0 -0.13229336385E+02 -0.50857486892E+01  0.25402869260E+02  0.29089275473E+02  0.00000000000E+00 0. -1.
</event>
<event>
 5    1  0.1758480E-003  0.9118800E+02  0.7818608E-02  0.1130116E+00
         25   -1    0    0    0    0  0.00000000000E+00  0.00000000000E+00  0.99999998245E-14  0.12500000000E+03  0.12500000000E+03 0.  0.
        -13    1    3    3    0    0 -0.36099816577E+02  0.48566407507E-01  0.44245517863E+01  0.36370138000E+02  0.10566000000E+00 0. -1.
         23    2    1    0    0    0  0.11178709753E+02  0.40706335890E+01 -0.28495255920E+02  0.94120990633E+02  0.88911459656E+02 0.  0.
         13    1    3    3    0    0  0.47278526330E+02  0.40220671815E+01 -0.32919807706E+02  0.57750852633E+02  0.10566000000E+00 0.  1.
         22    1    1    0    0    0 -0.11178709753E+02 -0.40706335890E+01  0.28495255920E+02  0.30879009367E+02  0.00000000000E+00 0.  1.
</event>
<event>
 5    1  0.1758480E-003  0.9118800E+02  0.7818608E-02  0.1130116E+00
         25   -1    0    0    0    0  0.00000000000E+00  0.00000000000E+00  0.99999998245E-14  0.12500000000E+03  0.12500000000E+03 0.  0.
        -13    1    3    3    0    0  0.77938321441E+00 -0.31104924828E+02  0.44953433304E+02  0.54671254939E+02  0.10566000000E+00 0. -1.
         23    2    1    0    0    0  0.21612358230E+02 -0.13383279673E+02  0.13993135224E+02  0.95982521880E+02  0.91491149681E+02 0.  0.
         13    1    3    3    0    0  0.20832975016E+02  0.17721645155E+02 -0.30960298080E+02  0.41311266941E+02  0.10566000000E+00 0.  1.
         22    1    1    0    0    0 -0.21612358230E+02  0.13383279673E+02 -0.13993135224E+02  0.29017478120E+02  0.00000000000E+00 0. -1.
</event>
<event>
 5    1  0.1758480E-003  0.9118800E+02  0.7818608E-02  0.1130116E+00
         25   -1    0    0    0    0  0.00000000000E+00  0.00000000000E+00  0.99999998245E-14  0.12500000000E+03  0.12500000000E+03 0.  0.
        -13    1    3    3    0    0 -0.52305282269E+00  0.50049926009E+02 -0.36456267696E+01  0.50185360777E+02  0.10566000000E+00 0.  1.
         23    2    1    0    0    0 -0.15830722807E+01  0.14606353435E+02  0.25155883643E+02  0.95868056014E+02  0.91334626531E+02 0.  0.
         13    1    3    3    0    0 -0.10600194580E+01 -0.35443572574E+02  0.28801510413E+02  0.45682695237E+02  0.10566000000E+00 0. -1.
         22    1    1    0    0    0  0.15830722807E+01 -0.14606353435E+02 -0.25155883643E+02  0.29131943986E+02  0.00000000000E+00 0. -1.
</event>
<event>
 5    1  0.1758480E-003  0.9118800E+02  0.7818608E-02  0.1130116E+00
         25   -1    0    0    0    0  0.00000000000E+00  0.00000000000E+00  0.99999998245E-14  0.12500000000E+03  0.12500000000E+03 0.  0.
        -13    1    3    3    0    0  0.15458573466E+02  0.71005007050E+01 -0.39175061081E+02  0.42709263382E+02  0.10566000000E+00 0. -1.
         23    2    1    0    0    0 -0.19606338510E+02 -0.19564977377E+02 -0.99759385223E+01  0.95559955861E+02  0.90911984717E+02 0.  0.
         13    1    3    3    0    0 -0.35064911976E+02 -0.26665478082E+02  0.29199122559E+02  0.52850692479E+02  0.10566000000E+00 0.  1.
         22    1    1    0    0    0  0.19606338510E+02  0.19564977377E+02  0.99759385223E+01  0.29440044139E+02  0.00000000000E+00 0.  1.
</event>
<event>
 5    1  0.1758480E-003  0.9118800E+02  0.7818608E-02  0.1130116E+00
         25   -1    0    0    0    0  0.00000000000E+00  0.00000000000E+00  0.99999998245E-14  0.12500000000E+03  0.12500000000E+03 0.  0.
        -13    1    3    3    0    0  0.27915708554E+02  0.16912394873E+02 -0.42567881703E+01  0.32915760571E+02  0.10566000000E+00 0. -1.
         23    2    1    0    0    0 -0.22356468492E+02 -0.63400444668E-01 -0.26394500474E+02  0.90409750531E+02  0.83531057894E+02 0.  0.
         13    1    3    3    0    0 -0.50272177046E+02 -0.16975795317E+02 -0.22137712303E+02  0.57493989961E+02  0.10566000000E+00 0.  1.
         22    1    1    0    0    0  0.22356468492E+02  0.63400444668E-01  0.26394500474E+02  0.34590249469E+02  0.00000000000E+00 0.  1.
</event>
<event>
 5    1  0.1758480E-003  0.9118800E+02  0.7818608E-02  0.1130116E+00
         25   -1    0    0    0    0  0.00000000000E+00  0.00000000000E+00  0.99999998245E-14  0.12500000000E+03  0.12500000000E+03 0.  0.
        -13    1    3    3    0    0 -0.38653911867E+02 -0.39387429465E+02 -0.22266319746E+02  0.59508778021E+02  0.10566000000E+00 0. -1.
         23    2    1    0    0    0 -0.10904123715E+02 -0.27835305360E+02 -0.36060724686E+01  0.94888409256E+02  0.89983900304E+02 0.  0.
         13    1    3    3    0    0  0.27749788152E+02  0.11552124105E+02  0.18660247278E+02  0.35379631235E+02  0.10566000000E+00 0.  1.
         22    1    1    0    0    0  0.10904123715E+02  0.27835305360E+02  0.36060724686E+01  0.30111590744E+02  0.00000000000E+00 0. -1.
</event>
<event>
 5    1  0.1758480E-003  0.9118800E+02  0.7818608E-02  0.1130116E+00
         25   -1    0    0    0    0  0.00000000000E+00  0.00000000000E+00  0.99999998245E-14  0.12500000000E+03  0.12500000000E+03 0.  0.
        -13    1    3    3    0    0 -0.10028315975E+02  0.45370036125E+02 -0.51817347404E+01  0.46753276230E+02  0.10566000000E+00 0. -1.
         23    2    1    0    0    0  0.24473410226E+02  0.13287022469E+02  0.86230822196E+01  0.95847807610E+02  0.91306910486E+02 0.  0.
         13    1    3    3    0    0  0.34501726201E+02 -0.32083013656E+02  0.13804816960E+02  0.49094531380E+02  0.10566000000E+00 0.  1.
         22    1    1    0    0    0 -0.24473410226E+02 -0.13287022469E+02 -0.86230822196E+01  0.29152192390E+02  0.00000000000E+00 0.  1.
</event>
<event>
 5    1  0.1758480E-003  0.9118800E+02  0.7818608E-02  0.1130116E+00
         25   -1    0    0    0    0  0.00000000000E+00  0.00000000000E+00  0.99999998245E-14  0.12500000000E+03  0.12500000000E+03 0.  0.
        -13    1    3    3    0    0  0.33312246727E+01 -0.69821814818E+01 -0.59957819559E+02  0.60454935335E+02  0.10566000000E+00 0.  1.
         23    2    1    0    0    0  0.10339046838E+02 -0.94547491078E+01 -0.23683260150E+02  0.97483005587E+02  0.93518722172E+02 0.  0.
         13    1    3    3    0    0  0.70078221658E+01 -0.24725676261E+01  0.36274559409E+02  0.37028070251E+02  0.10566000000E+00 0. -1.
         22    1    1    0    0    0 -0.10339046838E+02  0.94547491078E+01  0.23683260150E+02  0.27516994413E+02  0.00000000000E+00 0.  1.
</event>
<event>
 5    1  0.1758480E-003  0.9118800E+02  0.7818608E-02  0.1130116E+00
         25   -1    0    0    0    0  0.00000000000E+00  0.00000000000E+00  0.99999998245E-14  0.12500000000E+03  0.12500000000E+03 0.  0.
        -13    1    3    3    0    0  0.23148612077E+02 -0.38097275105E+02  0.13384437024E+02  0.46544762648E+02  0.10566000000E+00 0.  1.
         23    2    1    0    0    0  0.24118000779E+02 -0.15056108641E+01 -0.18084875502E+02  0.94817098424E+02  0.89884785175E+02 0.  0.
         13    1    3    3    0    0  0.96938870224E+00  0.36591664241E+02 -0.31469312525E+02  0.48272335775E+02  0.10566000000E+00 0. -1.
         22    1    1    0    0    0 -0.24118000779E+02  0.15056108641E+01  0.18084875502E+02  0.30182901576E+02  0.00000000000E+00 0.  1.
</event>
<event>
 5    1  0.1758480E-003  0.9118800E+02  0.7818608E-02  0.1130116E+00
         25   -1    0    0    0    0  0.00000000000E+00  0.00000000000E+00  0.99999998245E-14  0.12500000000E+03  0.12500000000E+03 0.  0.
        -13    1    3    3    0    0  0.47907806357E+02 -0.14151258464E+02 -0.84165520774E+01  0.50658321517E+02  0.10566000000E+00 0.  1.
         23    2    1    0    0    0  0.22258507326E+02  0.66300463434E+01  0.20102949440E+02  0.94283111501E+02  0.89139092856E+02 0.  0.
         13    1    3    3    0    0 -0.25649299031E+02  0.20781304808E+02  0.28519501518E+02  0.43624789984E+02  0.10566000000E+00 0. -1.
         22    1    1    0    0    0 -0.22258507326E+02 -0.66300463434E+01 -0.20102949440E+02  0.30716888499E+02  0.00000000000E+00 0.  1.
</event>
<event>
 5    1  0.1758480E-003  0.9118800E+02  0.7818608E-02  0.1130116E+00
         25   -1    0    0    0    0  0.00000000000E+00  0.00000000000E+00  0.99999998245E-14  0.12500000000E+03  0.12500000000E+03 0.  0.
        -13    1    3    3    0    0 -0.99186884870E+01 -0.19967708923E+02 -0.37893272303E+02  0.43965907597E+02  0.10566000000E+00 0. -1.
         23    2    1    0    0    0  0.22229046966E+02 -0.17978517854E+02  0.32600417562E+01  0.96225262720E+02  0.91822196010E+02 0.  0.
         13    1    3    3    0    0  0.32147735453E+02  0.19891910681E+01  0.41153314059E+02  0.52259355124E+02  0.10566000000E+00 0.  1.
         22    1    1    0    0    0 -0.22229046966E+02  0.17978517854E+02 -0.32600417562E+01  0.28774737280E+02  0.00000000000E+00 0.  1.
</event>
<event>
 5    1  0.1758480E-003  0.9118800E+02  0.7818608E-02  0.1130116E+00
         25   -1    0    0    0    0  0.00000000000E+00  0.00000000000E+00  0.99999998245E-14  0.12500000000E+03  0.12500000000E+03 0.  0.
        -13    1    3    3    0    0  0.28939248052E+02  0.12217457572E+02 -0.39091832773E+02  0.50149066801E+02  0.10566000000E+00 0. -1.
         23    2    1    0    0    0  0.88011669336E+00  0.27955919426E+02 -0.58202274804E+01  0.96431081850E+02  0.92101956887E+02 0.  0.
         13    1    3    3    0    0 -0.28059131359E+02  0.15738461855E+02  0.33271605293E+02  0.46282015049E+02  0.10566000000E+00 0.  1.
         22    1    1    0    0    0 -0.88011669336E+00 -0.27955919426E+02  0.58202274804E+01  0.28568918150E+02  0.00000000000E+00 0.  1.
</event>
<event>
 5    1  0.1758480E-003  0.9118800E+02  0.7818608E-02  0.1130116E+00
         25   -1    0    0    0    0  0.00000000000E+00  0.00000000000E+00  0.99999998245E-14  0.12500000000E+03  0.12500000000E+03 0.  0.
        -13    1    3    3    0    0 -0.22529733388E+02  0.11182602219E+02 -0.21457990916E+02  0.33062002618E+02  0.10566000000E+00 0.  1.
         23    2    1    0    0    0  0.26986224511E+02  0.98660390152E+01  0.13061656040E+02  0.93437333799E+02  0.87945059269E+02 0.  0.
         13    1    3    3    0    0  0.49515957898E+02 -0.13165632039E+01  0.34519646956E+02  0.60375331181E+02  0.10566000000E+00 0. -1.
         22    1    1    0    0    0 -0.26986224511E+02 -0.98660390152E+01 -0.13061656040E+02  0.31562666201E+02  0.00000000000E+00 0. -1.
</event>
<event>
 5    1  0.1758480E-003  0.9118800E+02  0.7818608E-02  0.1130116E+00
         25   -1    0    0    0    0  0.00000000000E+00  0.00000000000E+00  0.99999998245E-14  0.12500000000E+03  0.12500000000E+03 0.  0.
        -13    1    3    3    0    0 -0.59078862512E+02  0.21796814777E+01  0.14082407457E+02  0.60773253746E+02  0.10566000000E+00 0. -1.
         23    2    1    0    0    0 -0.24189152602E+02  0.56335490574E+01  0.15253926321E+02  0.95853229222E+02  0.91314332421E+02 0.  0.
         13    1    3    3    0    0  0.34889709911E+02  0.34538675797E+01  0.11715188643E+01  0.35079975476E+02  0.10566000000E+00 0.  1.
         22    1    1    0    0    0  0.24189152602E+02 -0.56335490574E+01 -0.15253926321E+02  0.29146770778E+02  0.00000000000E+00 0. -1.
</event>
<event>
 5    1  0.1758480E-003  0.9118800E+02  0.7818608E-02  0.1130116E+00
         25   -1    0    0    0    0  0.00000000000E+00  0.00000000000E+00  0.99999998245E-14  0.12500000000E+03  0.12500000000E+03 0.  0.
        -13    1    3    3    0    0 -0.41330727392E+01 -0.15183268622E+02  0.35958991093E+02  0.39251422149E+02  0.10566000000E+00 0.  1.
         23    2    1    0    0    0 -0.94516744972E+01 -0.15835177064E+02 -0.21337251828E+02  0.96797778473E+02  0.92598297060E+02 0.  0.
         13    1    3    3    0    0 -0.53186017581E+01 -0.65190844205E+00 -0.57296242921E+02  0.57546356324E+02  0.10566000000E+00 0. -1.
         22    1    1    0    0    0  0.94516744972E+01  0.15835177064E+02  0.21337251828E+02  0.28202221527E+02  0.00000000000E+00 0. -1.
</event>
<event>
 5    1  0.1758480E-003  0.9118800E+02  0.7818608E-02  0.1130116E+00
         25   -1    0    0    0    0  0.00000000000E+00  0.00000000000E+00  0.99999998245E-14  0.12500000000E+03  0.12500000000E+03 0.  0.
        -13    1    3    3    0    0 -0.94372697538E+01  0.52400568036E+02 -0.19458058714E+02  0.56687818832E+02  0.10566000000E+00 0.  1.
         23    2    1    0    0    0 -0.20567650794E+02  0.15255832068E+02 -0.13905943851E+02  0.95859925436E+02  0.91323498394E+02 0.  0.
         13    1    3    3    0    0 -0.11130381040E+02 -0.37144735969E+02  0.55521148634E+01  0.39172106604E+02  0.10566000000E+00 0. -1.
         22    1    1    0    0    0  0.20567650794E+02 -0.15255832068E+02  0.13905943851E+02  0.29140074564E+02  0.00000000000E+00 0. -1.
</event>
<event>
 5    1  0.1758480E-003  0.9118800E+02  0.7818608E-02  0.1130116E+00
         25   -1    0    0    0    0  0.00000000000E+00  0.00000000000E+00  0.99999998245E-14  0.12500000000E+03  0.12500000000E+03 0.  0.
        -13    1    3    3    0    0 -0.12079736271E+02 -0.28183665559E+02 -0.36835360187E+02  0.47928008062E+02  0.10566000000E+00 0. -1.
         23    2    1    0    0    0  0.24320947495E+02 -0.12413595115E+02 -0.95644309601E+01  0.96067593077E+02  0.91607304672E+02 0.  0.
         13    1    3    3    0    0  0.36400683767E+02  0.15770070443E+02  0.27270929227E+02  0.48139585015E+02  0.10566000000E+00 0.  1.
         22    1    1    0    0    0 -0.24320947495E+02  0.12413595115E+02  0.95644309601E+01  0.28932406923E+02  0.00000000000E+00 0.  1.
</event>
<event>
 5    1  0.1758480E-003  0.9118800E+02  0.7818608E-02  0.1130116E+00
         25   -1    0    0    0    0  0.00000000000E+00  0.00000000000E+00  0.99999998245E-14  0.12500000000E+03  0.12500000000E+03 0.  0.
        -13    1    3    3    0    0  0.32693390149E+02 -0.17692658080E+01  0.53015653961E+02  0.62310984504E+02  0.10566000000E+00 0.  1.
         23    2    1    0    0    0  0.15887486242E+02 -0.41007970935E+01  0.23901857910E+02  0.96008146533E+02  0.91526152729E+02 0.  0.
         13    1    3    3    0    0 -0.16805903907E+02 -0.23315312855E+01 -0.29113796051E+02  0.33697162029E+02  0.10566000000E+00 0. -1.
         22    1    1    0    0    0 -0.15887486242E+02  0.41007970935E+01 -0.23901857910E+02  0.28991853467E+02  0.00000000000E+00 0.  1.
</event>
<event>
 5    1  0.1758480E-003  0.9118800E+02  0.7818608E-02  0.1130116E+00
         25   -1    0    0    0    0  0.00000000000E+00  0.00000000000E+00  0.99999998245E-14  0.12500000000E+03  0.12500000000E+03 0.  0.
        -13    1    3    3    0    0  0.33471566422E+02  0.18743915656E+02 -0.30773039435E+02  0.49179988338E+02  0.10566000000E+00 0. -1.
         23    2    1    0    0    0 -0.10914089273E+02  0.22087297122E+02 -0.13339395769E+02  0.96983834697E+02  0.92849117789E+02 0.  0.
         13    1    3    3    0    0 -0.44385655696E+02  0.33433814658E+01  0.17433643666E+02  0.47803846358E+02  0.10566000000E+00 0.  1.
         22    1    1    0    0    0  0.10914089273E+02 -0.22087297122E+02  0.13339395769E+02  0.28016165303E+02  0.00000000000E+00 0. -1.
</event>
<event>
 5    1  0.1758480E-003  0.9118800E+02  0.7818608E-02  0.1130116E+00
         25   -1    0    0    0    0  0.00000000000E+00  0.00000000000E+00  0.99999998245E-14  0.12500000000E+03  0.12500000000E+03 0.  0.
        -13    1    3    3    0    0  0.42422312439E+01  0.28839867257E+02 -0.48882178854E+02  0.56914084749E+02  0.10566000000E+00 0.  1.
         23    2    1    0    0    0 -0.12763281073E+01 -0.46388661574E+01 -0.27637342556E+02  0.96947000228E+02  0.92799515391E+02 0.  0.
         13    1    3    3    0    0 -0.55185593512E+01 -0.33478733414E+02  0.21244836298E+02  0.40032915478E+02  0.10566000000E+00 0. -1.
         22    1    1    0    0    0  0.12763281073E+01  0.46388661574E+01  0.27637342556E+02  0.28052999772E+02  0.00000000000E+00 0.  1.
</event>
<event>
 5    1  0.1758480E-003  0.9118800E+02  0.7818608E-02  0.1130116E+00
         25   -1    0    0    0    0  0.00000000000E+00  0.00000000000E+00  0.99999998245E-14  0.12500000000E+03  0.12500000000E+03 0.  0.
        -13    1    3    3    0    0  0.25882948694E+02 -0.21647221796E+02  0.39268197598E+02  0.51773852003E+02  0.10566000000E+00 0.  1.
         23    2    1    0    0    0 -0.13886032523E+02 -0.15698661260E+02  0.18561133046E+02  0.97003830181E+02  0.92876033212E+02 0.  0.
         13    1    3    3    0    0 -0.39768981218E+02  0.59485605363E+01 -0.20707064552E+02  0.45229978177E+02  0.10566000000E+00 0. -1.
         22    1    1    0    0    0  0.13886032523E+02  0.15698661260E+02 -0.18561133046E+02  0.27996169819E+02  0.00000000000E+00 0.  1.
</event>
<event>
 5    1  0.1758480E-003  0.9118800E+02  0.7818608E-02  0.1130116E+00
         25   -1    0    0    0    0  0.00000000000E+00  0.00000000000E+00  0.99999998245E-14  0.12500000000E+03  0.12500000000E+03 0.  0.
        -13    1    3    3    0    0 -0.50188213672E+02 -0.30967573471E+02  0.96577547835E+01  0.59758938995E+02  0.10566000000E+00 0.  1.
         23    2    1    0    0    0 -0.24428528073E+02 -0.68040237887E+01 -0.68312305980E+01  0.98737604165E+02  0.95180885902E+02 0.  0.
         13    1    3    3    0    0  0.25759685599E+02  0.24163549683E+02 -0.16488985382E+02  0.38978665170E+02  0.10566000000E+00 0. -1.
         22    1    1    0    0    0  0.24428528073E+02  0.68040237887E+01  0.68312305980E+01  0.26262395835E+02  0.00000000000E+00 0.  1.
</event>
<event>
 5    1  0.1758480E-003  0.9118800E+02  0.7818608E-02  0.1130116E+00
         25   -1    0    0    0    0  0.00000000000E+00  0.00000000000E+00  0.99999998245E-14  0.12500000000E+03  0.12500000000E+03 0.  0.
        -13    1    3    3    0    0 -0.29525173929E+01  0.25928244345E+02  0.31452544191E+02  0.40868874634E+02  0.10566000000E+00 0.  1.
         23    2    1    0    0    0 -0.27170698989E+02 -0.75172720534E+01 -0.54941582257E+01  0.96278195786E+02  0.91894226949E+02 0.  0.
         13    1    3    3    0    0 -0.24218181596E+02 -0.33445516398E+02 -0.36946702417E+02  0.55409321152E+02  0.10566000000E+00 0. -1.
         22    1    1    0    0    0  0.27170698989E+02  0.75172720534E+01  0.54941582257E+01  0.28721804214E+02  0.00000000000E+00 0. -1.
</event>
<event>
 5    1  0.1758480E-003  0.9118800E+02  0.7818608E-02  0.1130116E+00
         25   -1    0    0    0    0  0.00000000000E+00  0.00000000000E+00  0.99999998245E-14  0.12500000000E+03  0.12500000000E+03 0.  0.
        -13    1    3    3    0    0  0.26088357421E+02  0.92085069505E+01  0.47553462826E+02  0.55015833938E+02  0.10566000000E+00 0. -1.
         23    2    1    0    0    0 -0.98958278786E+00  0.21559162055E+02  0.20345211311E+02  0.95340189382E+02  0.90609311583E+02 0.  0.
         13    1    3    3    0    0 -0.27077940209E+02  0.12350655104E+02 -0.27208251514E+02  0.40324355444E+02  0.10566000000E+00 0.  1.
         22    1    1    0    0    0  0.98958278786E+00 -0.21559162055E+02 -0.20345211311E+02  0.29659810618E+02  0.00000000000E+00 0. -1.
</event>
<event>
 5    1  0.1758480E-003  0.9118800E+02  0.7818608E-02  0.1130116E+00
         25   -1    0    0    0    0  0.00000000000E+00  0.00000000000E+00  0.99999998245E-14  0.12500000000E+03  0.12500000000E+03 0.  0.
        -13    1    3    3    0    0  0.14989209254E+02 -0.30157376245E+02 -0.26151546089E+02  0.42638694433E+02  0.10566000000E+00 0. -1.
         23    2    1    0    0    0 -0.26128565814E+02 -0.13196767848E+02  0.26185752430E+01  0.95610995773E+02  0.90982135298E+02 0.  0.
         13    1    3    3    0    0 -0.41117775068E+02  0.16960608398E+02  0.28770121332E+02  0.52972301340E+02  0.10566000000E+00 0.  1.
         22    1    1    0    0    0  0.26128565814E+02  0.13196767848E+02 -0.26185752430E+01  0.29389004227E+02  0.00000000000E+00 0.  1.
</event>
<event>
 5    1  0.1758480E-003  0.9118800E+02  0.7818608E-02  0.1130116E+00
         25   -1    0    0    0    0  0.00000000000E+00  0.00000000000E+00  0.99999998245E-14  0.12500000000E+03  0.12500000000E+03 0.  0.
        -13    1    3    3    0    0 -0.20088858475E+02 -0.25516436059E+02  0.10409676861E+02  0.34103127135E+02  0.10566000000E+00 0.  1.
         23    2    1    0    0    0  0.30052535268E+02  0.55808046175E+01 -0.18975996462E+01  0.94374828317E+02  0.89267614952E+02 0.  0.
         13    1    3    3    0    0  0.50141393743E+02  0.31097240677E+02 -0.12307276507E+02  0.60271701181E+02  0.10566000000E+00 0. -1.
         22    1    1    0    0    0 -0.30052535268E+02 -0.55808046175E+01  0.18975996462E+01  0.30625171683E+02  0.00000000000E+00 0. -1.
</event>
<event>
 5    1  0.1758480E-003  0.9118800E+02  0.7818608E-02  0.1130116E+00
         25   -1    0    0    0    0  0.00000000000E+00  0.00000000000E+00  0.99999998245E-14  0.12500000000E+03  0.12500000000E+03 0.  0.
        -13    1    3    3    0    0  0.19883357634E+02  0.19048414693E+02  0.52614496694E+02  0.59384227194E+02  0.10566000000E+00 0.  1.
         23    2    1    0    0    0  0.67129553744E+00  0.19514219144E+02  0.21486124455E+02  0.95967106059E+02  0.91470085355E+02 0.  0.
         13    1    3    3    0    0 -0.19212062096E+02  0.46580445010E+00 -0.31128372238E+02  0.36582878865E+02  0.10566000000E+00 0. -1.
         22    1    1    0    0    0 -0.67129553744E+00 -0.19514219144E+02 -0.21486124455E+02  0.29032893941E+02  0.00000000000E+00 0.  1.
</event>
<event>
 5    1  0.1758480E-003  0.9118800E+02  0.7818608E-02  0.1130116E+00
         25   -1    0    0    0    0  0.00000000000E+00  0.00000000000E+00  0.99999998245E-14  0.12500000000E+03  0.12500000000E+03 0.  0.
        -13    1    3    3    0    0  0.37919039549E+02 -0.44314783329E+02  0.96165388627E+01  0.59111272746E+02  0.10566000000E+00 0.  1.
         23    2    1    0    0    0  0.11757083544E+02 -0.27639355833E+02 -0.67887610035E+01  0.94206327269E+02  0.89031353001E+02 0.  0.
         13    1    3    3    0    0 -0.26161956006E+02  0.16675427496E+02 -0.16405299866E+02  0.35095054523E+02  0.10566000000E+00 0. -1.
         22    1    1    0    0    0 -0.11757083544E+02  0.27639355833E+02  0.67887610035E+01  0.30793672731E+02  0.00000000000E+00 0.  1.
</event>
<event>
 5    1  0.1758480E-003  0.9118800E+02  0.7818608E-02  0.1130116E+00
         25   -1    0    0    0    0  0.00000000000E+00  0.00000000000E+00  0.99999998245E-14  0.12500000000E+03  0.12500000000E+03 0.  0.
        -13    1    3    3    0    0  0.42269686271E+02 -0.56220307887E+01  0.24671604007E+02  0.49264924804E+02  0.10566000000E+00 0.  1.
         23    2    1    0    0    0  0.22586725709E+02  0.12127916400E+02 -0.13724544891E+02  0.95920631593E+02  0.91406552819E+02 0.  0.
         13    1    3    3    0    0 -0.19682960562E+02  0.17749947189E+02 -0.38396148898E+02  0.46655706789E+02  0.10566000000E+00 0. -1.
         22    1    1    0    0    0 -0.22586725709E+02 -0.12127916400E+02  0.13724544891E+02  0.29079368407E+02  0.00000000000E+00 0.  1.
</event>
<event>
 5    1  0.1758480E-003  0.9118800E+02  0.7818608E-02  0.1130116E+00
         25   -1    0    0    0    0  0.00000000000E+00  0.00000000000E+00  0.99999998245E-14  0.12500000000E+03  0.12500000000E+03 0.  0.
        -13    1    3    3    0    0  0.76729598657E+01 -0.58180191260E+02 -0.98297038776E+01  0.59501623595E+02  0.10566000000E+00 0. -1.
         23    2    1    0    0    0 -0.29915392456E+01 -0.30289388600E+02 -0.16897940768E+02  0.90187117743E+02  0.83197232140E+02 0.  0.
         13    1    3    3    0    0 -0.10664499111E+02  0.27890802660E+02 -0.70682368907E+01  0.30685494148E+02  0.10566000000E+00 0.  1.
         22    1    1    0    0    0  0.29915392456E+01  0.30289388600E+02  0.16897940768E+02  0.34812882257E+02  0.00000000000E+00 0.  1.
</event>
<event>
 5    1  0.1758480E-003  0.9118800E+02  0.7818608E-02  0.1130116E+00
         25   -1    0    0    0    0  0.00000000000E+00  0.00000000000E+00  0.99999998245E-14  0.12500000000E+03  0.12500000000E+03 0.  0.
        -13    1    3    3    0    0  0.14989842868E+01 -0.49940134224E+02 -0.93429645431E+01  0.50828792143E+02  0.10566000000E+00 0.  1.
         23    2    1    0    0    0  0.14499801863E+02 -0.67449048920E+01  0.15839740969E+02  0.10249143741E+03  0.99989296185E+02 0.  0.
         13    1    3    3    0    0  0.13000817576E+02  0.43195229332E+02  0.25182705512E+02  0.51662645264E+02  0.10566000000E+00 0. -1.
         22    1    1    0    0    0 -0.14499801863E+02  0.67449048920E+01 -0.15839740969E+02  0.22508562594E+02  0.00000000000E+00 0.  1.
</event>
<event>
 5    1  0.1758480E-003  0.9118800E+02  0.7818608E-02  0.1130116E+00
         25   -1    0    0    0    0  0.00000000000E+00  0.00000000000E+00  0.99999998245E-14  0.12500000000E+03  0.12500000000E+03 0.  0.
        -13    1    3    3    0    0  0.18656688289E+02 -0.92031061465E+01  0.37985627621E+02  0.43309216692E+02  0.10566000000E+00 0.  1.
         23    2    1    0    0    0 -0.19294712949E+02 -0.20875251134E+02  0.26695771186E+01  0.96448490413E+02  0.92125580613E+02 0.  0.
         13    1    3    3    0    0 -0.37951401238E+02 -0.11672144987E+02 -0.35316050503E+02  0.53139273722E+02  0.10566000000E+00 0. -1.
         22    1    1    0    0    0  0.19294712949E+02  0.20875251134E+02 -0.26695771186E+01  0.28551509587E+02  0.00000000000E+00 0. -1.
</event>
<event>
 5    1  0.1758480E-003  0.9118800E+02  0.7818608E-02  0.1130116E+00
         25   -1    0    0    0    0  0.00000000000E+00  0.00000000000E+00  0.99999998245E-14  0.12500000000E+03  0.12500000000E+03 0.  0.
        -13    1    3    3    0    0 -0.14211969332E+02 -0.22765202235E+02 -0.20677746064E+02  0.33879416338E+02  0.10566000000E+00 0. -1.
         23    2    1    0    0    0  0.35135521076E+01  0.31386304205E+02 -0.45903440938E+01  0.93085796282E+02  0.87443976754E+02 0.  0.
         13    1    3    3    0    0  0.17725521440E+02  0.54151506439E+02  0.16087401970E+02  0.59206379944E+02  0.10566000000E+00 0.  1.
         22    1    1    0    0    0 -0.35135521076E+01 -0.31386304205E+02  0.45903440938E+01  0.31914203718E+02  0.00000000000E+00 0.  1.
</event>
<event>
 5    1  0.1758480E-003  0.9118800E+02  0.7818608E-02  0.1130116E+00
         25   -1    0    0    0    0  0.00000000000E+00  0.00000000000E+00  0.99999998245E-14  0.12500000000E+03  0.12500000000E+03 0.  0.
        -13    1    3    3    0    0 -0.32768250928E+02 -0.50089013949E+02  0.52372849782E+01  0.60084173501E+02  0.10566000000E+00 0.  1.
         23    2    1    0    0    0 -0.13941362704E+02 -0.25368609339E+02 -0.95790594798E+01  0.94509242148E+02  0.89455634463E+02 0.  0.
         13    1    3    3    0    0  0.18826888223E+02  0.24720404610E+02 -0.14816344458E+02  0.34425068648E+02  0.10566000000E+00 0. -1.
         22    1    1    0    0    0  0.13941362704E+02  0.25368609339E+02  0.95790594798E+01  0.30490757852E+02  0.00000000000E+00 0.  1.
</event>
<event>
 5    1  0.1758480E-003  0.9118800E+02  0.7818608E-02  0.1130116E+00
         25   -1    0    0    0    0  0.00000000000E+00  0.00000000000E+00  0.99999998245E-14  0.12500000000E+03  0.12500000000E+03 0.  0.
        -13    1    3    3    0    0 -0.41771871376E+01 -0.41874103970E+02  0.36812186722E+02  0.55910980415E+02  0.10566000000E+00 0. -1.
         23    2    1    0    0    0 -0.17336727242E+02 -0.69604189331E+01  0.22209017684E+02  0.95978456111E+02  0.91485594646E+02 0.  0.
         13    1    3    3    0    0 -0.13159540105E+02  0.34913685037E+02 -0.14603169038E+02  0.40067475696E+02  0.10566000000E+00 0.  1.
         22    1    1    0    0    0  0.17336727242E+02  0.69604189331E+01 -0.22209017684E+02  0.29021543889E+02  0.00000000000E+00 0. -1.
</event>
<event>
 5    1  0.1758480E-003  0.9118800E+02  0.7818608E-02  0.1130116E+00
         25   -1    0    0    0    0  0.00000000000E+00  0.00000000000E+00  0.99999998245E-14  0.12500000000E+03  0.12500000000E+03 0.  0.
        -13    1    3    3    0    0 -0.25518021129E+02 -0.23633476419E+02  0.10677948038E+01  0.34797441857E+02  0.10566000000E+00 0.  1.
         23    2    1    0    0    0  0.96574265588E+01  0.26850760907E+02  0.26021091319E+01  0.96346898580E+02  0.91987633109E+02 0.  0.
         13    1    3    3    0    0  0.35175447688E+02  0.50484237326E+02  0.15343143281E+01  0.61549456723E+02  0.10566000000E+00 0. -1.
         22    1    1    0    0    0 -0.96574265588E+01 -0.26850760907E+02 -0.26021091319E+01  0.28653101420E+02  0.00000000000E+00 0. -1.
</event>
<event>
 5    1  0.1758480E-003  0.9118800E+02  0.7818608E-02  0.1130116E+00
         25   -1    0    0    0    0  0.00000000000E+00  0.00000000000E+00  0.99999998245E-14  0.12500000000E+03  0.12500000000E+03 0.  0.
        -13    1    3    3    0    0 -0.20969199416E+02 -0.38648304486E+02 -0.23040335985E+02  0.49641384047E+02  0.10566000000E+00 0. -1.
         23    2    1    0    0    0 -0.32569857499E+01 -0.14734875719E+02 -0.38837921120E+02  0.83333363040E+02  0.72168835103E+02 0.  0.
         13    1    3    3    0    0  0.17712213666E+02  0.23913428767E+02 -0.15797585135E+02  0.33691978993E+02  0.10566000000E+00 0.  1.
         22    1    1    0    0    0  0.32569857499E+01  0.14734875719E+02  0.38837921120E+02  0.41666636960E+02  0.00000000000E+00 0. -1.
</event>
<event>
 5    1  0.1758480E-003  0.9118800E+02  0.7818608E-02  0.1130116E+00
         25   -1    0    0    0    0  0.00000000000E+00  0.00000000000E+00  0.99999998245E-14  0.12500000000E+03  0.12500000000E+03 0.  0.
        -13    1    3    3    0    0 -0.31340441474E+02 -0.10580749279E+02 -0.14608055860E+02  0.36160503137E+02  0.10566000000E+00 0.  1.
         23    2    1    0    0    0  0.31925739001E+01  0.91225695879E+01  0.28560448404E+02  0.94848498926E+02  0.89928442283E+02 0.  0.
         13    1    3    3    0    0  0.34533015374E+02  0.19703318867E+02  0.43168504264E+02  0.58687995788E+02  0.10566000000E+00 0. -1.
         22    1    1    0    0    0 -0.31925739001E+01 -0.91225695879E+01 -0.28560448404E+02  0.30151501074E+02  0.00000000000E+00 0. -1.
</event>
<event>
 5    1  0.1758480E-003  0.9118800E+02  0.7818608E-02  0.1130116E+00
         25   -1    0    0    0    0  0.00000000000E+00  0.00000000000E+00  0.99999998245E-14  0.12500000000E+03  0.12500000000E+03 0.  0.
        -13    1    3    3    0    0 -0.69690720470E+01 -0.85646820252E+01 -0.36564480434E+02  0.38195472727E+02  0.10566000000E+00 0.  1.
         23    2    1    0    0    0  0.79697204367E+01  0.27695930553E+02  0.54502484490E+01  0.95669363778E+02  0.91062291562E+02 0.  0.
         13    1    3    3    0    0  0.14938792484E+02  0.36260612578E+02  0.42014728883E+02  0.57473891051E+02  0.10566000000E+00 0. -1.
         22    1    1    0    0    0 -0.79697204367E+01 -0.27695930553E+02 -0.54502484490E+01  0.29330636222E+02  0.00000000000E+00 0. -1.
</event>
<event>
 5    1  0.1758480E-003  0.9118800E+02  0.7818608E-02  0.1130116E+00
         25   -1    0    0    0    0  0.00000000000E+00  0.00000000000E+00  0.99999998245E-14  0.12500000000E+03  0.12500000000E+03 0.  0.
        -13    1    3    3    0    0  0.33438336198E+02 -0.76259246280E+01  0.92137217643E+01  0.35513108663E+02  0.10566000000E+00 0.  1.
         23    2    1    0    0    0 -0.15966126354E+02  0.23489619971E+01 -0.24148084162E+02  0.95955813285E+02  0.91454651720E+02 0.  0.
         13    1    3    3    0    0 -0.49404462553E+02  0.99748866251E+01 -0.33361805927E+02  0.60442704622E+02  0.10566000000E+00 0. -1.
         22    1    1    0    0    0  0.15966126354E+02 -0.23489619971E+01  0.24148084162E+02  0.29044186715E+02  0.00000000000E+00 0. -1.
</event>
<event>
 5    1  0.1758480E-003  0.9118800E+02  0.7818608E-02  0.1130116E+00
         25   -1    0    0    0    0  0.00000000000E+00  0.00000000000E+00  0.99999998245E-14  0.12500000000E+03  0.12500000000E+03 0.  0.
        -13    1    3    3    0    0 -0.28678932722E+02 -0.42072802143E+02  0.40971832952E+01  0.51082285943E+02  0.10566000000E+00 0. -1.
         23    2    1    0    0    0 -0.16751574715E+02 -0.82301736154E+01 -0.22513664441E+02  0.95755921971E+02  0.91181031431E+02 0.  0.
         13    1    3    3    0    0  0.11927358006E+02  0.33842628527E+02 -0.26610847737E+02  0.44673636028E+02  0.10566000000E+00 0.  1.
         22    1    1    0    0    0  0.16751574715E+02  0.82301736154E+01  0.22513664441E+02  0.29244078029E+02  0.00000000000E+00 0. -1.
</event>
<event>
 5    1  0.1758480E-003  0.9118800E+02  0.7818608E-02  0.1130116E+00
         25   -1    0    0    0    0  0.00000000000E+00  0.00000000000E+00  0.99999998245E-14  0.12500000000E+03  0.12500000000E+03 0.  0.
        -13    1    3    3    0    0  0.15052596490E+01  0.77194159803E+01 -0.43664696650E+02  0.44367466541E+02  0.10566000000E+00 0. -1.
         23    2    1    0    0    0  0.29501510828E+02  0.11510353408E+02 -0.39770698656E+01  0.93083789990E+02  0.87441108739E+02 0.  0.
         13    1    3    3    0    0  0.27996251179E+02  0.37909374272E+01  0.39687626784E+02  0.48716323449E+02  0.10566000000E+00 0.  1.
         22    1    1    0    0    0 -0.29501510828E+02 -0.11510353408E+02  0.39770698656E+01  0.31916210010E+02  0.00000000000E+00 0.  1.
</event>
<event>
 5    1  0.1758480E-003  0.9118800E+02  0.7818608E-02  0.1130116E+00
         25   -1    0    0    0    0  0.00000000000E+00  0.00000000000E+00  0.99999998245E-14  0.12500000000E+03  0.12500000000E+03 0.  0.
        -13    1    3    3    0    0 -0.13871961723E+02  0.43655821821E+02  0.50689272079E+01  0.46086519591E+02  0.10566000000E+00 0.  1.
         23    2    1    0    0    0 -0.30252479003E+02 -0.19034871114E+01  0.10137933178E+01  0.94670748016E+02  0.89681029231E+02 0.  0.
         13    1    3    3    0    0 -0.16380517280E+02 -0.45559308932E+02 -0.40551338901E+01  0.48584228425E+02  0.10566000000E+00 0. -1.
         22    1    1    0    0    0  0.30252479003E+02  0.19034871114E+01 -0.10137933178E+01  0.30329251984E+02  0.00000000000E+00 0.  1.
</event>
<event>
 5    1  0.1758480E-003  0.9118800E+02  0.7818608E-02  0.1130116E+00
         25   -1    0    0    0    0  0.00000000000E+00  0.00000000000E+00  0.99999998245E-14  0.12500000000E+03  0.12500000000E+03 0.  0.
        -13    1    3    3    0    0  0.31057930530E+02  0.15327947114E+02  0.15309041186E+02  0.37867121855E+02  0.10566000000E+00 0. -1.
         23    2    1    0    0    0 -0.22219949352E+02 -0.60311174871E+01  0.18658757799E+02  0.95364720856E+02  0.90643147639E+02 0.  0.
         13    1    3    3    0    0 -0.53277879882E+02 -0.21359064602E+02  0.33497166134E+01  0.57497599000E+02  0.10566000000E+00 0.  1.
         22    1    1    0    0    0  0.22219949352E+02  0.60311174871E+01 -0.18658757799E+02  0.29635279144E+02  0.00000000000E+00 0. -1.
</event>
<event>
 5    1  0.1758480E-003  0.9118800E+02  0.7818608E-02  0.1130116E+00
         25   -1    0    0    0    0  0.00000000000E+00  0.00000000000E+00  0.99999998245E-14  0.12500000000E+03  0.12500000000E+03 0.  0.
        -13    1    3    3    0    0  0.29768597474E+02  0.45094074697E+02 -0.12935660888E+02  0.55560664638E+02  0.10566000000E+00 0. -1.
         23    2    1    0    0    0 -0.59271828174E+01  0.26199618772E+02  0.52596285997E+00  0.98133140174E+02  0.94383711749E+02 0.  0.
         13    1    3    3    0    0 -0.35695780292E+02 -0.18894455925E+02  0.13461623748E+02  0.42572475536E+02  0.10566000000E+00 0.  1.
         22    1    1    0    0    0  0.59271828174E+01 -0.26199618772E+02 -0.52596285997E+00  0.26866859826E+02  0.00000000000E+00 0. -1.
</event>
<event>
 5    1  0.1758480E-003  0.9118800E+02  0.7818608E-02  0.1130116E+00
         25   -1    0    0    0    0  0.00000000000E+00  0.00000000000E+00  0.99999998245E-14  0.12500000000E+03  0.12500000000E+03 0.  0.
        -13    1    3    3    0    0 -0.49783649373E+02 -0.23814963112E+02 -0.25636821270E+02  0.60850817429E+02  0.10566000000E+00 0. -1.
         23    2    1    0    0    0 -0.13234249169E+02 -0.16375821628E+02 -0.13109773436E+02  0.10019719684E+03  0.97078829876E+02 0.  0.
         13    1    3    3    0    0  0.36549400204E+02  0.74391414846E+01  0.12527047834E+02  0.39346379411E+02  0.10566000000E+00 0.  1.
         22    1    1    0    0    0  0.13234249169E+02  0.16375821628E+02  0.13109773436E+02  0.24802803160E+02  0.00000000000E+00 0. -1.
</event>
<event>
 5    1  0.1758480E-003  0.9118800E+02  0.7818608E-02  0.1130116E+00
         25   -1    0    0    0    0  0.00000000000E+00  0.00000000000E+00  0.99999998245E-14  0.12500000000E+03  0.12500000000E+03 0.  0.
        -13    1    3    3    0    0 -0.52460719110E+01  0.41304837622E+01  0.32593147858E+02  0.33270206160E+02  0.10566000000E+00 0. -1.
         23    2    1    0    0    0  0.17449183741E+02 -0.41615896924E+01 -0.24134183060E+02  0.94929222924E+02  0.90040578247E+02 0.  0.
         13    1    3    3    0    0  0.22695255652E+02 -0.82920734546E+01 -0.56727330918E+02  0.61659016764E+02  0.10566000000E+00 0.  1.
         22    1    1    0    0    0 -0.17449183741E+02  0.41615896924E+01  0.24134183060E+02  0.30070777076E+02  0.00000000000E+00 0.  1.
</event>
<event>
 5    1  0.1758480E-003  0.9118800E+02  0.7818608E-02  0.1130116E+00
         25   -1    0    0    0    0  0.00000000000E+00  0.00000000000E+00  0.99999998245E-14  0.12500000000E+03  0.12500000000E+03 0.  0.
        -13    1    3    3    0    0 -0.39413963335E+02 -0.24057741131E+02 -0.24490178037E+02  0.52268684682E+02  0.10566000000E+00 0.  1.
         23    2    1    0    0    0 -0.22190377744E+02 -0.46506345345E+01  0.13751894471E+02  0.98482913668E+02  0.94845813914E+02 0.  0.
         13    1    3    3    0    0  0.17223585591E+02  0.19407106596E+02  0.38242072508E+02  0.46214228986E+02  0.10566000000E+00 0. -1.
         22    1    1    0    0    0  0.22190377744E+02  0.46506345345E+01 -0.13751894471E+02  0.26517086332E+02  0.00000000000E+00 0.  1.
</event>
<event>
 5    1  0.1758480E-003  0.9118800E+02  0.7818608E-02  0.1130116E+00
         25   -1    0    0    0    0  0.00000000000E+00  0.00000000000E+00  0.99999998245E-14  0.12500000000E+03  0.12500000000E+03 0.  0.
        -13    1    3    3    0    0 -0.20599220756E+02  0.32048072988E+02 -0.13739755697E+02  0.40499369484E+02  0.10566000000E+00 0.  1.
         23    2    1    0    0    0 -0.21851648653E+02 -0.13824159449E+02  0.15443054240E+02  0.94882067508E+02  0.89975090314E+02 0.  0.
         13    1    3    3    0    0 -0.12524278977E+01 -0.45872232438E+02  0.29182809937E+02  0.54382698023E+02  0.10566000000E+00 0. -1.
         22    1    1    0    0    0  0.21851648653E+02  0.13824159449E+02 -0.15443054240E+02  0.30117932492E+02  0.00000000000E+00 0. -1.
</event>
<event>
 5    1  0.1758480E-003  0.9118800E+02  0.7818608E-02  0.1130116E+00
         25   -1    0    0    0    0  0.00000000000E+00  0.00000000000E+00  0.99999998245E-14  0.12500000000E+03  0.12500000000E+03 0.  0.
        -13    1    3    3    0    0  0.27300755863E+02  0.14899084876E+02 -0.14706395253E+02  0.34403535083E+02  0.10566000000E+00 0. -1.
         23    2    1    0    0    0 -0.12116369022E+02 -0.14750476964E+02  0.21989873942E+02  0.95880633164E+02  0.91351837918E+02 0.  0.
         13    1    3    3    0    0 -0.39417124885E+02 -0.29649561840E+02  0.36696269195E+02  0.61477098081E+02  0.10566000000E+00 0.  1.
         22    1    1    0    0    0  0.12116369022E+02  0.14750476964E+02 -0.21989873942E+02  0.29119366836E+02  0.00000000000E+00 0.  1.
</event>
<event>
 5    1  0.1758480E-003  0.9118800E+02  0.7818608E-02  0.1130116E+00
         25   -1    0    0    0    0  0.00000000000E+00  0.00000000000E+00  0.99999998245E-14  0.12500000000E+03  0.12500000000E+03 0.  0.
        -13    1    3    3    0    0  0.15221232920E+02 -0.56423634890E+02 -0.85500289625E+01  0.59062904306E+02  0.10566000000E+00 0.  1.
         23    2    1    0    0    0 -0.37002149496E+01 -0.29507811025E+02  0.53566790290E+01  0.94782513136E+02  0.89836675607E+02 0.  0.
         13    1    3    3    0    0 -0.18921447869E+02  0.26915823865E+02  0.13906707991E+02  0.35719608830E+02  0.10566000000E+00 0. -1.
         22    1    1    0    0    0  0.37002149496E+01  0.29507811025E+02 -0.53566790290E+01  0.30217486864E+02  0.00000000000E+00 0.  1.
</event>
<event>
 5    1  0.1758480E-003  0.9118800E+02  0.7818608E-02  0.1130116E+00
         25   -1    0    0    0    0  0.00000000000E+00  0.00000000000E+00  0.99999998245E-14  0.12500000000E+03  0.12500000000E+03 0.  0.
        -13    1    3    3    0    0  0.54797867529E+02  0.43760597937E+01 -0.21471098050E+01  0.55014338400E+02  0.10566000000E+00 0.  1.
         23    2    1    0    0    0  0.18954303823E+02  0.21868512975E+02  0.52757198222E+01  0.95583495911E+02  0.90944345497E+02 0.  0.
         13    1    3    3    0    0 -0.35843563706E+02  0.17492453181E+02  0.74228296272E+01  0.40569157511E+02  0.10566000000E+00 0. -1.
         22    1    1    0    0    0 -0.18954303823E+02 -0.21868512975E+02 -0.52757198222E+01  0.29416504089E+02  0.00000000000E+00 0.  1.
</event>
<event>
 5    1  0.1758480E-003  0.9118800E+02  0.7818608E-02  0.1130116E+00
         25   -1    0    0    0    0  0.00000000000E+00  0.00000000000E+00  0.99999998245E-14  0.12500000000E+03  0.12500000000E+03 0.  0.
        -13    1    3    3    0    0 -0.18691297328E+02  0.51024652606E+02 -0.28979968666E+02  0.61585140394E+02  0.10566000000E+00 0.  1.
         23    2    1    0    0    0 -0.32903453383E+01  0.26304651369E+02 -0.86087646402E+01  0.97127578420E+02  0.93042434432E+02 0.  0.
         13    1    3    3    0    0  0.15400951989E+02 -0.24720001237E+02  0.20371204026E+02  0.35542438026E+02  0.10566000000E+00 0. -1.
         22    1    1    0    0    0  0.32903453383E+01 -0.26304651369E+02  0.86087646402E+01  0.27872421580E+02  0.00000000000E+00 0.  1.
</event>
<event>
 5    1  0.1758480E-003  0.9118800E+02  0.7818608E-02  0.1130116E+00
         25   -1    0    0    0    0  0.00000000000E+00  0.00000000000E+00  0.99999998245E-14  0.12500000000E+03  0.12500000000E+03 0.  0.
        -13    1    3    3    0    0  0.19877993176E+02 -0.36680371565E+02 -0.70995336847E+01  0.42320193920E+02  0.10566000000E+00 0.  1.
         23    2    1    0    0    0 -0.26588276598E+02 -0.96470769167E+01 -0.59830510988E+01  0.96089803772E+02  0.91637606599E+02 0.  0.
         13    1    3    3    0    0 -0.46466269774E+02  0.27033294648E+02  0.11164825859E+01  0.53769609852E+02  0.10566000000E+00 0. -1.
         22    1    1    0    0    0  0.26588276598E+02  0.96470769167E+01  0.59830510988E+01  0.28910196228E+02  0.00000000000E+00 0. -1.
</event>
<event>
 5    1  0.1758480E-003  0.9118800E+02  0.7818608E-02  0.1130116E+00
         25   -1    0    0    0    0  0.00000000000E+00  0.00000000000E+00  0.99999998245E-14  0.12500000000E+03  0.12500000000E+03 0.  0.
        -13    1    3    3    0    0  0.61077903498E+01  0.28333920696E+01  0.35710251228E+02  0.36339598517E+02  0.10566000000E+00 0.  1.
         23    2    1    0    0    0 -0.26007521601E+02 -0.38713350114E+01 -0.13468366608E+02  0.95457229079E+02  0.90770629995E+02 0.  0.
         13    1    3    3    0    0 -0.32115311951E+02 -0.67047270810E+01 -0.49178617836E+02  0.59117630562E+02  0.10566000000E+00 0. -1.
         22    1    1    0    0    0  0.26007521601E+02  0.38713350114E+01  0.13468366608E+02  0.29542770921E+02  0.00000000000E+00 0. -1.
</event>
<event>
 5    1  0.1758480E-003  0.9118800E+02  0.7818608E-02  0.1130116E+00
         25   -1    0    0    0    0  0.00000000000E+00  0.00000000000E+00  0.99999998245E-14  0.12500000000E+03  0.12500000000E+03 0.  0.
        -13    1    3    3    0    0 -0.23131008152E+02  0.43796402188E+02  0.17759996924E+02  0.52617459437E+02  0.10566000000E+00 0.  1.
         23    2    1    0    0    0 -0.28818708242E+02  0.29951441266E+01  0.72925531041E+01  0.95122413687E+02  0.90308379577E+02 0.  0.
         13    1    3    3    0    0 -0.56877000898E+01 -0.40801258061E+02 -0.10467443820E+02  0.42504954251E+02  0.10566000000E+00 0. -1.
         22    1    1    0    0    0  0.28818708242E+02 -0.29951441266E+01 -0.72925531041E+01  0.29877586313E+02  0.00000000000E+00 0.  1.
</event>
<event>
 5    1  0.1758480E-003  0.9118800E+02  0.7818608E-02  0.1130116E+00
         25   -1    0    0    0    0  0.00000000000E+00  0.00000000000E+00  0.99999998245E-14  0.12500000000E+03  0.12500000000E+03 0.  0.
        -13    1    3    3    0    0  0.32507079115E+02 -0.16773706172E+02  0.23636235301E+02  0.43551695657E+02  0.10566000000E+00 0.  1.
         23    2    1    0    0    0 -0.11515844589E+02  0.18834535477E+01  0.30951973345E+02  0.91921506567E+02  0.85763492476E+02 0.  0.
         13    1    3    3    0    0 -0.44022923705E+02  0.18657159720E+02  0.73157380445E+01  0.48369810910E+02  0.10566000000E+00 0. -1.
         22    1    1    0    0    0  0.11515844589E+02 -0.18834535477E+01 -0.30951973345E+02  0.33078493433E+02  0.00000000000E+00 0.  1.
</event>
<event>
 5    1  0.1758480E-003  0.9118800E+02  0.7818608E-02  0.1130116E+00
         25   -1    0    0    0    0  0.00000000000E+00  0.00000000000E+00  0.99999998245E-14  0.12500000000E+03  0.12500000000E+03 0.  0.
        -13    1    3    3    0    0  0.48283071573E+02  0.13896456507E+02 -0.25995323688E+02  0.56569731498E+02  0.10566000000E+00 0.  1.
         23    2    1    0    0    0  0.28317118233E+02  0.77496193511E+00  0.55420482030E+01  0.96135245553E+02  0.91699571363E+02 0.  0.
         13    1    3    3    0    0 -0.19965953340E+02 -0.13121494572E+02  0.31537371891E+02  0.39565514055E+02  0.10566000000E+00 0. -1.
         22    1    1    0    0    0 -0.28317118233E+02 -0.77496193511E+00 -0.55420482030E+01  0.28864754447E+02  0.00000000000E+00 0.  1.
</event>
<event>
 5    1  0.1758480E-003  0.9118800E+02  0.7818608E-02  0.1130116E+00
         25   -1    0    0    0    0  0.00000000000E+00  0.00000000000E+00  0.99999998245E-14  0.12500000000E+03  0.12500000000E+03 0.  0.
        -13    1    3    3    0    0  0.53983139260E+02  0.87620451335E+01  0.25265492191E+02  0.60243746721E+02  0.10566000000E+00 0. -1.
         23    2    1    0    0    0  0.26310777727E+02  0.12324096994E+02  0.32889170977E+01  0.95760345983E+02  0.91187096104E+02 0.  0.
         13    1    3    3    0    0 -0.27672361533E+02  0.35620518610E+01 -0.21976575094E+02  0.35516599262E+02  0.10566000000E+00 0.  1.
         22    1    1    0    0    0 -0.26310777727E+02 -0.12324096994E+02 -0.32889170977E+01  0.29239654017E+02  0.00000000000E+00 0. -1.
</event>
<event>
 5    1  0.1758480E-003  0.9118800E+02  0.7818608E-02  0.1130116E+00
         25   -1    0    0    0    0  0.00000000000E+00  0.00000000000E+00  0.99999998245E-14  0.12500000000E+03  0.12500000000E+03 0.  0.
        -13    1    3    3    0    0  0.36702704871E+02 -0.36939945847E+02  0.25888972398E+01  0.52137910362E+02  0.10566000000E+00 0. -1.
         23    2    1    0    0    0  0.10628374292E+02 -0.17342726785E+02  0.25781460293E+02  0.92160752029E+02  0.86111485920E+02 0.  0.
         13    1    3    3    0    0 -0.26074330579E+02  0.19597219062E+02  0.23192563053E+02  0.40022841667E+02  0.10566000000E+00 0.  1.
         22    1    1    0    0    0 -0.10628374292E+02  0.17342726785E+02 -0.25781460293E+02  0.32839247971E+02  0.00000000000E+00 0. -1.
</event>
<event>
 5    1  0.1758480E-003  0.9118800E+02  0.7818608E-02  0.1130116E+00
         25   -1    0    0    0    0  0.00000000000E+00  0.00000000000E+00  0.99999998245E-14  0.12500000000E+03  0.12500000000E+03 0.  0.
        -13    1    3    3    0    0  0.31767460289E+02 -0.20734350466E+02  0.41149036822E+02  0.55967304902E+02  0.10566000000E+00 0.  1.
         23    2    1    0    0    0  0.11842627798E+02 -0.26186637123E+02  0.77587788076E+01  0.95231116152E+02  0.90458714550E+02 0.  0.
         13    1    3    3    0    0 -0.19924832491E+02 -0.54522866563E+01 -0.33390258015E+02  0.39263811250E+02  0.10566000000E+00 0. -1.
         22    1    1    0    0    0 -0.11842627798E+02  0.26186637123E+02 -0.77587788076E+01  0.29768883848E+02  0.00000000000E+00 0. -1.
</event>
<event>
 5    1  0.1758480E-003  0.9118800E+02  0.7818608E-02  0.1130116E+00
         25   -1    0    0    0    0  0.00000000000E+00  0.00000000000E+00  0.99999998245E-14  0.12500000000E+03  0.12500000000E+03 0.  0.
        -13    1    3    3    0    0  0.68907305387E+01 -0.11259864976E+02  0.39441094525E+02  0.41591800009E+02  0.10566000000E+00 0. -1.
         23    2    1    0    0    0 -0.16236468395E+02 -0.14829983933E+02 -0.13306647336E+02  0.99297506099E+02  0.95913380322E+02 0.  0.
         13    1    3    3    0    0 -0.23127198934E+02 -0.35701189572E+01 -0.52747741861E+02  0.57705706090E+02  0.10566000000E+00 0.  1.
         22    1    1    0    0    0  0.16236468395E+02  0.14829983933E+02  0.13306647336E+02  0.25702493901E+02  0.00000000000E+00 0.  1.
</event>
<event>
 5    1  0.1758480E-003  0.9118800E+02  0.7818608E-02  0.1130116E+00
         25   -1    0    0    0    0  0.00000000000E+00  0.00000000000E+00  0.99999998245E-14  0.12500000000E+03  0.12500000000E+03 0.  0.
        -13    1    3    3    0    0 -0.15887419750E+02  0.42443390011E+02 -0.25017839274E+01  0.45388561872E+02  0.10566000000E+00 0.  1.
         23    2    1    0    0    0 -0.80476303385E+01 -0.54301640992E+01  0.22884870633E+02  0.10014103099E+03  0.97006483022E+02 0.  0.
         13    1    3    3    0    0  0.78397894116E+01 -0.47873554110E+02  0.25386654560E+02  0.54752469122E+02  0.10566000000E+00 0. -1.
         22    1    1    0    0    0  0.80476303385E+01  0.54301640992E+01 -0.22884870633E+02  0.24858969007E+02  0.00000000000E+00 0. -1.
</event>
<event>
 5    1  0.1758480E-003  0.9118800E+02  0.7818608E-02  0.1130116E+00
         25   -1    0    0    0    0  0.00000000000E+00  0.00000000000E+00  0.99999998245E-14  0.12500000000E+03  0.12500000000E+03 0.  0.
        -13    1    3    3    0    0  0.27905014366E+02 -0.27047715636E+01 -0.52513786735E+02  0.59529106975E+02  0.10566000000E+00 0.  1.
         23    2    1    0    0    0  0.13743912801E+02  0.12241611538E+02 -0.22411127929E+02  0.95999812980E+02  0.91514770639E+02 0.  0.
         13    1    3    3    0    0 -0.14161101565E+02  0.14946383101E+02  0.30102658806E+02  0.36470706006E+02  0.10566000000E+00 0. -1.
         22    1    1    0    0    0 -0.13743912801E+02 -0.12241611538E+02  0.22411127929E+02  0.29000187020E+02  0.00000000000E+00 0.  1.
</event>
<event>
 5    1  0.1758480E-003  0.9118800E+02  0.7818608E-02  0.1130116E+00
         25   -1    0    0    0    0  0.00000000000E+00  0.00000000000E+00  0.99999998245E-14  0.12500000000E+03  0.12500000000E+03 0.  0.
        -13    1    3    3    0    0 -0.79406187140E+01  0.36293331111E+02 -0.15001975592E+01  0.37182268159E+02  0.10566000000E+00 0. -1.
         23    2    1    0    0    0 -0.12837851457E+02 -0.20889921460E+02 -0.15152597832E+02  0.96176390412E+02  0.91755640714E+02 0.  0.
         13    1    3    3    0    0 -0.48972327428E+01 -0.57183252571E+02 -0.13652400272E+02  0.58994122253E+02  0.10566000000E+00 0.  1.
         22    1    1    0    0    0  0.12837851457E+02  0.20889921460E+02  0.15152597832E+02  0.28823609588E+02  0.00000000000E+00 0.  1.
</event>
<event>
 5    1  0.1758480E-003  0.9118800E+02  0.7818608E-02  0.1130116E+00
         25   -1    0    0    0    0  0.00000000000E+00  0.00000000000E+00  0.99999998245E-14  0.12500000000E+03  0.12500000000E+03 0.  0.
        -13    1    3    3    0    0 -0.13641753637E+02 -0.12793103623E+02 -0.28240343726E+02  0.33871656594E+02  0.10566000000E+00 0. -1.
         23    2    1    0    0    0  0.13829088919E+02  0.24103732869E+02  0.11754089507E+02  0.94827292818E+02  0.89898961087E+02 0.  0.
         13    1    3    3    0    0  0.27470842556E+02  0.36896836491E+02  0.39994433233E+02  0.60955636224E+02  0.10566000000E+00 0.  1.
         22    1    1    0    0    0 -0.13829088919E+02 -0.24103732869E+02 -0.11754089507E+02  0.30172707182E+02  0.00000000000E+00 0.  1.
</event>
<event>
 5    1  0.1758480E-003  0.9118800E+02  0.7818608E-02  0.1130116E+00
         25   -1    0    0    0    0  0.00000000000E+00  0.00000000000E+00  0.99999998245E-14  0.12500000000E+03  0.12500000000E+03 0.  0.
        -13    1    3    3    0    0  0.13742195734E+02  0.22382594017E+02 -0.25627780365E+02  0.36696358798E+02  0.10566000000E+00 0.  1.
         23    2    1    0    0    0  0.10044784866E+02 -0.13600133236E+02  0.22470914689E+02  0.96878774316E+02  0.92707570235E+02 0.  0.
         13    1    3    3    0    0 -0.36974108689E+01 -0.35982727252E+02  0.48098695054E+02  0.60182415518E+02  0.10566000000E+00 0. -1.
         22    1    1    0    0    0 -0.10044784866E+02  0.13600133236E+02 -0.22470914689E+02  0.28121225684E+02  0.00000000000E+00 0. -1.
</event>
<event>
 5    1  0.1758480E-003  0.9118800E+02  0.7818608E-02  0.1130116E+00
         25   -1    0    0    0    0  0.00000000000E+00  0.00000000000E+00  0.99999998245E-14  0.12500000000E+03  0.12500000000E+03 0.  0.
        -13    1    3    3    0    0  0.84264857357E+01  0.24901370367E+02 -0.21541974163E+02  0.33987523047E+02  0.10566000000E+00 0. -1.
         23    2    1    0    0    0  0.12534238668E+02 -0.21588143496E+02  0.17234772241E+02  0.94665325899E+02  0.89673471411E+02 0.  0.
         13    1    3    3    0    0  0.41077529327E+01 -0.46489513863E+02  0.38776746404E+02  0.60677802853E+02  0.10566000000E+00 0.  1.
         22    1    1    0    0    0 -0.12534238668E+02  0.21588143496E+02 -0.17234772241E+02  0.30334674101E+02  0.00000000000E+00 0.  1.
</event>
<event>
 5    1  0.1758480E-003  0.9118800E+02  0.7818608E-02  0.1130116E+00
         25   -1    0    0    0    0  0.00000000000E+00  0.00000000000E+00  0.99999998245E-14  0.12500000000E+03  0.12500000000E+03 0.  0.
        -13    1    3    3    0    0  0.11854735609E+02 -0.17050237097E+02  0.33337599188E+02  0.39276609134E+02  0.10566000000E+00 0.  1.
         23    2    1    0    0    0 -0.16739965161E+02  0.23110421020E+02  0.53528919262E+01  0.95966029461E+02  0.91468614099E+02 0.  0.
         13    1    3    3    0    0 -0.28594700770E+02  0.40160658116E+02 -0.27984707262E+02  0.56689420327E+02  0.10566000000E+00 0. -1.
         22    1    1    0    0    0  0.16739965161E+02 -0.23110421020E+02 -0.53528919262E+01  0.29033970539E+02  0.00000000000E+00 0. -1.
</event>
<event>
 5    1  0.1758480E-003  0.9118800E+02  0.7818608E-02  0.1130116E+00
         25   -1    0    0    0    0  0.00000000000E+00  0.00000000000E+00  0.99999998245E-14  0.12500000000E+03  0.12500000000E+03 0.  0.
        -13    1    3    3    0    0  0.29244031701E+02  0.33467704377E+02  0.57209903126E+01  0.44811176291E+02  0.10566000000E+00 0. -1.
         23    2    1    0    0    0 -0.59357220151E+01  0.27204879517E+01  0.27768180938E+02  0.96474472430E+02  0.92160827403E+02 0.  0.
         13    1    3    3    0    0 -0.35179753716E+02 -0.30747216425E+02  0.22047190625E+02  0.51663296139E+02  0.10566000000E+00 0.  1.
         22    1    1    0    0    0  0.59357220151E+01 -0.27204879517E+01 -0.27768180938E+02  0.28525527570E+02  0.00000000000E+00 0.  1.
</event>
<event>
 5    1  0.1758480E-003  0.9118800E+02  0.7818608E-02  0.1130116E+00
         25   -1    0    0    0    0  0.00000000000E+00  0.00000000000E+00  0.99999998245E-14  0.12500000000E+03  0.12500000000E+03 0.  0.
        -13    1    3    3    0    0 -0.28139791010E+02  0.39008301829E+02 -0.23046392697E+02  0.53335193166E+02  0.10566000000E+00 0.  1.
         23    2    1    0    0    0 -0.28730184048E+02  0.21278287702E+02  0.73225903317E+01  0.88506037045E+02  0.80631936981E+02 0.  0.
         13    1    3    3    0    0 -0.59039303880E+00 -0.17730014127E+02  0.30368983029E+02  0.35170843879E+02  0.10566000000E+00 0. -1.
         22    1    1    0    0    0  0.28730184048E+02 -0.21278287702E+02 -0.73225903317E+01  0.36493962955E+02  0.00000000000E+00 0.  1.
</event>
<event>
 5    1  0.1758480E-003  0.9118800E+02  0.7818608E-02  0.1130116E+00
         25   -1    0    0    0    0  0.00000000000E+00  0.00000000000E+00  0.99999998245E-14  0.12500000000E+03  0.12500000000E+03 0.  0.
        -13    1    3    3    0    0  0.23371717125E+01  0.10177476207E+02  0.35839175642E+02  0.37329627219E+02  0.10566000000E+00 0.  1.
         23    2    1    0    0    0 -0.24915201346E+02 -0.11205833924E+02 -0.10968519303E+02  0.95561141535E+02  0.90913614952E+02 0.  0.
         13    1    3    3    0    0 -0.27252373059E+02 -0.21383310130E+02 -0.46807694945E+02  0.58231514316E+02  0.10566000000E+00 0. -1.
         22    1    1    0    0    0  0.24915201346E+02  0.11205833924E+02  0.10968519303E+02  0.29438858465E+02  0.00000000000E+00 0. -1.
</event>
<event>
 5    1  0.1758480E-003  0.9118800E+02  0.7818608E-02  0.1130116E+00
         25   -1    0    0    0    0  0.00000000000E+00  0.00000000000E+00  0.99999998245E-14  0.12500000000E+03  0.12500000000E+03 0.  0.
        -13    1    3    3    0    0  0.36123432583E+01  0.51030490994E+01 -0.42440688695E+02  0.42898873585E+02  0.10566000000E+00 0.  1.
         23    2    1    0    0    0 -0.17044146278E+02 -0.23616650354E+02 -0.32508017251E+01  0.95694423600E+02  0.91096684352E+02 0.  0.
         13    1    3    3    0    0 -0.20656489536E+02 -0.28719699453E+02  0.39189886970E+02  0.52795550015E+02  0.10566000000E+00 0. -1.
         22    1    1    0    0    0  0.17044146278E+02  0.23616650354E+02  0.32508017251E+01  0.29305576400E+02  0.00000000000E+00 0. -1.
</event>
<event>
 5    1  0.1758480E-003  0.9118800E+02  0.7818608E-02  0.1130116E+00
         25   -1    0    0    0    0  0.00000000000E+00  0.00000000000E+00  0.99999998245E-14  0.12500000000E+03  0.12500000000E+03 0.  0.
        -13    1    3    3    0    0  0.44428871231E+02 -0.64710859322E+01 -0.30500462970E+02  0.54277886449E+02  0.10566000000E+00 0.  1.
         23    2    1    0    0    0  0.65340034988E+01 -0.16951868446E+02 -0.25174495774E+02  0.93954641522E+02  0.88677282212E+02 0.  0.
         13    1    3    3    0    0 -0.37894867732E+02 -0.10480782514E+02  0.53259671964E+01  0.39676755073E+02  0.10566000000E+00 0. -1.
         22    1    1    0    0    0 -0.65340034988E+01  0.16951868446E+02  0.25174495774E+02  0.31045358478E+02  0.00000000000E+00 0.  1.
</event>
<event>
 5    1  0.1758480E-003  0.9118800E+02  0.7818608E-02  0.1130116E+00
         25   -1    0    0    0    0  0.00000000000E+00  0.00000000000E+00  0.99999998245E-14  0.12500000000E+03  0.12500000000E+03 0.  0.
        -13    1    3    3    0    0 -0.48857323562E+01  0.16209927048E+02 -0.49870297369E+02  0.52665831801E+02  0.10566000000E+00 0. -1.
         23    2    1    0    0    0  0.64110984564E+01  0.26384921225E+02 -0.88048649373E+01  0.96455440132E+02  0.92135009812E+02 0.  0.
         13    1    3    3    0    0  0.11296830813E+02  0.10174994178E+02  0.41065432432E+02  0.43789608331E+02  0.10566000000E+00 0.  1.
         22    1    1    0    0    0 -0.64110984564E+01 -0.26384921225E+02  0.88048649373E+01  0.28544559868E+02  0.00000000000E+00 0. -1.
</event>
<event>
 5    1  0.1758480E-003  0.9118800E+02  0.7818608E-02  0.1130116E+00
         25   -1    0    0    0    0  0.00000000000E+00  0.00000000000E+00  0.99999998245E-14  0.12500000000E+03  0.12500000000E+03 0.  0.
        -13    1    3    3    0    0 -0.14592452994E+02  0.48081453788E+02 -0.35800876704E+01  0.50374537958E+02  0.10566000000E+00 0.  1.
         23    2    1    0    0    0  0.15490917688E+02  0.16361829675E+02 -0.17735052444E+02  0.96325794059E+02  0.91958950161E+02 0.  0.
         13    1    3    3    0    0  0.30083370682E+02 -0.31719624113E+02 -0.14154964773E+02  0.45951256101E+02  0.10566000000E+00 0. -1.
         22    1    1    0    0    0 -0.15490917688E+02 -0.16361829675E+02  0.17735052444E+02  0.28674205941E+02  0.00000000000E+00 0.  1.
</event>
<event>
 5    1  0.1758480E-003  0.9118800E+02  0.7818608E-02  0.1130116E+00
         25   -1    0    0    0    0  0.00000000000E+00  0.00000000000E+00  0.99999998245E-14  0.12500000000E+03  0.12500000000E+03 0.  0.
        -13    1    3    3    0    0  0.31616635547E+02 -0.58030564719E+01 -0.35090028887E+02  0.47587901814E+02  0.10566000000E+00 0.  1.
         23    2    1    0    0    0 -0.14905941489E+02 -0.76963421556E+01 -0.24448253614E+02  0.95349740658E+02  0.90622487080E+02 0.  0.
         13    1    3    3    0    0 -0.46522577036E+02 -0.18932856837E+01  0.10641775273E+02  0.47761838844E+02  0.10566000000E+00 0. -1.
         22    1    1    0    0    0  0.14905941489E+02  0.76963421556E+01  0.24448253614E+02  0.29650259342E+02  0.00000000000E+00 0.  1.
</event>
<event>
 5    1  0.1758480E-003  0.9118800E+02  0.7818608E-02  0.1130116E+00
         25   -1    0    0    0    0  0.00000000000E+00  0.00000000000E+00  0.99999998245E-14  0.12500000000E+03  0.12500000000E+03 0.  0.
        -13    1    3    3    0    0 -0.24753935707E+02  0.27426073946E+02 -0.19524234996E+02  0.41787004933E+02  0.10566000000E+00 0.  1.
         23    2    1    0    0    0 -0.78388279236E+01 -0.23094501942E+02 -0.17277607556E+02  0.95111557986E+02  0.90293352449E+02 0.  0.
         13    1    3    3    0    0  0.16915107784E+02 -0.50520575888E+02  0.22466274406E+01  0.53324553053E+02  0.10566000000E+00 0. -1.
         22    1    1    0    0    0  0.78388279236E+01  0.23094501942E+02  0.17277607556E+02  0.29888442014E+02  0.00000000000E+00 0. -1.
</event>
<event>
 5    1  0.1758480E-003  0.9118800E+02  0.7818608E-02  0.1130116E+00
         25   -1    0    0    0    0  0.00000000000E+00  0.00000000000E+00  0.99999998245E-14  0.12500000000E+03  0.12500000000E+03 0.  0.
        -13    1    3    3    0    0  0.53210606342E+02 -0.76089278587E+00  0.21481916238E+02  0.57388426311E+02  0.10566000000E+00 0. -1.
         23    2    1    0    0    0  0.18248221400E+02  0.92301559687E+01  0.23551303894E+02  0.93809339882E+02  0.88472227114E+02 0.  0.
         13    1    3    3    0    0 -0.34962384942E+02  0.99910487546E+01  0.20693876557E+01  0.36420913571E+02  0.10566000000E+00 0.  1.
         22    1    1    0    0    0 -0.18248221400E+02 -0.92301559687E+01 -0.23551303894E+02  0.31190660118E+02  0.00000000000E+00 0. -1.
</event>
<event>
 5    1  0.1758480E-003  0.9118800E+02  0.7818608E-02  0.1130116E+00
         25   -1    0    0    0    0  0.00000000000E+00  0.00000000000E+00  0.99999998245E-14  0.12500000000E+03  0.12500000000E+03 0.  0.
        -13    1    3    3    0    0 -0.89512569976E+01 -0.36609205812E+02  0.17075757178E+02  0.41375736843E+02  0.10566000000E+00 0.  1.
         23    2    1    0    0    0 -0.22453839608E+02  0.15392971715E+02  0.11693532350E+02  0.95371345117E+02  0.90652282262E+02 0.  0.
         13    1    3    3    0    0 -0.13502582611E+02  0.52002177527E+02 -0.53822248282E+01  0.53995608274E+02  0.10566000000E+00 0. -1.
         22    1    1    0    0    0  0.22453839608E+02 -0.15392971715E+02 -0.11693532350E+02  0.29628654883E+02  0.00000000000E+00 0. -1.
</event>
<event>
 5    1  0.1758480E-003  0.9118800E+02  0.7818608E-02  0.1130116E+00
         25   -1    0    0    0    0  0.00000000000E+00  0.00000000000E+00  0.99999998245E-14  0.12500000000E+03  0.12500000000E+03 0.  0.
        -13    1    3    3    0    0 -0.34360145611E+01  0.30818329425E+02  0.49455434721E+02  0.58373168598E+02  0.10566000000E+00 0.  1.
         23    2    1    0    0    0  0.14428381316E+02  0.14149698595E+02  0.21932471184E+02  0.95176763255E+02  0.90383576018E+02 0.  0.
         13    1    3    3    0    0  0.17864395877E+02 -0.16668630831E+02 -0.27522963537E+02  0.36803594657E+02  0.10566000000E+00 0. -1.
         22    1    1    0    0    0 -0.14428381316E+02 -0.14149698595E+02 -0.21932471184E+02  0.29823236745E+02  0.00000000000E+00 0.  1.
</event>
<event>
 5    1  0.1758480E-003  0.9118800E+02  0.7818608E-02  0.1130116E+00
         25   -1    0    0    0    0  0.00000000000E+00  0.00000000000E+00  0.99999998245E-14  0.12500000000E+03  0.12500000000E+03 0.  0.
        -13    1    3    3    0    0  0.58001759126E+01  0.56253013243E+02 -0.18951678006E+02  0.59642441288E+02  0.10566000000E+00 0.  1.
         23    2    1    0    0    0 -0.26696898382E+01  0.27605022064E+02  0.35461000933E+01  0.97040398557E+02  0.92925236827E+02 0.  0.
         13    1    3    3    0    0 -0.84698657508E+01 -0.28647991180E+02  0.22497778099E+02  0.37397957269E+02  0.10566000000E+00 0. -1.
         22    1    1    0    0    0  0.26696898382E+01 -0.27605022064E+02 -0.35461000933E+01  0.27959601443E+02  0.00000000000E+00 0.  1.
</event>
<event>
 5    1  0.1758480E-003  0.9118800E+02  0.7818608E-02  0.1130116E+00
         25   -1    0    0    0    0  0.00000000000E+00  0.00000000000E+00  0.99999998245E-14  0.12500000000E+03  0.12500000000E+03 0.  0.
        -13    1    3    3    0    0 -0.17010923317E+02 -0.38988120752E+02 -0.63194429205E+01  0.43004553186E+02  0.10566000000E+00 0.  1.
         23    2    1    0    0    0 -0.28695166658E+02  0.59826980193E+01 -0.17588708167E+02  0.90815677275E+02  0.84136313913E+02 0.  0.
         13    1    3    3    0    0 -0.11684243341E+02  0.44970818771E+02 -0.11269265247E+02  0.47811124089E+02  0.10566000000E+00 0. -1.
         22    1    1    0    0    0  0.28695166658E+02 -0.59826980193E+01  0.17588708167E+02  0.34184322725E+02  0.00000000000E+00 0. -1.
</event>
<event>
 5    1  0.1758480E-003  0.9118800E+02  0.7818608E-02  0.1130116E+00
         25   -1    0    0    0    0  0.00000000000E+00  0.00000000000E+00  0.99999998245E-14  0.12500000000E+03  0.12500000000E+03 0.  0.
        -13    1    3    3    0    0  0.75697450816E+01  0.16659927333E+02  0.33500320962E+02  0.38172462429E+02  0.10566000000E+00 0.  1.
         23    2    1    0    0    0 -0.24365787419E+02 -0.16828146284E+02 -0.14815960995E+00  0.95387501706E+02  0.90674557769E+02 0.  0.
         13    1    3    3    0    0 -0.31935532501E+02 -0.33488073616E+02 -0.33648480572E+02  0.57215039277E+02  0.10566000000E+00 0. -1.
         22    1    1    0    0    0  0.24365787419E+02  0.16828146284E+02  0.14815960995E+00  0.29612498294E+02  0.00000000000E+00 0. -1.
</event>
<event>
 5    1  0.1758480E-003  0.9118800E+02  0.7818608E-02  0.1130116E+00
         25   -1    0    0    0    0  0.00000000000E+00  0.00000000000E+00  0.99999998245E-14  0.12500000000E+03  0.12500000000E+03 0.  0.
        -13    1    3    3    0    0  0.10272536563E+02 -0.29509906392E+02 -0.22448156643E+02  0.38474543316E+02  0.10566000000E+00 0.  1.
         23    2    1    0    0    0 -0.31360898210E+02  0.18761837601E+01 -0.89881896642E+01  0.92322583403E+02  0.86346081849E+02 0.  0.
         13    1    3    3    0    0 -0.41633434773E+02  0.31386090152E+02  0.13459966978E+02  0.53848040086E+02  0.10566000000E+00 0. -1.
         22    1    1    0    0    0  0.31360898210E+02 -0.18761837601E+01  0.89881896642E+01  0.32677416597E+02  0.00000000000E+00 0. -1.
</event>
<event>
 5    1  0.1758480E-003  0.9118800E+02  0.7818608E-02  0.1130116E+00
         25   -1    0    0    0    0  0.00000000000E+00  0.00000000000E+00  0.99999998245E-14  0.12500000000E+03  0.12500000000E+03 0.  0.
        -13    1    3    3    0    0 -0.21680347092E+02 -0.24988626135E+01  0.31833054618E+02  0.38595806699E+02  0.10566000000E+00 0.  1.
         23    2    1    0    0    0  0.22094412929E+02 -0.17125864241E+02 -0.36434778080E+01  0.96808986552E+02  0.92613425798E+02 0.  0.
         13    1    3    3    0    0  0.43774760022E+02 -0.14627001627E+02 -0.35476532426E+02  0.58213179853E+02  0.10566000000E+00 0. -1.
         22    1    1    0    0    0 -0.22094412929E+02  0.17125864241E+02  0.36434778080E+01  0.28191013448E+02  0.00000000000E+00 0. -1.
</event>
<event>
 5    1  0.1758480E-003  0.9118800E+02  0.7818608E-02  0.1130116E+00
         25   -1    0    0    0    0  0.00000000000E+00  0.00000000000E+00  0.99999998245E-14  0.12500000000E+03  0.12500000000E+03 0.  0.
        -13    1    3    3    0    0 -0.12311174012E+02  0.87262310819E+01  0.45250430775E+02  0.47700364399E+02  0.10566000000E+00 0.  1.
         23    2    1    0    0    0  0.24506626263E+02 -0.13912822146E+00  0.14172931700E+02  0.96689823730E+02  0.92452452279E+02 0.  0.
         13    1    3    3    0    0  0.36817800275E+02 -0.88653593033E+01 -0.31077499075E+02  0.48989459330E+02  0.10566000000E+00 0. -1.
         22    1    1    0    0    0 -0.24506626263E+02  0.13912822146E+00 -0.14172931700E+02  0.28310176270E+02  0.00000000000E+00 0.  1.
</event>
<event>
 5    1  0.1758480E-003  0.9118800E+02  0.7818608E-02  0.1130116E+00
         25   -1    0    0    0    0  0.00000000000E+00  0.00000000000E+00  0.99999998245E-14  0.12500000000E+03  0.12500000000E+03 0.  0.
        -13    1    3    3    0    0 -0.30584349437E+02  0.97806410111E+01  0.72747483306E+01  0.32924102059E+02  0.10566000000E+00 0.  1.
         23    2    1    0    0    0  0.22966210773E+02 -0.35421446233E+01  0.24984541512E+02  0.90879317997E+02  0.84230810866E+02 0.  0.
         13    1    3    3    0    0  0.53550560210E+02 -0.13322785634E+02  0.17709793182E+02  0.57955215938E+02  0.10566000000E+00 0. -1.
         22    1    1    0    0    0 -0.22966210773E+02  0.35421446233E+01 -0.24984541512E+02  0.34120682003E+02  0.00000000000E+00 0. -1.
</event>
<event>
 5    1  0.1758480E-003  0.9118800E+02  0.7818608E-02  0.1130116E+00
         25   -1    0    0    0    0  0.00000000000E+00  0.00000000000E+00  0.99999998245E-14  0.12500000000E+03  0.12500000000E+03 0.  0.
        -13    1    3    3    0    0  0.75331627777E+01 -0.28704388672E+02 -0.18934246316E+02  0.35202376597E+02  0.10566000000E+00 0.  1.
         23    2    1    0    0    0 -0.45950294650E+01  0.61049505057E+01  0.28624029175E+02  0.95373664374E+02  0.90655480217E+02 0.  0.
         13    1    3    3    0    0 -0.12128192243E+02  0.34809339178E+02  0.47558275490E+02  0.60171287777E+02  0.10566000000E+00 0. -1.
         22    1    1    0    0    0  0.45950294650E+01 -0.61049505057E+01 -0.28624029175E+02  0.29626335626E+02  0.00000000000E+00 0. -1.
</event>
<event>
 5    1  0.1758480E-003  0.9118800E+02  0.7818608E-02  0.1130116E+00
         25   -1    0    0    0    0  0.00000000000E+00  0.00000000000E+00  0.99999998245E-14  0.12500000000E+03  0.12500000000E+03 0.  0.
        -13    1    3    3    0    0  0.87873253781E+01 -0.43193902650E+02  0.36866761230E+02  0.57463897893E+02  0.10566000000E+00 0.  1.
         23    2    1    0    0    0 -0.12601694471E+01 -0.40031457799E+01  0.25033355988E+02  0.99617287079E+02  0.96329236319E+02 0.  0.
         13    1    3    3    0    0 -0.10047494825E+02  0.39190756870E+02 -0.11833405241E+02  0.42153389187E+02  0.10566000000E+00 0. -1.
         22    1    1    0    0    0  0.12601694471E+01  0.40031457799E+01 -0.25033355988E+02  0.25382712921E+02  0.00000000000E+00 0.  1.
</event>
<event>
 5    1  0.1758480E-003  0.9118800E+02  0.7818608E-02  0.1130116E+00
         25   -1    0    0    0    0  0.00000000000E+00  0.00000000000E+00  0.99999998245E-14  0.12500000000E+03  0.12500000000E+03 0.  0.
        -13    1    3    3    0    0  0.33859105610E+02  0.22230939049E+02 -0.34639043805E+00  0.40506602352E+02  0.10566000000E+00 0.  1.
         23    2    1    0    0    0 -0.13496199332E+02  0.61931695729E+01 -0.24746348153E+02  0.96140261736E+02  0.91706408903E+02 0.  0.
         13    1    3    3    0    0 -0.47355304942E+02 -0.16037769476E+02 -0.24399957715E+02  0.55633659384E+02  0.10566000000E+00 0. -1.
         22    1    1    0    0    0  0.13496199332E+02 -0.61931695729E+01  0.24746348153E+02  0.28859738264E+02  0.00000000000E+00 0. -1.
</event>
<event>
 5    1  0.1758480E-003  0.9118800E+02  0.7818608E-02  0.1130116E+00
         25   -1    0    0    0    0  0.00000000000E+00  0.00000000000E+00  0.99999998245E-14  0.12500000000E+03  0.12500000000E+03 0.  0.
        -13    1    3    3    0    0  0.32125451802E+02  0.89031617535E+01  0.89216747438E+01  0.34509685408E+02  0.10566000000E+00 0. -1.
         23    2    1    0    0    0 -0.10214024559E+02 -0.25893486329E+02 -0.13914243502E+02  0.93880792038E+02  0.88573122387E+02 0.  0.
         13    1    3    3    0    0 -0.42339476361E+02 -0.34796648082E+02 -0.22835918246E+02  0.59371106630E+02  0.10566000000E+00 0.  1.
         22    1    1    0    0    0  0.10214024559E+02  0.25893486329E+02  0.13914243502E+02  0.31119207962E+02  0.00000000000E+00 0.  1.
</event>
<event>
 5    1  0.1758480E-003  0.9118800E+02  0.7818608E-02  0.1130116E+00
         25   -1    0    0    0    0  0.00000000000E+00  0.00000000000E+00  0.99999998245E-14  0.12500000000E+03  0.12500000000E+03 0.  0.
        -13    1    3    3    0    0  0.14297559924E+02  0.52512658250E+02  0.25078029334E+01  0.54482104731E+02  0.10566000000E+00 0.  1.
         23    2    1    0    0    0 -0.15420945055E+02  0.25775709418E+02  0.50641358697E+01  0.94539563127E+02  0.89497993171E+02 0.  0.
         13    1    3    3    0    0 -0.29718504979E+02 -0.26736948832E+02  0.25563329363E+01  0.40057458396E+02  0.10566000000E+00 0. -1.
         22    1    1    0    0    0  0.15420945055E+02 -0.25775709418E+02 -0.50641358697E+01  0.30460436873E+02  0.00000000000E+00 0.  1.
</event>
<event>
 5    1  0.1758480E-003  0.9118800E+02  0.7818608E-02  0.1130116E+00
         25   -1    0    0    0    0  0.00000000000E+00  0.00000000000E+00  0.99999998245E-14  0.12500000000E+03  0.12500000000E+03 0.  0.
        -13    1    3    3    0    0  0.44101107321E+02 -0.19594778712E+02  0.26740802883E+02  0.55171955943E+02  0.10566000000E+00 0.  1.
         23    2    1    0    0    0  0.26148878273E+02 -0.95098308408E+01 -0.84294841576E+01  0.95926697457E+02  0.91414847614E+02 0.  0.
         13    1    3    3    0    0 -0.17952229048E+02  0.10084947871E+02 -0.35170287041E+02  0.40754741514E+02  0.10566000000E+00 0. -1.
         22    1    1    0    0    0 -0.26148878273E+02  0.95098308408E+01  0.84294841576E+01  0.29073302543E+02  0.00000000000E+00 0. -1.
</event>
<event>
 5    1  0.1758480E-003  0.9118800E+02  0.7818608E-02  0.1130116E+00
         25   -1    0    0    0    0  0.00000000000E+00  0.00000000000E+00  0.99999998245E-14  0.12500000000E+03  0.12500000000E+03 0.  0.
        -13    1    3    3    0    0 -0.74889815430E+01 -0.10569315010E+02  0.39432965828E+02  0.41506207035E+02  0.10566000000E+00 0.  1.
         23    2    1    0    0    0 -0.54691404867E+01 -0.24342705884E+02 -0.13771691539E+02  0.96501959449E+02  0.92198101186E+02 0.  0.
         13    1    3    3    0    0  0.20198410563E+01 -0.13773390874E+02 -0.53204657367E+02  0.54995752414E+02  0.10566000000E+00 0. -1.
         22    1    1    0    0    0  0.54691404867E+01  0.24342705884E+02  0.13771691539E+02  0.28498040551E+02  0.00000000000E+00 0. -1.
</event>
<event>
 5    1  0.1758480E-003  0.9118800E+02  0.7818608E-02  0.1130116E+00
         25   -1    0    0    0    0  0.00000000000E+00  0.00000000000E+00  0.99999998245E-14  0.12500000000E+03  0.12500000000E+03 0.  0.
        -13    1    3    3    0    0  0.15121045659E+02  0.39891272123E+02  0.33343897295E+02  0.54145971820E+02  0.10566000000E+00 0.  1.
         23    2    1    0    0    0 -0.15411318300E+02  0.22554716275E+02  0.16477414854E+02  0.93098132371E+02  0.87461609251E+02 0.  0.
         13    1    3    3    0    0 -0.30532363959E+02 -0.17336555848E+02 -0.16866482442E+02  0.38952160551E+02  0.10566000000E+00 0. -1.
         22    1    1    0    0    0  0.15411318300E+02 -0.22554716275E+02 -0.16477414854E+02  0.31901867629E+02  0.00000000000E+00 0.  1.
</event>
<event>
 5    1  0.1758480E-003  0.9118800E+02  0.7818608E-02  0.1130116E+00
         25   -1    0    0    0    0  0.00000000000E+00  0.00000000000E+00  0.99999998245E-14  0.12500000000E+03  0.12500000000E+03 0.  0.
        -13    1    3    3    0    0  0.17118293552E+02 -0.32313202305E+02  0.41843055414E+02  0.55570059094E+02  0.10566000000E+00 0.  1.
         23    2    1    0    0    0  0.22236438112E+02  0.87310594069E-01  0.20866499894E+02  0.94506105187E+02  0.89451250952E+02 0.  0.
         13    1    3    3    0    0  0.51181445599E+01  0.32400512899E+02 -0.20976555520E+02  0.38936046093E+02  0.10566000000E+00 0. -1.
         22    1    1    0    0    0 -0.22236438112E+02 -0.87310594069E-01 -0.20866499894E+02  0.30493894813E+02  0.00000000000E+00 0.  1.
</event>
<event>
 5    1  0.1758480E-003  0.9118800E+02  0.7818608E-02  0.1130116E+00
         25   -1    0    0    0    0  0.00000000000E+00  0.00000000000E+00  0.99999998245E-14  0.12500000000E+03  0.12500000000E+03 0.  0.
        -13    1    3    3    0    0  0.36894902318E+02 -0.99236721098E+01 -0.88528356236E+01  0.39218579116E+02  0.10566000000E+00 0. -1.
         23    2    1    0    0    0 -0.44860218737E+01  0.25666822625E+02  0.10184716695E+02  0.97024320740E+02  0.92903606954E+02 0.  0.
         13    1    3    3    0    0 -0.41380924192E+02  0.35590494735E+02  0.19037552318E+02  0.57805741624E+02  0.10566000000E+00 0.  1.
         22    1    1    0    0    0  0.44860218737E+01 -0.25666822625E+02 -0.10184716695E+02  0.27975679260E+02  0.00000000000E+00 0.  1.
</event>
<event>
 5    1  0.1758480E-003  0.9118800E+02  0.7818608E-02  0.1130116E+00
         25   -1    0    0    0    0  0.00000000000E+00  0.00000000000E+00  0.99999998245E-14  0.12500000000E+03  0.12500000000E+03 0.  0.
        -13    1    3    3    0    0 -0.43174932083E+02 -0.36651969452E+02  0.52586852382E+01  0.56877997148E+02  0.10566000000E+00 0. -1.
         23    2    1    0    0    0 -0.28854454817E+02 -0.17019582134E+01 -0.41409628431E+01  0.95800277436E+02  0.91241818038E+02 0.  0.
         13    1    3    3    0    0  0.14320477266E+02  0.34950011238E+02 -0.93996480813E+01  0.38922280288E+02  0.10566000000E+00 0.  1.
         22    1    1    0    0    0  0.28854454817E+02  0.17019582134E+01  0.41409628431E+01  0.29199722564E+02  0.00000000000E+00 0. -1.
</event>
<event>
 5    1  0.1758480E-003  0.9118800E+02  0.7818608E-02  0.1130116E+00
         25   -1    0    0    0    0  0.00000000000E+00  0.00000000000E+00  0.99999998245E-14  0.12500000000E+03  0.12500000000E+03 0.  0.
        -13    1    3    3    0    0 -0.11699944654E+02  0.38320033684E+02 -0.69304236589E+01  0.40661475902E+02  0.10566000000E+00 0. -1.
         23    2    1    0    0    0 -0.22712543429E+02 -0.97529888350E+01  0.16518434994E+02  0.95270568204E+02  0.90513214787E+02 0.  0.
         13    1    3    3    0    0 -0.11012598775E+02 -0.48073022519E+02  0.23448858653E+02  0.54609092302E+02  0.10566000000E+00 0.  1.
         22    1    1    0    0    0  0.22712543429E+02  0.97529888350E+01 -0.16518434994E+02  0.29729431796E+02  0.00000000000E+00 0.  1.
</event>
<event>
 5    1  0.1758480E-003  0.9118800E+02  0.7818608E-02  0.1130116E+00
         25   -1    0    0    0    0  0.00000000000E+00  0.00000000000E+00  0.99999998245E-14  0.12500000000E+03  0.12500000000E+03 0.  0.
        -13    1    3    3    0    0  0.15955853481E+02  0.13273411592E+02 -0.42113677259E+02  0.46950459975E+02  0.10566000000E+00 0.  1.
         23    2    1    0    0    0 -0.20187780597E+02 -0.89775564433E+01 -0.21638179179E+02  0.94075029454E+02  0.88846819658E+02 0.  0.
         13    1    3    3    0    0 -0.36143634078E+02 -0.22250968035E+02  0.20475498080E+02  0.47124569479E+02  0.10566000000E+00 0. -1.
         22    1    1    0    0    0  0.20187780597E+02  0.89775564433E+01  0.21638179179E+02  0.30924970546E+02  0.00000000000E+00 0.  1.
</event>
<event>
 5    1  0.1758480E-003  0.9118800E+02  0.7818608E-02  0.1130116E+00
         25   -1    0    0    0    0  0.00000000000E+00  0.00000000000E+00  0.99999998245E-14  0.12500000000E+03  0.12500000000E+03 0.  0.
        -13    1    3    3    0    0 -0.35527014818E+02  0.56144847966E+01 -0.14714379662E+02  0.38861489347E+02  0.10566000000E+00 0.  1.
         23    2    1    0    0    0  0.19618295386E+02 -0.67944457486E+01 -0.20675808964E+02  0.95699298929E+02  0.91103373880E+02 0.  0.
         13    1    3    3    0    0  0.55145310204E+02 -0.12408930545E+02 -0.59614293029E+01  0.56837809583E+02  0.10566000000E+00 0. -1.
         22    1    1    0    0    0 -0.19618295386E+02  0.67944457486E+01  0.20675808964E+02  0.29300701071E+02  0.00000000000E+00 0. -1.
</event>
<event>
 5    1  0.1758480E-003  0.9118800E+02  0.7818608E-02  0.1130116E+00
         25   -1    0    0    0    0  0.00000000000E+00  0.00000000000E+00  0.99999998245E-14  0.12500000000E+03  0.12500000000E+03 0.  0.
        -13    1    3    3    0    0  0.29724115006E+01 -0.13721395206E+02 -0.33090277454E+02  0.35945647060E+02  0.10566000000E+00 0.  1.
         23    2    1    0    0    0 -0.19413451470E+02  0.17183361701E+02  0.13175213478E+02  0.95918454863E+02  0.91403576056E+02 0.  0.
         13    1    3    3    0    0 -0.22385862971E+02  0.30904756908E+02  0.46265490933E+02  0.59972807803E+02  0.10566000000E+00 0. -1.
         22    1    1    0    0    0  0.19413451470E+02 -0.17183361701E+02 -0.13175213478E+02  0.29081545137E+02  0.00000000000E+00 0. -1.
</event>
<event>
 5    1  0.1758480E-003  0.9118800E+02  0.7818608E-02  0.1130116E+00
         25   -1    0    0    0    0  0.00000000000E+00  0.00000000000E+00  0.99999998245E-14  0.12500000000E+03  0.12500000000E+03 0.  0.
        -13    1    3    3    0    0  0.32157043003E+02 -0.12504626511E+02 -0.16979409885E+01  0.34544685069E+02  0.10566000000E+00 0. -1.
         23    2    1    0    0    0 -0.24022170858E+02  0.90129783924E+01 -0.13737060111E+02  0.95896644648E+02  0.91373744380E+02 0.  0.
         13    1    3    3    0    0 -0.56179213862E+02  0.21517604903E+02 -0.12039119123E+02  0.61351959579E+02  0.10566000000E+00 0.  1.
         22    1    1    0    0    0  0.24022170858E+02 -0.90129783924E+01  0.13737060111E+02  0.29103355352E+02  0.00000000000E+00 0.  1.
</event>
<event>
 5    1  0.1758480E-003  0.9118800E+02  0.7818608E-02  0.1130116E+00
         25   -1    0    0    0    0  0.00000000000E+00  0.00000000000E+00  0.99999998245E-14  0.12500000000E+03  0.12500000000E+03 0.  0.
        -13    1    3    3    0    0 -0.43058652806E+02 -0.58880564038E+01  0.37946796814E+02  0.57694777426E+02  0.10566000000E+00 0.  1.
         23    2    1    0    0    0 -0.21696996974E+02  0.14292139954E+02  0.14828652033E+02  0.95084889048E+02  0.90256425045E+02 0.  0.
         13    1    3    3    0    0  0.21361655833E+02  0.20180196358E+02 -0.23118144781E+02  0.37390111622E+02  0.10566000000E+00 0. -1.
         22    1    1    0    0    0  0.21696996974E+02 -0.14292139954E+02 -0.14828652033E+02  0.29915110952E+02  0.00000000000E+00 0.  1.
</event>
<event>
 5    1  0.1758480E-003  0.9118800E+02  0.7818608E-02  0.1130116E+00
         25   -1    0    0    0    0  0.00000000000E+00  0.00000000000E+00  0.99999998245E-14  0.12500000000E+03  0.12500000000E+03 0.  0.
        -13    1    3    3    0    0  0.40584702630E+02  0.92146909111E+01  0.44585584096E+02  0.60991098444E+02  0.10566000000E+00 0.  1.
         23    2    1    0    0    0  0.23533080046E+02 -0.11764329219E+00  0.12903421502E+02  0.98161259664E+02  0.94420945324E+02 0.  0.
         13    1    3    3    0    0 -0.17051622584E+02 -0.93323342033E+01 -0.31682162594E+02  0.37170161220E+02  0.10566000000E+00 0. -1.
         22    1    1    0    0    0 -0.23533080046E+02  0.11764329219E+00 -0.12903421502E+02  0.26838740336E+02  0.00000000000E+00 0.  1.
</event>
<event>
 5    1  0.1758480E-003  0.9118800E+02  0.7818608E-02  0.1130116E+00
         25   -1    0    0    0    0  0.00000000000E+00  0.00000000000E+00  0.99999998245E-14  0.12500000000E+03  0.12500000000E+03 0.  0.
        -13    1    3    3    0    0  0.30679140742E+02 -0.15132720702E+02  0.10366366851E+02  0.35744672865E+02  0.10566000000E+00 0.  1.
         23    2    1    0    0    0 -0.11773657136E+02  0.25661173116E+02 -0.43538699481E+01  0.96433043712E+02  0.92104619471E+02 0.  0.
         13    1    3    3    0    0 -0.42452797878E+02  0.40793893818E+02 -0.14720236799E+02  0.60688370846E+02  0.10566000000E+00 0. -1.
         22    1    1    0    0    0  0.11773657136E+02 -0.25661173116E+02  0.43538699481E+01  0.28566956288E+02  0.00000000000E+00 0. -1.
</event>
<event>
 4    1  0.1758480E-003  0.9118800E+02  0.7818608E-02  0.1130116E+00
         25   -1    0    0    0    0  0.00000000000E+00  0.00000000000E+00  0.99999998245E-14  0.12500000000E+03  0.12500000000E+03 0.  0.
        -13    1    1    0    0    0 -0.44934478328E+02  0.98355798868E+01 -0.35852849643E+02  0.58320527825E+02  0.10566000000E+00 0.  1.
         13    1    1    0    0    0 -0.77241480131E+00  0.27962281504E+01  0.14298842118E+02  0.14590530026E+02  0.10566000000E+00 0. -1.
         22    1    1    0    0    0  0.45706893129E+02 -0.12631808037E+02  0.21554007525E+02  0.52088942149E+02  0.00000000000E+00 0.  1.
</event>
<event>
 5    1  0.1758480E-003  0.9118800E+02  0.7818608E-02  0.1130116E+00
         25   -1    0    0    0    0  0.00000000000E+00  0.00000000000E+00  0.99999998245E-14  0.12500000000E+03  0.12500000000E+03 0.  0.
        -13    1    3    3    0    0 -0.28258638864E+02 -0.36486061562E+02  0.29444292759E+02  0.54742678952E+02  0.10566000000E+00 0. -1.
         23    2    1    0    0    0  0.67627927949E+01 -0.16897751798E+02  0.23450102509E+02  0.95315379573E+02  0.90575078765E+02 0.  0.
         13    1    3    3    0    0  0.35021431659E+02  0.19588309764E+02 -0.59941902496E+01  0.40572700621E+02  0.10566000000E+00 0.  1.
         22    1    1    0    0    0 -0.67627927949E+01  0.16897751798E+02 -0.23450102509E+02  0.29684620427E+02  0.00000000000E+00 0. -1.
</event>
<event>
 5    1  0.1758480E-003  0.9118800E+02  0.7818608E-02  0.1130116E+00
         25   -1    0    0    0    0  0.00000000000E+00  0.00000000000E+00  0.99999998245E-14  0.12500000000E+03  0.12500000000E+03 0.  0.
        -13    1    3    3    0    0 -0.22388843116E+01  0.54672750766E+02 -0.22925500452E+02  0.59327160848E+02  0.10566000000E+00 0. -1.
         23    2    1    0    0    0 -0.77629480423E+01  0.28766409584E+02  0.12341457082E+01  0.95178987303E+02  0.90386651812E+02 0.  0.
         13    1    3    3    0    0 -0.55240637307E+01 -0.25906341182E+02  0.24159646160E+02  0.35851826455E+02  0.10566000000E+00 0.  1.
         22    1    1    0    0    0  0.77629480423E+01 -0.28766409584E+02 -0.12341457082E+01  0.29821012697E+02  0.00000000000E+00 0. -1.
</event>
<event>
 5    1  0.1758480E-003  0.9118800E+02  0.7818608E-02  0.1130116E+00
         25   -1    0    0    0    0  0.00000000000E+00  0.00000000000E+00  0.99999998245E-14  0.12500000000E+03  0.12500000000E+03 0.  0.
        -13    1    3    3    0    0  0.85861667662E+01  0.70430835739E+00  0.32448808625E+02  0.33573124001E+02  0.10566000000E+00 0.  1.
         23    2    1    0    0    0 -0.12764503108E+02 -0.80554022812E+01 -0.25175267780E+02  0.95646701151E+02  0.91031177559E+02 0.  0.
         13    1    3    3    0    0 -0.21350669875E+02 -0.87597106386E+01 -0.57624076405E+02  0.62073577150E+02  0.10566000000E+00 0. -1.
         22    1    1    0    0    0  0.12764503108E+02  0.80554022812E+01  0.25175267780E+02  0.29353298849E+02  0.00000000000E+00 0. -1.
</event>
<event>
 5    1  0.1758480E-003  0.9118800E+02  0.7818608E-02  0.1130116E+00
         25   -1    0    0    0    0  0.00000000000E+00  0.00000000000E+00  0.99999998245E-14  0.12500000000E+03  0.12500000000E+03 0.  0.
        -13    1    3    3    0    0 -0.16523391725E+02 -0.33607275577E+02 -0.40413582612E+02  0.55097552300E+02  0.10566000000E+00 0. -1.
         23    2    1    0    0    0 -0.25978953947E+02 -0.14059717505E+02 -0.75095549708E+01  0.94520906832E+02  0.89471932515E+02 0.  0.
         13    1    3    3    0    0 -0.94555622220E+01  0.19547558072E+02  0.32904027641E+02  0.39423354532E+02  0.10566000000E+00 0.  1.
         22    1    1    0    0    0  0.25978953947E+02  0.14059717505E+02  0.75095549708E+01  0.30479093168E+02  0.00000000000E+00 0. -1.
</event>
<event>
 5    1  0.1758480E-003  0.9118800E+02  0.7818608E-02  0.1130116E+00
         25   -1    0    0    0    0  0.00000000000E+00  0.00000000000E+00  0.99999998245E-14  0.12500000000E+03  0.12500000000E+03 0.  0.
        -13    1    3    3    0    0 -0.31159462889E+02  0.77051349976E+01  0.19213363252E+02  0.37409166315E+02  0.10566000000E+00 0.  1.
         23    2    1    0    0    0  0.12013651118E+02 -0.16951767768E+02 -0.16369895053E+02  0.98548842980E+02  0.94932664268E+02 0.  0.
         13    1    3    3    0    0  0.43173114007E+02 -0.24656902765E+02 -0.35583258305E+02  0.61139676665E+02  0.10566000000E+00 0. -1.
         22    1    1    0    0    0 -0.12013651118E+02  0.16951767768E+02  0.16369895053E+02  0.26451157020E+02  0.00000000000E+00 0. -1.
</event>
<event>
 5    1  0.1758480E-003  0.9118800E+02  0.7818608E-02  0.1130116E+00
         25   -1    0    0    0    0  0.00000000000E+00  0.00000000000E+00  0.99999998245E-14  0.12500000000E+03  0.12500000000E+03 0.  0.
        -13    1    3    3    0    0 -0.43674452994E+02  0.24851951959E+02  0.10793827869E+02  0.51396451673E+02  0.10566000000E+00 0.  1.
         23    2    1    0    0    0 -0.12081410804E+02 -0.60413883548E+01  0.23952237876E+02  0.97501480775E+02  0.93543413417E+02 0.  0.
         13    1    3    3    0    0  0.31593042189E+02 -0.30893340314E+02  0.13158410008E+02  0.46105029102E+02  0.10566000000E+00 0. -1.
         22    1    1    0    0    0  0.12081410804E+02  0.60413883548E+01 -0.23952237876E+02  0.27498519225E+02  0.00000000000E+00 0.  1.
</event>
<event>
 5    1  0.1758480E-003  0.9118800E+02  0.7818608E-02  0.1130116E+00
         25   -1    0    0    0    0  0.00000000000E+00  0.00000000000E+00  0.99999998245E-14  0.12500000000E+03  0.12500000000E+03 0.  0.
        -13    1    3    3    0    0 -0.28917932187E+02 -0.18360029929E+02 -0.16687751753E+02  0.38102883403E+02  0.10566000000E+00 0.  1.
         23    2    1    0    0    0 -0.12392962763E+02  0.33970227882E+01  0.30093387190E+02  0.92277878393E+02  0.86281339804E+02 0.  0.
         13    1    3    3    0    0  0.16524969425E+02  0.21757052717E+02  0.46781138943E+02  0.54174994991E+02  0.10566000000E+00 0. -1.
         22    1    1    0    0    0  0.12392962763E+02 -0.33970227882E+01 -0.30093387190E+02  0.32722121607E+02  0.00000000000E+00 0. -1.
</event>
<event>
 5    1  0.1758480E-003  0.9118800E+02  0.7818608E-02  0.1130116E+00
         25   -1    0    0    0    0  0.00000000000E+00  0.00000000000E+00  0.99999998245E-14  0.12500000000E+03  0.12500000000E+03 0.  0.
        -13    1    3    3    0    0  0.29142513372E+02 -0.98086291604E+01 -0.40829645077E+02  0.51113270027E+02  0.10566000000E+00 0.  1.
         23    2    1    0    0    0 -0.98050840627E+01 -0.17022184309E+02 -0.23561055334E+02  0.94323987211E+02  0.89196394562E+02 0.  0.
         13    1    3    3    0    0 -0.38947597435E+02 -0.72135551491E+01  0.17268589743E+02  0.43210717185E+02  0.10566000000E+00 0. -1.
         22    1    1    0    0    0  0.98050840627E+01  0.17022184309E+02  0.23561055334E+02  0.30676012789E+02  0.00000000000E+00 0.  1.
</event>
<event>
 5    1  0.1758480E-003  0.9118800E+02  0.7818608E-02  0.1130116E+00
         25   -1    0    0    0    0  0.00000000000E+00  0.00000000000E+00  0.99999998245E-14  0.12500000000E+03  0.12500000000E+03 0.  0.
        -13    1    3    3    0    0 -0.29318344088E+02  0.38640692744E+02  0.29874007337E+02  0.56966094426E+02  0.10566000000E+00 0.  1.
         23    2    1    0    0    0 -0.24028022119E+02  0.10310867109E+02 -0.51544597972E+00  0.98848030437E+02  0.95325797186E+02 0.  0.
         13    1    3    3    0    0  0.52903219690E+01 -0.28329825636E+02 -0.30389453316E+02  0.41881936011E+02  0.10566000000E+00 0. -1.
         22    1    1    0    0    0  0.24028022119E+02 -0.10310867109E+02  0.51544597972E+00  0.26151969563E+02  0.00000000000E+00 0.  1.
</event>
<event>
 5    1  0.1758480E-003  0.9118800E+02  0.7818608E-02  0.1130116E+00
         25   -1    0    0    0    0  0.00000000000E+00  0.00000000000E+00  0.99999998245E-14  0.12500000000E+03  0.12500000000E+03 0.  0.
        -13    1    3    3    0    0  0.32403640604E+02  0.89502790002E+01  0.13263174049E+02  0.36138986821E+02  0.10566000000E+00 0.  1.
         23    2    1    0    0    0 -0.92482786361E+01 -0.12252016805E+02 -0.24406347940E+02  0.96167511497E+02  0.91743544046E+02 0.  0.
         13    1    3    3    0    0 -0.41651919240E+02 -0.21202295805E+02 -0.37669521989E+02  0.60028524676E+02  0.10566000000E+00 0. -1.
         22    1    1    0    0    0  0.92482786361E+01  0.12252016805E+02  0.24406347940E+02  0.28832488503E+02  0.00000000000E+00 0. -1.
</event>
<event>
 5    1  0.1758480E-003  0.9118800E+02  0.7818608E-02  0.1130116E+00
         25   -1    0    0    0    0  0.00000000000E+00  0.00000000000E+00  0.99999998245E-14  0.12500000000E+03  0.12500000000E+03 0.  0.
        -13    1    3    3    0    0 -0.50267521082E+02  0.40886059466E+00  0.18539768720E+02  0.53579147351E+02  0.10566000000E+00 0. -1.
         23    2    1    0    0    0 -0.24240853361E+02  0.16302552493E+02 -0.87522150548E+01  0.94504205899E+02  0.89448596830E+02 0.  0.
         13    1    3    3    0    0  0.26026667720E+02  0.15893691898E+02 -0.27291983775E+02  0.40925058548E+02  0.10566000000E+00 0.  1.
         22    1    1    0    0    0  0.24240853361E+02 -0.16302552493E+02  0.87522150548E+01  0.30495794101E+02  0.00000000000E+00 0. -1.
</event>
<event>
 5    1  0.1758480E-003  0.9118800E+02  0.7818608E-02  0.1130116E+00
         25   -1    0    0    0    0  0.00000000000E+00  0.00000000000E+00  0.99999998245E-14  0.12500000000E+03  0.12500000000E+03 0.  0.
        -13    1    3    3    0    0  0.10444700373E+01 -0.24425209540E+02  0.48666160108E+02  0.54461803885E+02  0.10566000000E+00 0.  1.
         23    2    1    0    0    0  0.12071932416E+02  0.54461957019E+01  0.31926037338E+02  0.90436081530E+02  0.83570451611E+02 0.  0.
         13    1    3    3    0    0  0.11027462379E+02  0.29871405242E+02 -0.16740122770E+02  0.35974277645E+02  0.10566000000E+00 0. -1.
         22    1    1    0    0    0 -0.12071932416E+02 -0.54461957019E+01 -0.31926037338E+02  0.34563918470E+02  0.00000000000E+00 0.  1.
</event>
<event>
 5    1  0.1758480E-003  0.9118800E+02  0.7818608E-02  0.1130116E+00
         25   -1    0    0    0    0  0.00000000000E+00  0.00000000000E+00  0.99999998245E-14  0.12500000000E+03  0.12500000000E+03 0.  0.
        -13    1    3    3    0    0  0.59479625784E+02  0.10047381003E+02 -0.25220005896E+01  0.60375056103E+02  0.10566000000E+00 0. -1.
         23    2    1    0    0    0  0.29518306236E+02  0.58462949856E+01  0.10243612718E+02  0.93212562708E+02  0.87625000296E+02 0.  0.
         13    1    3    3    0    0 -0.29961319549E+02 -0.42010860177E+01  0.12765613308E+02  0.32837506604E+02  0.10566000000E+00 0.  1.
         22    1    1    0    0    0 -0.29518306236E+02 -0.58462949856E+01 -0.10243612718E+02  0.31787437292E+02  0.00000000000E+00 0. -1.
</event>
<event>
 5    1  0.1758480E-003  0.9118800E+02  0.7818608E-02  0.1130116E+00
         25   -1    0    0    0    0  0.00000000000E+00  0.00000000000E+00  0.99999998245E-14  0.12500000000E+03  0.12500000000E+03 0.  0.
        -13    1    3    3    0    0 -0.24967958102E+02  0.10661525347E+02 -0.18916717232E+02  0.33089581584E+02  0.10566000000E+00 0. -1.
         23    2    1    0    0    0  0.29121748659E+02 -0.31271995749E+01  0.73830185004E+01  0.94794626565E+02  0.89853528820E+02 0.  0.
         13    1    3    3    0    0  0.54089706761E+02 -0.13788724921E+02  0.26299735733E+02  0.61705044981E+02  0.10566000000E+00 0.  1.
         22    1    1    0    0    0 -0.29121748659E+02  0.31271995749E+01 -0.73830185004E+01  0.30205373435E+02  0.00000000000E+00 0.  1.
</event>
<event>
 5    1  0.1758480E-003  0.9118800E+02  0.7818608E-02  0.1130116E+00
         25   -1    0    0    0    0  0.00000000000E+00  0.00000000000E+00  0.99999998245E-14  0.12500000000E+03  0.12500000000E+03 0.  0.
        -13    1    3    3    0    0  0.38716452632E+02  0.53913461055E+01 -0.29630759983E+02  0.49051232588E+02  0.10566000000E+00 0.  1.
         23    2    1    0    0    0 -0.68714192406E+00 -0.16960403698E+02 -0.25264267744E+02  0.94563004710E+02  0.89530727561E+02 0.  0.
         13    1    3    3    0    0 -0.39403594556E+02 -0.22351749803E+02  0.43664922393E+01  0.45511772122E+02  0.10566000000E+00 0. -1.
         22    1    1    0    0    0  0.68714192406E+00  0.16960403698E+02  0.25264267744E+02  0.30436995290E+02  0.00000000000E+00 0.  1.
</event>
<event>
 5    1  0.1758480E-003  0.9118800E+02  0.7818608E-02  0.1130116E+00
         25   -1    0    0    0    0  0.00000000000E+00  0.00000000000E+00  0.99999998245E-14  0.12500000000E+03  0.12500000000E+03 0.  0.
        -13    1    3    3    0    0  0.17529901211E+02 -0.27364452387E+02 -0.25444800599E+02  0.41274201779E+02  0.10566000000E+00 0. -1.
         23    2    1    0    0    0  0.18006865949E+02  0.22904222397E+02 -0.55375944092E+01  0.95343372128E+02  0.90613702230E+02 0.  0.
         13    1    3    3    0    0  0.47696473768E+00  0.50268674784E+02  0.19907206190E+02  0.54069170349E+02  0.10566000000E+00 0.  1.
         22    1    1    0    0    0 -0.18006865949E+02 -0.22904222397E+02  0.55375944092E+01  0.29656627872E+02  0.00000000000E+00 0.  1.
</event>
<event>
 5    1  0.1758480E-003  0.9118800E+02  0.7818608E-02  0.1130116E+00
         25   -1    0    0    0    0  0.00000000000E+00  0.00000000000E+00  0.99999998245E-14  0.12500000000E+03  0.12500000000E+03 0.  0.
        -13    1    3    3    0    0  0.32546075212E+02  0.19199875972E+02  0.27720980974E+02  0.46865191765E+02  0.10566000000E+00 0. -1.
         23    2    1    0    0    0  0.14748245392E+02  0.19771114018E+02 -0.17028144189E+02  0.95027255945E+02  0.90176571160E+02 0.  0.
         13    1    3    3    0    0 -0.17797829820E+02  0.57123804660E+00 -0.44749125163E+02  0.48162064180E+02  0.10566000000E+00 0.  1.
         22    1    1    0    0    0 -0.14748245392E+02 -0.19771114018E+02  0.17028144189E+02  0.29972744055E+02  0.00000000000E+00 0. -1.
</event>
<event>
 5    1  0.1758480E-003  0.9118800E+02  0.7818608E-02  0.1130116E+00
         25   -1    0    0    0    0  0.00000000000E+00  0.00000000000E+00  0.99999998245E-14  0.12500000000E+03  0.12500000000E+03 0.  0.
        -13    1    3    3    0    0 -0.32078632108E+02 -0.29883713652E+02 -0.23796324572E+02  0.49883376056E+02  0.10566000000E+00 0.  1.
         23    2    1    0    0    0 -0.39377965271E-01 -0.32359672957E+02  0.40282019409E+01  0.92390547453E+02  0.86444414876E+02 0.  0.
         13    1    3    3    0    0  0.32039254143E+02 -0.24759593056E+01  0.27824526513E+02  0.42507171398E+02  0.10566000000E+00 0. -1.
         22    1    1    0    0    0  0.39377965271E-01  0.32359672957E+02 -0.40282019409E+01  0.32609452547E+02  0.00000000000E+00 0.  1.
</event>
<event>
 5    1  0.1758480E-003  0.9118800E+02  0.7818608E-02  0.1130116E+00
         25   -1    0    0    0    0  0.00000000000E+00  0.00000000000E+00  0.99999998245E-14  0.12500000000E+03  0.12500000000E+03 0.  0.
        -13    1    3    3    0    0 -0.41147032733E+02  0.24003359748E+02 -0.24100383566E+02  0.53386133349E+02  0.10566000000E+00 0.  1.
         23    2    1    0    0    0 -0.89436791550E+01  0.89951776569E+01 -0.32686971979E+02  0.89938044050E+02  0.82822164983E+02 0.  0.
         13    1    3    3    0    0  0.32203353577E+02 -0.15008182091E+02 -0.85865884123E+01  0.36551910701E+02  0.10566000000E+00 0. -1.
         22    1    1    0    0    0  0.89436791550E+01 -0.89951776569E+01  0.32686971979E+02  0.35061955950E+02  0.00000000000E+00 0.  1.
</event>
<event>
 5    1  0.1758480E-003  0.9118800E+02  0.7818608E-02  0.1130116E+00
         25   -1    0    0    0    0  0.00000000000E+00  0.00000000000E+00  0.99999998245E-14  0.12500000000E+03  0.12500000000E+03 0.  0.
        -13    1    3    3    0    0  0.24736306419E+02 -0.42471829850E+02 -0.71526141938E+01  0.49668020294E+02  0.10566000000E+00 0. -1.
         23    2    1    0    0    0 -0.98012693037E+01 -0.24901426445E+02  0.15018818179E+02  0.94312692878E+02  0.89180565256E+02 0.  0.
         13    1    3    3    0    0 -0.34537575723E+02  0.17570403405E+02  0.22171432372E+02  0.44644672584E+02  0.10566000000E+00 0.  1.
         22    1    1    0    0    0  0.98012693037E+01  0.24901426445E+02 -0.15018818179E+02  0.30687307122E+02  0.00000000000E+00 0. -1.
</event>
<event>
 5    1  0.1758480E-003  0.9118800E+02  0.7818608E-02  0.1130116E+00
         25   -1    0    0    0    0  0.00000000000E+00  0.00000000000E+00  0.99999998245E-14  0.12500000000E+03  0.12500000000E+03 0.  0.
        -13    1    3    3    0    0 -0.42716646756E+01 -0.39819858363E+02  0.36165456059E+02  0.53961278850E+02  0.10566000000E+00 0. -1.
         23    2    1    0    0    0 -0.45085546230E+01  0.10926034072E+01  0.29164031436E+02  0.95469311275E+02  0.90787266832E+02 0.  0.
         13    1    3    3    0    0 -0.23688994739E+00  0.40912461771E+02 -0.70014246232E+01  0.41508032425E+02  0.10566000000E+00 0.  1.
         22    1    1    0    0    0  0.45085546230E+01 -0.10926034072E+01 -0.29164031436E+02  0.29530688725E+02  0.00000000000E+00 0. -1.
</event>
<event>
 5    1  0.1758480E-003  0.9118800E+02  0.7818608E-02  0.1130116E+00
         25   -1    0    0    0    0  0.00000000000E+00  0.00000000000E+00  0.99999998245E-14  0.12500000000E+03  0.12500000000E+03 0.  0.
        -13    1    3    3    0    0  0.23689622520E+02 -0.26873748583E+02 -0.29028433665E+01  0.35942095677E+02  0.10566000000E+00 0.  1.
         23    2    1    0    0    0  0.47403518145E+02  0.43555045642E+01 -0.11368570822E+02  0.76058112469E+02  0.58219654046E+02 0.  0.
         13    1    3    3    0    0  0.23713895626E+02  0.31229253147E+02 -0.84657274554E+01  0.40116016792E+02  0.10566000000E+00 0. -1.
         22    1    1    0    0    0 -0.47403518145E+02 -0.43555045642E+01  0.11368570822E+02  0.48941887531E+02  0.00000000000E+00 0.  1.
</event>
<event>
 5    1  0.1758480E-003  0.9118800E+02  0.7818608E-02  0.1130116E+00
         25   -1    0    0    0    0  0.00000000000E+00  0.00000000000E+00  0.99999998245E-14  0.12500000000E+03  0.12500000000E+03 0.  0.
        -13    1    3    3    0    0  0.14120946406E+02  0.38546665891E+01 -0.44763599619E+02  0.47096184525E+02  0.10566000000E+00 0.  1.
         23    2    1    0    0    0 -0.22157719293E+02 -0.10776289806E+02 -0.17009507769E+02  0.95059787896E+02  0.90221654685E+02 0.  0.
         13    1    3    3    0    0 -0.36278665699E+02 -0.14630956395E+02  0.27754091850E+02  0.47963603371E+02  0.10566000000E+00 0. -1.
         22    1    1    0    0    0  0.22157719293E+02  0.10776289806E+02  0.17009507769E+02  0.29940212104E+02  0.00000000000E+00 0. -1.
</event>
<event>
 5    1  0.1758480E-003  0.9118800E+02  0.7818608E-02  0.1130116E+00
         25   -1    0    0    0    0  0.00000000000E+00  0.00000000000E+00  0.99999998245E-14  0.12500000000E+03  0.12500000000E+03 0.  0.
        -13    1    3    3    0    0 -0.21719142088E+02 -0.16470146923E+02 -0.35789805863E+02  0.44987867702E+02  0.10566000000E+00 0. -1.
         23    2    1    0    0    0 -0.28198561854E+02  0.12591303836E+01  0.10425486370E+02  0.94909551914E+02  0.90013265569E+02 0.  0.
         13    1    3    3    0    0 -0.64794197669E+01  0.17729277306E+02  0.46215292233E+02  0.49921684211E+02  0.10566000000E+00 0.  1.
         22    1    1    0    0    0  0.28198561854E+02 -0.12591303836E+01 -0.10425486370E+02  0.30090448086E+02  0.00000000000E+00 0.  1.
</event>
<event>
 5    1  0.1758480E-003  0.9118800E+02  0.7818608E-02  0.1130116E+00
         25   -1    0    0    0    0  0.00000000000E+00  0.00000000000E+00  0.99999998245E-14  0.12500000000E+03  0.12500000000E+03 0.  0.
        -13    1    3    3    0    0  0.41246525166E+02 -0.24508345371E+02 -0.28554938083E+01  0.48063498001E+02  0.10566000000E+00 0.  1.
         23    2    1    0    0    0  0.51917107493E+01 -0.11994072544E+02  0.25993860399E+02  0.95905457296E+02  0.91385799357E+02 0.  0.
         13    1    3    3    0    0 -0.36054814417E+02  0.12514272827E+02  0.28849354207E+02  0.47841959296E+02  0.10566000000E+00 0. -1.
         22    1    1    0    0    0 -0.51917107493E+01  0.11994072544E+02 -0.25993860399E+02  0.29094542704E+02  0.00000000000E+00 0. -1.
</event>
<event>
 5    1  0.1758480E-003  0.9118800E+02  0.7818608E-02  0.1130116E+00
         25   -1    0    0    0    0  0.00000000000E+00  0.00000000000E+00  0.99999998245E-14  0.12500000000E+03  0.12500000000E+03 0.  0.
        -13    1    3    3    0    0 -0.47004469123E+02 -0.33868932330E+02 -0.94507053971E+01  0.58701377252E+02  0.10566000000E+00 0.  1.
         23    2    1    0    0    0 -0.11944971612E+02 -0.19478584516E+02 -0.15925123300E+02  0.97148480226E+02  0.93070511208E+02 0.  0.
         13    1    3    3    0    0  0.35059497511E+02  0.14390347814E+02 -0.64744179029E+01  0.38447102974E+02  0.10566000000E+00 0. -1.
         22    1    1    0    0    0  0.11944971612E+02  0.19478584516E+02  0.15925123300E+02  0.27851519774E+02  0.00000000000E+00 0.  1.
</event>
<event>
 5    1  0.1758480E-003  0.9118800E+02  0.7818608E-02  0.1130116E+00
         25   -1    0    0    0    0  0.00000000000E+00  0.00000000000E+00  0.99999998245E-14  0.12500000000E+03  0.12500000000E+03 0.  0.
        -13    1    3    3    0    0 -0.54429914193E+01 -0.12375710569E+02 -0.59590344022E+02  0.61104865865E+02  0.10566000000E+00 0. -1.
         23    2    1    0    0    0  0.45064145690E+01  0.40731927643E+00 -0.28308647385E+02  0.96332017894E+02  0.91967409845E+02 0.  0.
         13    1    3    3    0    0  0.99494059883E+01  0.12783029845E+02  0.31281696637E+02  0.35227152029E+02  0.10566000000E+00 0.  1.
         22    1    1    0    0    0 -0.45064145690E+01 -0.40731927643E+00  0.28308647385E+02  0.28667982106E+02  0.00000000000E+00 0. -1.
</event>
<event>
 5    1  0.1758480E-003  0.9118800E+02  0.7818608E-02  0.1130116E+00
         25   -1    0    0    0    0  0.00000000000E+00  0.00000000000E+00  0.99999998245E-14  0.12500000000E+03  0.12500000000E+03 0.  0.
        -13    1    3    3    0    0 -0.35025094107E+02  0.82499762317E+01 -0.35982818768E+02  0.50888051009E+02  0.10566000000E+00 0.  1.
         23    2    1    0    0    0 -0.22741824515E+02  0.19186212294E+02  0.47991321405E+01  0.94861436767E+02  0.89946424008E+02 0.  0.
         13    1    3    3    0    0  0.12283269592E+02  0.10936236062E+02  0.40781950908E+02  0.43973385758E+02  0.10566000000E+00 0. -1.
         22    1    1    0    0    0  0.22741824515E+02 -0.19186212294E+02 -0.47991321405E+01  0.30138563233E+02  0.00000000000E+00 0. -1.
</event>
<event>
 5    1  0.1758480E-003  0.9118800E+02  0.7818608E-02  0.1130116E+00
         25   -1    0    0    0    0  0.00000000000E+00  0.00000000000E+00  0.99999998245E-14  0.12500000000E+03  0.12500000000E+03 0.  0.
        -13    1    3    3    0    0  0.34590909423E+02 -0.12166687010E+02 -0.74588473139E+01  0.37419311255E+02  0.10566000000E+00 0. -1.
         23    2    1    0    0    0 -0.64226300228E+01  0.26331646532E+02  0.96731884645E+01  0.96221946547E+02  0.91817681504E+02 0.  0.
         13    1    3    3    0    0 -0.41013539446E+02  0.38498333542E+02  0.17132035778E+02  0.58802635292E+02  0.10566000000E+00 0.  1.
         22    1    1    0    0    0  0.64226300228E+01 -0.26331646532E+02 -0.96731884645E+01  0.28778053453E+02  0.00000000000E+00 0.  1.
</event>
<event>
 5    1  0.1758480E-003  0.9118800E+02  0.7818608E-02  0.1130116E+00
         25   -1    0    0    0    0  0.00000000000E+00  0.00000000000E+00  0.99999998245E-14  0.12500000000E+03  0.12500000000E+03 0.  0.
        -13    1    3    3    0    0  0.57407222074E+01  0.39044314023E+02  0.31990066746E+02  0.50801475209E+02  0.10566000000E+00 0.  1.
         23    2    1    0    0    0  0.13689741289E+02  0.25049744760E+02 -0.91864957225E+01  0.95011828453E+02  0.90155183507E+02 0.  0.
         13    1    3    3    0    0  0.79490190814E+01 -0.13994569263E+02 -0.41176562468E+02  0.44210353244E+02  0.10566000000E+00 0. -1.
         22    1    1    0    0    0 -0.13689741289E+02 -0.25049744760E+02  0.91864957225E+01  0.29988171547E+02  0.00000000000E+00 0. -1.
</event>
<event>
 5    1  0.1758480E-003  0.9118800E+02  0.7818608E-02  0.1130116E+00
         25   -1    0    0    0    0  0.00000000000E+00  0.00000000000E+00  0.99999998245E-14  0.12500000000E+03  0.12500000000E+03 0.  0.
        -13    1    3    3    0    0 -0.20250700511E+02  0.48009316256E+02 -0.31812677722E+02  0.61049512254E+02  0.10566000000E+00 0.  1.
         23    2    1    0    0    0 -0.94149006190E+01  0.25877098059E+02 -0.58426777107E+01  0.96850374062E+02  0.92669269531E+02 0.  0.
         13    1    3    3    0    0  0.10835799892E+02 -0.22132218196E+02  0.25970000011E+02  0.35800861808E+02  0.10566000000E+00 0. -1.
         22    1    1    0    0    0  0.94149006190E+01 -0.25877098059E+02  0.58426777107E+01  0.28149625938E+02  0.00000000000E+00 0.  1.
</event>
<event>
 5    1  0.1758480E-003  0.9118800E+02  0.7818608E-02  0.1130116E+00
         25   -1    0    0    0    0  0.00000000000E+00  0.00000000000E+00  0.99999998245E-14  0.12500000000E+03  0.12500000000E+03 0.  0.
        -13    1    3    3    0    0  0.15777687050E+02 -0.49653896769E+02  0.74467563695E+01  0.52629936513E+02  0.10566000000E+00 0.  1.
         23    2    1    0    0    0  0.20699481167E+02 -0.64713648952E+01  0.17373944209E+02  0.97211494794E+02  0.93155105596E+02 0.  0.
         13    1    3    3    0    0  0.49217941169E+01  0.43182531873E+02  0.99271878399E+01  0.44581558281E+02  0.10566000000E+00 0. -1.
         22    1    1    0    0    0 -0.20699481167E+02  0.64713648952E+01 -0.17373944209E+02  0.27788505206E+02  0.00000000000E+00 0.  1.
</event>
<event>
 5    1  0.1758480E-003  0.9118800E+02  0.7818608E-02  0.1130116E+00
         25   -1    0    0    0    0  0.00000000000E+00  0.00000000000E+00  0.99999998245E-14  0.12500000000E+03  0.12500000000E+03 0.  0.
        -13    1    3    3    0    0 -0.22991283433E+02  0.33599405413E+01 -0.31268931401E+02  0.38956970484E+02  0.10566000000E+00 0. -1.
         23    2    1    0    0    0 -0.66166464783E+01  0.17668064877E+02  0.21717602289E+02  0.96232052971E+02  0.91831439293E+02 0.  0.
         13    1    3    3    0    0  0.16374636955E+02  0.14308124335E+02  0.52986533689E+02  0.57275082487E+02  0.10566000000E+00 0.  1.
         22    1    1    0    0    0  0.66166464783E+01 -0.17668064877E+02 -0.21717602289E+02  0.28767947029E+02  0.00000000000E+00 0.  1.
</event>
<event>
 5    1  0.1758480E-003  0.9118800E+02  0.7818608E-02  0.1130116E+00
         25   -1    0    0    0    0  0.00000000000E+00  0.00000000000E+00  0.99999998245E-14  0.12500000000E+03  0.12500000000E+03 0.  0.
        -13    1    3    3    0    0  0.19905904747E+02  0.34080730154E+02  0.73727341733E+01  0.40151084479E+02  0.10566000000E+00 0.  1.
         23    2    1    0    0    0  0.87970429187E+01 -0.29455439816E+01 -0.29805030336E+02  0.93784554676E+02  0.88437201838E+02 0.  0.
         13    1    3    3    0    0 -0.11108861828E+02 -0.37026274135E+02 -0.37177764509E+02  0.53633470197E+02  0.10566000000E+00 0. -1.
         22    1    1    0    0    0 -0.87970429187E+01  0.29455439816E+01  0.29805030336E+02  0.31215445324E+02  0.00000000000E+00 0.  1.
</event>
<event>
 5    1  0.1758480E-003  0.9118800E+02  0.7818608E-02  0.1130116E+00
         25   -1    0    0    0    0  0.00000000000E+00  0.00000000000E+00  0.99999998245E-14  0.12500000000E+03  0.12500000000E+03 0.  0.
        -13    1    3    3    0    0 -0.39739854565E+01 -0.20076526983E+02  0.11451435751E+02  0.23452207591E+02  0.10566000000E+00 0.  1.
         23    2    1    0    0    0  0.13571292627E+02  0.37770427042E+02  0.64255279632E+00  0.84860268852E+02  0.74766752056E+02 0.  0.
         13    1    3    3    0    0  0.17545278084E+02  0.57846954025E+02 -0.10808882955E+02  0.61408061261E+02  0.10566000000E+00 0. -1.
         22    1    1    0    0    0 -0.13571292627E+02 -0.37770427042E+02 -0.64255279632E+00  0.40139731148E+02  0.00000000000E+00 0. -1.
</event>
<event>
 5    1  0.1758480E-003  0.9118800E+02  0.7818608E-02  0.1130116E+00
         25   -1    0    0    0    0  0.00000000000E+00  0.00000000000E+00  0.99999998245E-14  0.12500000000E+03  0.12500000000E+03 0.  0.
        -13    1    3    3    0    0  0.37804805273E+02  0.31907641765E+02  0.32070839716E+02  0.58956346808E+02  0.10566000000E+00 0. -1.
         23    2    1    0    0    0  0.21265663058E+02  0.22781857358E+02  0.29117194447E+01  0.93699527798E+02  0.88316940331E+02 0.  0.
         13    1    3    3    0    0 -0.16539142215E+02 -0.91257844078E+01 -0.29159120272E+02  0.34743180990E+02  0.10566000000E+00 0.  1.
         22    1    1    0    0    0 -0.21265663058E+02 -0.22781857358E+02 -0.29117194447E+01  0.31300472202E+02  0.00000000000E+00 0. -1.
</event>
<event>
 5    1  0.1758480E-003  0.9118800E+02  0.7818608E-02  0.1130116E+00
         25   -1    0    0    0    0  0.00000000000E+00  0.00000000000E+00  0.99999998245E-14  0.12500000000E+03  0.12500000000E+03 0.  0.
        -13    1    3    3    0    0  0.24115920177E+02  0.10047066445E+02 -0.30774757415E+02  0.40368527445E+02  0.10566000000E+00 0.  1.
         23    2    1    0    0    0 -0.26821319662E+02  0.72381700572E+01 -0.95314531445E+01  0.95629557490E+02  0.91007633595E+02 0.  0.
         13    1    3    3    0    0 -0.50937239838E+02 -0.28088963880E+01  0.21243304270E+02  0.55261030045E+02  0.10566000000E+00 0. -1.
         22    1    1    0    0    0  0.26821319662E+02 -0.72381700572E+01  0.95314531445E+01  0.29370442510E+02  0.00000000000E+00 0.  1.
</event>
<event>
 5    1  0.1758480E-003  0.9118800E+02  0.7818608E-02  0.1130116E+00
         25   -1    0    0    0    0  0.00000000000E+00  0.00000000000E+00  0.99999998245E-14  0.12500000000E+03  0.12500000000E+03 0.  0.
        -13    1    3    3    0    0 -0.44544468511E+02  0.30038544992E+02 -0.11000034326E+02  0.54841004544E+02  0.10566000000E+00 0. -1.
         23    2    1    0    0    0 -0.10913953623E+02  0.97246884312E+01 -0.24571926570E+02  0.96408680966E+02  0.92071549576E+02 0.  0.
         13    1    3    3    0    0  0.33630514888E+02 -0.20313856561E+02 -0.13571892244E+02  0.41567676422E+02  0.10566000000E+00 0.  1.
         22    1    1    0    0    0  0.10913953623E+02 -0.97246884312E+01  0.24571926570E+02  0.28591319034E+02  0.00000000000E+00 0. -1.
</event>
<event>
 5    1  0.1758480E-003  0.9118800E+02  0.7818608E-02  0.1130116E+00
         25   -1    0    0    0    0  0.00000000000E+00  0.00000000000E+00  0.99999998245E-14  0.12500000000E+03  0.12500000000E+03 0.  0.
        -13    1    3    3    0    0  0.40259798371E+02  0.14494167328E+02 -0.14541335398E+02  0.45192851765E+02  0.10566000000E+00 0. -1.
         23    2    1    0    0    0 -0.65539734607E+01 -0.22092009580E+01 -0.27569280360E+02  0.96576411969E+02  0.92298986951E+02 0.  0.
         13    1    3    3    0    0 -0.46813771832E+02 -0.16703368286E+02 -0.13027944962E+02  0.51383560204E+02  0.10566000000E+00 0.  1.
         22    1    1    0    0    0  0.65539734607E+01  0.22092009580E+01  0.27569280360E+02  0.28423588031E+02  0.00000000000E+00 0.  1.
</event>
<event>
 5    1  0.1758480E-003  0.9118800E+02  0.7818608E-02  0.1130116E+00
         25   -1    0    0    0    0  0.00000000000E+00  0.00000000000E+00  0.99999998245E-14  0.12500000000E+03  0.12500000000E+03 0.  0.
        -13    1    3    3    0    0  0.67517937901E+01  0.14130630422E+00  0.46122660046E+02  0.46614564469E+02  0.10566000000E+00 0.  1.
         23    2    1    0    0    0 -0.27759161600E+02 -0.22807753558E+01  0.13989055567E+02  0.93831640007E+02  0.88503728746E+02 0.  0.
         13    1    3    3    0    0 -0.34510955391E+02 -0.24220816600E+01 -0.32133604480E+02  0.47217075539E+02  0.10566000000E+00 0. -1.
         22    1    1    0    0    0  0.27759161600E+02  0.22807753558E+01 -0.13989055567E+02  0.31168359993E+02  0.00000000000E+00 0.  1.
</event>
<event>
 5    1  0.1758480E-003  0.9118800E+02  0.7818608E-02  0.1130116E+00
         25   -1    0    0    0    0  0.00000000000E+00  0.00000000000E+00  0.99999998245E-14  0.12500000000E+03  0.12500000000E+03 0.  0.
        -13    1    3    3    0    0 -0.19491253655E+02 -0.36710080932E+02 -0.12725743644E+02  0.43468318652E+02  0.10566000000E+00 0.  1.
         23    2    1    0    0    0 -0.15677388904E+02  0.14980836628E+02 -0.19620863522E+02  0.95756466112E+02  0.91181777389E+02 0.  0.
         13    1    3    3    0    0  0.38138647511E+01  0.51690917560E+02 -0.68951198780E+01  0.52288147459E+02  0.10566000000E+00 0. -1.
         22    1    1    0    0    0  0.15677388904E+02 -0.14980836628E+02  0.19620863522E+02  0.29243533888E+02  0.00000000000E+00 0. -1.
</event>
<event>
 5    1  0.1758480E-003  0.9118800E+02  0.7818608E-02  0.1130116E+00
         25   -1    0    0    0    0  0.00000000000E+00  0.00000000000E+00  0.99999998245E-14  0.12500000000E+03  0.12500000000E+03 0.  0.
        -13    1    3    3    0    0 -0.33857980581E+02  0.10757558397E+02 -0.45084569683E+02  0.57399629782E+02  0.10566000000E+00 0.  1.
         23    2    1    0    0    0 -0.11668005863E+02  0.55770279663E+01 -0.42786084063E+02  0.80302185834E+02  0.66712416075E+02 0.  0.
         13    1    3    3    0    0  0.22189974718E+02 -0.51805304304E+01  0.22984856194E+01  0.22902556052E+02  0.10566000000E+00 0. -1.
         22    1    1    0    0    0  0.11668005863E+02 -0.55770279663E+01  0.42786084063E+02  0.44697814166E+02  0.00000000000E+00 0.  1.
</event>
<event>
 5    1  0.1758480E-003  0.9118800E+02  0.7818608E-02  0.1130116E+00
         25   -1    0    0    0    0  0.00000000000E+00  0.00000000000E+00  0.99999998245E-14  0.12500000000E+03  0.12500000000E+03 0.  0.
        -13    1    3    3    0    0  0.48676821629E+02 -0.82410972302E+01  0.80264923667E+01  0.50017840729E+02  0.10566000000E+00 0. -1.
         23    2    1    0    0    0  0.13967489675E+02  0.20111488685E+02  0.16289269693E+02  0.95590765870E+02  0.90954337266E+02 0.  0.
         13    1    3    3    0    0 -0.34709331954E+02  0.28352585915E+02  0.82627773267E+01  0.45572925142E+02  0.10566000000E+00 0.  1.
         22    1    1    0    0    0 -0.13967489675E+02 -0.20111488685E+02 -0.16289269693E+02  0.29409234130E+02  0.00000000000E+00 0.  1.
</event>
<event>
 5    1  0.1758480E-003  0.9118800E+02  0.7818608E-02  0.1130116E+00
         25   -1    0    0    0    0  0.00000000000E+00  0.00000000000E+00  0.99999998245E-14  0.12500000000E+03  0.12500000000E+03 0.  0.
        -13    1    3    3    0    0  0.76621335316E+01  0.67676880994E+01 -0.38442475078E+02  0.39778699660E+02  0.10566000000E+00 0. -1.
         23    2    1    0    0    0  0.30237464203E+02 -0.44962341360E+01  0.86726261620E+01  0.93223675364E+02  0.87640851439E+02 0.  0.
         13    1    3    3    0    0  0.22575330671E+02 -0.11263922235E+02  0.47115101240E+02  0.53444975704E+02  0.10566000000E+00 0.  1.
         22    1    1    0    0    0 -0.30237464203E+02  0.44962341360E+01 -0.86726261620E+01  0.31776324636E+02  0.00000000000E+00 0.  1.
</event>
<event>
 5    1  0.1758480E-003  0.9118800E+02  0.7818608E-02  0.1130116E+00
         25   -1    0    0    0    0  0.00000000000E+00  0.00000000000E+00  0.99999998245E-14  0.12500000000E+03  0.12500000000E+03 0.  0.
        -13    1    3    3    0    0 -0.36063930079E+02  0.75391115441E+01  0.16326383239E+02  0.40298972807E+02  0.10566000000E+00 0.  1.
         23    2    1    0    0    0  0.45334337959E+01 -0.14959390338E+02 -0.20267882084E+02  0.99404640549E+02  0.96052902804E+02 0.  0.
         13    1    3    3    0    0  0.40597363875E+02 -0.22498501882E+02 -0.36594265323E+02  0.59105667741E+02  0.10566000000E+00 0. -1.
         22    1    1    0    0    0 -0.45334337959E+01  0.14959390338E+02  0.20267882084E+02  0.25595359451E+02  0.00000000000E+00 0. -1.
</event>
<event>
 5    1  0.1758480E-003  0.9118800E+02  0.7818608E-02  0.1130116E+00
         25   -1    0    0    0    0  0.00000000000E+00  0.00000000000E+00  0.99999998245E-14  0.12500000000E+03  0.12500000000E+03 0.  0.
        -13    1    3    3    0    0  0.40722425955E+02 -0.14833920983E+02 -0.10393458743E+02  0.44569006452E+02  0.10566000000E+00 0. -1.
         23    2    1    0    0    0 -0.62094329461E+00  0.10894614417E+02 -0.26887890430E+02  0.95982128857E+02  0.91490612711E+02 0.  0.
         13    1    3    3    0    0 -0.41343369250E+02  0.25728535400E+02 -0.16494431687E+02  0.51413122405E+02  0.10566000000E+00 0.  1.
         22    1    1    0    0    0  0.62094329461E+00 -0.10894614417E+02  0.26887890430E+02  0.29017871143E+02  0.00000000000E+00 0.  1.
</event>
<event>
 5    1  0.1758480E-003  0.9118800E+02  0.7818608E-02  0.1130116E+00
         25   -1    0    0    0    0  0.00000000000E+00  0.00000000000E+00  0.99999998245E-14  0.12500000000E+03  0.12500000000E+03 0.  0.
        -13    1    3    3    0    0 -0.11736995405E+02 -0.49821446249E+02  0.12701954195E+02  0.52737883650E+02  0.10566000000E+00 0. -1.
         23    2    1    0    0    0  0.51993614992E+01 -0.12470982808E+02  0.25872493820E+02  0.95811908102E+02  0.91257750495E+02 0.  0.
         13    1    3    3    0    0  0.16936356904E+02  0.37350463441E+02  0.13170539625E+02  0.43074024452E+02  0.10566000000E+00 0.  1.
         22    1    1    0    0    0 -0.51993614992E+01  0.12470982808E+02 -0.25872493820E+02  0.29188091898E+02  0.00000000000E+00 0. -1.
</event>
<event>
 5    1  0.1758480E-003  0.9118800E+02  0.7818608E-02  0.1130116E+00
         25   -1    0    0    0    0  0.00000000000E+00  0.00000000000E+00  0.99999998245E-14  0.12500000000E+03  0.12500000000E+03 0.  0.
        -13    1    3    3    0    0  0.14248988867E+02  0.23796127962E+02  0.98855451517E+01  0.29445280720E+02  0.10566000000E+00 0.  1.
         23    2    1    0    0    0  0.38245548982E+02 -0.16686627924E+02 -0.12334514943E+02  0.81487865746E+02  0.68898232463E+02 0.  0.
         13    1    3    3    0    0  0.23996560115E+02 -0.40482755886E+02 -0.22220060095E+02  0.52042585026E+02  0.10566000000E+00 0. -1.
         22    1    1    0    0    0 -0.38245548982E+02  0.16686627924E+02  0.12334514943E+02  0.43512134254E+02  0.00000000000E+00 0. -1.
</event>
<event>
 5    1  0.1758480E-003  0.9118800E+02  0.7818608E-02  0.1130116E+00
         25   -1    0    0    0    0  0.00000000000E+00  0.00000000000E+00  0.99999998245E-14  0.12500000000E+03  0.12500000000E+03 0.  0.
        -13    1    3    3    0    0 -0.22681753480E+01 -0.15263055268E+02 -0.41711879429E+02  0.44474684092E+02  0.10566000000E+00 0. -1.
         23    2    1    0    0    0  0.24632992072E+02  0.10018382056E+02 -0.25627083804E+01  0.98284466098E+02  0.94583912610E+02 0.  0.
         13    1    3    3    0    0  0.26901167420E+02  0.25281437324E+02  0.39149171049E+02  0.53809782006E+02  0.10566000000E+00 0.  1.
         22    1    1    0    0    0 -0.24632992072E+02 -0.10018382056E+02  0.25627083804E+01  0.26715533902E+02  0.00000000000E+00 0.  1.
</event>
<event>
 5    1  0.1758480E-003  0.9118800E+02  0.7818608E-02  0.1130116E+00
         25   -1    0    0    0    0  0.00000000000E+00  0.00000000000E+00  0.99999998245E-14  0.12500000000E+03  0.12500000000E+03 0.  0.
        -13    1    3    3    0    0 -0.24562732370E+02  0.25552404992E+01  0.23809559185E+02  0.34303984435E+02  0.10566000000E+00 0.  1.
         23    2    1    0    0    0  0.26425215508E+02  0.18529506450E+01 -0.11284953214E+02  0.96206326914E+02  0.91796414573E+02 0.  0.
         13    1    3    3    0    0  0.50987947878E+02 -0.70228985420E+00 -0.35094512399E+02  0.61902342479E+02  0.10566000000E+00 0. -1.
         22    1    1    0    0    0 -0.26425215508E+02 -0.18529506450E+01  0.11284953214E+02  0.28793673086E+02  0.00000000000E+00 0. -1.
</event>
<event>
 5    1  0.1758480E-003  0.9118800E+02  0.7818608E-02  0.1130116E+00
         25   -1    0    0    0    0  0.00000000000E+00  0.00000000000E+00  0.99999998245E-14  0.12500000000E+03  0.12500000000E+03 0.  0.
        -13    1    3    3    0    0 -0.41489068337E+02  0.20437090178E+01 -0.46317208751E+02  0.62215870392E+02  0.10566000000E+00 0. -1.
         23    2    1    0    0    0 -0.18838704576E+02  0.50700275392E+01 -0.22407320285E+02  0.95289901183E+02  0.90539909961E+02 0.  0.
         13    1    3    3    0    0  0.22650363761E+02  0.30263185214E+01  0.23909888466E+02  0.33074030791E+02  0.10566000000E+00 0.  1.
         22    1    1    0    0    0  0.18838704576E+02 -0.50700275392E+01  0.22407320285E+02  0.29710098817E+02  0.00000000000E+00 0. -1.
</event>
<event>
 5    1  0.1758480E-003  0.9118800E+02  0.7818608E-02  0.1130116E+00
         25   -1    0    0    0    0  0.00000000000E+00  0.00000000000E+00  0.99999998245E-14  0.12500000000E+03  0.12500000000E+03 0.  0.
        -13    1    3    3    0    0 -0.27275302450E+02 -0.53496439114E+02 -0.61247554439E+01  0.60360044027E+02  0.10566000000E+00 0.  1.
         23    2    1    0    0    0 -0.20472801080E+02 -0.16712560915E+02 -0.65583205790E+01  0.97770294801E+02  0.93901936617E+02 0.  0.
         13    1    3    3    0    0  0.68025013708E+01  0.36783878199E+02 -0.43356513507E+00  0.37410250775E+02  0.10566000000E+00 0. -1.
         22    1    1    0    0    0  0.20472801080E+02  0.16712560915E+02  0.65583205790E+01  0.27229705199E+02  0.00000000000E+00 0.  1.
</event>
<event>
 5    1  0.1758480E-003  0.9118800E+02  0.7818608E-02  0.1130116E+00
         25   -1    0    0    0    0  0.00000000000E+00  0.00000000000E+00  0.99999998245E-14  0.12500000000E+03  0.12500000000E+03 0.  0.
        -13    1    3    3    0    0 -0.90647567156E+01 -0.39811266637E+02 -0.51850907452E+01  0.41158268861E+02  0.10566000000E+00 0.  1.
         23    2    1    0    0    0  0.11647440931E+01  0.93931438558E+01 -0.27329907524E+02  0.96077489294E+02  0.91620807263E+02 0.  0.
         13    1    3    3    0    0  0.10229500809E+02  0.49204410493E+02 -0.22144816778E+02  0.54919220433E+02  0.10566000000E+00 0. -1.
         22    1    1    0    0    0 -0.11647440931E+01 -0.93931438558E+01  0.27329907524E+02  0.28922510706E+02  0.00000000000E+00 0. -1.
</event>
<event>
 5    1  0.1758480E-003  0.9118800E+02  0.7818608E-02  0.1130116E+00
         25   -1    0    0    0    0  0.00000000000E+00  0.00000000000E+00  0.99999998245E-14  0.12500000000E+03  0.12500000000E+03 0.  0.
        -13    1    3    3    0    0 -0.14257735326E+02 -0.31496217872E+02  0.22983630068E+02  0.41515697899E+02  0.10566000000E+00 0. -1.
         23    2    1    0    0    0 -0.27757875768E+02  0.12333970275E+02  0.22187121902E+02  0.87384911695E+02  0.78874761006E+02 0.  0.
         13    1    3    3    0    0 -0.13500140442E+02  0.43830188147E+02 -0.79650816629E+00  0.45869213796E+02  0.10566000000E+00 0.  1.
         22    1    1    0    0    0  0.27757875768E+02 -0.12333970275E+02 -0.22187121902E+02  0.37615088305E+02  0.00000000000E+00 0.  1.
</event>
<event>
 5    1  0.1758480E-003  0.9118800E+02  0.7818608E-02  0.1130116E+00
         25   -1    0    0    0    0  0.00000000000E+00  0.00000000000E+00  0.99999998245E-14  0.12500000000E+03  0.12500000000E+03 0.  0.
        -13    1    3    3    0    0  0.49055979502E+02  0.60875397500E+01  0.31809245303E+01  0.49534601139E+02  0.10566000000E+00 0. -1.
         23    2    1    0    0    0  0.72932301655E+01  0.19589334491E+02  0.19550585320E+02  0.96379052804E+02  0.92031316414E+02 0.  0.
         13    1    3    3    0    0 -0.41762749336E+02  0.13501794741E+02  0.16369660790E+02  0.46844451665E+02  0.10566000000E+00 0.  1.
         22    1    1    0    0    0 -0.72932301655E+01 -0.19589334491E+02 -0.19550585320E+02  0.28620947196E+02  0.00000000000E+00 0. -1.
</event>
<event>
 5    1  0.1758480E-003  0.9118800E+02  0.7818608E-02  0.1130116E+00
         25   -1    0    0    0    0  0.00000000000E+00  0.00000000000E+00  0.99999998245E-14  0.12500000000E+03  0.12500000000E+03 0.  0.
        -13    1    3    3    0    0 -0.19673897944E+02 -0.49992397027E+01 -0.28870439140E+02  0.35292606564E+02  0.10566000000E+00 0.  1.
         23    2    1    0    0    0 -0.21880321083E+02 -0.47338022575E+00  0.26352483740E+02  0.90744694735E+02  0.84030790093E+02 0.  0.
         13    1    3    3    0    0 -0.22064231386E+01  0.45258594769E+01  0.55222922880E+02  0.55452088171E+02  0.10566000000E+00 0. -1.
         22    1    1    0    0    0  0.21880321083E+02  0.47338022575E+00 -0.26352483740E+02  0.34255305265E+02  0.00000000000E+00 0. -1.
</event>
<event>
 5    1  0.1758480E-003  0.9118800E+02  0.7818608E-02  0.1130116E+00
         25   -1    0    0    0    0  0.00000000000E+00  0.00000000000E+00  0.99999998245E-14  0.12500000000E+03  0.12500000000E+03 0.  0.
        -13    1    3    3    0    0  0.11313471884E+02  0.86107968567E+00 -0.20876600063E+02  0.23760885895E+02  0.10566000000E+00 0.  1.
         23    2    1    0    0    0 -0.11278833810E+02 -0.29288156261E+02  0.26242036485E+02  0.84089699730E+02  0.73467169080E+02 0.  0.
         13    1    3    3    0    0 -0.22592305694E+02 -0.30149235946E+02  0.47118636547E+02  0.60328813836E+02  0.10566000000E+00 0. -1.
         22    1    1    0    0    0  0.11278833810E+02  0.29288156261E+02 -0.26242036485E+02  0.40910300270E+02  0.00000000000E+00 0. -1.
</event>
<event>
 5    1  0.1758480E-003  0.9118800E+02  0.7818608E-02  0.1130116E+00
         25   -1    0    0    0    0  0.00000000000E+00  0.00000000000E+00  0.99999998245E-14  0.12500000000E+03  0.12500000000E+03 0.  0.
        -13    1    3    3    0    0  0.11381828208E+02  0.10003682046E+02  0.34696456366E+02  0.37861258778E+02  0.10566000000E+00 0. -1.
         23    2    1    0    0    0 -0.16711334868E+02  0.16326481546E+02 -0.16360070637E+02  0.96478523460E+02  0.92166321751E+02 0.  0.
         13    1    3    3    0    0 -0.28093163076E+02  0.63227995007E+01 -0.51056527003E+02  0.58617264682E+02  0.10566000000E+00 0.  1.
         22    1    1    0    0    0  0.16711334868E+02 -0.16326481546E+02  0.16360070637E+02  0.28521476540E+02  0.00000000000E+00 0.  1.
</event>
<event>
 5    1  0.1758480E-003  0.9118800E+02  0.7818608E-02  0.1130116E+00
         25   -1    0    0    0    0  0.00000000000E+00  0.00000000000E+00  0.99999998245E-14  0.12500000000E+03  0.12500000000E+03 0.  0.
        -13    1    3    3    0    0 -0.25259194044E+02  0.25046329907E+02 -0.42233774701E+02  0.55218189169E+02  0.10566000000E+00 0. -1.
         23    2    1    0    0    0 -0.17389950786E+02 -0.83027309678E+01 -0.24589146564E+02  0.93759451692E+02  0.88401713349E+02 0.  0.
         13    1    3    3    0    0  0.78692432587E+01 -0.33349060875E+02  0.17644628138E+02  0.38541262523E+02  0.10566000000E+00 0.  1.
         22    1    1    0    0    0  0.17389950786E+02  0.83027309678E+01  0.24589146564E+02  0.31240548308E+02  0.00000000000E+00 0. -1.
</event>
<event>
 5    1  0.1758480E-003  0.9118800E+02  0.7818608E-02  0.1130116E+00
         25   -1    0    0    0    0  0.00000000000E+00  0.00000000000E+00  0.99999998245E-14  0.12500000000E+03  0.12500000000E+03 0.  0.
        -13    1    3    3    0    0 -0.33347255987E+02 -0.43753638417E+02  0.19530800885E+02  0.58377082009E+02  0.10566000000E+00 0. -1.
         23    2    1    0    0    0 -0.38511479387E+01 -0.27599605205E+02  0.27113322386E+00  0.97131683561E+02  0.93047949415E+02 0.  0.
         13    1    3    3    0    0  0.29496108048E+02  0.16154033212E+02 -0.19259667661E+02  0.38754601553E+02  0.10566000000E+00 0.  1.
         22    1    1    0    0    0  0.38511479387E+01  0.27599605205E+02 -0.27113322386E+00  0.27868316439E+02  0.00000000000E+00 0. -1.
</event>
<event>
 5    1  0.1758480E-003  0.9118800E+02  0.7818608E-02  0.1130116E+00
         25   -1    0    0    0    0  0.00000000000E+00  0.00000000000E+00  0.99999998245E-14  0.12500000000E+03  0.12500000000E+03 0.  0.
        -13    1    3    3    0    0  0.36952267635E+02 -0.33231004335E+02  0.30728863931E+02  0.58429820939E+02  0.10566000000E+00 0.  1.
         23    2    1    0    0    0  0.74184174894E+01 -0.10558777301E+02  0.26015539732E+02  0.95959872526E+02  0.91460199713E+02 0.  0.
         13    1    3    3    0    0 -0.29533850145E+02  0.22672227034E+02 -0.47133241988E+01  0.37530051587E+02  0.10566000000E+00 0. -1.
         22    1    1    0    0    0 -0.74184174894E+01  0.10558777301E+02 -0.26015539732E+02  0.29040127474E+02  0.00000000000E+00 0. -1.
</event>
<event>
 5    1  0.1758480E-003  0.9118800E+02  0.7818608E-02  0.1130116E+00
         25   -1    0    0    0    0  0.00000000000E+00  0.00000000000E+00  0.99999998245E-14  0.12500000000E+03  0.12500000000E+03 0.  0.
        -13    1    3    3    0    0  0.93674928755E+00  0.37949904012E+02  0.35997525168E+02  0.52315444144E+02  0.10566000000E+00 0.  1.
         23    2    1    0    0    0 -0.21632722949E+02  0.21269960072E+02  0.47893470439E+01  0.94286424032E+02  0.89143737906E+02 0.  0.
         13    1    3    3    0    0 -0.22569472237E+02 -0.16679943940E+02 -0.31208178124E+02  0.41970979888E+02  0.10566000000E+00 0. -1.
         22    1    1    0    0    0  0.21632722949E+02 -0.21269960072E+02 -0.47893470439E+01  0.30713575968E+02  0.00000000000E+00 0.  1.
</event>
<event>
 5    1  0.1758480E-003  0.9118800E+02  0.7818608E-02  0.1130116E+00
         25   -1    0    0    0    0  0.00000000000E+00  0.00000000000E+00  0.99999998245E-14  0.12500000000E+03  0.12500000000E+03 0.  0.
        -13    1    3    3    0    0 -0.58132695328E+02  0.12830751939E+02 -0.11375708555E+02  0.60609045287E+02  0.10566000000E+00 0.  1.
         23    2    1    0    0    0 -0.23595357604E+02  0.30084337726E+01 -0.15281378909E+02  0.96727891561E+02  0.92503907432E+02 0.  0.
         13    1    3    3    0    0  0.34537337724E+02 -0.98223181660E+01 -0.39056703541E+01  0.36118846274E+02  0.10566000000E+00 0. -1.
         22    1    1    0    0    0  0.23595357604E+02 -0.30084337726E+01  0.15281378909E+02  0.28272108439E+02  0.00000000000E+00 0.  1.
</event>
<event>
 5    1  0.1758480E-003  0.9118800E+02  0.7818608E-02  0.1130116E+00
         25   -1    0    0    0    0  0.00000000000E+00  0.00000000000E+00  0.99999998245E-14  0.12500000000E+03  0.12500000000E+03 0.  0.
        -13    1    3    3    0    0  0.35624721388E+02  0.31904756249E+02  0.65398278832E+01  0.48268154699E+02  0.10566000000E+00 0.  1.
         23    2    1    0    0    0  0.11337840674E+02  0.72857592237E+01 -0.25975724367E+02  0.95736248104E+02  0.91154056553E+02 0.  0.
         13    1    3    3    0    0 -0.24286880714E+02 -0.24618997025E+02 -0.32515552250E+02  0.47468093405E+02  0.10566000000E+00 0. -1.
         22    1    1    0    0    0 -0.11337840674E+02 -0.72857592237E+01  0.25975724367E+02  0.29263751896E+02  0.00000000000E+00 0.  1.
</event>
<event>
 5    1  0.1758480E-003  0.9118800E+02  0.7818608E-02  0.1130116E+00
         25   -1    0    0    0    0  0.00000000000E+00  0.00000000000E+00  0.99999998245E-14  0.12500000000E+03  0.12500000000E+03 0.  0.
        -13    1    3    3    0    0  0.32549998339E+02  0.17310859691E+02  0.22959488182E+02  0.43431757007E+02  0.10566000000E+00 0. -1.
         23    2    1    0    0    0 -0.17935445384E+02  0.85727879828E+01 -0.83076734288E+01  0.10345492324E+03  0.10118661378E+03 0.  0.
         13    1    3    3    0    0 -0.50485443723E+02 -0.87380717081E+01 -0.31267161610E+02  0.60023166230E+02  0.10566000000E+00 0.  1.
         22    1    1    0    0    0  0.17935445384E+02 -0.85727879828E+01  0.83076734288E+01  0.21545076763E+02  0.00000000000E+00 0.  1.
</event>
<event>
 5    1  0.1758480E-003  0.9118800E+02  0.7818608E-02  0.1130116E+00
         25   -1    0    0    0    0  0.00000000000E+00  0.00000000000E+00  0.99999998245E-14  0.12500000000E+03  0.12500000000E+03 0.  0.
        -13    1    3    3    0    0  0.36147297658E+02 -0.89335794886E+00 -0.32770896527E+02  0.48799262695E+02  0.10566000000E+00 0.  1.
         23    2    1    0    0    0 -0.73762325596E+01 -0.16013311490E+02 -0.23205259604E+02  0.95856921492E+02  0.91319386622E+02 0.  0.
         13    1    3    3    0    0 -0.43523530217E+02 -0.15119953541E+02  0.95656369232E+01  0.47057658797E+02  0.10566000000E+00 0. -1.
         22    1    1    0    0    0  0.73762325596E+01  0.16013311490E+02  0.23205259604E+02  0.29143078508E+02  0.00000000000E+00 0. -1.
</event>
<event>
 5    1  0.1758480E-003  0.9118800E+02  0.7818608E-02  0.1130116E+00
         25   -1    0    0    0    0  0.00000000000E+00  0.00000000000E+00  0.99999998245E-14  0.12500000000E+03  0.12500000000E+03 0.  0.
        -13    1    3    3    0    0 -0.42767770111E+01 -0.58978277945E+02  0.20614268679E+00  0.59133592397E+02  0.10566000000E+00 0. -1.
         23    2    1    0    0    0 -0.26595699434E+01 -0.33027897616E+02 -0.14304291407E+02  0.88909446029E+02  0.81254916820E+02 0.  0.
         13    1    3    3    0    0  0.16172070677E+01  0.25950380329E+02 -0.14510434094E+02  0.29775853632E+02  0.10566000000E+00 0.  1.
         22    1    1    0    0    0  0.26595699434E+01  0.33027897616E+02  0.14304291407E+02  0.36090553971E+02  0.00000000000E+00 0. -1.
</event>
<event>
 5    1  0.1758480E-003  0.9118800E+02  0.7818608E-02  0.1130116E+00
         25   -1    0    0    0    0  0.00000000000E+00  0.00000000000E+00  0.99999998245E-14  0.12500000000E+03  0.12500000000E+03 0.  0.
        -13    1    3    3    0    0 -0.35961011779E+02  0.20758114785E+02  0.51294785864E+01  0.41837978108E+02  0.10566000000E+00 0. -1.
         23    2    1    0    0    0  0.86000377418E+01  0.38178829392E+00  0.27851154115E+02  0.95848787383E+02  0.91308251795E+02 0.  0.
         13    1    3    3    0    0  0.44561049521E+02 -0.20376326491E+02  0.22721675529E+02  0.54010809275E+02  0.10566000000E+00 0.  1.
         22    1    1    0    0    0 -0.86000377418E+01 -0.38178829392E+00 -0.27851154115E+02  0.29151212617E+02  0.00000000000E+00 0.  1.
</event>
<event>
 5    1  0.1758480E-003  0.9118800E+02  0.7818608E-02  0.1130116E+00
         25   -1    0    0    0    0  0.00000000000E+00  0.00000000000E+00  0.99999998245E-14  0.12500000000E+03  0.12500000000E+03 0.  0.
        -13    1    3    3    0    0 -0.16623374369E+02  0.21840346008E+02  0.25916411369E+02  0.37749289152E+02  0.10566000000E+00 0.  1.
         23    2    1    0    0    0 -0.13640038465E+02 -0.23290912183E+02 -0.10722492145E+02  0.95957116579E+02  0.91456433042E+02 0.  0.
         13    1    3    3    0    0  0.29833359048E+01 -0.45131258191E+02 -0.36638903514E+02  0.58207827427E+02  0.10566000000E+00 0. -1.
         22    1    1    0    0    0  0.13640038465E+02  0.23290912183E+02  0.10722492145E+02  0.29042883421E+02  0.00000000000E+00 0. -1.
</event>
<event>
 5    1  0.1758480E-003  0.9118800E+02  0.7818608E-02  0.1130116E+00
         25   -1    0    0    0    0  0.00000000000E+00  0.00000000000E+00  0.99999998245E-14  0.12500000000E+03  0.12500000000E+03 0.  0.
        -13    1    3    3    0    0  0.46723003415E+01  0.48255327110E+02  0.33496495915E+01  0.48596690231E+02  0.10566000000E+00 0.  1.
         23    2    1    0    0    0 -0.24730720083E+02  0.10227544907E+02  0.84492422863E+01  0.96935772131E+02  0.92784390028E+02 0.  0.
         13    1    3    3    0    0 -0.29403020424E+02 -0.38027782202E+02  0.50995926948E+01  0.48339081901E+02  0.10566000000E+00 0. -1.
         22    1    1    0    0    0  0.24730720083E+02 -0.10227544907E+02 -0.84492422863E+01  0.28064227869E+02  0.00000000000E+00 0. -1.
</event>
<event>
 5    1  0.1758480E-003  0.9118800E+02  0.7818608E-02  0.1130116E+00
         25   -1    0    0    0    0  0.00000000000E+00  0.00000000000E+00  0.99999998245E-14  0.12500000000E+03  0.12500000000E+03 0.  0.
        -13    1    3    3    0    0  0.68928339868E+01 -0.19041392347E+02  0.37747114783E+02  0.42836218570E+02  0.10566000000E+00 0.  1.
         23    2    1    0    0    0 -0.27805197353E+02 -0.14117780346E+02  0.73564417176E+00  0.93807342305E+02  0.88469404747E+02 0.  0.
         13    1    3    3    0    0 -0.34698031339E+02  0.49236120003E+01 -0.37011470612E+02  0.50971123735E+02  0.10566000000E+00 0. -1.
         22    1    1    0    0    0  0.27805197353E+02  0.14117780346E+02 -0.73564417176E+00  0.31192657695E+02  0.00000000000E+00 0. -1.
</event>
<event>
 5    1  0.1758480E-003  0.9118800E+02  0.7818608E-02  0.1130116E+00
         25   -1    0    0    0    0  0.00000000000E+00  0.00000000000E+00  0.99999998245E-14  0.12500000000E+03  0.12500000000E+03 0.  0.
        -13    1    3    3    0    0  0.10381280572E+02  0.43106499583E+02  0.12285641155E+02  0.46009666759E+02  0.10566000000E+00 0. -1.
         23    2    1    0    0    0 -0.13104733119E+02  0.19525795736E+02 -0.21285125589E+02  0.93281751300E+02  0.87723644618E+02 0.  0.
         13    1    3    3    0    0 -0.23486013691E+02 -0.23580703848E+02 -0.33570766744E+02  0.47272084541E+02  0.10566000000E+00 0.  1.
         22    1    1    0    0    0  0.13104733119E+02 -0.19525795736E+02  0.21285125589E+02  0.31718248700E+02  0.00000000000E+00 0.  1.
</event>
<event>
 5    1  0.1758480E-003  0.9118800E+02  0.7818608E-02  0.1130116E+00
         25   -1    0    0    0    0  0.00000000000E+00  0.00000000000E+00  0.99999998245E-14  0.12500000000E+03  0.12500000000E+03 0.  0.
        -13    1    3    3    0    0  0.19962679746E+02 -0.43356366491E+02 -0.12587441853E+02  0.49363326006E+02  0.10566000000E+00 0.  1.
         23    2    1    0    0    0 -0.83940885515E+01 -0.12062607270E+02 -0.27227639830E+02  0.94059547717E+02  0.88825035488E+02 0.  0.
         13    1    3    3    0    0 -0.28356768298E+02  0.31293759221E+02 -0.14640197976E+02  0.44696221711E+02  0.10566000000E+00 0. -1.
         22    1    1    0    0    0  0.83940885515E+01  0.12062607270E+02  0.27227639830E+02  0.30940452283E+02  0.00000000000E+00 0. -1.
</event>
<event>
 5    1  0.1758480E-003  0.9118800E+02  0.7818608E-02  0.1130116E+00
         25   -1    0    0    0    0  0.00000000000E+00  0.00000000000E+00  0.99999998245E-14  0.12500000000E+03  0.12500000000E+03 0.  0.
        -13    1    3    3    0    0 -0.38311767155E+02 -0.83532703223E+00  0.47291299727E+02  0.60868443940E+02  0.10566000000E+00 0.  1.
         23    2    1    0    0    0 -0.15594896828E+02  0.95424585289E+01  0.18340982249E+02  0.99103070613E+02  0.95659644852E+02 0.  0.
         13    1    3    3    0    0  0.22716870328E+02  0.10377785561E+02 -0.28950317478E+02  0.38234626672E+02  0.10566000000E+00 0. -1.
         22    1    1    0    0    0  0.15594896828E+02 -0.95424585289E+01 -0.18340982249E+02  0.25896929387E+02  0.00000000000E+00 0.  1.
</event>
<event>
 5    1  0.1758480E-003  0.9118800E+02  0.7818608E-02  0.1130116E+00
         25   -1    0    0    0    0  0.00000000000E+00  0.00000000000E+00  0.99999998245E-14  0.12500000000E+03  0.12500000000E+03 0.  0.
        -13    1    3    3    0    0  0.43298537925E+00 -0.41794071575E+02 -0.29974560387E+02  0.51433620615E+02  0.10566000000E+00 0. -1.
         23    2    1    0    0    0 -0.98871081181E+01  0.78233590850E+00 -0.28008704034E+02  0.95287133122E+02  0.90536088277E+02 0.  0.
         13    1    3    3    0    0 -0.10320093497E+02  0.42576407483E+02  0.19658563527E+01  0.43853512507E+02  0.10566000000E+00 0.  1.
         22    1    1    0    0    0  0.98871081181E+01 -0.78233590850E+00  0.28008704034E+02  0.29712866878E+02  0.00000000000E+00 0.  1.
</event>
<event>
 5    1  0.1758480E-003  0.9118800E+02  0.7818608E-02  0.1130116E+00
         25   -1    0    0    0    0  0.00000000000E+00  0.00000000000E+00  0.99999998245E-14  0.12500000000E+03  0.12500000000E+03 0.  0.
        -13    1    3    3    0    0 -0.14112579470E+02 -0.35824739007E+02  0.32346447667E+02  0.50287977340E+02  0.10566000000E+00 0. -1.
         23    2    1    0    0    0  0.15805509645E+02 -0.25105636722E+02  0.42764270298E+00  0.95330318360E+02  0.90595692999E+02 0.  0.
         13    1    3    3    0    0  0.29918089116E+02  0.10719102285E+02 -0.31918804964E+02  0.45042341020E+02  0.10566000000E+00 0.  1.
         22    1    1    0    0    0 -0.15805509645E+02  0.25105636722E+02 -0.42764270298E+00  0.29669681640E+02  0.00000000000E+00 0. -1.
</event>
<event>
 5    1  0.1758480E-003  0.9118800E+02  0.7818608E-02  0.1130116E+00
         25   -1    0    0    0    0  0.00000000000E+00  0.00000000000E+00  0.99999998245E-14  0.12500000000E+03  0.12500000000E+03 0.  0.
        -13    1    3    3    0    0 -0.22450487331E+01 -0.49673408407E+02 -0.17777994166E+02  0.52806779746E+02  0.10566000000E+00 0.  1.
         23    2    1    0    0    0 -0.15526141351E+02 -0.92723740286E+01 -0.23096245120E+02  0.95666153951E+02  0.91057885368E+02 0.  0.
         13    1    3    3    0    0 -0.13281092618E+02  0.40401034378E+02 -0.53182509546E+01  0.42859374205E+02  0.10566000000E+00 0. -1.
         22    1    1    0    0    0  0.15526141351E+02  0.92723740286E+01  0.23096245120E+02  0.29333846049E+02  0.00000000000E+00 0. -1.
</event>
<event>
 5    1  0.1758480E-003  0.9118800E+02  0.7818608E-02  0.1130116E+00
         25   -1    0    0    0    0  0.00000000000E+00  0.00000000000E+00  0.99999998245E-14  0.12500000000E+03  0.12500000000E+03 0.  0.
        -13    1    3    3    0    0  0.74700350288E+01 -0.31813707705E+02 -0.20342978224E+02  0.38493653351E+02  0.10566000000E+00 0.  1.
         23    2    1    0    0    0 -0.18112964165E+00 -0.16438564619E+02  0.29508877360E+02  0.91220819167E+02  0.84736089075E+02 0.  0.
         13    1    3    3    0    0 -0.76511646705E+01  0.15375143086E+02  0.49851855584E+02  0.52727165816E+02  0.10566000000E+00 0. -1.
         22    1    1    0    0    0  0.18112964165E+00  0.16438564619E+02 -0.29508877360E+02  0.33779180833E+02  0.00000000000E+00 0. -1.
</event>
<event>
 5    1  0.1758480E-003  0.9118800E+02  0.7818608E-02  0.1130116E+00
         25   -1    0    0    0    0  0.00000000000E+00  0.00000000000E+00  0.99999998245E-14  0.12500000000E+03  0.12500000000E+03 0.  0.
        -13    1    3    3    0    0  0.18389785939E+02 -0.36090522452E+02  0.29916984110E+02  0.50356202597E+02  0.10566000000E+00 0.  1.
         23    2    1    0    0    0 -0.51005015430E+01  0.23349703290E+01  0.29062355967E+02  0.95401220687E+02  0.90693468187E+02 0.  0.
         13    1    3    3    0    0 -0.23490287482E+02  0.38425492781E+02 -0.85462814231E+00  0.45045018090E+02  0.10566000000E+00 0. -1.
         22    1    1    0    0    0  0.51005015430E+01 -0.23349703290E+01 -0.29062355967E+02  0.29598779313E+02  0.00000000000E+00 0.  1.
</event>
<event>
 5    1  0.1758480E-003  0.9118800E+02  0.7818608E-02  0.1130116E+00
         25   -1    0    0    0    0  0.00000000000E+00  0.00000000000E+00  0.99999998245E-14  0.12500000000E+03  0.12500000000E+03 0.  0.
        -13    1    3    3    0    0 -0.51896762182E+02  0.26923449320E+02  0.15687255961E+02  0.60533025795E+02  0.10566000000E+00 0.  1.
         23    2    1    0    0    0 -0.28271374335E+02  0.24055975688E+01  0.52537759756E+01  0.96144157118E+02  0.91711718332E+02 0.  0.
         13    1    3    3    0    0  0.23625387847E+02 -0.24517851752E+02 -0.10433479985E+02  0.35611131323E+02  0.10566000000E+00 0. -1.
         22    1    1    0    0    0  0.28271374335E+02 -0.24055975688E+01 -0.52537759756E+01  0.28855842882E+02  0.00000000000E+00 0.  1.
</event>
<event>
 5    1  0.1758480E-003  0.9118800E+02  0.7818608E-02  0.1130116E+00
         25   -1    0    0    0    0  0.00000000000E+00  0.00000000000E+00  0.99999998245E-14  0.12500000000E+03  0.12500000000E+03 0.  0.
        -13    1    3    3    0    0 -0.22294843067E+02 -0.40975045889E+02  0.84032980719E+01  0.47398744662E+02  0.10566000000E+00 0.  1.
         23    2    1    0    0    0 -0.26088680732E+02  0.77170761994E+01 -0.32239726670E+01  0.97603530754E+02  0.93679681300E+02 0.  0.
         13    1    3    3    0    0 -0.37938376650E+01  0.48692122088E+02 -0.11627270739E+02  0.50204786092E+02  0.10566000000E+00 0. -1.
         22    1    1    0    0    0  0.26088680732E+02 -0.77170761994E+01  0.32239726670E+01  0.27396469246E+02  0.00000000000E+00 0. -1.
</event>
<event>
 5    1  0.1758480E-003  0.9118800E+02  0.7818608E-02  0.1130116E+00
         25   -1    0    0    0    0  0.00000000000E+00  0.00000000000E+00  0.99999998245E-14  0.12500000000E+03  0.12500000000E+03 0.  0.
        -13    1    3    3    0    0  0.87602000558E+01 -0.10696488307E+02  0.35091890208E+02  0.37717474591E+02  0.10566000000E+00 0.  1.
         23    2    1    0    0    0 -0.26793244459E+02 -0.50831031518E+01 -0.10475571295E+02  0.95786073865E+02  0.91222357272E+02 0.  0.
         13    1    3    3    0    0 -0.35553444515E+02  0.56133851547E+01 -0.45567461503E+02  0.58068599274E+02  0.10566000000E+00 0. -1.
         22    1    1    0    0    0  0.26793244459E+02  0.50831031518E+01  0.10475571295E+02  0.29213926135E+02  0.00000000000E+00 0. -1.
</event>
<event>
 5    1  0.1758480E-003  0.9118800E+02  0.7818608E-02  0.1130116E+00
         25   -1    0    0    0    0  0.00000000000E+00  0.00000000000E+00  0.99999998245E-14  0.12500000000E+03  0.12500000000E+03 0.  0.
        -13    1    3    3    0    0 -0.28829813020E+02  0.59071820284E+01 -0.12245473650E+02  0.31875001290E+02  0.10566000000E+00 0. -1.
         23    2    1    0    0    0 -0.25653338530E+01 -0.28827885847E+02 -0.33831047682E+02  0.80478457715E+02  0.67041885630E+02 0.  0.
         13    1    3    3    0    0  0.26264479167E+02 -0.34735067875E+02 -0.21585574032E+02  0.48603456425E+02  0.10566000000E+00 0.  1.
         22    1    1    0    0    0  0.25653338530E+01  0.28827885847E+02  0.33831047682E+02  0.44521542285E+02  0.00000000000E+00 0.  1.
</event>
<event>
 5    1  0.1758480E-003  0.9118800E+02  0.7818608E-02  0.1130116E+00
         25   -1    0    0    0    0  0.00000000000E+00  0.00000000000E+00  0.99999998245E-14  0.12500000000E+03  0.12500000000E+03 0.  0.
        -13    1    3    3    0    0  0.38985372007E+02  0.64496957313E+01 -0.97078727207E+01  0.40690438218E+02  0.10566000000E+00 0.  1.
         23    2    1    0    0    0  0.38638275525E+02 -0.13774949177E+02  0.22115032688E+02  0.78398066230E+02  0.63043766999E+02 0.  0.
         13    1    3    3    0    0 -0.34709648201E+00 -0.20224644908E+02  0.31822905408E+02  0.37707628012E+02  0.10566000000E+00 0. -1.
         22    1    1    0    0    0 -0.38638275525E+02  0.13774949177E+02 -0.22115032688E+02  0.46601933770E+02  0.00000000000E+00 0.  1.
</event>
<event>
 5    1  0.1758480E-003  0.9118800E+02  0.7818608E-02  0.1130116E+00
         25   -1    0    0    0    0  0.00000000000E+00  0.00000000000E+00  0.99999998245E-14  0.12500000000E+03  0.12500000000E+03 0.  0.
        -13    1    3    3    0    0 -0.89071108252E+01  0.38972079752E+02 -0.41047549516E+02  0.57298098649E+02  0.10566000000E+00 0.  1.
         23    2    1    0    0    0 -0.21189213319E+02  0.12385005696E+02 -0.18108316516E+02  0.94499471247E+02  0.89441980142E+02 0.  0.
         13    1    3    3    0    0 -0.12282102494E+02 -0.26587074056E+02  0.22939233000E+02  0.37201372598E+02  0.10566000000E+00 0. -1.
         22    1    1    0    0    0  0.21189213319E+02 -0.12385005696E+02  0.18108316516E+02  0.30500528753E+02  0.00000000000E+00 0. -1.
</event>
<event>
 5    1  0.1758480E-003  0.9118800E+02  0.7818608E-02  0.1130116E+00
         25   -1    0    0    0    0  0.00000000000E+00  0.00000000000E+00  0.99999998245E-14  0.12500000000E+03  0.12500000000E+03 0.  0.
        -13    1    3    3    0    0  0.22426568553E+02  0.50161455289E+01 -0.36553220092E+02  0.43177097589E+02  0.10566000000E+00 0.  1.
         23    2    1    0    0    0 -0.23465525359E+02  0.35128953580E+01 -0.99549599471E+00  0.10125210901E+03  0.98427776835E+02 0.  0.
         13    1    3    3    0    0 -0.45892093911E+02 -0.15032501709E+01  0.35557724098E+02  0.58075011422E+02  0.10566000000E+00 0. -1.
         22    1    1    0    0    0  0.23465525359E+02 -0.35128953580E+01  0.99549599471E+00  0.23747890989E+02  0.00000000000E+00 0. -1.
</event>
<event>
 5    1  0.1758480E-003  0.9118800E+02  0.7818608E-02  0.1130116E+00
         25   -1    0    0    0    0  0.00000000000E+00  0.00000000000E+00  0.99999998245E-14  0.12500000000E+03  0.12500000000E+03 0.  0.
        -13    1    3    3    0    0  0.43250988638E+02  0.36228134972E+02 -0.29511123392E+01  0.56496424752E+02  0.10566000000E+00 0. -1.
         23    2    1    0    0    0  0.27274145166E+02  0.27129997714E+01 -0.12563294433E+02  0.94849117272E+02  0.89929301776E+02 0.  0.
         13    1    3    3    0    0 -0.15976843472E+02 -0.33515135201E+02 -0.96121820933E+01  0.38352692519E+02  0.10566000000E+00 0.  1.
         22    1    1    0    0    0 -0.27274145166E+02 -0.27129997714E+01  0.12563294433E+02  0.30150882728E+02  0.00000000000E+00 0. -1.
</event>
<event>
 5    1  0.1758480E-003  0.9118800E+02  0.7818608E-02  0.1130116E+00
         25   -1    0    0    0    0  0.00000000000E+00  0.00000000000E+00  0.99999998245E-14  0.12500000000E+03  0.12500000000E+03 0.  0.
        -13    1    3    3    0    0  0.31487683508E+02 -0.66296561416E+00  0.50406110138E+02  0.59436527821E+02  0.10566000000E+00 0. -1.
         23    2    1    0    0    0  0.22075231948E+01  0.18191221513E+01  0.29164884952E+02  0.95695173122E+02  0.91097712817E+02 0.  0.
         13    1    3    3    0    0 -0.29280160314E+02  0.24820877654E+01 -0.21241225185E+02  0.36258645301E+02  0.10566000000E+00 0.  1.
         22    1    1    0    0    0 -0.22075231948E+01 -0.18191221513E+01 -0.29164884952E+02  0.29304826878E+02  0.00000000000E+00 0. -1.
</event>
<event>
 5    1  0.1758480E-003  0.9118800E+02  0.7818608E-02  0.1130116E+00
         25   -1    0    0    0    0  0.00000000000E+00  0.00000000000E+00  0.99999998245E-14  0.12500000000E+03  0.12500000000E+03 0.  0.
        -13    1    3    3    0    0  0.14573197348E+02  0.51261579016E+02  0.29536812527E+02  0.60930796995E+02  0.10566000000E+00 0.  1.
         23    2    1    0    0    0 -0.21338764596E+01  0.27002206258E+02  0.10806781517E+02  0.95837368117E+02  0.91292617606E+02 0.  0.
         13    1    3    3    0    0 -0.16707073808E+02 -0.24259372758E+02 -0.18730031010E+02  0.34906571122E+02  0.10566000000E+00 0. -1.
         22    1    1    0    0    0  0.21338764596E+01 -0.27002206258E+02 -0.10806781517E+02  0.29162631883E+02  0.00000000000E+00 0.  1.
</event>
<event>
 5    1  0.1758480E-003  0.9118800E+02  0.7818608E-02  0.1130116E+00
         25   -1    0    0    0    0  0.00000000000E+00  0.00000000000E+00  0.99999998245E-14  0.12500000000E+03  0.12500000000E+03 0.  0.
        -13    1    3    3    0    0  0.21738776442E+02 -0.40189413972E+02 -0.39978444031E+02  0.60712853234E+02  0.10566000000E+00 0.  1.
         23    2    1    0    0    0  0.15993565877E+02 -0.12216823986E+02 -0.24827536492E+02  0.93039845025E+02  0.87378265354E+02 0.  0.
         13    1    3    3    0    0 -0.57452105651E+01  0.27972589986E+02  0.15150907539E+02  0.32326991791E+02  0.10566000000E+00 0. -1.
         22    1    1    0    0    0 -0.15993565877E+02  0.12216823986E+02  0.24827536492E+02  0.31960154975E+02  0.00000000000E+00 0.  1.
</event>
<event>
 5    1  0.1758480E-003  0.9118800E+02  0.7818608E-02  0.1130116E+00
         25   -1    0    0    0    0  0.00000000000E+00  0.00000000000E+00  0.99999998245E-14  0.12500000000E+03  0.12500000000E+03 0.  0.
        -13    1    3    3    0    0 -0.20527000595E+02 -0.26220796362E+02 -0.11017271126E+02  0.35075338094E+02  0.10566000000E+00 0. -1.
         23    2    1    0    0    0  0.28391348122E+02  0.63122697930E+01  0.38116652946E+01  0.95666705087E+02  0.91058641939E+02 0.  0.
         13    1    3    3    0    0  0.48918348717E+02  0.32533066155E+02  0.14828936421E+02  0.60591366993E+02  0.10566000000E+00 0.  1.
         22    1    1    0    0    0 -0.28391348122E+02 -0.63122697930E+01 -0.38116652946E+01  0.29333294913E+02  0.00000000000E+00 0.  1.
</event>
<event>
 5    1  0.1758480E-003  0.9118800E+02  0.7818608E-02  0.1130116E+00
         25   -1    0    0    0    0  0.00000000000E+00  0.00000000000E+00  0.99999998245E-14  0.12500000000E+03  0.12500000000E+03 0.  0.
        -13    1    3    3    0    0  0.53171292385E+02  0.79910422995E+01 -0.26652880472E+02  0.60011917919E+02  0.10566000000E+00 0.  1.
         23    2    1    0    0    0  0.28551587896E+02 -0.64943908715E+01 -0.64012935632E+01  0.95027565274E+02  0.90176999941E+02 0.  0.
         13    1    3    3    0    0 -0.24619704489E+02 -0.14485433171E+02  0.20251586908E+02  0.35015647354E+02  0.10566000000E+00 0. -1.
         22    1    1    0    0    0 -0.28551587896E+02  0.64943908715E+01  0.64012935632E+01  0.29972434726E+02  0.00000000000E+00 0.  1.
</event>
<event>
 5    1  0.1758480E-003  0.9118800E+02  0.7818608E-02  0.1130116E+00
         25   -1    0    0    0    0  0.00000000000E+00  0.00000000000E+00  0.99999998245E-14  0.12500000000E+03  0.12500000000E+03 0.  0.
        -13    1    3    3    0    0  0.32696564985E+02  0.34528370546E+02 -0.22468691857E+02  0.52593982661E+02  0.10566000000E+00 0.  1.
         23    2    1    0    0    0 -0.55051894044E+01  0.19953595213E+02 -0.23742314301E+02  0.93501578442E+02  0.88036325516E+02 0.  0.
         13    1    3    3    0    0 -0.38201754389E+02 -0.14574775332E+02 -0.12736224442E+01  0.40907595781E+02  0.10566000000E+00 0. -1.
         22    1    1    0    0    0  0.55051894044E+01 -0.19953595213E+02  0.23742314301E+02  0.31498421558E+02  0.00000000000E+00 0.  1.
</event>
<event>
 5    1  0.1758480E-003  0.9118800E+02  0.7818608E-02  0.1130116E+00
         25   -1    0    0    0    0  0.00000000000E+00  0.00000000000E+00  0.99999998245E-14  0.12500000000E+03  0.12500000000E+03 0.  0.
        -13    1    3    3    0    0  0.34687410156E+02 -0.12919789691E+02 -0.99060981414E+01  0.38318133219E+02  0.10566000000E+00 0. -1.
         23    2    1    0    0    0 -0.90491815838E+01  0.24217265258E+02 -0.13552513056E+02  0.95810374548E+02  0.91255649890E+02 0.  0.
         13    1    3    3    0    0 -0.43736591739E+02  0.37137054949E+02 -0.36464149143E+01  0.57492241329E+02  0.10566000000E+00 0.  1.
         22    1    1    0    0    0  0.90491815838E+01 -0.24217265258E+02  0.13552513056E+02  0.29189625452E+02  0.00000000000E+00 0.  1.
</event>
<event>
 5    1  0.1758480E-003  0.9118800E+02  0.7818608E-02  0.1130116E+00
         25   -1    0    0    0    0  0.00000000000E+00  0.00000000000E+00  0.99999998245E-14  0.12500000000E+03  0.12500000000E+03 0.  0.
        -13    1    3    3    0    0  0.27410839066E+02  0.87615771470E+01 -0.27835367814E+02  0.40036710626E+02  0.10566000000E+00 0.  1.
         23    2    1    0    0    0 -0.24984893412E+02  0.91285122969E+01 -0.23697671801E+01  0.98294374524E+02  0.94597006460E+02 0.  0.
         13    1    3    3    0    0 -0.52395732477E+02  0.36693515000E+00  0.25465600634E+02  0.58257663898E+02  0.10566000000E+00 0. -1.
         22    1    1    0    0    0  0.24984893412E+02 -0.91285122969E+01  0.23697671801E+01  0.26705625476E+02  0.00000000000E+00 0. -1.
</event>
<event>
 5    1  0.1758480E-003  0.9118800E+02  0.7818608E-02  0.1130116E+00
         25   -1    0    0    0    0  0.00000000000E+00  0.00000000000E+00  0.99999998245E-14  0.12500000000E+03  0.12500000000E+03 0.  0.
        -13    1    3    3    0    0  0.70734267090E+01 -0.11807905764E+02  0.30032869712E+02  0.33037016074E+02  0.10566000000E+00 0. -1.
         23    2    1    0    0    0 -0.14712257320E+02 -0.19043132326E+01 -0.26613499609E+02  0.94531076721E+02  0.89486139599E+02 0.  0.
         13    1    3    3    0    0 -0.21785684029E+02  0.99035925314E+01 -0.56646369321E+02  0.61494060647E+02  0.10566000000E+00 0.  1.
         22    1    1    0    0    0  0.14712257320E+02  0.19043132326E+01  0.26613499609E+02  0.30468923279E+02  0.00000000000E+00 0.  1.
</event>
<event>
 5    1  0.1758480E-003  0.9118800E+02  0.7818608E-02  0.1130116E+00
         25   -1    0    0    0    0  0.00000000000E+00  0.00000000000E+00  0.99999998245E-14  0.12500000000E+03  0.12500000000E+03 0.  0.
        -13    1    3    3    0    0 -0.26629669338E+02 -0.30894896542E+02 -0.32108293686E+02  0.51909417343E+02  0.10566000000E+00 0.  1.
         23    2    1    0    0    0 -0.12367917580E+01 -0.37952903112E+02 -0.11629789467E+02  0.85285965811E+02  0.75475104854E+02 0.  0.
         13    1    3    3    0    0  0.25392877580E+02 -0.70580065703E+01  0.20478504219E+02  0.33376548468E+02  0.10566000000E+00 0. -1.
         22    1    1    0    0    0  0.12367917580E+01  0.37952903112E+02  0.11629789467E+02  0.39714034189E+02  0.00000000000E+00 0.  1.
</event>
<event>
 5    1  0.1758480E-003  0.9118800E+02  0.7818608E-02  0.1130116E+00
         25   -1    0    0    0    0  0.00000000000E+00  0.00000000000E+00  0.99999998245E-14  0.12500000000E+03  0.12500000000E+03 0.  0.
        -13    1    3    3    0    0  0.17534055830E+02 -0.71556872231E+01 -0.24567318245E+02  0.31019530353E+02  0.10566000000E+00 0. -1.
         23    2    1    0    0    0  0.93262709218E+00  0.10893675784E+02  0.31199460931E+02  0.91940230979E+02  0.85790778903E+02 0.  0.
         13    1    3    3    0    0 -0.16601428738E+02  0.18049363007E+02  0.55766779176E+02  0.60920700626E+02  0.10566000000E+00 0.  1.
         22    1    1    0    0    0 -0.93262709218E+00 -0.10893675784E+02 -0.31199460931E+02  0.33059769021E+02  0.00000000000E+00 0.  1.
</event>
<event>
 5    1  0.1758480E-003  0.9118800E+02  0.7818608E-02  0.1130116E+00
         25   -1    0    0    0    0  0.00000000000E+00  0.00000000000E+00  0.99999998245E-14  0.12500000000E+03  0.12500000000E+03 0.  0.
        -13    1    3    3    0    0  0.19966341039E+02  0.82999398272E+01 -0.31711334820E+02  0.38381814649E+02  0.10566000000E+00 0. -1.
         23    2    1    0    0    0 -0.79346409491E+01 -0.27954913986E+02  0.29693881356E+01  0.95789505159E+02  0.91227058977E+02 0.  0.
         13    1    3    3    0    0 -0.27900981988E+02 -0.36254853813E+02  0.34680722955E+02  0.57407690510E+02  0.10566000000E+00 0.  1.
         22    1    1    0    0    0  0.79346409491E+01  0.27954913986E+02 -0.29693881356E+01  0.29210494841E+02  0.00000000000E+00 0.  1.
</event>
<event>
 5    1  0.1758480E-003  0.9118800E+02  0.7818608E-02  0.1130116E+00
         25   -1    0    0    0    0  0.00000000000E+00  0.00000000000E+00  0.99999998245E-14  0.12500000000E+03  0.12500000000E+03 0.  0.
        -13    1    3    3    0    0  0.61486317158E+01  0.11332484325E+02  0.59084861674E+02  0.60475308317E+02  0.10566000000E+00 0.  1.
         23    2    1    0    0    0 -0.88549770549E+00 -0.51658994948E+01  0.29232841864E+02  0.95301015721E+02  0.90555253465E+02 0.  0.
         13    1    3    3    0    0 -0.70341294212E+01 -0.16498383820E+02 -0.29852019810E+02  0.34825707404E+02  0.10566000000E+00 0. -1.
         22    1    1    0    0    0  0.88549770549E+00  0.51658994948E+01 -0.29232841864E+02  0.29698984279E+02  0.00000000000E+00 0.  1.
</event>
<event>
 5    1  0.1758480E-003  0.9118800E+02  0.7818608E-02  0.1130116E+00
         25   -1    0    0    0    0  0.00000000000E+00  0.00000000000E+00  0.99999998245E-14  0.12500000000E+03  0.12500000000E+03 0.  0.
        -13    1    3    3    0    0  0.30285652251E+02 -0.11360393431E+02 -0.40114659724E+02  0.51531314364E+02  0.10566000000E+00 0.  1.
         23    2    1    0    0    0  0.45472020251E+01  0.16918053955E+02 -0.28592257521E+02  0.91467705327E+02  0.85099508411E+02 0.  0.
         13    1    3    3    0    0 -0.25738450226E+02  0.28278447386E+02  0.11522402203E+02  0.39936390964E+02  0.10566000000E+00 0. -1.
         22    1    1    0    0    0 -0.45472020251E+01 -0.16918053955E+02  0.28592257521E+02  0.33532294673E+02  0.00000000000E+00 0.  1.
</event>
<event>
 5    1  0.1758480E-003  0.9118800E+02  0.7818608E-02  0.1130116E+00
         25   -1    0    0    0    0  0.00000000000E+00  0.00000000000E+00  0.99999998245E-14  0.12500000000E+03  0.12500000000E+03 0.  0.
        -13    1    3    3    0    0  0.28369515879E+01  0.17691438125E+02  0.96664353599E+01  0.20358939408E+02  0.10566000000E+00 0. -1.
         23    2    1    0    0    0 -0.21984060257E+02 -0.36463556425E+02  0.14233098416E+02  0.80106003263E+02  0.66343807666E+02 0.  0.
         13    1    3    3    0    0 -0.24821011845E+02 -0.54154994550E+02  0.45666630557E+01  0.59747063854E+02  0.10566000000E+00 0.  1.
         22    1    1    0    0    0  0.21984060257E+02  0.36463556425E+02 -0.14233098416E+02  0.44893996737E+02  0.00000000000E+00 0.  1.
</event>
<event>
 5    1  0.1758480E-003  0.9118800E+02  0.7818608E-02  0.1130116E+00
         25   -1    0    0    0    0  0.00000000000E+00  0.00000000000E+00  0.99999998245E-14  0.12500000000E+03  0.12500000000E+03 0.  0.
        -13    1    3    3    0    0 -0.25051876974E+02 -0.17358560906E+02 -0.17028472887E+02  0.34912694389E+02  0.10566000000E+00 0.  1.
         23    2    1    0    0    0  0.67190125787E+01  0.25626912559E+02  0.12198243753E+02  0.95833565045E+02  0.91287410202E+02 0.  0.
         13    1    3    3    0    0  0.31770889552E+02  0.42985473465E+02  0.29226716640E+02  0.60920870656E+02  0.10566000000E+00 0. -1.
         22    1    1    0    0    0 -0.67190125787E+01 -0.25626912559E+02 -0.12198243753E+02  0.29166434955E+02  0.00000000000E+00 0. -1.
</event>
<event>
 5    1  0.1758480E-003  0.9118800E+02  0.7818608E-02  0.1130116E+00
         25   -1    0    0    0    0  0.00000000000E+00  0.00000000000E+00  0.99999998245E-14  0.12500000000E+03  0.12500000000E+03 0.  0.
        -13    1    3    3    0    0  0.49594357220E+02  0.51972069368E+01 -0.25728937595E+02  0.56112392765E+02  0.10566000000E+00 0. -1.
         23    2    1    0    0    0  0.18783685016E+02 -0.16520603258E+02 -0.16848065686E+02  0.94840184481E+02  0.89916884511E+02 0.  0.
         13    1    3    3    0    0 -0.30810672203E+02 -0.21717810195E+02  0.88808719095E+01  0.38727791716E+02  0.10566000000E+00 0.  1.
         22    1    1    0    0    0 -0.18783685016E+02  0.16520603258E+02  0.16848065686E+02  0.30159815519E+02  0.00000000000E+00 0. -1.
</event>
<event>
 5    1  0.1758480E-003  0.9118800E+02  0.7818608E-02  0.1130116E+00
         25   -1    0    0    0    0  0.00000000000E+00  0.00000000000E+00  0.99999998245E-14  0.12500000000E+03  0.12500000000E+03 0.  0.
        -13    1    3    3    0    0 -0.33948308854E+02  0.10215158303E+02 -0.48751284546E+02  0.60278819183E+02  0.10566000000E+00 0. -1.
         23    2    1    0    0    0 -0.23490083677E+02  0.88690631606E+01 -0.14746259451E+02  0.95881337938E+02  0.91352802280E+02 0.  0.
         13    1    3    3    0    0  0.10458225178E+02 -0.13460951419E+01  0.34005025094E+02  0.35602518755E+02  0.10566000000E+00 0.  1.
         22    1    1    0    0    0  0.23490083677E+02 -0.88690631606E+01  0.14746259451E+02  0.29118662062E+02  0.00000000000E+00 0. -1.
</event>
<event>
 5    1  0.1758480E-003  0.9118800E+02  0.7818608E-02  0.1130116E+00
         25   -1    0    0    0    0  0.00000000000E+00  0.00000000000E+00  0.99999998245E-14  0.12500000000E+03  0.12500000000E+03 0.  0.
        -13    1    3    3    0    0  0.51604191032E+02  0.23676002847E+02 -0.19324122546E+02  0.59974815707E+02  0.10566000000E+00 0. -1.
         23    2    1    0    0    0  0.14277331647E+02  0.88368021774E+01 -0.18310899256E+02  0.10015608116E+03  0.97025874334E+02 0.  0.
         13    1    3    3    0    0 -0.37326859385E+02 -0.14839200669E+02  0.10132232904E+01  0.40181265454E+02  0.10566000000E+00 0.  1.
         22    1    1    0    0    0 -0.14277331647E+02 -0.88368021774E+01  0.18310899256E+02  0.24843918839E+02  0.00000000000E+00 0. -1.
</event>
<event>
 5    1  0.1758480E-003  0.9118800E+02  0.7818608E-02  0.1130116E+00
         25   -1    0    0    0    0  0.00000000000E+00  0.00000000000E+00  0.99999998245E-14  0.12500000000E+03  0.12500000000E+03 0.  0.
        -13    1    3    3    0    0 -0.35195810932E+02  0.97322263944E+01  0.12563917597E+02  0.38617671178E+02  0.10566000000E+00 0. -1.
         23    2    1    0    0    0  0.23939118375E+02  0.94421335112E+01  0.85233220251E+01  0.97891287523E+02  0.94062861326E+02 0.  0.
         13    1    3    3    0    0  0.59134929307E+02 -0.29009288323E+00 -0.40405955720E+01  0.59273616345E+02  0.10566000000E+00 0.  1.
         22    1    1    0    0    0 -0.23939118375E+02 -0.94421335112E+01 -0.85233220251E+01  0.27108712477E+02  0.00000000000E+00 0.  1.
</event>
<event>
 5    1  0.1758480E-003  0.9118800E+02  0.7818608E-02  0.1130116E+00
         25   -1    0    0    0    0  0.00000000000E+00  0.00000000000E+00  0.99999998245E-14  0.12500000000E+03  0.12500000000E+03 0.  0.
        -13    1    3    3    0    0  0.31006260760E+02 -0.16386957336E+02  0.37562907469E+02  0.51389724251E+02  0.10566000000E+00 0.  1.
         23    2    1    0    0    0  0.23476099999E+02 -0.14908923324E+02 -0.67664711129E+01  0.96378532582E+02  0.92030609830E+02 0.  0.
         13    1    3    3    0    0 -0.75301607612E+01  0.14780340127E+01 -0.44329378582E+02  0.44988808332E+02  0.10566000000E+00 0. -1.
         22    1    1    0    0    0 -0.23476099999E+02  0.14908923324E+02  0.67664711129E+01  0.28621467418E+02  0.00000000000E+00 0.  1.
</event>
<event>
 5    1  0.1758480E-003  0.9118800E+02  0.7818608E-02  0.1130116E+00
         25   -1    0    0    0    0  0.00000000000E+00  0.00000000000E+00  0.99999998245E-14  0.12500000000E+03  0.12500000000E+03 0.  0.
        -13    1    3    3    0    0  0.12014337154E+02 -0.26657359408E+02 -0.47745922949E+02  0.55987886459E+02  0.10566000000E+00 0.  1.
         23    2    1    0    0    0  0.19753311663E+02  0.20918658350E+01 -0.22118323938E+02  0.95271403024E+02  0.90514367677E+02 0.  0.
         13    1    3    3    0    0  0.77389745091E+01  0.28749225243E+02  0.25627599011E+02  0.39283516564E+02  0.10566000000E+00 0. -1.
         22    1    1    0    0    0 -0.19753311663E+02 -0.20918658350E+01  0.22118323938E+02  0.29728596976E+02  0.00000000000E+00 0.  1.
</event>
<event>
 5    1  0.1758480E-003  0.9118800E+02  0.7818608E-02  0.1130116E+00
         25   -1    0    0    0    0  0.00000000000E+00  0.00000000000E+00  0.99999998245E-14  0.12500000000E+03  0.12500000000E+03 0.  0.
        -13    1    3    3    0    0  0.18718023494E+02  0.34571958682E+02 -0.45277794883E+02  0.59963944200E+02  0.10566000000E+00 0. -1.
         23    2    1    0    0    0  0.70177927481E+00  0.10475907065E+02 -0.28969813591E+02  0.94186249457E+02  0.89003159294E+02 0.  0.
         13    1    3    3    0    0 -0.18016244219E+02 -0.24096051617E+02  0.16307981291E+02  0.34222305257E+02  0.10566000000E+00 0.  1.
         22    1    1    0    0    0 -0.70177927481E+00 -0.10475907065E+02  0.28969813591E+02  0.30813750543E+02  0.00000000000E+00 0. -1.
</event>
<event>
 5    1  0.1758480E-003  0.9118800E+02  0.7818608E-02  0.1130116E+00
         25   -1    0    0    0    0  0.00000000000E+00  0.00000000000E+00  0.99999998245E-14  0.12500000000E+03  0.12500000000E+03 0.  0.
        -13    1    3    3    0    0 -0.15463454525E+02  0.15457291427E+02  0.30482785794E+02  0.37513433299E+02  0.10566000000E+00 0. -1.
         23    2    1    0    0    0  0.19409727354E+02  0.36060487635E+02  0.10279793299E+02  0.82777133746E+02  0.71198900529E+02 0.  0.
         13    1    3    3    0    0  0.34873181879E+02  0.20603196208E+02 -0.20202992495E+02  0.45263700447E+02  0.10566000000E+00 0.  1.
         22    1    1    0    0    0 -0.19409727354E+02 -0.36060487635E+02 -0.10279793299E+02  0.42222866254E+02  0.00000000000E+00 0.  1.
</event>
<event>
 5    1  0.1758480E-003  0.9118800E+02  0.7818608E-02  0.1130116E+00
         25   -1    0    0    0    0  0.00000000000E+00  0.00000000000E+00  0.99999998245E-14  0.12500000000E+03  0.12500000000E+03 0.  0.
        -13    1    3    3    0    0 -0.65912352599E+01 -0.41147991920E+02  0.40193168384E+02  0.57897353740E+02  0.10566000000E+00 0.  1.
         23    2    1    0    0    0  0.10619053433E+01 -0.63099376268E+01  0.29031268369E+02  0.95271940882E+02  0.90515110454E+02 0.  0.
         13    1    3    3    0    0  0.76531406032E+01  0.34838054294E+02 -0.11161900015E+02  0.37374587142E+02  0.10566000000E+00 0. -1.
         22    1    1    0    0    0 -0.10619053433E+01  0.63099376268E+01 -0.29031268369E+02  0.29728059118E+02  0.00000000000E+00 0.  1.
</event>
<event>
 5    1  0.1758480E-003  0.9118800E+02  0.7818608E-02  0.1130116E+00
         25   -1    0    0    0    0  0.00000000000E+00  0.00000000000E+00  0.99999998245E-14  0.12500000000E+03  0.12500000000E+03 0.  0.
        -13    1    3    3    0    0 -0.32770579618E+02 -0.85130052992E+01 -0.47712109701E+02  0.58505031612E+02  0.10566000000E+00 0.  1.
         23    2    1    0    0    0 -0.24713592413E+01  0.12768859744E+01 -0.29861910481E+02  0.95008805428E+02  0.90150991991E+02 0.  0.
         13    1    3    3    0    0  0.30299220377E+02  0.97898912736E+01  0.17850199220E+02  0.36503773816E+02  0.10566000000E+00 0. -1.
         22    1    1    0    0    0  0.24713592413E+01 -0.12768859744E+01  0.29861910481E+02  0.29991194572E+02  0.00000000000E+00 0.  1.
</event>
<event>
 5    1  0.1758480E-003  0.9118800E+02  0.7818608E-02  0.1130116E+00
         25   -1    0    0    0    0  0.00000000000E+00  0.00000000000E+00  0.99999998245E-14  0.12500000000E+03  0.12500000000E+03 0.  0.
        -13    1    3    3    0    0  0.23533513906E+02  0.98685070592E+00  0.12143570172E+02  0.26500520970E+02  0.10566000000E+00 0. -1.
         23    2    1    0    0    0 -0.21004595179E+02 -0.60699124874E+01  0.39935758032E+02  0.79470870579E+02  0.65136146991E+02 0.  0.
         13    1    3    3    0    0 -0.44538109086E+02 -0.70567631933E+01  0.27792187859E+02  0.52970349610E+02  0.10566000000E+00 0.  1.
         22    1    1    0    0    0  0.21004595179E+02  0.60699124874E+01 -0.39935758032E+02  0.45529129421E+02  0.00000000000E+00 0.  1.
</event>
<event>
 5    1  0.1758480E-003  0.9118800E+02  0.7818608E-02  0.1130116E+00
         25   -1    0    0    0    0  0.00000000000E+00  0.00000000000E+00  0.99999998245E-14  0.12500000000E+03  0.12500000000E+03 0.  0.
        -13    1    3    3    0    0 -0.39343295582E+02 -0.18360319928E+02 -0.13799410998E+02  0.45556900279E+02  0.10566000000E+00 0.  1.
         23    2    1    0    0    0  0.16111113792E+01 -0.28098440837E+02  0.11416858156E+02  0.94627928824E+02  0.89621326737E+02 0.  0.
         13    1    3    3    0    0  0.40954406961E+02 -0.97381209090E+01  0.25216269153E+02  0.49071028545E+02  0.10566000000E+00 0. -1.
         22    1    1    0    0    0 -0.16111113792E+01  0.28098440837E+02 -0.11416858156E+02  0.30372071176E+02  0.00000000000E+00 0. -1.
</event>
<event>
 5    1  0.1758480E-003  0.9118800E+02  0.7818608E-02  0.1130116E+00
         25   -1    0    0    0    0  0.00000000000E+00  0.00000000000E+00  0.99999998245E-14  0.12500000000E+03  0.12500000000E+03 0.  0.
        -13    1    3    3    0    0 -0.30701598755E+02 -0.45351120479E+01  0.16683915691E+02  0.35235204189E+02  0.10566000000E+00 0. -1.
         23    2    1    0    0    0  0.21434634784E+02 -0.65844130597E+01 -0.16579674313E+02  0.97113019812E+02  0.93022873279E+02 0.  0.
         13    1    3    3    0    0  0.52136233540E+02 -0.20493010117E+01 -0.33263590004E+02  0.61877815623E+02  0.10566000000E+00 0.  1.
         22    1    1    0    0    0 -0.21434634784E+02  0.65844130597E+01  0.16579674313E+02  0.27886980188E+02  0.00000000000E+00 0.  1.
</event>
<event>
 5    1  0.1758480E-003  0.9118800E+02  0.7818608E-02  0.1130116E+00
         25   -1    0    0    0    0  0.00000000000E+00  0.00000000000E+00  0.99999998245E-14  0.12500000000E+03  0.12500000000E+03 0.  0.
        -13    1    3    3    0    0 -0.31770248187E+02 -0.10553155465E+02 -0.10580132873E+02  0.35109373902E+02  0.10566000000E+00 0. -1.
         23    2    1    0    0    0  0.15983969811E+02  0.19357502660E+02  0.13625693904E+02  0.96436741528E+02  0.92109637835E+02 0.  0.
         13    1    3    3    0    0  0.47754217997E+02  0.29910658125E+02  0.24205826777E+02  0.61327367627E+02  0.10566000000E+00 0.  1.
         22    1    1    0    0    0 -0.15983969811E+02 -0.19357502660E+02 -0.13625693904E+02  0.28563258472E+02  0.00000000000E+00 0.  1.
</event>
<event>
 5    1  0.1758480E-003  0.9118800E+02  0.7818608E-02  0.1130116E+00
         25   -1    0    0    0    0  0.00000000000E+00  0.00000000000E+00  0.99999998245E-14  0.12500000000E+03  0.12500000000E+03 0.  0.
        -13    1    3    3    0    0  0.50523284651E+02 -0.24100648928E+02 -0.27779347020E+02  0.62491174221E+02  0.10566000000E+00 0. -1.
         23    2    1    0    0    0  0.24114679095E+02 -0.10991396017E+02 -0.12504869553E+02  0.95696411537E+02  0.91099412097E+02 0.  0.
         13    1    3    3    0    0 -0.26408605556E+02  0.13109252911E+02  0.15274477467E+02  0.33205237316E+02  0.10566000000E+00 0.  1.
         22    1    1    0    0    0 -0.24114679095E+02  0.10991396017E+02  0.12504869553E+02  0.29303588463E+02  0.00000000000E+00 0. -1.
</event>
<event>
 5    1  0.1758480E-003  0.9118800E+02  0.7818608E-02  0.1130116E+00
         25   -1    0    0    0    0  0.00000000000E+00  0.00000000000E+00  0.99999998245E-14  0.12500000000E+03  0.12500000000E+03 0.  0.
        -13    1    3    3    0    0 -0.43426279639E+02  0.30837771862E+01  0.17714089790E+01  0.43571785583E+02  0.10566000000E+00 0.  1.
         23    2    1    0    0    0 -0.26742431782E+01 -0.28266016491E+02 -0.70672094629E+01  0.95741416397E+02  0.91161143583E+02 0.  0.
         13    1    3    3    0    0  0.40752036461E+02 -0.31349793677E+02 -0.88386184419E+01  0.52169630815E+02  0.10566000000E+00 0. -1.
         22    1    1    0    0    0  0.26742431782E+01  0.28266016491E+02  0.70672094629E+01  0.29258583603E+02  0.00000000000E+00 0. -1.
</event>
<event>
 5    1  0.1758480E-003  0.9118800E+02  0.7818608E-02  0.1130116E+00
         25   -1    0    0    0    0  0.00000000000E+00  0.00000000000E+00  0.99999998245E-14  0.12500000000E+03  0.12500000000E+03 0.  0.
        -13    1    3    3    0    0 -0.26558802633E+02  0.30794070757E+02  0.14653420092E+00  0.40665432832E+02  0.10566000000E+00 0.  1.
         23    2    1    0    0    0 -0.15870584686E+02 -0.19749886695E+02 -0.16289662500E+02  0.94878801698E+02  0.89970553097E+02 0.  0.
         13    1    3    3    0    0  0.10688217947E+02 -0.50543957452E+02 -0.16436196701E+02  0.54213368867E+02  0.10566000000E+00 0. -1.
         22    1    1    0    0    0  0.15870584686E+02  0.19749886695E+02  0.16289662500E+02  0.30121198302E+02  0.00000000000E+00 0. -1.
</event>
<event>
 5    1  0.1758480E-003  0.9118800E+02  0.7818608E-02  0.1130116E+00
         25   -1    0    0    0    0  0.00000000000E+00  0.00000000000E+00  0.99999998245E-14  0.12500000000E+03  0.12500000000E+03 0.  0.
        -13    1    3    3    0    0  0.25212937534E+02 -0.52405684296E+02  0.12427420758E+02  0.59468478342E+02  0.10566000000E+00 0. -1.
         23    2    1    0    0    0 -0.62709000321E+00 -0.26278307284E+02  0.11712972770E+02  0.96222640727E+02  0.91818626551E+02 0.  0.
         13    1    3    3    0    0 -0.25840027538E+02  0.26127377011E+02 -0.71444798772E+00  0.36754162385E+02  0.10566000000E+00 0.  1.
         22    1    1    0    0    0  0.62709000321E+00  0.26278307284E+02 -0.11712972770E+02  0.28777359273E+02  0.00000000000E+00 0. -1.
</event>
<event>
 5    1  0.1758480E-003  0.9118800E+02  0.7818608E-02  0.1130116E+00
         25   -1    0    0    0    0  0.00000000000E+00  0.00000000000E+00  0.99999998245E-14  0.12500000000E+03  0.12500000000E+03 0.  0.
        -13    1    3    3    0    0 -0.29783062429E+02 -0.38470950288E+02  0.27414407778E+02  0.55844478166E+02  0.10566000000E+00 0.  1.
         23    2    1    0    0    0  0.57206318439E+01 -0.20476935733E+02  0.18909928103E+02  0.96546249692E+02  0.92258129306E+02 0.  0.
         13    1    3    3    0    0  0.35503694273E+02  0.17994014555E+02 -0.85044796752E+01  0.40701771526E+02  0.10566000000E+00 0. -1.
         22    1    1    0    0    0 -0.57206318439E+01  0.20476935733E+02 -0.18909928103E+02  0.28453750308E+02  0.00000000000E+00 0.  1.
</event>
<event>
 5    1  0.1758480E-003  0.9118800E+02  0.7818608E-02  0.1130116E+00
         25   -1    0    0    0    0  0.00000000000E+00  0.00000000000E+00  0.99999998245E-14  0.12500000000E+03  0.12500000000E+03 0.  0.
        -13    1    3    3    0    0 -0.50818975027E+01  0.59186417805E+01 -0.34215622815E+02  0.35093817282E+02  0.10566000000E+00 0.  1.
         23    2    1    0    0    0 -0.11353236216E+02  0.41164272407E+02 -0.36918580338E+01  0.82139492407E+02  0.70070486667E+02 0.  0.
         13    1    3    3    0    0 -0.62713387132E+01  0.35245630627E+02  0.30523764781E+02  0.47045675125E+02  0.10566000000E+00 0. -1.
         22    1    1    0    0    0  0.11353236216E+02 -0.41164272407E+02  0.36918580338E+01  0.42860507593E+02  0.00000000000E+00 0. -1.
</event>
<event>
 5    1  0.1758480E-003  0.9118800E+02  0.7818608E-02  0.1130116E+00
         25   -1    0    0    0    0  0.00000000000E+00  0.00000000000E+00  0.99999998245E-14  0.12500000000E+03  0.12500000000E+03 0.  0.
        -13    1    3    3    0    0 -0.48012599129E+02  0.22221453151E+02  0.60106332686E+01  0.53246047098E+02  0.10566000000E+00 0.  1.
         23    2    1    0    0    0 -0.26011792188E+02 -0.12247179966E+02 -0.55020129713E+01  0.95727506142E+02  0.91142067869E+02 0.  0.
         13    1    3    3    0    0  0.22000806941E+02 -0.34468633117E+02 -0.11512646240E+02  0.42481459044E+02  0.10566000000E+00 0. -1.
         22    1    1    0    0    0  0.26011792188E+02  0.12247179966E+02  0.55020129713E+01  0.29272493858E+02  0.00000000000E+00 0. -1.
</event>
<event>
 5    1  0.1758480E-003  0.9118800E+02  0.7818608E-02  0.1130116E+00
         25   -1    0    0    0    0  0.00000000000E+00  0.00000000000E+00  0.99999998245E-14  0.12500000000E+03  0.12500000000E+03 0.  0.
        -13    1    3    3    0    0 -0.37850560903E+02  0.88105101183E+01  0.26289530979E+02  0.46919512490E+02  0.10566000000E+00 0. -1.
         23    2    1    0    0    0 -0.75033844611E+01  0.27012410959E+02 -0.76374867085E+01  0.95943119104E+02  0.91437299697E+02 0.  0.
         13    1    3    3    0    0  0.30347176441E+02  0.18201900841E+02 -0.33927017688E+02  0.49023606614E+02  0.10566000000E+00 0.  1.
         22    1    1    0    0    0  0.75033844611E+01 -0.27012410959E+02  0.76374867085E+01  0.29056880896E+02  0.00000000000E+00 0. -1.
</event>
<event>
 5    1  0.1758480E-003  0.9118800E+02  0.7818608E-02  0.1130116E+00
         25   -1    0    0    0    0  0.00000000000E+00  0.00000000000E+00  0.99999998245E-14  0.12500000000E+03  0.12500000000E+03 0.  0.
        -13    1    3    3    0    0 -0.47403446471E+02  0.12095742271E+02  0.61807944115E+01  0.49311328334E+02  0.10566000000E+00 0. -1.
         23    2    1    0    0    0 -0.18495273289E+02 -0.18108072710E+02 -0.13819898099E+02  0.95657760570E+02  0.91046362599E+02 0.  0.
         13    1    3    3    0    0  0.28908173182E+02 -0.30203814980E+02 -0.20000692511E+02  0.46346432236E+02  0.10566000000E+00 0.  1.
         22    1    1    0    0    0  0.18495273289E+02  0.18108072710E+02  0.13819898099E+02  0.29342239430E+02  0.00000000000E+00 0.  1.
</event>
<event>
 5    1  0.1758480E-003  0.9118800E+02  0.7818608E-02  0.1130116E+00
         25   -1    0    0    0    0  0.00000000000E+00  0.00000000000E+00  0.99999998245E-14  0.12500000000E+03  0.12500000000E+03 0.  0.
        -13    1    3    3    0    0 -0.70213734198E+01 -0.33406942497E+02 -0.76111503050E+01  0.34975194992E+02  0.10566000000E+00 0.  1.
         23    2    1    0    0    0 -0.23876612356E+01  0.28007940316E+02 -0.20203192325E+01  0.96817960743E+02  0.92625537438E+02 0.  0.
         13    1    3    3    0    0  0.46337121842E+01  0.61414882813E+02  0.55908310725E+01  0.61842765751E+02  0.10566000000E+00 0. -1.
         22    1    1    0    0    0  0.23876612356E+01 -0.28007940316E+02  0.20203192325E+01  0.28182039257E+02  0.00000000000E+00 0. -1.
</event>
<event>
 5    1  0.1758480E-003  0.9118800E+02  0.7818608E-02  0.1130116E+00
         25   -1    0    0    0    0  0.00000000000E+00  0.00000000000E+00  0.99999998245E-14  0.12500000000E+03  0.12500000000E+03 0.  0.
        -13    1    3    3    0    0  0.30685753416E+02  0.40928494583E+02  0.13634526066E+02  0.52940236083E+02  0.10566000000E+00 0. -1.
         23    2    1    0    0    0  0.22441622144E+02 -0.40780347456E+01  0.13095464804E+02  0.98698897926E+02  0.95130039849E+02 0.  0.
         13    1    3    3    0    0 -0.82441312713E+01 -0.45006529328E+02 -0.53906126199E+00  0.45758661843E+02  0.10566000000E+00 0.  1.
         22    1    1    0    0    0 -0.22441622144E+02  0.40780347456E+01 -0.13095464804E+02  0.26301102074E+02  0.00000000000E+00 0.  1.
</event>
<event>
 5    1  0.1758480E-003  0.9118800E+02  0.7818608E-02  0.1130116E+00
         25   -1    0    0    0    0  0.00000000000E+00  0.00000000000E+00  0.99999998245E-14  0.12500000000E+03  0.12500000000E+03 0.  0.
        -13    1    3    3    0    0  0.31984392122E+00 -0.33923775251E+02 -0.84084168171E+01  0.34951930774E+02  0.10566000000E+00 0. -1.
         23    2    1    0    0    0  0.52768916729E+01  0.23383392691E+02  0.14631651005E+02  0.96915950246E+02  0.92757681954E+02 0.  0.
         13    1    3    3    0    0  0.49570477517E+01  0.57307167941E+02  0.23040067822E+02  0.61964019472E+02  0.10566000000E+00 0.  1.
         22    1    1    0    0    0 -0.52768916729E+01 -0.23383392691E+02 -0.14631651005E+02  0.28084049754E+02  0.00000000000E+00 0.  1.
</event>
<event>
 5    1  0.1758480E-003  0.9118800E+02  0.7818608E-02  0.1130116E+00
         25   -1    0    0    0    0  0.00000000000E+00  0.00000000000E+00  0.99999998245E-14  0.12500000000E+03  0.12500000000E+03 0.  0.
        -13    1    3    3    0    0 -0.54972291290E+02 -0.38325364850E+01  0.15622150511E+02  0.57277429204E+02  0.10566000000E+00 0. -1.
         23    2    1    0    0    0 -0.21663735755E+02 -0.18699265563E+02  0.16604776080E+01  0.96334041698E+02  0.91970160512E+02 0.  0.
         13    1    3    3    0    0  0.33308555534E+02 -0.14866729078E+02 -0.13961672903E+02  0.39056612495E+02  0.10566000000E+00 0.  1.
         22    1    1    0    0    0  0.21663735755E+02  0.18699265563E+02 -0.16604776080E+01  0.28665958302E+02  0.00000000000E+00 0. -1.
</event>
<event>
 5    1  0.1758480E-003  0.9118800E+02  0.7818608E-02  0.1130116E+00
         25   -1    0    0    0    0  0.00000000000E+00  0.00000000000E+00  0.99999998245E-14  0.12500000000E+03  0.12500000000E+03 0.  0.
        -13    1    3    3    0    0  0.30034788673E+02 -0.52722912921E+01 -0.21164182259E+00  0.30494942898E+02  0.10566000000E+00 0.  1.
         23    2    1    0    0    0 -0.31088700836E+02  0.76751210380E+01 -0.42236860128E+00  0.92975115958E+02  0.87285617312E+02 0.  0.
         13    1    3    3    0    0 -0.61123489509E+02  0.12947412330E+02 -0.21072677869E+00  0.62480173060E+02  0.10566000000E+00 0. -1.
         22    1    1    0    0    0  0.31088700836E+02 -0.76751210380E+01  0.42236860128E+00  0.32024884042E+02  0.00000000000E+00 0. -1.
</event>
<event>
 5    1  0.1758480E-003  0.9118800E+02  0.7818608E-02  0.1130116E+00
         25   -1    0    0    0    0  0.00000000000E+00  0.00000000000E+00  0.99999998245E-14  0.12500000000E+03  0.12500000000E+03 0.  0.
        -13    1    3    3    0    0 -0.10499805737E+02 -0.72898720028E+00  0.56941089131E+02  0.57905752204E+02  0.10566000000E+00 0. -1.
         23    2    1    0    0    0  0.10860259375E+02  0.10850193163E-01  0.34212680898E+02  0.89104974082E+02  0.81555156309E+02 0.  0.
         13    1    3    3    0    0  0.21360065112E+02  0.73983739344E+00 -0.22728408233E+02  0.31199221878E+02  0.10566000000E+00 0.  1.
         22    1    1    0    0    0 -0.10860259375E+02 -0.10850193163E-01 -0.34212680898E+02  0.35895025918E+02  0.00000000000E+00 0. -1.
</event>
<event>
 5    1  0.1758480E-003  0.9118800E+02  0.7818608E-02  0.1130116E+00
         25   -1    0    0    0    0  0.00000000000E+00  0.00000000000E+00  0.99999998245E-14  0.12500000000E+03  0.12500000000E+03 0.  0.
        -13    1    3    3    0    0 -0.37176568559E+02  0.37392981947E+02  0.68770954649E+01  0.53175539065E+02  0.10566000000E+00 0. -1.
         23    2    1    0    0    0 -0.29150076098E+02 -0.19917186117E+01 -0.55755545212E+01  0.95254736717E+02  0.90491348643E+02 0.  0.
         13    1    3    3    0    0  0.80264924611E+01 -0.39384700559E+02 -0.12452649986E+02  0.42079197652E+02  0.10566000000E+00 0.  1.
         22    1    1    0    0    0  0.29150076098E+02  0.19917186117E+01  0.55755545212E+01  0.29745263283E+02  0.00000000000E+00 0. -1.
</event>
<event>
 5    1  0.1758480E-003  0.9118800E+02  0.7818608E-02  0.1130116E+00
         25   -1    0    0    0    0  0.00000000000E+00  0.00000000000E+00  0.99999998245E-14  0.12500000000E+03  0.12500000000E+03 0.  0.
        -13    1    3    3    0    0  0.41831809657E+02 -0.11730241372E+01 -0.92447704122E+01  0.42857359097E+02  0.10566000000E+00 0. -1.
         23    2    1    0    0    0 -0.11050285210E+02 -0.19874584457E+02 -0.12513800594E+02  0.99044208433E+02  0.95582697745E+02 0.  0.
         13    1    3    3    0    0 -0.52882094867E+02 -0.18701560320E+02 -0.32690301817E+01  0.56186849336E+02  0.10566000000E+00 0.  1.
         22    1    1    0    0    0  0.11050285210E+02  0.19874584457E+02  0.12513800594E+02  0.25955791567E+02  0.00000000000E+00 0.  1.
</event>
<event>
 5    1  0.1758480E-003  0.9118800E+02  0.7818608E-02  0.1130116E+00
         25   -1    0    0    0    0  0.00000000000E+00  0.00000000000E+00  0.99999998245E-14  0.12500000000E+03  0.12500000000E+03 0.  0.
        -13    1    3    3    0    0  0.25081863494E+02 -0.91138895901E+01 -0.21459294489E+02  0.34244347618E+02  0.10566000000E+00 0.  1.
         23    2    1    0    0    0 -0.11359099956E+02  0.17932306164E+02  0.20090036881E+02  0.95773191450E+02  0.91204703072E+02 0.  0.
         13    1    3    3    0    0 -0.36440963449E+02  0.27046195754E+02  0.41549331370E+02  0.61528843831E+02  0.10566000000E+00 0. -1.
         22    1    1    0    0    0  0.11359099956E+02 -0.17932306164E+02 -0.20090036881E+02  0.29226808550E+02  0.00000000000E+00 0. -1.
</event>
<event>
 5    1  0.1758480E-003  0.9118800E+02  0.7818608E-02  0.1130116E+00
         25   -1    0    0    0    0  0.00000000000E+00  0.00000000000E+00  0.99999998245E-14  0.12500000000E+03  0.12500000000E+03 0.  0.
        -13    1    3    3    0    0  0.35009379870E+02  0.67248604337E+01  0.18503145654E+02  0.40165382980E+02  0.10566000000E+00 0. -1.
         23    2    1    0    0    0 -0.18098589105E+02 -0.16811533701E+02  0.54014527605E+01  0.99714385811E+02  0.96455152547E+02 0.  0.
         13    1    3    3    0    0 -0.53107968976E+02 -0.23536394134E+02 -0.13101692894E+02  0.59549002832E+02  0.10566000000E+00 0.  1.
         22    1    1    0    0    0  0.18098589105E+02  0.16811533701E+02 -0.54014527605E+01  0.25285614189E+02  0.00000000000E+00 0.  1.
</event>
<event>
 5    1  0.1758480E-003  0.9118800E+02  0.7818608E-02  0.1130116E+00
         25   -1    0    0    0    0  0.00000000000E+00  0.00000000000E+00  0.99999998245E-14  0.12500000000E+03  0.12500000000E+03 0.  0.
        -13    1    3    3    0    0  0.14647968180E+02 -0.39513734242E+02 -0.38623928778E+02  0.57163950212E+02  0.10566000000E+00 0.  1.
         23    2    1    0    0    0 -0.80523401590E+01 -0.25657465459E+02 -0.98111494982E+01  0.96374759909E+02  0.92025485476E+02 0.  0.
         13    1    3    3    0    0 -0.22700308339E+02  0.13856268783E+02  0.28812779280E+02  0.39210809697E+02  0.10566000000E+00 0. -1.
         22    1    1    0    0    0  0.80523401590E+01  0.25657465459E+02  0.98111494982E+01  0.28625240091E+02  0.00000000000E+00 0.  1.
</event>
<event>
 5    1  0.1758480E-003  0.9118800E+02  0.7818608E-02  0.1130116E+00
         25   -1    0    0    0    0  0.00000000000E+00  0.00000000000E+00  0.99999998245E-14  0.12500000000E+03  0.12500000000E+03 0.  0.
        -13    1    3    3    0    0 -0.10751917942E+02  0.27957104252E+02 -0.34497654529E+02  0.45687008543E+02  0.10566000000E+00 0. -1.
         23    2    1    0    0    0  0.20851890802E+02 -0.52285048554E+01 -0.24150785281E+02  0.92667368762E+02  0.86843780379E+02 0.  0.
         13    1    3    3    0    0  0.31603808745E+02 -0.33185609107E+02  0.10346869248E+02  0.46980360219E+02  0.10566000000E+00 0.  1.
         22    1    1    0    0    0 -0.20851890802E+02  0.52285048554E+01  0.24150785281E+02  0.32332631238E+02  0.00000000000E+00 0.  1.
</event>
<event>
 5    1  0.1758480E-003  0.9118800E+02  0.7818608E-02  0.1130116E+00
         25   -1    0    0    0    0  0.00000000000E+00  0.00000000000E+00  0.99999998245E-14  0.12500000000E+03  0.12500000000E+03 0.  0.
        -13    1    3    3    0    0  0.98141288001E+01  0.54819058775E+02  0.14223258302E+02  0.57478331307E+02  0.10566000000E+00 0.  1.
         23    2    1    0    0    0  0.13998167759E+02  0.17254812725E+02  0.19242654484E+02  0.95606854296E+02  0.90976445160E+02 0.  0.
         13    1    3    3    0    0  0.41840389593E+01 -0.37564246050E+02  0.50193961821E+01  0.38128522989E+02  0.10566000000E+00 0. -1.
         22    1    1    0    0    0 -0.13998167759E+02 -0.17254812725E+02 -0.19242654484E+02  0.29393145704E+02  0.00000000000E+00 0.  1.
</event>
<event>
 5    1  0.1758480E-003  0.9118800E+02  0.7818608E-02  0.1130116E+00
         25   -1    0    0    0    0  0.00000000000E+00  0.00000000000E+00  0.99999998245E-14  0.12500000000E+03  0.12500000000E+03 0.  0.
        -13    1    3    3    0    0 -0.27055315933E+02  0.13222547101E+02  0.12823841177E+02  0.32730535264E+02  0.10566000000E+00 0. -1.
         23    2    1    0    0    0  0.23763218622E+02 -0.15316416598E+02 -0.95466532771E+01  0.95160064251E+02  0.90360478434E+02 0.  0.
         13    1    3    3    0    0  0.50818534556E+02 -0.28538963699E+02 -0.22370494454E+02  0.62429528987E+02  0.10566000000E+00 0.  1.
         22    1    1    0    0    0 -0.23763218622E+02  0.15316416598E+02  0.95466532771E+01  0.29839935749E+02  0.00000000000E+00 0.  1.
</event>
<event>
 5    1  0.1758480E-003  0.9118800E+02  0.7818608E-02  0.1130116E+00
         25   -1    0    0    0    0  0.00000000000E+00  0.00000000000E+00  0.99999998245E-14  0.12500000000E+03  0.12500000000E+03 0.  0.
        -13    1    3    3    0    0 -0.43503489812E+02 -0.35605552305E+02  0.12867650135E+02  0.57670586653E+02  0.10566000000E+00 0.  1.
         23    2    1    0    0    0 -0.16116423572E+02 -0.19837110051E+02 -0.10900973847E+02  0.97213649489E+02  0.93157996824E+02 0.  0.
         13    1    3    3    0    0  0.27387066241E+02  0.15768442254E+02 -0.23768623983E+02  0.39543062836E+02  0.10566000000E+00 0. -1.
         22    1    1    0    0    0  0.16116423572E+02  0.19837110051E+02  0.10900973847E+02  0.27786350511E+02  0.00000000000E+00 0.  1.
</event>
<event>
 5    1  0.1758480E-003  0.9118800E+02  0.7818608E-02  0.1130116E+00
         25   -1    0    0    0    0  0.00000000000E+00  0.00000000000E+00  0.99999998245E-14  0.12500000000E+03  0.12500000000E+03 0.  0.
        -13    1    3    3    0    0  0.12177072715E+01 -0.13346504594E+02 -0.51642558719E+02  0.53353322586E+02  0.10566000000E+00 0.  1.
         23    2    1    0    0    0 -0.30889766830E+01  0.16918480506E+02 -0.28569752129E+02  0.91653223600E+02  0.85371575480E+02 0.  0.
         13    1    3    3    0    0 -0.43066839546E+01  0.30264985099E+02  0.23072806589E+02  0.38299901014E+02  0.10566000000E+00 0. -1.
         22    1    1    0    0    0  0.30889766830E+01 -0.16918480506E+02  0.28569752129E+02  0.33346776400E+02  0.00000000000E+00 0.  1.
</event>
<event>
 5    1  0.1758480E-003  0.9118800E+02  0.7818608E-02  0.1130116E+00
         25   -1    0    0    0    0  0.00000000000E+00  0.00000000000E+00  0.99999998245E-14  0.12500000000E+03  0.12500000000E+03 0.  0.
        -13    1    3    3    0    0  0.35566834687E+01 -0.22470729062E+02 -0.36817219839E+02  0.43279354230E+02  0.10566000000E+00 0. -1.
         23    2    1    0    0    0  0.20506415450E+02  0.14950970078E+02  0.16623371635E+01  0.99567580813E+02  0.96264714217E+02 0.  0.
         13    1    3    3    0    0  0.16949731981E+02  0.37421699139E+02  0.38479557002E+02  0.56288226583E+02  0.10566000000E+00 0.  1.
         22    1    1    0    0    0 -0.20506415450E+02 -0.14950970078E+02 -0.16623371635E+01  0.25432419187E+02  0.00000000000E+00 0.  1.
</event>
<event>
 5    1  0.1758480E-003  0.9118800E+02  0.7818608E-02  0.1130116E+00
         25   -1    0    0    0    0  0.00000000000E+00  0.00000000000E+00  0.99999998245E-14  0.12500000000E+03  0.12500000000E+03 0.  0.
        -13    1    3    3    0    0 -0.32442989337E+02  0.54000324312E+01 -0.24600252917E+01  0.32981370436E+02  0.10566000000E+00 0.  1.
         23    2    1    0    0    0  0.23775604100E+02 -0.86117718827E+01  0.17484604256E+02  0.94256653545E+02  0.89101983065E+02 0.  0.
         13    1    3    3    0    0  0.56218593437E+02 -0.14011804314E+02  0.19944629548E+02  0.61275283108E+02  0.10566000000E+00 0. -1.
         22    1    1    0    0    0 -0.23775604100E+02  0.86117718827E+01 -0.17484604256E+02  0.30743346455E+02  0.00000000000E+00 0. -1.
</event>
<event>
 5    1  0.1758480E-003  0.9118800E+02  0.7818608E-02  0.1130116E+00
         25   -1    0    0    0    0  0.00000000000E+00  0.00000000000E+00  0.99999998245E-14  0.12500000000E+03  0.12500000000E+03 0.  0.
        -13    1    3    3    0    0  0.25975170077E+02 -0.27121136166E+02 -0.12460058071E+02  0.39566775186E+02  0.10566000000E+00 0.  1.
         23    2    1    0    0    0 -0.60926111186E+01  0.18218861429E+02 -0.21867903498E+02  0.95892406052E+02  0.91367945763E+02 0.  0.
         13    1    3    3    0    0 -0.32067781195E+02  0.45339997596E+02 -0.94078454275E+01  0.56325630866E+02  0.10566000000E+00 0. -1.
         22    1    1    0    0    0  0.60926111186E+01 -0.18218861429E+02  0.21867903498E+02  0.29107593948E+02  0.00000000000E+00 0. -1.
</event>
<event>
 5    1  0.1758480E-003  0.9118800E+02  0.7818608E-02  0.1130116E+00
         25   -1    0    0    0    0  0.00000000000E+00  0.00000000000E+00  0.99999998245E-14  0.12500000000E+03  0.12500000000E+03 0.  0.
        -13    1    3    3    0    0  0.45848278943E+02 -0.52840609545E+01 -0.69550277632E+01  0.46673006733E+02  0.10566000000E+00 0. -1.
         23    2    1    0    0    0  0.15921093984E+01 -0.24850001964E+02  0.10309610724E+02  0.98049202549E+02  0.94272480806E+02 0.  0.
         13    1    3    3    0    0 -0.44256169545E+02 -0.19565941010E+02  0.17264638487E+02  0.51376195816E+02  0.10566000000E+00 0.  1.
         22    1    1    0    0    0 -0.15921093984E+01  0.24850001964E+02 -0.10309610724E+02  0.26950797451E+02  0.00000000000E+00 0. -1.
</event>
<event>
 5    1  0.1758480E-003  0.9118800E+02  0.7818608E-02  0.1130116E+00
         25   -1    0    0    0    0  0.00000000000E+00  0.00000000000E+00  0.99999998245E-14  0.12500000000E+03  0.12500000000E+03 0.  0.
        -13    1    3    3    0    0  0.36378494311E+02 -0.65728670855E+01  0.12217939170E+02  0.38934388806E+02  0.10566000000E+00 0. -1.
         23    2    1    0    0    0 -0.93232383574E+01 -0.25733884004E+02 -0.13181694870E+02  0.94620522732E+02  0.89610996440E+02 0.  0.
         13    1    3    3    0    0 -0.45701732669E+02 -0.19161016919E+02 -0.25399634040E+02  0.55686133926E+02  0.10566000000E+00 0.  1.
         22    1    1    0    0    0  0.93232383574E+01  0.25733884004E+02  0.13181694870E+02  0.30379477268E+02  0.00000000000E+00 0.  1.
</event>
<event>
 5    1  0.1758480E-003  0.9118800E+02  0.7818608E-02  0.1130116E+00
         25   -1    0    0    0    0  0.00000000000E+00  0.00000000000E+00  0.99999998245E-14  0.12500000000E+03  0.12500000000E+03 0.  0.
        -13    1    3    3    0    0  0.17072940786E+02  0.48441474763E+02  0.10785716058E+02  0.52482422003E+02  0.10566000000E+00 0.  1.
         23    2    1    0    0    0  0.83272667665E+01  0.95969188066E+01  0.26753979036E+02  0.95382106478E+02  0.90667119837E+02 0.  0.
         13    1    3    3    0    0 -0.87456740199E+01 -0.38844555957E+02  0.15968262978E+02  0.42899684476E+02  0.10566000000E+00 0. -1.
         22    1    1    0    0    0 -0.83272667665E+01 -0.95969188066E+01 -0.26753979036E+02  0.29617893522E+02  0.00000000000E+00 0.  1.
</event>
<event>
 5    1  0.1758480E-003  0.9118800E+02  0.7818608E-02  0.1130116E+00
         25   -1    0    0    0    0  0.00000000000E+00  0.00000000000E+00  0.99999998245E-14  0.12500000000E+03  0.12500000000E+03 0.  0.
        -13    1    3    3    0    0  0.41005479921E+02  0.25265792673E+02 -0.16617062978E+02  0.50950442677E+02  0.10566000000E+00 0.  1.
         23    2    1    0    0    0  0.42905753363E+00  0.29553051712E+02  0.10769744496E+01  0.95424218863E+02  0.90725160324E+02 0.  0.
         13    1    3    3    0    0 -0.40576422387E+02  0.42872590397E+01  0.17694037427E+02  0.44473776187E+02  0.10566000000E+00 0. -1.
         22    1    1    0    0    0 -0.42905753363E+00 -0.29553051712E+02 -0.10769744496E+01  0.29575781137E+02  0.00000000000E+00 0.  1.
</event>
<event>
 5    1  0.1758480E-003  0.9118800E+02  0.7818608E-02  0.1130116E+00
         25   -1    0    0    0    0  0.00000000000E+00  0.00000000000E+00  0.99999998245E-14  0.12500000000E+03  0.12500000000E+03 0.  0.
        -13    1    3    3    0    0 -0.16244030114E+02 -0.43812772468E+02  0.34060972187E+02  0.57823771375E+02  0.10566000000E+00 0. -1.
         23    2    1    0    0    0  0.15854917812E+01 -0.10595561391E+02  0.26693388531E+02  0.96236886527E+02  0.91838018445E+02 0.  0.
         13    1    3    3    0    0  0.17829521895E+02  0.33217211077E+02 -0.73675836559E+01  0.38413115153E+02  0.10566000000E+00 0.  1.
         22    1    1    0    0    0 -0.15854917812E+01  0.10595561391E+02 -0.26693388531E+02  0.28763113473E+02  0.00000000000E+00 0. -1.
</event>
<event>
 5    1  0.1758480E-003  0.9118800E+02  0.7818608E-02  0.1130116E+00
         25   -1    0    0    0    0  0.00000000000E+00  0.00000000000E+00  0.99999998245E-14  0.12500000000E+03  0.12500000000E+03 0.  0.
        -13    1    3    3    0    0 -0.28662441845E+02 -0.19272698570E+02 -0.47177556803E+01  0.34860305010E+02  0.10566000000E+00 0. -1.
         23    2    1    0    0    0  0.22749974269E+02 -0.17176778787E+01 -0.23408413749E+02  0.92312608229E+02  0.86331639955E+02 0.  0.
         13    1    3    3    0    0  0.51412416114E+02  0.17555020691E+02 -0.18690658068E+02  0.57452303219E+02  0.10566000000E+00 0.  1.
         22    1    1    0    0    0 -0.22749974269E+02  0.17176778787E+01  0.23408413749E+02  0.32687391771E+02  0.00000000000E+00 0.  1.
</event>
<event>
 5    1  0.1758480E-003  0.9118800E+02  0.7818608E-02  0.1130116E+00
         25   -1    0    0    0    0  0.00000000000E+00  0.00000000000E+00  0.99999998245E-14  0.12500000000E+03  0.12500000000E+03 0.  0.
        -13    1    3    3    0    0 -0.44887175697E+02 -0.13985168681E+02  0.34454014258E+02  0.58288367173E+02  0.10566000000E+00 0.  1.
         23    2    1    0    0    0 -0.28085865397E+02  0.55253642836E+01  0.78342411820E+01  0.95323059113E+02  0.90585676451E+02 0.  0.
         13    1    3    3    0    0  0.16801310301E+02  0.19510532965E+02 -0.26619773077E+02  0.37034691940E+02  0.10566000000E+00 0. -1.
         22    1    1    0    0    0  0.28085865397E+02 -0.55253642836E+01 -0.78342411820E+01  0.29676940887E+02  0.00000000000E+00 0.  1.
</event>
<event>
 5    1  0.1758480E-003  0.9118800E+02  0.7818608E-02  0.1130116E+00
         25   -1    0    0    0    0  0.00000000000E+00  0.00000000000E+00  0.99999998245E-14  0.12500000000E+03  0.12500000000E+03 0.  0.
        -13    1    3    3    0    0  0.30208928598E+02  0.23684518080E+02  0.46918776947E+02  0.60621106539E+02  0.10566000000E+00 0. -1.
         23    2    1    0    0    0  0.94056452307E+00  0.84956193651E+01  0.20213144079E+02  0.10305389776E+03  0.10068999176E+03 0.  0.
         13    1    3    3    0    0 -0.29268364075E+02 -0.15188898715E+02 -0.26705632868E+02  0.42432791220E+02  0.10566000000E+00 0.  1.
         22    1    1    0    0    0 -0.94056452307E+00 -0.84956193651E+01 -0.20213144079E+02  0.21946102241E+02  0.00000000000E+00 0. -1.
</event>
<event>
 5    1  0.1758480E-003  0.9118800E+02  0.7818608E-02  0.1130116E+00
         25   -1    0    0    0    0  0.00000000000E+00  0.00000000000E+00  0.99999998245E-14  0.12500000000E+03  0.12500000000E+03 0.  0.
        -13    1    3    3    0    0 -0.24918058879E+02  0.53199376368E+02  0.20950585189E+02  0.62370036781E+02  0.10566000000E+00 0.  1.
         23    2    1    0    0    0 -0.90122788913E+01  0.25796890804E+02  0.10323117910E+02  0.95789256953E+02  0.91226718883E+02 0.  0.
         13    1    3    3    0    0  0.15905779988E+02 -0.27402485564E+02 -0.10627467279E+02  0.33419220172E+02  0.10566000000E+00 0. -1.
         22    1    1    0    0    0  0.90122788913E+01 -0.25796890804E+02 -0.10323117910E+02  0.29210743047E+02  0.00000000000E+00 0.  1.
</event>
<event>
 5    1  0.1758480E-003  0.9118800E+02  0.7818608E-02  0.1130116E+00
         25   -1    0    0    0    0  0.00000000000E+00  0.00000000000E+00  0.99999998245E-14  0.12500000000E+03  0.12500000000E+03 0.  0.
        -13    1    3    3    0    0 -0.25751358715E+02  0.27726088290E+02 -0.67402153108E+01  0.38435792096E+02  0.10566000000E+00 0. -1.
         23    2    1    0    0    0  0.17469097027E+02  0.54064279515E+01  0.23127059337E+02  0.95516789732E+02  0.90852613793E+02 0.  0.
         13    1    3    3    0    0  0.43220455742E+02 -0.22319660339E+02  0.29867274648E+02  0.57080997636E+02  0.10566000000E+00 0.  1.
         22    1    1    0    0    0 -0.17469097027E+02 -0.54064279515E+01 -0.23127059337E+02  0.29483210268E+02  0.00000000000E+00 0.  1.
</event>
<event>
 5    1  0.1758480E-003  0.9118800E+02  0.7818608E-02  0.1130116E+00
         25   -1    0    0    0    0  0.00000000000E+00  0.00000000000E+00  0.99999998245E-14  0.12500000000E+03  0.12500000000E+03 0.  0.
        -13    1    3    3    0    0 -0.34185330819E+02  0.18519726783E+02 -0.29541249355E+01  0.38991731707E+02  0.10566000000E+00 0.  1.
         23    2    1    0    0    0  0.46738364562E+00 -0.24509449652E+02 -0.15958186217E+02  0.95749439714E+02  0.91172144477E+02 0.  0.
         13    1    3    3    0    0  0.34652714465E+02 -0.43029176434E+02 -0.13004061281E+02  0.56757708007E+02  0.10566000000E+00 0. -1.
         22    1    1    0    0    0 -0.46738364562E+00  0.24509449652E+02  0.15958186217E+02  0.29250560286E+02  0.00000000000E+00 0. -1.
</event>
<event>
 5    1  0.1758480E-003  0.9118800E+02  0.7818608E-02  0.1130116E+00
         25   -1    0    0    0    0  0.00000000000E+00  0.00000000000E+00  0.99999998245E-14  0.12500000000E+03  0.12500000000E+03 0.  0.
        -13    1    3    3    0    0  0.31662465354E+01  0.33718418047E+02  0.22304863747E+02  0.40552126251E+02  0.10566000000E+00 0.  1.
         23    2    1    0    0    0  0.26738963956E+02 -0.94429133003E+01  0.20938148400E+02  0.89750221795E+02  0.82538205995E+02 0.  0.
         13    1    3    3    0    0  0.23572717421E+02 -0.43161331347E+02 -0.13667153468E+01  0.49198095544E+02  0.10566000000E+00 0. -1.
         22    1    1    0    0    0 -0.26738963956E+02  0.94429133003E+01 -0.20938148400E+02  0.35249778205E+02  0.00000000000E+00 0. -1.
</event>
<event>
 5    1  0.1758480E-003  0.9118800E+02  0.7818608E-02  0.1130116E+00
         25   -1    0    0    0    0  0.00000000000E+00  0.00000000000E+00  0.99999998245E-14  0.12500000000E+03  0.12500000000E+03 0.  0.
        -13    1    3    3    0    0 -0.37819478387E+02  0.29915557530E+02 -0.26597278247E+02  0.55069773033E+02  0.10566000000E+00 0.  1.
         23    2    1    0    0    0 -0.10173793834E+02  0.84678981061E+00 -0.27986350463E+02  0.95209750820E+02  0.90429186135E+02 0.  0.
         13    1    3    3    0    0  0.27645684552E+02 -0.29068767719E+02 -0.13890722161E+01  0.40139977787E+02  0.10566000000E+00 0. -1.
         22    1    1    0    0    0  0.10173793834E+02 -0.84678981061E+00  0.27986350463E+02  0.29790249180E+02  0.00000000000E+00 0.  1.
</event>
<event>
 5    1  0.1758480E-003  0.9118800E+02  0.7818608E-02  0.1130116E+00
         25   -1    0    0    0    0  0.00000000000E+00  0.00000000000E+00  0.99999998245E-14  0.12500000000E+03  0.12500000000E+03 0.  0.
        -13    1    3    3    0    0  0.27415511051E+02 -0.73174957922E+01 -0.21667584492E+02  0.35702260049E+02  0.10566000000E+00 0.  1.
         23    2    1    0    0    0  0.21415164154E+02  0.36458696992E+02 -0.78799289494E+01  0.81989081359E+02  0.69801649979E+02 0.  0.
         13    1    3    3    0    0 -0.60003468975E+01  0.43776192784E+02  0.13787655543E+02  0.46286821310E+02  0.10566000000E+00 0. -1.
         22    1    1    0    0    0 -0.21415164154E+02 -0.36458696992E+02  0.78799289494E+01  0.43010918641E+02  0.00000000000E+00 0. -1.
</event>
<event>
 5    1  0.1758480E-003  0.9118800E+02  0.7818608E-02  0.1130116E+00
         25   -1    0    0    0    0  0.00000000000E+00  0.00000000000E+00  0.99999998245E-14  0.12500000000E+03  0.12500000000E+03 0.  0.
        -13    1    3    3    0    0  0.17791209802E+02 -0.11680091142E+02 -0.50155875868E+02  0.54484628323E+02  0.10566000000E+00 0.  1.
         23    2    1    0    0    0 -0.14016111937E+02 -0.92606742572E+01 -0.23827593571E+02  0.95845828825E+02  0.91304201471E+02 0.  0.
         13    1    3    3    0    0 -0.31807321739E+02  0.24194168852E+01  0.26328282297E+02  0.41361200502E+02  0.10566000000E+00 0. -1.
         22    1    1    0    0    0  0.14016111937E+02  0.92606742572E+01  0.23827593571E+02  0.29154171175E+02  0.00000000000E+00 0.  1.
</event>
<event>
 5    1  0.1758480E-003  0.9118800E+02  0.7818608E-02  0.1130116E+00
         25   -1    0    0    0    0  0.00000000000E+00  0.00000000000E+00  0.99999998245E-14  0.12500000000E+03  0.12500000000E+03 0.  0.
        -13    1    3    3    0    0  0.18527416740E+02 -0.31544954880E+02  0.28058538559E+02  0.46104686308E+02  0.10566000000E+00 0. -1.
         23    2    1    0    0    0  0.42102733723E+01 -0.22022193787E+02 -0.18623648842E+02  0.95853066761E+02  0.91314110028E+02 0.  0.
         13    1    3    3    0    0 -0.14317143368E+02  0.95227610937E+01 -0.46682187401E+02  0.49748380453E+02  0.10566000000E+00 0.  1.
         22    1    1    0    0    0 -0.42102733723E+01  0.22022193787E+02  0.18623648842E+02  0.29146933239E+02  0.00000000000E+00 0.  1.
</event>
<event>
 5    1  0.1758480E-003  0.9118800E+02  0.7818608E-02  0.1130116E+00
         25   -1    0    0    0    0  0.00000000000E+00  0.00000000000E+00  0.99999998245E-14  0.12500000000E+03  0.12500000000E+03 0.  0.
        -13    1    3    3    0    0  0.58843053825E+01  0.10089946836E+01  0.55448712862E+02  0.55769293004E+02  0.10566000000E+00 0. -1.
         23    2    1    0    0    0  0.18779329209E+02  0.13047154272E+02  0.23850064592E+02  0.91958858658E+02  0.85817915755E+02 0.  0.
         13    1    3    3    0    0  0.12895023826E+02  0.12038159588E+02 -0.31598648269E+02  0.36189565654E+02  0.10566000000E+00 0.  1.
         22    1    1    0    0    0 -0.18779329209E+02 -0.13047154272E+02 -0.23850064592E+02  0.33041141342E+02  0.00000000000E+00 0. -1.
</event>
<event>
 5    1  0.1758480E-003  0.9118800E+02  0.7818608E-02  0.1130116E+00
         25   -1    0    0    0    0  0.00000000000E+00  0.00000000000E+00  0.99999998245E-14  0.12500000000E+03  0.12500000000E+03 0.  0.
        -13    1    3    3    0    0 -0.39366156508E+02  0.12690723991E+02  0.41743533758E-01  0.41361354670E+02  0.10566000000E+00 0. -1.
         23    2    1    0    0    0  0.21585737326E+01 -0.16943637371E+02  0.22207517480E+02  0.96983574094E+02  0.92848766946E+02 0.  0.
         13    1    3    3    0    0  0.41524730240E+02 -0.29634361362E+02  0.22165773946E+02  0.55622219423E+02  0.10566000000E+00 0.  1.
         22    1    1    0    0    0 -0.21585737326E+01  0.16943637371E+02 -0.22207517480E+02  0.28016425906E+02  0.00000000000E+00 0.  1.
</event>
<event>
 5    1  0.1758480E-003  0.9118800E+02  0.7818608E-02  0.1130116E+00
         25   -1    0    0    0    0  0.00000000000E+00  0.00000000000E+00  0.99999998245E-14  0.12500000000E+03  0.12500000000E+03 0.  0.
        -13    1    3    3    0    0  0.33805825144E+02 -0.20632137097E+02  0.25574424622E+02  0.47144260029E+02  0.10566000000E+00 0. -1.
         23    2    1    0    0    0 -0.38221361437E+01 -0.19625475326E+02 -0.13087127695E+02  0.10110353755E+03  0.98238914829E+02 0.  0.
         13    1    3    3    0    0 -0.37627961288E+02  0.10066617710E+01 -0.38661552318E+02  0.53959277518E+02  0.10566000000E+00 0.  1.
         22    1    1    0    0    0  0.38221361437E+01  0.19625475326E+02  0.13087127695E+02  0.23896462453E+02  0.00000000000E+00 0.  1.
</event>
<event>
 5    1  0.1758480E-003  0.9118800E+02  0.7818608E-02  0.1130116E+00
         25   -1    0    0    0    0  0.00000000000E+00  0.00000000000E+00  0.99999998245E-14  0.12500000000E+03  0.12500000000E+03 0.  0.
        -13    1    3    3    0    0  0.16998174355E+01  0.63840545185E+01 -0.52053847956E+02  0.52471514010E+02  0.10566000000E+00 0.  1.
         23    2    1    0    0    0  0.24446476327E+02  0.19736179970E+01 -0.14766036936E+02  0.96372020337E+02  0.92021764188E+02 0.  0.
         13    1    3    3    0    0  0.22746658891E+02 -0.44104365215E+01  0.37287811021E+02  0.43900506327E+02  0.10566000000E+00 0. -1.
         22    1    1    0    0    0 -0.24446476327E+02 -0.19736179970E+01  0.14766036936E+02  0.28627979663E+02  0.00000000000E+00 0.  1.
</event>
<event>
 5    1  0.1758480E-003  0.9118800E+02  0.7818608E-02  0.1130116E+00
         25   -1    0    0    0    0  0.00000000000E+00  0.00000000000E+00  0.99999998245E-14  0.12500000000E+03  0.12500000000E+03 0.  0.
        -13    1    3    3    0    0 -0.24831767475E+02  0.35310110532E+02 -0.41102012588E+02  0.59605429153E+02  0.10566000000E+00 0.  1.
         23    2    1    0    0    0 -0.21996123094E+02  0.80105243087E+01 -0.19471079359E+02  0.94551340551E+02  0.89514440945E+02 0.  0.
         13    1    3    3    0    0  0.28356443812E+01 -0.27299586223E+02  0.21630933229E+02  0.34945911397E+02  0.10566000000E+00 0. -1.
         22    1    1    0    0    0  0.21996123094E+02 -0.80105243087E+01  0.19471079359E+02  0.30448659449E+02  0.00000000000E+00 0.  1.
</event>
<event>
 5    1  0.1758480E-003  0.9118800E+02  0.7818608E-02  0.1130116E+00
         25   -1    0    0    0    0  0.00000000000E+00  0.00000000000E+00  0.99999998245E-14  0.12500000000E+03  0.12500000000E+03 0.  0.
        -13    1    3    3    0    0  0.11499946016E+02 -0.16580526640E+02 -0.52525614873E+02  0.56268232635E+02  0.10566000000E+00 0. -1.
         23    2    1    0    0    0  0.82917857881E+01 -0.24484159897E+02 -0.14251156869E+02  0.95481814596E+02  0.90804480336E+02 0.  0.
         13    1    3    3    0    0 -0.32081602276E+01 -0.79036332572E+01  0.38274458004E+02  0.39213581961E+02  0.10566000000E+00 0.  1.
         22    1    1    0    0    0 -0.82917857881E+01  0.24484159897E+02  0.14251156869E+02  0.29518185404E+02  0.00000000000E+00 0. -1.
</event>
<event>
 5    1  0.1758480E-003  0.9118800E+02  0.7818608E-02  0.1130116E+00
         25   -1    0    0    0    0  0.00000000000E+00  0.00000000000E+00  0.99999998245E-14  0.12500000000E+03  0.12500000000E+03 0.  0.
        -13    1    3    3    0    0  0.14545494651E+02 -0.45823877478E+02  0.73187002770E+01  0.48630995256E+02  0.10566000000E+00 0.  1.
         23    2    1    0    0    0  0.10512631956E+02 -0.50632316698E+01  0.28109185358E+02  0.94565183636E+02  0.89533769657E+02 0.  0.
         13    1    3    3    0    0 -0.40328626943E+01  0.40760645808E+02  0.20790485081E+02  0.45934188381E+02  0.10566000000E+00 0. -1.
         22    1    1    0    0    0 -0.10512631956E+02  0.50632316698E+01 -0.28109185358E+02  0.30434816364E+02  0.00000000000E+00 0.  1.
</event>
<event>
 5    1  0.1758480E-003  0.9118800E+02  0.7818608E-02  0.1130116E+00
         25   -1    0    0    0    0  0.00000000000E+00  0.00000000000E+00  0.99999998245E-14  0.12500000000E+03  0.12500000000E+03 0.  0.
        -13    1    3    3    0    0  0.30969748812E+02  0.14493931191E+02  0.86143509138E+01  0.35262126830E+02  0.10566000000E+00 0.  1.
         23    2    1    0    0    0 -0.24288981022E+02  0.63449531614E+01 -0.14834026197E+02  0.95840758533E+02  0.91297259725E+02 0.  0.
         13    1    3    3    0    0 -0.55258729835E+02 -0.81489780293E+01 -0.23448377111E+02  0.60578631703E+02  0.10566000000E+00 0. -1.
         22    1    1    0    0    0  0.24288981022E+02 -0.63449531614E+01  0.14834026197E+02  0.29159241467E+02  0.00000000000E+00 0. -1.
</event>
<event>
 5    1  0.1758480E-003  0.9118800E+02  0.7818608E-02  0.1130116E+00
         25   -1    0    0    0    0  0.00000000000E+00  0.00000000000E+00  0.99999998245E-14  0.12500000000E+03  0.12500000000E+03 0.  0.
        -13    1    3    3    0    0  0.39910489603E+01 -0.29718735392E+02 -0.13281378871E+02  0.32795394400E+02  0.10566000000E+00 0.  1.
         23    2    1    0    0    0 -0.34166652636E+01  0.30295452325E+02 -0.10216877931E+01  0.94495379382E+02  0.89436261356E+02 0.  0.
         13    1    3    3    0    0 -0.74077142239E+01  0.60014187717E+02  0.12259691078E+02  0.61699984982E+02  0.10566000000E+00 0. -1.
         22    1    1    0    0    0  0.34166652636E+01 -0.30295452325E+02  0.10216877931E+01  0.30504620618E+02  0.00000000000E+00 0. -1.
</event>
<event>
 5    1  0.1758480E-003  0.9118800E+02  0.7818608E-02  0.1130116E+00
         25   -1    0    0    0    0  0.00000000000E+00  0.00000000000E+00  0.99999998245E-14  0.12500000000E+03  0.12500000000E+03 0.  0.
        -13    1    3    3    0    0 -0.51845429666E+02  0.16698158591E+02 -0.87556214702E+01  0.55167464587E+02  0.10566000000E+00 0. -1.
         23    2    1    0    0    0 -0.23153749675E+02 -0.94014966083E+01 -0.16941897012E+02  0.94808740721E+02  0.89873161624E+02 0.  0.
         13    1    3    3    0    0  0.28691679991E+02 -0.26099655199E+02 -0.81862755417E+01  0.39641276134E+02  0.10566000000E+00 0.  1.
         22    1    1    0    0    0  0.23153749675E+02  0.94014966083E+01  0.16941897012E+02  0.30191259279E+02  0.00000000000E+00 0.  1.
</event>
<event>
 5    1  0.1758480E-003  0.9118800E+02  0.7818608E-02  0.1130116E+00
         25   -1    0    0    0    0  0.00000000000E+00  0.00000000000E+00  0.99999998245E-14  0.12500000000E+03  0.12500000000E+03 0.  0.
        -13    1    3    3    0    0  0.70618244391E+00  0.26273563077E+02 -0.49612983681E+02  0.56144974166E+02  0.10566000000E+00 0.  1.
         23    2    1    0    0    0  0.42171422395E+01 -0.69294963482E+01 -0.27832747939E+02  0.96009241712E+02  0.91527648434E+02 0.  0.
         13    1    3    3    0    0  0.35109597955E+01 -0.33203059426E+02  0.21780235742E+02  0.39864267545E+02  0.10566000000E+00 0. -1.
         22    1    1    0    0    0 -0.42171422395E+01  0.69294963482E+01  0.27832747939E+02  0.28990758288E+02  0.00000000000E+00 0.  1.
</event>
<event>
 5    1  0.1758480E-003  0.9118800E+02  0.7818608E-02  0.1130116E+00
         25   -1    0    0    0    0  0.00000000000E+00  0.00000000000E+00  0.99999998245E-14  0.12500000000E+03  0.12500000000E+03 0.  0.
        -13    1    3    3    0    0  0.67924627993E+01 -0.49090799584E+02 -0.47132353108E+01  0.49782224798E+02  0.10566000000E+00 0.  1.
         23    2    1    0    0    0  0.17914278922E+02 -0.20603012733E+01  0.14571940274E+02  0.10181578826E+03  0.99141046319E+02 0.  0.
         13    1    3    3    0    0  0.11121816123E+02  0.47030498311E+02  0.19285175585E+02  0.52033563463E+02  0.10566000000E+00 0. -1.
         22    1    1    0    0    0 -0.17914278922E+02  0.20603012733E+01 -0.14571940274E+02  0.23184211739E+02  0.00000000000E+00 0. -1.
</event>
<event>
 5    1  0.1758480E-003  0.9118800E+02  0.7818608E-02  0.1130116E+00
         25   -1    0    0    0    0  0.00000000000E+00  0.00000000000E+00  0.99999998245E-14  0.12500000000E+03  0.12500000000E+03 0.  0.
        -13    1    3    3    0    0 -0.35006277210E+02 -0.67115274462E+01 -0.12513269085E+02  0.37776674179E+02  0.10566000000E+00 0.  1.
         23    2    1    0    0    0  0.43369980931E+01  0.14645836024E+02  0.24678505596E+02  0.95976928079E+02  0.91483506818E+02 0.  0.
         13    1    3    3    0    0  0.39343275304E+02  0.21357363470E+02  0.37191774681E+02  0.58200253900E+02  0.10566000000E+00 0. -1.
         22    1    1    0    0    0 -0.43369980931E+01 -0.14645836024E+02 -0.24678505596E+02  0.29023071921E+02  0.00000000000E+00 0. -1.
</event>
<event>
 5    1  0.1758480E-003  0.9118800E+02  0.7818608E-02  0.1130116E+00
         25   -1    0    0    0    0  0.00000000000E+00  0.00000000000E+00  0.99999998245E-14  0.12500000000E+03  0.12500000000E+03 0.  0.
        -13    1    3    3    0    0 -0.30099878332E+02  0.56930716106E+01 -0.28938121154E+02  0.42140713804E+02  0.10566000000E+00 0.  1.
         23    2    1    0    0    0 -0.14300738587E+02  0.77385590981E+01  0.23205991634E+02  0.96664254575E+02  0.92417875132E+02 0.  0.
         13    1    3    3    0    0  0.15799139745E+02  0.20454874875E+01  0.52144112788E+02  0.54523540771E+02  0.10566000000E+00 0. -1.
         22    1    1    0    0    0  0.14300738587E+02 -0.77385590981E+01 -0.23205991634E+02  0.28335745425E+02  0.00000000000E+00 0. -1.
</event>
<event>
 5    1  0.1758480E-003  0.9118800E+02  0.7818608E-02  0.1130116E+00
         25   -1    0    0    0    0  0.00000000000E+00  0.00000000000E+00  0.99999998245E-14  0.12500000000E+03  0.12500000000E+03 0.  0.
        -13    1    3    3    0    0  0.52307986374E+02 -0.30113566414E+02 -0.78774692908E+01  0.60868859091E+02  0.10566000000E+00 0. -1.
         23    2    1    0    0    0  0.30289975077E+02 -0.93774032987E+01 -0.11368651072E+02  0.91315218421E+02  0.84875229634E+02 0.  0.
         13    1    3    3    0    0 -0.22018011297E+02  0.20736163115E+02 -0.34911817811E+01  0.30446359330E+02  0.10566000000E+00 0.  1.
         22    1    1    0    0    0 -0.30289975077E+02  0.93774032987E+01  0.11368651072E+02  0.33684781579E+02  0.00000000000E+00 0. -1.
</event>
<event>
 5    1  0.1758480E-003  0.9118800E+02  0.7818608E-02  0.1130116E+00
         25   -1    0    0    0    0  0.00000000000E+00  0.00000000000E+00  0.99999998245E-14  0.12500000000E+03  0.12500000000E+03 0.  0.
        -13    1    3    3    0    0  0.20937208686E+02 -0.43569483601E+02  0.26032264868E+02  0.54903156439E+02  0.10566000000E+00 0.  1.
         23    2    1    0    0    0  0.16144906063E+02 -0.95202870497E+01  0.30114108768E+02  0.89529541811E+02  0.82203317772E+02 0.  0.
         13    1    3    3    0    0 -0.47923026230E+01  0.34049196551E+02  0.40818438997E+01  0.34626385371E+02  0.10566000000E+00 0. -1.
         22    1    1    0    0    0 -0.16144906063E+02  0.95202870497E+01 -0.30114108768E+02  0.35470458189E+02  0.00000000000E+00 0.  1.
</event>
<event>
 5    1  0.1758480E-003  0.9118800E+02  0.7818608E-02  0.1130116E+00
         25   -1    0    0    0    0  0.00000000000E+00  0.00000000000E+00  0.99999998245E-14  0.12500000000E+03  0.12500000000E+03 0.  0.
        -13    1    3    3    0    0 -0.21376439154E+02 -0.13547256657E+02  0.47860883706E+02  0.54140148384E+02  0.10566000000E+00 0.  1.
         23    2    1    0    0    0 -0.24865772401E+02 -0.13999463257E+02  0.63934164791E+01  0.95756754919E+02  0.91182173312E+02 0.  0.
         13    1    3    3    0    0 -0.34893332461E+01 -0.45220659989E+00 -0.41467467227E+02  0.41616606536E+02  0.10566000000E+00 0. -1.
         22    1    1    0    0    0  0.24865772401E+02  0.13999463257E+02 -0.63934164791E+01  0.29243245081E+02  0.00000000000E+00 0.  1.
</event>
<event>
 5    1  0.1758480E-003  0.9118800E+02  0.7818608E-02  0.1130116E+00
         25   -1    0    0    0    0  0.00000000000E+00  0.00000000000E+00  0.99999998245E-14  0.12500000000E+03  0.12500000000E+03 0.  0.
        -13    1    3    3    0    0 -0.39935023327E+02  0.22097843824E+02 -0.42690795715E+02  0.62495087748E+02  0.10566000000E+00 0. -1.
         23    2    1    0    0    0 -0.17373411059E+02  0.10130366185E+02 -0.19231891042E+02  0.97173297645E+02  0.93103836717E+02 0.  0.
         13    1    3    3    0    0  0.22561612268E+02 -0.11967477639E+02  0.23458904673E+02  0.34678209897E+02  0.10566000000E+00 0.  1.
         22    1    1    0    0    0  0.17373411059E+02 -0.10130366185E+02  0.19231891042E+02  0.27826702355E+02  0.00000000000E+00 0. -1.
</event>
<event>
 5    1  0.1758480E-003  0.9118800E+02  0.7818608E-02  0.1130116E+00
         25   -1    0    0    0    0  0.00000000000E+00  0.00000000000E+00  0.99999998245E-14  0.12500000000E+03  0.12500000000E+03 0.  0.
        -13    1    3    3    0    0 -0.25948303662E+02 -0.28214502766E+01  0.35606050018E+02  0.44148352252E+02  0.10566000000E+00 0.  1.
         23    2    1    0    0    0  0.85913272392E+01  0.26060675827E+02  0.11198987263E+02  0.95362404888E+02  0.90639953785E+02 0.  0.
         13    1    3    3    0    0  0.34539630901E+02  0.28882126104E+02 -0.24407062755E+02  0.51214052637E+02  0.10566000000E+00 0. -1.
         22    1    1    0    0    0 -0.85913272392E+01 -0.26060675827E+02 -0.11198987263E+02  0.29637595112E+02  0.00000000000E+00 0. -1.
</event>
<event>
 5    1  0.1758480E-003  0.9118800E+02  0.7818608E-02  0.1130116E+00
         25   -1    0    0    0    0  0.00000000000E+00  0.00000000000E+00  0.99999998245E-14  0.12500000000E+03  0.12500000000E+03 0.  0.
        -13    1    3    3    0    0  0.44514210488E+02  0.21144377585E+02 -0.26711002863E+02  0.56054335040E+02  0.10566000000E+00 0. -1.
         23    2    1    0    0    0  0.10003557087E+02  0.25284541389E+02 -0.41476383963E+01  0.97493962628E+02  0.93533366543E+02 0.  0.
         13    1    3    3    0    0 -0.34510653401E+02  0.41401638042E+01  0.22563364467E+02  0.41439627587E+02  0.10566000000E+00 0.  1.
         22    1    1    0    0    0 -0.10003557087E+02 -0.25284541389E+02  0.41476383963E+01  0.27506037372E+02  0.00000000000E+00 0. -1.
</event>
<event>
 5    1  0.1758480E-003  0.9118800E+02  0.7818608E-02  0.1130116E+00
         25   -1    0    0    0    0  0.00000000000E+00  0.00000000000E+00  0.99999998245E-14  0.12500000000E+03  0.12500000000E+03 0.  0.
        -13    1    3    3    0    0  0.12510431099E+02  0.50255005060E+02  0.18339050760E+02  0.54940043381E+02  0.10566000000E+00 0.  1.
         23    2    1    0    0    0  0.18191192096E+02  0.19192707405E+02 -0.93638449189E+01  0.96947173421E+02  0.92799748680E+02 0.  0.
         13    1    3    3    0    0  0.56807609975E+01 -0.31062297655E+02 -0.27702895679E+02  0.42007130040E+02  0.10566000000E+00 0. -1.
         22    1    1    0    0    0 -0.18191192096E+02 -0.19192707405E+02  0.93638449189E+01  0.28052826579E+02  0.00000000000E+00 0. -1.
</event>
<event>
 5    1  0.1758480E-003  0.9118800E+02  0.7818608E-02  0.1130116E+00
         25   -1    0    0    0    0  0.00000000000E+00  0.00000000000E+00  0.99999998245E-14  0.12500000000E+03  0.12500000000E+03 0.  0.
        -13    1    3    3    0    0 -0.50378642495E+02 -0.29043239191E+02  0.77070821756E+00  0.58156018756E+02  0.10566000000E+00 0. -1.
         23    2    1    0    0    0 -0.33357165645E+02 -0.14676752705E+01 -0.54925803036E+01  0.91161811381E+02  0.84648997899E+02 0.  0.
         13    1    3    3    0    0  0.17021476850E+02  0.27575563920E+02 -0.62632885212E+01  0.33005792625E+02  0.10566000000E+00 0.  1.
         22    1    1    0    0    0  0.33357165645E+02  0.14676752705E+01  0.54925803036E+01  0.33838188619E+02  0.00000000000E+00 0. -1.
</event>
<event>
 5    1  0.1758480E-003  0.9118800E+02  0.7818608E-02  0.1130116E+00
         25   -1    0    0    0    0  0.00000000000E+00  0.00000000000E+00  0.99999998245E-14  0.12500000000E+03  0.12500000000E+03 0.  0.
        -13    1    3    3    0    0 -0.55972684840E+00 -0.50745754149E+02  0.17705860498E+02  0.53748986207E+02  0.10566000000E+00 0.  1.
         23    2    1    0    0    0 -0.21293034153E+02 -0.26276414341E+02 -0.15249376090E+01  0.91144886815E+02  0.84624001937E+02 0.  0.
         13    1    3    3    0    0 -0.20733307305E+02  0.24469339808E+02 -0.19230798107E+02  0.37395900608E+02  0.10566000000E+00 0. -1.
         22    1    1    0    0    0  0.21293034153E+02  0.26276414341E+02  0.15249376090E+01  0.33855113185E+02  0.00000000000E+00 0. -1.
</event>
<event>
 5    1  0.1758480E-003  0.9118800E+02  0.7818608E-02  0.1130116E+00
         25   -1    0    0    0    0  0.00000000000E+00  0.00000000000E+00  0.99999998245E-14  0.12500000000E+03  0.12500000000E+03 0.  0.
        -13    1    3    3    0    0  0.33785657616E+02  0.49688425606E+01 -0.22387528046E+02  0.40833474418E+02  0.10566000000E+00 0. -1.
         23    2    1    0    0    0 -0.53431610876E+01  0.23595670078E+02  0.13672794270E+02  0.97210607780E+02  0.93153915349E+02 0.  0.
         13    1    3    3    0    0 -0.39128818704E+02  0.18626827518E+02  0.36060322316E+02  0.56377133362E+02  0.10566000000E+00 0.  1.
         22    1    1    0    0    0  0.53431610876E+01 -0.23595670078E+02 -0.13672794270E+02  0.27789392220E+02  0.00000000000E+00 0.  1.
</event>
<event>
 5    1  0.1758480E-003  0.9118800E+02  0.7818608E-02  0.1130116E+00
         25   -1    0    0    0    0  0.00000000000E+00  0.00000000000E+00  0.99999998245E-14  0.12500000000E+03  0.12500000000E+03 0.  0.
        -13    1    3    3    0    0  0.53550388087E+02 -0.75977702222E+01 -0.11985217552E+02  0.55398797644E+02  0.10566000000E+00 0.  1.
         23    2    1    0    0    0  0.23674135924E+02 -0.98194954895E+01  0.14643794271E+02  0.95481735924E+02  0.90804372037E+02 0.  0.
         13    1    3    3    0    0 -0.29876252163E+02 -0.22217252673E+01  0.26629011823E+02  0.40082938280E+02  0.10566000000E+00 0. -1.
         22    1    1    0    0    0 -0.23674135924E+02  0.98194954895E+01 -0.14643794271E+02  0.29518264076E+02  0.00000000000E+00 0.  1.
</event>
<event>
 5    1  0.1758480E-003  0.9118800E+02  0.7818608E-02  0.1130116E+00
         25   -1    0    0    0    0  0.00000000000E+00  0.00000000000E+00  0.99999998245E-14  0.12500000000E+03  0.12500000000E+03 0.  0.
        -13    1    3    3    0    0 -0.31892808515E+02  0.68007385498E+01  0.27507897621E+02  0.42662593397E+02  0.10566000000E+00 0.  1.
         23    2    1    0    0    0  0.66997782348E+01  0.27471804968E+02 -0.37770536503E+01  0.96471887008E+02  0.92157320664E+02 0.  0.
         13    1    3    3    0    0  0.38592586750E+02  0.20671066418E+02 -0.31284951271E+02  0.53809293611E+02  0.10566000000E+00 0. -1.
         22    1    1    0    0    0 -0.66997782348E+01 -0.27471804968E+02  0.37770536503E+01  0.28528112992E+02  0.00000000000E+00 0. -1.
</event>
<event>
 5    1  0.1758480E-003  0.9118800E+02  0.7818608E-02  0.1130116E+00
         25   -1    0    0    0    0  0.00000000000E+00  0.00000000000E+00  0.99999998245E-14  0.12500000000E+03  0.12500000000E+03 0.  0.
        -13    1    3    3    0    0 -0.93029487794E+01 -0.40503414854E+02  0.43968116742E+02  0.60500230782E+02  0.10566000000E+00 0. -1.
         23    2    1    0    0    0 -0.15137289676E+02 -0.16462051157E+02  0.18910782733E+02  0.95712556093E+02  0.91121561790E+02 0.  0.
         13    1    3    3    0    0 -0.58343408968E+01  0.24041363697E+02 -0.25057334008E+02  0.35212325310E+02  0.10566000000E+00 0.  1.
         22    1    1    0    0    0  0.15137289676E+02  0.16462051157E+02 -0.18910782733E+02  0.29287443907E+02  0.00000000000E+00 0. -1.
</event>
<event>
 5    1  0.1758480E-003  0.9118800E+02  0.7818608E-02  0.1130116E+00
         25   -1    0    0    0    0  0.00000000000E+00  0.00000000000E+00  0.99999998245E-14  0.12500000000E+03  0.12500000000E+03 0.  0.
        -13    1    3    3    0    0  0.40610833689E+02  0.86055960367E+01 -0.45196370596E+02  0.61367900201E+02  0.10566000000E+00 0. -1.
         23    2    1    0    0    0  0.13007838861E+02 -0.48860918498E+00 -0.25172869903E+02  0.96660698845E+02  0.92413065696E+02 0.  0.
         13    1    3    3    0    0 -0.27602994828E+02 -0.90942052217E+01  0.20023500692E+02  0.35292798644E+02  0.10566000000E+00 0.  1.
         22    1    1    0    0    0 -0.13007838861E+02  0.48860918498E+00  0.25172869903E+02  0.28339301155E+02  0.00000000000E+00 0. -1.
</event>
<event>
 5    1  0.1758480E-003  0.9118800E+02  0.7818608E-02  0.1130116E+00
         25   -1    0    0    0    0  0.00000000000E+00  0.00000000000E+00  0.99999998245E-14  0.12500000000E+03  0.12500000000E+03 0.  0.
        -13    1    3    3    0    0 -0.24614003471E+02  0.34364019319E+02  0.32753064610E+02  0.53474380745E+02  0.10566000000E+00 0. -1.
         23    2    1    0    0    0 -0.29288133735E+02  0.28337731700E+01  0.62723869607E+01  0.94913991853E+02  0.90019431031E+02 0.  0.
         13    1    3    3    0    0 -0.46741302640E+01 -0.31530246149E+02 -0.26480677650E+02  0.41439611108E+02  0.10566000000E+00 0.  1.
         22    1    1    0    0    0  0.29288133735E+02 -0.28337731700E+01 -0.62723869607E+01  0.30086008147E+02  0.00000000000E+00 0. -1.
</event>
<event>
 5    1  0.1758480E-003  0.9118800E+02  0.7818608E-02  0.1130116E+00
         25   -1    0    0    0    0  0.00000000000E+00  0.00000000000E+00  0.99999998245E-14  0.12500000000E+03  0.12500000000E+03 0.  0.
        -13    1    3    3    0    0  0.48394352075E+02 -0.77645854881E+01  0.30380931173E+02  0.57665537746E+02  0.10566000000E+00 0. -1.
         23    2    1    0    0    0  0.13562019728E+02  0.71619482424E+01  0.24615417054E+02  0.95997575300E+02  0.91511714141E+02 0.  0.
         13    1    3    3    0    0 -0.34832332347E+02  0.14926533731E+02 -0.57655141187E+01  0.38332037554E+02  0.10566000000E+00 0.  1.
         22    1    1    0    0    0 -0.13562019728E+02 -0.71619482424E+01 -0.24615417054E+02  0.29002424700E+02  0.00000000000E+00 0. -1.
</event>
<event>
 5    1  0.1758480E-003  0.9118800E+02  0.7818608E-02  0.1130116E+00
         25   -1    0    0    0    0  0.00000000000E+00  0.00000000000E+00  0.99999998245E-14  0.12500000000E+03  0.12500000000E+03 0.  0.
        -13    1    3    3    0    0 -0.14388756004E+02 -0.58685876919E+02  0.82106087248E+01  0.60979453169E+02  0.10566000000E+00 0. -1.
         23    2    1    0    0    0 -0.12155994181E+02 -0.25704571509E+02 -0.41357600147E+01  0.96266783997E+02  0.91878702642E+02 0.  0.
         13    1    3    3    0    0  0.22327618229E+01  0.32981305410E+02 -0.12346368739E+02  0.35287330828E+02  0.10566000000E+00 0.  1.
         22    1    1    0    0    0  0.12155994181E+02  0.25704571509E+02  0.41357600147E+01  0.28733216003E+02  0.00000000000E+00 0. -1.
</event>
<event>
 5    1  0.1758480E-003  0.9118800E+02  0.7818608E-02  0.1130116E+00
         25   -1    0    0    0    0  0.00000000000E+00  0.00000000000E+00  0.99999998245E-14  0.12500000000E+03  0.12500000000E+03 0.  0.
        -13    1    3    3    0    0  0.21635529544E+02  0.46205223008E+02  0.12846099440E+02  0.52612281900E+02  0.10566000000E+00 0.  1.
         23    2    1    0    0    0  0.27205685621E+02  0.27297793023E+01  0.64474339466E+01  0.96907822626E+02  0.92746728549E+02 0.  0.
         13    1    3    3    0    0  0.55701560771E+01 -0.43475443705E+02 -0.63986654930E+01  0.44295540726E+02  0.10566000000E+00 0. -1.
         22    1    1    0    0    0 -0.27205685621E+02 -0.27297793023E+01 -0.64474339466E+01  0.28092177374E+02  0.00000000000E+00 0.  1.
</event>
<event>
 5    1  0.1758480E-003  0.9118800E+02  0.7818608E-02  0.1130116E+00
         25   -1    0    0    0    0  0.00000000000E+00  0.00000000000E+00  0.99999998245E-14  0.12500000000E+03  0.12500000000E+03 0.  0.
        -13    1    3    3    0    0 -0.19378840774E+02  0.11642219775E+02 -0.25588514434E+02  0.34144750490E+02  0.10566000000E+00 0. -1.
         23    2    1    0    0    0  0.26996581171E+01 -0.17096825880E+02  0.23904067169E+02  0.95487391909E+02  0.90812157651E+02 0.  0.
         13    1    3    3    0    0  0.22078498891E+02 -0.28739045656E+02  0.49492581603E+02  0.61342641419E+02  0.10566000000E+00 0.  1.
         22    1    1    0    0    0 -0.26996581171E+01  0.17096825880E+02 -0.23904067169E+02  0.29512608091E+02  0.00000000000E+00 0.  1.
</event>
<event>
 5    1  0.1758480E-003  0.9118800E+02  0.7818608E-02  0.1130116E+00
         25   -1    0    0    0    0  0.00000000000E+00  0.00000000000E+00  0.99999998245E-14  0.12500000000E+03  0.12500000000E+03 0.  0.
        -13    1    3    3    0    0 -0.18945959108E+02  0.42121089336E+02 -0.25892845878E+02  0.52948901453E+02  0.10566000000E+00 0. -1.
         23    2    1    0    0    0 -0.20353515093E+02 -0.16490448870E+01 -0.18665946655E+02  0.97334091553E+02  0.93319466823E+02 0.  0.
         13    1    3    3    0    0 -0.14075559852E+01 -0.43770134223E+02  0.72268992235E+01  0.44385190100E+02  0.10566000000E+00 0.  1.
         22    1    1    0    0    0  0.20353515093E+02  0.16490448870E+01  0.18665946655E+02  0.27665908447E+02  0.00000000000E+00 0. -1.
</event>
<event>
 5    1  0.1758480E-003  0.9118800E+02  0.7818608E-02  0.1130116E+00
         25   -1    0    0    0    0  0.00000000000E+00  0.00000000000E+00  0.99999998245E-14  0.12500000000E+03  0.12500000000E+03 0.  0.
        -13    1    3    3    0    0 -0.19380938412E+02 -0.45811998476E+01 -0.32754078778E+02  0.38333392837E+02  0.10566000000E+00 0. -1.
         23    2    1    0    0    0 -0.65752881139E+01  0.26126434607E+02  0.13145282580E+02  0.95022951226E+02  0.90170603894E+02 0.  0.
         13    1    3    3    0    0  0.12805650298E+02  0.30707634455E+02  0.45899361357E+02  0.56689558390E+02  0.10566000000E+00 0.  1.
         22    1    1    0    0    0  0.65752881139E+01 -0.26126434607E+02 -0.13145282580E+02  0.29977048774E+02  0.00000000000E+00 0.  1.
</event>
<event>
 5    1  0.1758480E-003  0.9118800E+02  0.7818608E-02  0.1130116E+00
         25   -1    0    0    0    0  0.00000000000E+00  0.00000000000E+00  0.99999998245E-14  0.12500000000E+03  0.12500000000E+03 0.  0.
        -13    1    3    3    0    0 -0.39809885688E+02 -0.35700265379E+02 -0.16967383873E+02  0.56100260482E+02  0.10566000000E+00 0.  1.
         23    2    1    0    0    0 -0.28487736711E+02  0.82020335998E+00 -0.60261433924E+01  0.95870319592E+02  0.91337724397E+02 0.  0.
         13    1    3    3    0    0  0.11322148977E+02  0.36520468739E+02  0.10941240481E+02  0.39770059110E+02  0.10566000000E+00 0. -1.
         22    1    1    0    0    0  0.28487736711E+02 -0.82020335998E+00  0.60261433924E+01  0.29129680408E+02  0.00000000000E+00 0.  1.
</event>
<event>
 5    1  0.1758480E-003  0.9118800E+02  0.7818608E-02  0.1130116E+00
         25   -1    0    0    0    0  0.00000000000E+00  0.00000000000E+00  0.99999998245E-14  0.12500000000E+03  0.12500000000E+03 0.  0.
        -13    1    3    3    0    0 -0.62537527134E+00 -0.16741985628E+02  0.24420621467E+02  0.29615251035E+02  0.10566000000E+00 0.  1.
         23    2    1    0    0    0 -0.43630994554E+02 -0.45032008464E+01  0.25350919799E+02  0.74338262582E+02  0.54401890091E+02 0.  0.
         13    1    3    3    0    0 -0.43005619282E+02  0.12238784781E+02  0.93029833133E+00  0.44723011547E+02  0.10566000000E+00 0. -1.
         22    1    1    0    0    0  0.43630994554E+02  0.45032008464E+01 -0.25350919799E+02  0.50661737418E+02  0.00000000000E+00 0. -1.
</event>
<event>
 5    1  0.1758480E-003  0.9118800E+02  0.7818608E-02  0.1130116E+00
         25   -1    0    0    0    0  0.00000000000E+00  0.00000000000E+00  0.99999998245E-14  0.12500000000E+03  0.12500000000E+03 0.  0.
        -13    1    3    3    0    0  0.21121894882E+02 -0.40336189297E+02 -0.27857983232E+02  0.53378094797E+02  0.10566000000E+00 0. -1.
         23    2    1    0    0    0 -0.66153238041E+01 -0.72998984348E+01 -0.26711369819E+02  0.96529869972E+02  0.92235933849E+02 0.  0.
         13    1    3    3    0    0 -0.27737218686E+02  0.33036290862E+02  0.11466134129E+01  0.43151775175E+02  0.10566000000E+00 0.  1.
         22    1    1    0    0    0  0.66153238041E+01  0.72998984348E+01  0.26711369819E+02  0.28470130028E+02  0.00000000000E+00 0. -1.
</event>
<event>
 5    1  0.1758480E-003  0.9118800E+02  0.7818608E-02  0.1130116E+00
         25   -1    0    0    0    0  0.00000000000E+00  0.00000000000E+00  0.99999998245E-14  0.12500000000E+03  0.12500000000E+03 0.  0.
        -13    1    3    3    0    0 -0.12272268948E+02 -0.30481770735E+02 -0.17935957681E+02  0.37436034435E+02  0.10566000000E+00 0. -1.
         23    2    1    0    0    0  0.54513505945E+01  0.25608114280E+02 -0.10750670977E+02  0.96696825854E+02  0.92461918991E+02 0.  0.
         13    1    3    3    0    0  0.17723619542E+02  0.56089885015E+02  0.71852867040E+01  0.59260791420E+02  0.10566000000E+00 0.  1.
         22    1    1    0    0    0 -0.54513505945E+01 -0.25608114280E+02  0.10750670977E+02  0.28303174146E+02  0.00000000000E+00 0.  1.
</event>
<event>
 5    1  0.1758480E-003  0.9118800E+02  0.7818608E-02  0.1130116E+00
         25   -1    0    0    0    0  0.00000000000E+00  0.00000000000E+00  0.99999998245E-14  0.12500000000E+03  0.12500000000E+03 0.  0.
        -13    1    3    3    0    0  0.27744854797E+02  0.29974813845E+02 -0.40283033004E+02  0.57367241042E+02  0.10566000000E+00 0. -1.
         23    2    1    0    0    0  0.27663895580E+02  0.53639245088E+01 -0.13457141072E+02  0.93772488882E+02  0.88420146010E+02 0.  0.
         13    1    3    3    0    0 -0.80959217331E-01 -0.24610889336E+02  0.26825891932E+02  0.36405247840E+02  0.10566000000E+00 0.  1.
         22    1    1    0    0    0 -0.27663895580E+02 -0.53639245088E+01  0.13457141072E+02  0.31227511118E+02  0.00000000000E+00 0. -1.
</event>
<event>
 5    1  0.1758480E-003  0.9118800E+02  0.7818608E-02  0.1130116E+00
         25   -1    0    0    0    0  0.00000000000E+00  0.00000000000E+00  0.99999998245E-14  0.12500000000E+03  0.12500000000E+03 0.  0.
        -13    1    3    3    0    0 -0.36044845447E+02  0.10935029685E+02  0.15119594629E+02  0.40588410456E+02  0.10566000000E+00 0.  1.
         23    2    1    0    0    0  0.18711297672E+02 -0.52663751834E+01  0.18993908753E+02  0.97822510457E+02  0.93971419135E+02 0.  0.
         13    1    3    3    0    0  0.54756143119E+02 -0.16201404868E+02  0.38743141231E+01  0.57234100002E+02  0.10566000000E+00 0. -1.
         22    1    1    0    0    0 -0.18711297672E+02  0.52663751834E+01 -0.18993908753E+02  0.27177489543E+02  0.00000000000E+00 0. -1.
</event>
<event>
 5    1  0.1758480E-003  0.9118800E+02  0.7818608E-02  0.1130116E+00
         25   -1    0    0    0    0  0.00000000000E+00  0.00000000000E+00  0.99999998245E-14  0.12500000000E+03  0.12500000000E+03 0.  0.
        -13    1    3    3    0    0  0.52109336907E+02  0.20424032604E+02  0.19383866773E+02  0.59230647099E+02  0.10566000000E+00 0. -1.
         23    2    1    0    0    0  0.16912222674E+02  0.21831433616E+02  0.80392316877E+01  0.96237802315E+02  0.91839264908E+02 0.  0.
         13    1    3    3    0    0 -0.35197114233E+02  0.14074010121E+01 -0.11344635085E+02  0.37007155216E+02  0.10566000000E+00 0.  1.
         22    1    1    0    0    0 -0.16912222674E+02 -0.21831433616E+02 -0.80392316877E+01  0.28762197685E+02  0.00000000000E+00 0. -1.
</event>
<event>
 5    1  0.1758480E-003  0.9118800E+02  0.7818608E-02  0.1130116E+00
         25   -1    0    0    0    0  0.00000000000E+00  0.00000000000E+00  0.99999998245E-14  0.12500000000E+03  0.12500000000E+03 0.  0.
        -13    1    3    3    0    0 -0.44255463562E+01 -0.31747459599E+02  0.14232411330E+02  0.35072201924E+02  0.10566000000E+00 0. -1.
         23    2    1    0    0    0 -0.13756787569E+02  0.26095469274E+02 -0.53576681515E+00  0.95495597500E+02  0.90823451679E+02 0.  0.
         13    1    3    3    0    0 -0.93312412124E+01  0.57842928872E+02 -0.14768178145E+02  0.60423395575E+02  0.10566000000E+00 0.  1.
         22    1    1    0    0    0  0.13756787569E+02 -0.26095469274E+02  0.53576681515E+00  0.29504402500E+02  0.00000000000E+00 0.  1.
</event>
<event>
 5    1  0.1758480E-003  0.9118800E+02  0.7818608E-02  0.1130116E+00
         25   -1    0    0    0    0  0.00000000000E+00  0.00000000000E+00  0.99999998245E-14  0.12500000000E+03  0.12500000000E+03 0.  0.
        -13    1    3    3    0    0 -0.33448968298E+02  0.34031928183E+02  0.35907658081E+02  0.59719148428E+02  0.10566000000E+00 0.  1.
         23    2    1    0    0    0 -0.20879429035E+02  0.33078494945E+01  0.16598112937E+02  0.98122690273E+02  0.94369871083E+02 0.  0.
         13    1    3    3    0    0  0.12569539263E+02 -0.30724078688E+02 -0.19309545144E+02  0.38403541845E+02  0.10566000000E+00 0. -1.
         22    1    1    0    0    0  0.20879429035E+02 -0.33078494945E+01 -0.16598112937E+02  0.26877309727E+02  0.00000000000E+00 0.  1.
</event>
<event>
 5    1  0.1758480E-003  0.9118800E+02  0.7818608E-02  0.1130116E+00
         25   -1    0    0    0    0  0.00000000000E+00  0.00000000000E+00  0.99999998245E-14  0.12500000000E+03  0.12500000000E+03 0.  0.
        -13    1    3    3    0    0 -0.21712852869E+02 -0.46964451366E+02 -0.29210169790E+02  0.59416772506E+02  0.10566000000E+00 0. -1.
         23    2    1    0    0    0 -0.45412918133E+01 -0.14847983596E+02 -0.24296737223E+02  0.96165690785E+02  0.91741063305E+02 0.  0.
         13    1    3    3    0    0  0.17171561055E+02  0.32116467770E+02  0.49134325664E+01  0.36748918280E+02  0.10566000000E+00 0.  1.
         22    1    1    0    0    0  0.45412918133E+01  0.14847983596E+02  0.24296737223E+02  0.28834309215E+02  0.00000000000E+00 0. -1.
</event>
<event>
 5    1  0.1758480E-003  0.9118800E+02  0.7818608E-02  0.1130116E+00
         25   -1    0    0    0    0  0.00000000000E+00  0.00000000000E+00  0.99999998245E-14  0.12500000000E+03  0.12500000000E+03 0.  0.
        -13    1    3    3    0    0  0.21395974440E+02 -0.31814974002E+02  0.37187199328E+02  0.53412351108E+02  0.10566000000E+00 0.  1.
         23    2    1    0    0    0  0.61386225820E+01 -0.31443789549E+02  0.70889444080E+00  0.92954764477E+02  0.87256467492E+02 0.  0.
         13    1    3    3    0    0 -0.15257351858E+02  0.37118445302E+00 -0.36478304887E+02  0.39542413369E+02  0.10566000000E+00 0. -1.
         22    1    1    0    0    0 -0.61386225820E+01  0.31443789549E+02 -0.70889444080E+00  0.32045235523E+02  0.00000000000E+00 0.  1.
</event>
<event>
 5    1  0.1758480E-003  0.9118800E+02  0.7818608E-02  0.1130116E+00
         25   -1    0    0    0    0  0.00000000000E+00  0.00000000000E+00  0.99999998245E-14  0.12500000000E+03  0.12500000000E+03 0.  0.
        -13    1    3    3    0    0  0.11565967571E+02  0.12515152277E+02 -0.42810406537E+02  0.46077572791E+02  0.10566000000E+00 0.  1.
         23    2    1    0    0    0 -0.11327639064E+02  0.22977657918E+02  0.38497837071E+01  0.99094228350E+02  0.95648089827E+02 0.  0.
         13    1    3    3    0    0 -0.22893606635E+02  0.10462505642E+02  0.46660190244E+02  0.53016655560E+02  0.10566000000E+00 0. -1.
         22    1    1    0    0    0  0.11327639064E+02 -0.22977657918E+02 -0.38497837071E+01  0.25905771650E+02  0.00000000000E+00 0. -1.
</event>
<event>
 5    1  0.1758480E-003  0.9118800E+02  0.7818608E-02  0.1130116E+00
         25   -1    0    0    0    0  0.00000000000E+00  0.00000000000E+00  0.99999998245E-14  0.12500000000E+03  0.12500000000E+03 0.  0.
        -13    1    3    3    0    0 -0.37269235628E+02 -0.63686610670E+01 -0.18288428821E+02  0.42000399532E+02  0.10566000000E+00 0.  1.
         23    2    1    0    0    0  0.10040563486E+02  0.18718356247E+02 -0.20341629630E+02  0.95589599260E+02  0.90952733961E+02 0.  0.
         13    1    3    3    0    0  0.47309799114E+02  0.25087017314E+02 -0.20532008090E+01  0.53589199728E+02  0.10566000000E+00 0. -1.
         22    1    1    0    0    0 -0.10040563486E+02 -0.18718356247E+02  0.20341629630E+02  0.29410400740E+02  0.00000000000E+00 0. -1.
</event>
<event>
 5    1  0.1758480E-003  0.9118800E+02  0.7818608E-02  0.1130116E+00
         25   -1    0    0    0    0  0.00000000000E+00  0.00000000000E+00  0.99999998245E-14  0.12500000000E+03  0.12500000000E+03 0.  0.
        -13    1    3    3    0    0  0.36065910518E+02 -0.16900812825E+02  0.11159121339E+02  0.41363323473E+02  0.10566000000E+00 0.  1.
         23    2    1    0    0    0 -0.10674454884E+02  0.20339343871E+02  0.80541492142E+00  0.10201562293E+03  0.99392684500E+02 0.  0.
         13    1    3    3    0    0 -0.46740365402E+02  0.37240156696E+02 -0.10353706418E+02  0.60652299456E+02  0.10566000000E+00 0. -1.
         22    1    1    0    0    0  0.10674454884E+02 -0.20339343871E+02 -0.80541492142E+00  0.22984377072E+02  0.00000000000E+00 0. -1.
</event>
<event>
 5    1  0.1758480E-003  0.9118800E+02  0.7818608E-02  0.1130116E+00
         25   -1    0    0    0    0  0.00000000000E+00  0.00000000000E+00  0.99999998245E-14  0.12500000000E+03  0.12500000000E+03 0.  0.
        -13    1    3    3    0    0  0.34039941218E+02 -0.24647283485E+02  0.58244498216E+01  0.42428075152E+02  0.10566000000E+00 0. -1.
         23    2    1    0    0    0 -0.70165130707E+01 -0.99450236717E+00  0.28980156876E+02  0.95165959321E+02  0.90368633000E+02 0.  0.
         13    1    3    3    0    0 -0.41056454289E+02  0.23652781118E+02  0.23155707055E+02  0.52737884169E+02  0.10566000000E+00 0.  1.
         22    1    1    0    0    0  0.70165130707E+01  0.99450236717E+00 -0.28980156876E+02  0.29834040679E+02  0.00000000000E+00 0. -1.
</event>
<event>
 5    1  0.1758480E-003  0.9118800E+02  0.7818608E-02  0.1130116E+00
         25   -1    0    0    0    0  0.00000000000E+00  0.00000000000E+00  0.99999998245E-14  0.12500000000E+03  0.12500000000E+03 0.  0.
        -13    1    3    3    0    0 -0.18188030430E+02  0.66782116671E+01 -0.29000557718E+02  0.34877592721E+02  0.10566000000E+00 0.  1.
         23    2    1    0    0    0  0.29117659116E+02  0.36353843839E+01  0.75086073160E+01  0.94710838971E+02  0.89736891760E+02 0.  0.
         13    1    3    3    0    0  0.47305689546E+02 -0.30428272832E+01  0.36509165034E+02  0.59833246250E+02  0.10566000000E+00 0. -1.
         22    1    1    0    0    0 -0.29117659116E+02 -0.36353843839E+01 -0.75086073160E+01  0.30289161029E+02  0.00000000000E+00 0. -1.
</event>
<event>
 5    1  0.1758480E-003  0.9118800E+02  0.7818608E-02  0.1130116E+00
         25   -1    0    0    0    0  0.00000000000E+00  0.00000000000E+00  0.99999998245E-14  0.12500000000E+03  0.12500000000E+03 0.  0.
        -13    1    3    3    0    0 -0.24927129763E+02  0.34482449718E+00  0.39700284926E+02  0.46878614414E+02  0.10566000000E+00 0. -1.
         23    2    1    0    0    0  0.19399419522E+02  0.58161076266E+01  0.22469810130E+02  0.94750091687E+02  0.89791552619E+02 0.  0.
         13    1    3    3    0    0  0.44326549284E+02  0.54712831294E+01 -0.17230474796E+02  0.47871477273E+02  0.10566000000E+00 0.  1.
         22    1    1    0    0    0 -0.19399419522E+02 -0.58161076266E+01 -0.22469810130E+02  0.30249908313E+02  0.00000000000E+00 0.  1.
</event>
<event>
 5    1  0.1758480E-003  0.9118800E+02  0.7818608E-02  0.1130116E+00
         25   -1    0    0    0    0  0.00000000000E+00  0.00000000000E+00  0.99999998245E-14  0.12500000000E+03  0.12500000000E+03 0.  0.
        -13    1    3    3    0    0  0.16215824653E+02 -0.25047978912E+02  0.27012860160E+02  0.40249968879E+02  0.10566000000E+00 0.  1.
         23    2    1    0    0    0 -0.16228240410E+02  0.18152238210E+02  0.17270849356E+02  0.95148002138E+02  0.90343790792E+02 0.  0.
         13    1    3    3    0    0 -0.32444065063E+02  0.43200217122E+02 -0.97420108038E+01  0.54898033259E+02  0.10566000000E+00 0. -1.
         22    1    1    0    0    0  0.16228240410E+02 -0.18152238210E+02 -0.17270849356E+02  0.29851997862E+02  0.00000000000E+00 0. -1.
</event>
<event>
 5    1  0.1758480E-003  0.9118800E+02  0.7818608E-02  0.1130116E+00
         25   -1    0    0    0    0  0.00000000000E+00  0.00000000000E+00  0.99999998245E-14  0.12500000000E+03  0.12500000000E+03 0.  0.
        -13    1    3    3    0    0  0.25276012858E+02  0.25122729804E+01  0.14223569954E+01  0.25440570060E+02  0.10566000000E+00 0. -1.
         23    2    1    0    0    0 -0.35918265021E+02 -0.49041274393E+01  0.92747456670E+01  0.87580845343E+02  0.79184666039E+02 0.  0.
         13    1    3    3    0    0 -0.61194277879E+02 -0.74164004197E+01  0.78523886716E+01  0.62140275283E+02  0.10566000000E+00 0.  1.
         22    1    1    0    0    0  0.35918265021E+02  0.49041274393E+01 -0.92747456670E+01  0.37419154657E+02  0.00000000000E+00 0.  1.
</event>
<event>
 5    1  0.1758480E-003  0.9118800E+02  0.7818608E-02  0.1130116E+00
         25   -1    0    0    0    0  0.00000000000E+00  0.00000000000E+00  0.99999998245E-14  0.12500000000E+03  0.12500000000E+03 0.  0.
        -13    1    3    3    0    0 -0.27127606137E+02  0.46745945257E+02  0.16164465583E+02  0.56412689391E+02  0.10566000000E+00 0. -1.
         23    2    1    0    0    0 -0.39402908507E+01  0.27627123908E+02 -0.90712837301E+01  0.95655970694E+02  0.91043905196E+02 0.  0.
         13    1    3    3    0    0  0.23187315287E+02 -0.19118821348E+02 -0.25235749314E+02  0.39243281303E+02  0.10566000000E+00 0.  1.
         22    1    1    0    0    0  0.39402908507E+01 -0.27627123908E+02  0.90712837301E+01  0.29344029306E+02  0.00000000000E+00 0. -1.
</event>
<event>
 5    1  0.1758480E-003  0.9118800E+02  0.7818608E-02  0.1130116E+00
         25   -1    0    0    0    0  0.00000000000E+00  0.00000000000E+00  0.99999998245E-14  0.12500000000E+03  0.12500000000E+03 0.  0.
        -13    1    3    3    0    0  0.37042119788E+02  0.44797631231E+02 -0.11134933961E+02  0.59185676651E+02  0.10566000000E+00 0.  1.
         23    2    1    0    0    0  0.11229389531E+02  0.11506798270E+02 -0.16864538522E+02  0.10169939367E+03  0.98994183759E+02 0.  0.
         13    1    3    3    0    0 -0.25812730256E+02 -0.33290832961E+02 -0.57296045610E+01  0.42513717022E+02  0.10566000000E+00 0. -1.
         22    1    1    0    0    0 -0.11229389531E+02 -0.11506798270E+02  0.16864538522E+02  0.23300606327E+02  0.00000000000E+00 0.  1.
</event>
<event>
 5    1  0.1758480E-003  0.9118800E+02  0.7818608E-02  0.1130116E+00
         25   -1    0    0    0    0  0.00000000000E+00  0.00000000000E+00  0.99999998245E-14  0.12500000000E+03  0.12500000000E+03 0.  0.
        -13    1    3    3    0    0 -0.26412690747E+02 -0.66423555353E+01 -0.37304113314E+02  0.46188301048E+02  0.10566000000E+00 0.  1.
         23    2    1    0    0    0 -0.11699138173E+02 -0.26185283418E+02  0.57898649867E+01  0.95741472384E+02  0.91161220351E+02 0.  0.
         13    1    3    3    0    0  0.14713552574E+02 -0.19542927883E+02  0.43093978301E+02  0.49553171335E+02  0.10566000000E+00 0. -1.
         22    1    1    0    0    0  0.11699138173E+02  0.26185283418E+02 -0.57898649867E+01  0.29258527616E+02  0.00000000000E+00 0.  1.
</event>
<event>
 5    1  0.1758480E-003  0.9118800E+02  0.7818608E-02  0.1130116E+00
         25   -1    0    0    0    0  0.00000000000E+00  0.00000000000E+00  0.99999998245E-14  0.12500000000E+03  0.12500000000E+03 0.  0.
        -13    1    3    3    0    0  0.33577438758E+02  0.41607532194E+01  0.22324513025E+02  0.40535802776E+02  0.10566000000E+00 0.  1.
         23    2    1    0    0    0 -0.14855289745E+02 -0.21261814513E+02  0.12865281558E+02  0.96047282349E+02  0.91579586084E+02 0.  0.
         13    1    3    3    0    0 -0.48432728503E+02 -0.25422567733E+02 -0.94592314677E+01  0.55511479573E+02  0.10566000000E+00 0. -1.
         22    1    1    0    0    0  0.14855289745E+02  0.21261814513E+02 -0.12865281558E+02  0.28952717651E+02  0.00000000000E+00 0. -1.
</event>
<event>
 5    1  0.1758480E-003  0.9118800E+02  0.7818608E-02  0.1130116E+00
         25   -1    0    0    0    0  0.00000000000E+00  0.00000000000E+00  0.99999998245E-14  0.12500000000E+03  0.12500000000E+03 0.  0.
        -13    1    3    3    0    0  0.27761740982E+01  0.35863298066E+02 -0.30957412340E+02  0.47457937520E+02  0.10566000000E+00 0.  1.
         23    2    1    0    0    0  0.18130439690E+02 -0.10739044879E+02 -0.15288666928E+02  0.98965729035E+02  0.95480009733E+02 0.  0.
         13    1    3    3    0    0  0.15354265592E+02 -0.46602342945E+02  0.15668745413E+02  0.51507791514E+02  0.10566000000E+00 0. -1.
         22    1    1    0    0    0 -0.18130439690E+02  0.10739044879E+02  0.15288666928E+02  0.26034270965E+02  0.00000000000E+00 0.  1.
</event>
<event>
 4    1  0.1758480E-003  0.9118800E+02  0.7818608E-02  0.1130116E+00
         25   -1    0    0    0    0  0.00000000000E+00  0.00000000000E+00  0.99999998245E-14  0.12500000000E+03  0.12500000000E+03 0.  0.
        -13    1    1    0    0    0  0.25282613980E+01  0.14409948995E+02  0.24136452374E+01  0.14828202288E+02  0.10566000000E+00 0.  1.
         13    1    1    0    0    0  0.22214867488E+02  0.20300762839E+02  0.39988394663E+02  0.50047019702E+02  0.10566000000E+00 0. -1.
         22    1    1    0    0    0 -0.24743128886E+02 -0.34710711833E+02 -0.42402039900E+02  0.60124778010E+02  0.00000000000E+00 0. -1.
</event>
<event>
 5    1  0.1758480E-003  0.9118800E+02  0.7818608E-02  0.1130116E+00
         25   -1    0    0    0    0  0.00000000000E+00  0.00000000000E+00  0.99999998245E-14  0.12500000000E+03  0.12500000000E+03 0.  0.
        -13    1    3    3    0    0 -0.21627709946E+02 -0.12873459219E+02  0.36874386059E+02  0.44645439869E+02  0.10566000000E+00 0.  1.
         23    2    1    0    0    0  0.78157904764E+01  0.23272816835E+02  0.15775884703E+02  0.95818000028E+02  0.91266094509E+02 0.  0.
         13    1    3    3    0    0  0.29443500423E+02  0.36146276054E+02 -0.21098501356E+02  0.51172560159E+02  0.10566000000E+00 0. -1.
         22    1    1    0    0    0 -0.78157904764E+01 -0.23272816835E+02 -0.15775884703E+02  0.29181999972E+02  0.00000000000E+00 0.  1.
</event>
<event>
 5    1  0.1758480E-003  0.9118800E+02  0.7818608E-02  0.1130116E+00
         25   -1    0    0    0    0  0.00000000000E+00  0.00000000000E+00  0.99999998245E-14  0.12500000000E+03  0.12500000000E+03 0.  0.
        -13    1    3    3    0    0 -0.31824693248E+02  0.31332208008E+02  0.27631329364E+02  0.52516853347E+02  0.10566000000E+00 0. -1.
         23    2    1    0    0    0 -0.51206775465E+01  0.27614048812E+02 -0.66579861596E+01  0.96136774089E+02  0.91701654959E+02 0.  0.
         13    1    3    3    0    0  0.26704015701E+02 -0.37181591966E+01 -0.34289315524E+02  0.43619920742E+02  0.10566000000E+00 0.  1.
         22    1    1    0    0    0  0.51206775465E+01 -0.27614048812E+02  0.66579861596E+01  0.28863225911E+02  0.00000000000E+00 0.  1.
</event>
<event>
 5    1  0.1758480E-003  0.9118800E+02  0.7818608E-02  0.1130116E+00
         25   -1    0    0    0    0  0.00000000000E+00  0.00000000000E+00  0.99999998245E-14  0.12500000000E+03  0.12500000000E+03 0.  0.
        -13    1    3    3    0    0 -0.60312815949E+00  0.13343803632E+02 -0.46181351427E+02  0.48074413596E+02  0.10566000000E+00 0.  1.
         23    2    1    0    0    0 -0.21494480864E+02  0.20059385480E+02 -0.43946022003E+01  0.95272837641E+02  0.90516348855E+02 0.  0.
         13    1    3    3    0    0 -0.20891352705E+02  0.67155818475E+01  0.41786749226E+02  0.47198424045E+02  0.10566000000E+00 0. -1.
         22    1    1    0    0    0  0.21494480864E+02 -0.20059385480E+02  0.43946022003E+01  0.29727162359E+02  0.00000000000E+00 0. -1.
</event>
<event>
 5    1  0.1758480E-003  0.9118800E+02  0.7818608E-02  0.1130116E+00
         25   -1    0    0    0    0  0.00000000000E+00  0.00000000000E+00  0.99999998245E-14  0.12500000000E+03  0.12500000000E+03 0.  0.
        -13    1    3    3    0    0 -0.85770108005E+01  0.32699504813E+02  0.16117298482E+02  0.37451317783E+02  0.10566000000E+00 0. -1.
         23    2    1    0    0    0 -0.73069504975E+00 -0.72260545166E+01 -0.27179324967E+02  0.96867003630E+02  0.92691698158E+02 0.  0.
         13    1    3    3    0    0  0.78463157508E+01 -0.39925559329E+02 -0.43296623448E+02  0.59415685847E+02  0.10566000000E+00 0.  1.
         22    1    1    0    0    0  0.73069504975E+00  0.72260545166E+01  0.27179324967E+02  0.28132996370E+02  0.00000000000E+00 0.  1.
</event>
<event>
 5    1  0.1758480E-003  0.9118800E+02  0.7818608E-02  0.1130116E+00
         25   -1    0    0    0    0  0.00000000000E+00  0.00000000000E+00  0.99999998245E-14  0.12500000000E+03  0.12500000000E+03 0.  0.
        -13    1    3    3    0    0  0.23092119287E+01  0.20138019796E+02  0.29991819803E+02  0.36199346957E+02  0.10566000000E+00 0. -1.
         23    2    1    0    0    0 -0.25257990906E+02 -0.12579575221E+02 -0.10293181902E+02  0.94963998085E+02  0.90088842380E+02 0.  0.
         13    1    3    3    0    0 -0.27567202834E+02 -0.32717595018E+02 -0.40285001704E+02  0.58764651128E+02  0.10566000000E+00 0.  1.
         22    1    1    0    0    0  0.25257990906E+02  0.12579575221E+02  0.10293181902E+02  0.30036001915E+02  0.00000000000E+00 0.  1.
</event>
<event>
 5    1  0.1758480E-003  0.9118800E+02  0.7818608E-02  0.1130116E+00
         25   -1    0    0    0    0  0.00000000000E+00  0.00000000000E+00  0.99999998245E-14  0.12500000000E+03  0.12500000000E+03 0.  0.
        -13    1    3    3    0    0 -0.36633674941E+02 -0.65559190171E+01  0.84191543262E+01  0.38156251617E+02  0.10566000000E+00 0.  1.
         23    2    1    0    0    0  0.10187669237E+02  0.25955152007E+02 -0.48905055668E+01  0.96691422415E+02  0.92454613751E+02 0.  0.
         13    1    3    3    0    0  0.46821344179E+02  0.32511071024E+02 -0.13309659893E+02  0.58535170798E+02  0.10566000000E+00 0. -1.
         22    1    1    0    0    0 -0.10187669237E+02 -0.25955152007E+02  0.48905055668E+01  0.28308577585E+02  0.00000000000E+00 0. -1.
</event>
<event>
 5    1  0.1758480E-003  0.9118800E+02  0.7818608E-02  0.1130116E+00
         25   -1    0    0    0    0  0.00000000000E+00  0.00000000000E+00  0.99999998245E-14  0.12500000000E+03  0.12500000000E+03 0.  0.
        -13    1    3    3    0    0  0.12037686451E+02  0.30284724441E+02 -0.75393842591E+01  0.33450320007E+02  0.10566000000E+00 0. -1.
         23    2    1    0    0    0 -0.88972185946E+01 -0.26653896378E+02  0.74286891263E+01  0.95934967521E+02  0.91426155340E+02 0.  0.
         13    1    3    3    0    0 -0.20934905045E+02 -0.56938620819E+02  0.14968073385E+02  0.62484647514E+02  0.10566000000E+00 0.  1.
         22    1    1    0    0    0  0.88972185946E+01  0.26653896378E+02 -0.74286891263E+01  0.29065032479E+02  0.00000000000E+00 0.  1.
</event>
<event>
 5    1  0.1758480E-003  0.9118800E+02  0.7818608E-02  0.1130116E+00
         25   -1    0    0    0    0  0.00000000000E+00  0.00000000000E+00  0.99999998245E-14  0.12500000000E+03  0.12500000000E+03 0.  0.
        -13    1    3    3    0    0 -0.10995039708E+01 -0.42438595630E+02 -0.43448659071E+02  0.60745703116E+02  0.10566000000E+00 0. -1.
         23    2    1    0    0    0  0.87737109690E+01 -0.22786618442E+02 -0.16496495974E+02  0.95532350559E+02  0.90874020708E+02 0.  0.
         13    1    3    3    0    0  0.98732149398E+01  0.19651977188E+02  0.26952163097E+02  0.34786647442E+02  0.10566000000E+00 0.  1.
         22    1    1    0    0    0 -0.87737109690E+01  0.22786618442E+02  0.16496495974E+02  0.29467649441E+02  0.00000000000E+00 0. -1.
</event>
<event>
 5    1  0.1758480E-003  0.9118800E+02  0.7818608E-02  0.1130116E+00
         25   -1    0    0    0    0  0.00000000000E+00  0.00000000000E+00  0.99999998245E-14  0.12500000000E+03  0.12500000000E+03 0.  0.
        -13    1    3    3    0    0  0.61589560954E+02  0.82019596397E+01 -0.65111821636E+01  0.62473616973E+02  0.10566000000E+00 0.  1.
         23    2    1    0    0    0  0.32389012602E+02  0.43705625571E+01 -0.47115336487E+01  0.91979574446E+02  0.85848084496E+02 0.  0.
         13    1    3    3    0    0 -0.29200548352E+02 -0.38313970826E+01  0.17996485148E+01  0.29505957474E+02  0.10566000000E+00 0. -1.
         22    1    1    0    0    0 -0.32389012602E+02 -0.43705625571E+01  0.47115336487E+01  0.33020425554E+02  0.00000000000E+00 0.  1.
</event>
<event>
 5    1  0.1758480E-003  0.9118800E+02  0.7818608E-02  0.1130116E+00
         25   -1    0    0    0    0  0.00000000000E+00  0.00000000000E+00  0.99999998245E-14  0.12500000000E+03  0.12500000000E+03 0.  0.
        -13    1    3    3    0    0 -0.50189729011E+02 -0.15868378055E+02 -0.28719400266E+02  0.59963567572E+02  0.10566000000E+00 0.  1.
         23    2    1    0    0    0 -0.38377169082E+02 -0.47770474717E+01 -0.93586887998E+01  0.85210399030E+02  0.75349849088E+02 0.  0.
         13    1    3    3    0    0  0.11812559929E+02  0.11091330583E+02  0.19360711466E+02  0.25246831458E+02  0.10566000000E+00 0. -1.
         22    1    1    0    0    0  0.38377169082E+02  0.47770474717E+01  0.93586887998E+01  0.39789600970E+02  0.00000000000E+00 0.  1.
</event>
<event>
 5    1  0.1758480E-003  0.9118800E+02  0.7818608E-02  0.1130116E+00
         25   -1    0    0    0    0  0.00000000000E+00  0.00000000000E+00  0.99999998245E-14  0.12500000000E+03  0.12500000000E+03 0.  0.
        -13    1    3    3    0    0  0.37799637924E+02  0.82676165585E+01 -0.13807353539E+02  0.41083090031E+02  0.10566000000E+00 0.  1.
         23    2    1    0    0    0  0.32776558893E+01 -0.15611231765E+01  0.28331357213E+02  0.96436983086E+02  0.92109965647E+02 0.  0.
         13    1    3    3    0    0 -0.34521982034E+02 -0.98287397349E+01  0.42138710753E+02  0.55353893054E+02  0.10566000000E+00 0. -1.
         22    1    1    0    0    0 -0.32776558893E+01  0.15611231765E+01 -0.28331357213E+02  0.28563016914E+02  0.00000000000E+00 0. -1.
</event>
<event>
 5    1  0.1758480E-003  0.9118800E+02  0.7818608E-02  0.1130116E+00
         25   -1    0    0    0    0  0.00000000000E+00  0.00000000000E+00  0.99999998245E-14  0.12500000000E+03  0.12500000000E+03 0.  0.
        -13    1    3    3    0    0  0.17753648588E+02  0.27683383108E+02  0.21587996178E+02  0.39339731589E+02  0.10566000000E+00 0. -1.
         23    2    1    0    0    0  0.17101696145E+02 -0.24827485856E+02  0.10978503726E+02  0.92915742037E+02  0.87200547643E+02 0.  0.
         13    1    3    3    0    0 -0.65195244304E+00 -0.52510868964E+02 -0.10609492451E+02  0.53576010448E+02  0.10566000000E+00 0.  1.
         22    1    1    0    0    0 -0.17101696145E+02  0.24827485856E+02 -0.10978503726E+02  0.32084257963E+02  0.00000000000E+00 0.  1.
</event>
<event>
 5    1  0.1758480E-003  0.9118800E+02  0.7818608E-02  0.1130116E+00
         25   -1    0    0    0    0  0.00000000000E+00  0.00000000000E+00  0.99999998245E-14  0.12500000000E+03  0.12500000000E+03 0.  0.
        -13    1    3    3    0    0  0.35660173699E+02 -0.11902460926E+02  0.22450029671E+02  0.43787344754E+02  0.10566000000E+00 0. -1.
         23    2    1    0    0    0  0.12319437497E+02 -0.17146606542E+02 -0.22150705202E+02  0.94398882421E+02  0.89301291173E+02 0.  0.
         13    1    3    3    0    0 -0.23340736202E+02 -0.52441456161E+01 -0.44600734873E+02  0.50611537667E+02  0.10566000000E+00 0.  1.
         22    1    1    0    0    0 -0.12319437497E+02  0.17146606542E+02  0.22150705202E+02  0.30601117579E+02  0.00000000000E+00 0.  1.
</event>
<event>
 5    1  0.1758480E-003  0.9118800E+02  0.7818608E-02  0.1130116E+00
         25   -1    0    0    0    0  0.00000000000E+00  0.00000000000E+00  0.99999998245E-14  0.12500000000E+03  0.12500000000E+03 0.  0.
        -13    1    3    3    0    0 -0.44837311835E+02 -0.13509045956E+02  0.15452190145E+02  0.49311866722E+02  0.10566000000E+00 0. -1.
         23    2    1    0    0    0 -0.56106946413E+01 -0.28166335400E+02 -0.48899385127E+01  0.95866963034E+02  0.91333130673E+02 0.  0.
         13    1    3    3    0    0  0.39226617194E+02 -0.14657289443E+02 -0.20342128658E+02  0.46555096312E+02  0.10566000000E+00 0.  1.
         22    1    1    0    0    0  0.56106946413E+01  0.28166335400E+02  0.48899385127E+01  0.29133036966E+02  0.00000000000E+00 0.  1.
</event>
<event>
 5    1  0.1758480E-003  0.9118800E+02  0.7818608E-02  0.1130116E+00
         25   -1    0    0    0    0  0.00000000000E+00  0.00000000000E+00  0.99999998245E-14  0.12500000000E+03  0.12500000000E+03 0.  0.
        -13    1    3    3    0    0 -0.29025488037E+02  0.37074622158E+02 -0.69322807961E+00  0.47090320589E+02  0.10566000000E+00 0. -1.
         23    2    1    0    0    0 -0.83117341232E+01 -0.11776251291E+00 -0.26739811750E+02  0.96997922852E+02  0.92868082316E+02 0.  0.
         13    1    3    3    0    0  0.20713753913E+02 -0.37192384671E+02 -0.26046583671E+02  0.49907602263E+02  0.10566000000E+00 0.  1.
         22    1    1    0    0    0  0.83117341232E+01  0.11776251291E+00  0.26739811750E+02  0.28002077148E+02  0.00000000000E+00 0.  1.
</event>
<event>
 5    1  0.1758480E-003  0.9118800E+02  0.7818608E-02  0.1130116E+00
         25   -1    0    0    0    0  0.00000000000E+00  0.00000000000E+00  0.99999998245E-14  0.12500000000E+03  0.12500000000E+03 0.  0.
        -13    1    3    3    0    0  0.44186934017E+02  0.13268325396E+02 -0.32207351477E+02  0.56265959956E+02  0.10566000000E+00 0.  1.
         23    2    1    0    0    0  0.11468837792E+02  0.23677940499E+02 -0.12257388494E+02  0.95975481412E+02  0.91481530119E+02 0.  0.
         13    1    3    3    0    0 -0.32718096225E+02  0.10409615103E+02  0.19949962982E+02  0.39709521455E+02  0.10566000000E+00 0. -1.
         22    1    1    0    0    0 -0.11468837792E+02 -0.23677940499E+02  0.12257388494E+02  0.29024518588E+02  0.00000000000E+00 0.  1.
</event>
<event>
 5    1  0.1758480E-003  0.9118800E+02  0.7818608E-02  0.1130116E+00
         25   -1    0    0    0    0  0.00000000000E+00  0.00000000000E+00  0.99999998245E-14  0.12500000000E+03  0.12500000000E+03 0.  0.
        -13    1    3    3    0    0 -0.97288208056E+01 -0.36065007788E+02  0.12766864472E+01  0.37376139894E+02  0.10566000000E+00 0.  1.
         23    2    1    0    0    0 -0.21207641514E+02  0.19311623875E+02 -0.91703906800E+01  0.94886897528E+02  0.89981800282E+02 0.  0.
         13    1    3    3    0    0 -0.11478820708E+02  0.55376631663E+02 -0.10447077127E+02  0.57510757635E+02  0.10566000000E+00 0. -1.
         22    1    1    0    0    0  0.21207641514E+02 -0.19311623875E+02  0.91703906800E+01  0.30113102472E+02  0.00000000000E+00 0. -1.
</event>
<event>
 5    1  0.1758480E-003  0.9118800E+02  0.7818608E-02  0.1130116E+00
         25   -1    0    0    0    0  0.00000000000E+00  0.00000000000E+00  0.99999998245E-14  0.12500000000E+03  0.12500000000E+03 0.  0.
        -13    1    3    3    0    0  0.37198537653E+02 -0.11132239236E+02  0.45400124180E+02  0.59739772292E+02  0.10566000000E+00 0.  1.
         23    2    1    0    0    0  0.14185998635E+02 -0.16999473577E+02  0.15271610183E+02  0.98103034803E+02  0.94343832341E+02 0.  0.
         13    1    3    3    0    0 -0.23012539018E+02 -0.58672343408E+01 -0.30128513996E+02  0.38363262511E+02  0.10566000000E+00 0. -1.
         22    1    1    0    0    0 -0.14185998635E+02  0.16999473577E+02 -0.15271610183E+02  0.26896965197E+02  0.00000000000E+00 0.  1.
</event>
<event>
 5    1  0.1758480E-003  0.9118800E+02  0.7818608E-02  0.1130116E+00
         25   -1    0    0    0    0  0.00000000000E+00  0.00000000000E+00  0.99999998245E-14  0.12500000000E+03  0.12500000000E+03 0.  0.
        -13    1    3    3    0    0  0.93737568511E+01 -0.24716203752E+02 -0.24803544565E+02  0.36248931466E+02  0.10566000000E+00 0. -1.
         23    2    1    0    0    0  0.23287197843E+02  0.12507058803E+02  0.16718937549E+02  0.93723123940E+02  0.88350330984E+02 0.  0.
         13    1    3    3    0    0  0.13913440992E+02  0.37223262555E+02  0.41522482114E+02  0.57474192474E+02  0.10566000000E+00 0.  1.
         22    1    1    0    0    0 -0.23287197843E+02 -0.12507058803E+02 -0.16718937549E+02  0.31276876060E+02  0.00000000000E+00 0.  1.
</event>
<event>
 5    1  0.1758480E-003  0.9118800E+02  0.7818608E-02  0.1130116E+00
         25   -1    0    0    0    0  0.00000000000E+00  0.00000000000E+00  0.99999998245E-14  0.12500000000E+03  0.12500000000E+03 0.  0.
        -13    1    3    3    0    0  0.14219714672E+01  0.39961592951E+02 -0.10431947536E+02  0.41325386961E+02  0.10566000000E+00 0. -1.
         23    2    1    0    0    0 -0.15042579885E+02  0.29516219586E+01  0.25351409831E+02  0.95374246639E+02  0.90656283069E+02 0.  0.
         13    1    3    3    0    0 -0.16464551352E+02 -0.37009970993E+02  0.35783357366E+02  0.54048859678E+02  0.10566000000E+00 0.  1.
         22    1    1    0    0    0  0.15042579885E+02 -0.29516219586E+01 -0.25351409831E+02  0.29625753361E+02  0.00000000000E+00 0.  1.
</event>
<event>
 5    1  0.1758480E-003  0.9118800E+02  0.7818608E-02  0.1130116E+00
         25   -1    0    0    0    0  0.00000000000E+00  0.00000000000E+00  0.99999998245E-14  0.12500000000E+03  0.12500000000E+03 0.  0.
        -13    1    3    3    0    0 -0.24382025552E+02 -0.77341873536E+00  0.24874722052E+02  0.34840268480E+02  0.10566000000E+00 0.  1.
         23    2    1    0    0    0 -0.45211152046E+02  0.13106945550E+02 -0.91159239989E+01  0.77052733537E+02  0.60317355580E+02 0.  0.
         13    1    3    3    0    0 -0.20829126494E+02  0.13880364286E+02 -0.33990646051E+02  0.42212465057E+02  0.10566000000E+00 0. -1.
         22    1    1    0    0    0  0.45211152046E+02 -0.13106945550E+02  0.91159239989E+01  0.47947266463E+02  0.00000000000E+00 0. -1.
</event>
<event>
 5    1  0.1758480E-003  0.9118800E+02  0.7818608E-02  0.1130116E+00
         25   -1    0    0    0    0  0.00000000000E+00  0.00000000000E+00  0.99999998245E-14  0.12500000000E+03  0.12500000000E+03 0.  0.
        -13    1    3    3    0    0 -0.22937801687E+02 -0.44916782532E+02 -0.23489294640E+01  0.50489491312E+02  0.10566000000E+00 0.  1.
         23    2    1    0    0    0 -0.24869606873E+02 -0.57827698916E+01  0.17136916035E+02  0.94249200582E+02  0.89091526789E+02 0.  0.
         13    1    3    3    0    0 -0.19318051862E+01  0.39134012640E+02  0.19485845499E+02  0.43759709271E+02  0.10566000000E+00 0. -1.
         22    1    1    0    0    0  0.24869606873E+02  0.57827698916E+01 -0.17136916035E+02  0.30750799418E+02  0.00000000000E+00 0.  1.
</event>
<event>
 5    1  0.1758480E-003  0.9118800E+02  0.7818608E-02  0.1130116E+00
         25   -1    0    0    0    0  0.00000000000E+00  0.00000000000E+00  0.99999998245E-14  0.12500000000E+03  0.12500000000E+03 0.  0.
        -13    1    3    3    0    0  0.16644224429E+02 -0.37264764143E+02  0.25920042866E+02  0.48348243398E+02  0.10566000000E+00 0. -1.
         23    2    1    0    0    0 -0.16631577881E+02 -0.18959959920E+02 -0.72342563963E+01  0.98762166084E+02  0.95213137335E+02 0.  0.
         13    1    3    3    0    0 -0.33275802310E+02  0.18304804223E+02 -0.33154299262E+02  0.50413922686E+02  0.10566000000E+00 0.  1.
         22    1    1    0    0    0  0.16631577881E+02  0.18959959920E+02  0.72342563963E+01  0.26237833916E+02  0.00000000000E+00 0.  1.
</event>
<event>
 5    1  0.1758480E-003  0.9118800E+02  0.7818608E-02  0.1130116E+00
         25   -1    0    0    0    0  0.00000000000E+00  0.00000000000E+00  0.99999998245E-14  0.12500000000E+03  0.12500000000E+03 0.  0.
        -13    1    3    3    0    0 -0.28847135532E+02 -0.22972784456E+02 -0.30632075163E+02  0.47939975457E+02  0.10566000000E+00 0.  1.
         23    2    1    0    0    0  0.14280032941E+02 -0.22547477572E+02 -0.58675661067E+01  0.97673521674E+02  0.93773026071E+02 0.  0.
         13    1    3    3    0    0  0.43127168474E+02  0.42530688349E+00  0.24764509056E+02  0.49733546217E+02  0.10566000000E+00 0. -1.
         22    1    1    0    0    0 -0.14280032941E+02  0.22547477572E+02  0.58675661067E+01  0.27326478326E+02  0.00000000000E+00 0.  1.
</event>
<event>
 5    1  0.1758480E-003  0.9118800E+02  0.7818608E-02  0.1130116E+00
         25   -1    0    0    0    0  0.00000000000E+00  0.00000000000E+00  0.99999998245E-14  0.12500000000E+03  0.12500000000E+03 0.  0.
        -13    1    3    3    0    0  0.23170621361E+02 -0.13331684100E+02  0.29991340194E+02  0.40175902553E+02  0.10566000000E+00 0.  1.
         23    2    1    0    0    0  0.11779440372E+01  0.29250097944E+02  0.20446150745E+01  0.95654877191E+02  0.91042403844E+02 0.  0.
         13    1    3    3    0    0 -0.21992677324E+02  0.42581782044E+02 -0.27946725120E+02  0.55478974638E+02  0.10566000000E+00 0. -1.
         22    1    1    0    0    0 -0.11779440372E+01 -0.29250097944E+02 -0.20446150745E+01  0.29345122809E+02  0.00000000000E+00 0. -1.
</event>
<event>
 5    1  0.1758480E-003  0.9118800E+02  0.7818608E-02  0.1130116E+00
         25   -1    0    0    0    0  0.00000000000E+00  0.00000000000E+00  0.99999998245E-14  0.12500000000E+03  0.12500000000E+03 0.  0.
        -13    1    3    3    0    0 -0.76903922190E+01 -0.92115054262E+01 -0.34645463976E+02  0.36664878329E+02  0.10566000000E+00 0. -1.
         23    2    1    0    0    0 -0.21568257682E+02  0.17373245648E+02  0.14119571705E+02  0.93913319429E+02  0.88619015213E+02 0.  0.
         13    1    3    3    0    0 -0.13877865463E+02  0.26584751074E+02  0.48765035681E+02  0.57248441101E+02  0.10566000000E+00 0.  1.
         22    1    1    0    0    0  0.21568257682E+02 -0.17373245648E+02 -0.14119571705E+02  0.31086680571E+02  0.00000000000E+00 0.  1.
</event>
<event>
 5    1  0.1758480E-003  0.9118800E+02  0.7818608E-02  0.1130116E+00
         25   -1    0    0    0    0  0.00000000000E+00  0.00000000000E+00  0.99999998245E-14  0.12500000000E+03  0.12500000000E+03 0.  0.
        -13    1    3    3    0    0 -0.19819115600E+01 -0.16044209545E+02 -0.29747147662E+02  0.33856293232E+02  0.10566000000E+00 0. -1.
         23    2    1    0    0    0  0.98891371313E+01  0.15976846583E+02  0.22132442538E+02  0.95967265498E+02  0.91470303239E+02 0.  0.
         13    1    3    3    0    0  0.11871048691E+02  0.32021056127E+02  0.51879590200E+02  0.62110972267E+02  0.10566000000E+00 0.  1.
         22    1    1    0    0    0 -0.98891371313E+01 -0.15976846583E+02 -0.22132442538E+02  0.29032734502E+02  0.00000000000E+00 0.  1.
</event>
<event>
 5    1  0.1758480E-003  0.9118800E+02  0.7818608E-02  0.1130116E+00
         25   -1    0    0    0    0  0.00000000000E+00  0.00000000000E+00  0.99999998245E-14  0.12500000000E+03  0.12500000000E+03 0.  0.
        -13    1    3    3    0    0  0.23301035885E+02 -0.14854838448E+02  0.31195245989E+02  0.41674441028E+02  0.10566000000E+00 0.  1.
         23    2    1    0    0    0  0.19944778175E+01 -0.10163519369E+02 -0.22825529016E+02  0.99934488982E+02  0.96739972325E+02 0.  0.
         13    1    3    3    0    0 -0.21306558067E+02  0.46913190784E+01 -0.54020775005E+02  0.58260047954E+02  0.10566000000E+00 0. -1.
         22    1    1    0    0    0 -0.19944778175E+01  0.10163519369E+02  0.22825529016E+02  0.25065511018E+02  0.00000000000E+00 0. -1.
</event>
<event>
 5    1  0.1758480E-003  0.9118800E+02  0.7818608E-02  0.1130116E+00
         25   -1    0    0    0    0  0.00000000000E+00  0.00000000000E+00  0.99999998245E-14  0.12500000000E+03  0.12500000000E+03 0.  0.
        -13    1    3    3    0    0  0.79665039863E+01 -0.55603226727E+02 -0.30508518538E+01  0.56253914258E+02  0.10566000000E+00 0. -1.
         23    2    1    0    0    0 -0.15915487595E+02 -0.27508963340E+02 -0.23133666986E+01  0.93134697947E+02  0.87513853114E+02 0.  0.
         13    1    3    3    0    0 -0.23881991581E+02  0.28094263387E+02  0.73748515517E+00  0.36880783689E+02  0.10566000000E+00 0.  1.
         22    1    1    0    0    0  0.15915487595E+02  0.27508963340E+02  0.23133666986E+01  0.31865302053E+02  0.00000000000E+00 0. -1.
</event>
<event>
 5    1  0.1758480E-003  0.9118800E+02  0.7818608E-02  0.1130116E+00
         25   -1    0    0    0    0  0.00000000000E+00  0.00000000000E+00  0.99999998245E-14  0.12500000000E+03  0.12500000000E+03 0.  0.
        -13    1    3    3    0    0 -0.54970125508E+02  0.53846781850E+01 -0.59638366135E+01  0.55554369483E+02  0.10566000000E+00 0. -1.
         23    2    1    0    0    0 -0.22432792695E+02 -0.17187906161E+02  0.41762192984E+01  0.96432621508E+02  0.92104046474E+02 0.  0.
         13    1    3    3    0    0  0.32537332813E+02 -0.22572584346E+02  0.10140055912E+02  0.40878252024E+02  0.10566000000E+00 0.  1.
         22    1    1    0    0    0  0.22432792695E+02  0.17187906161E+02 -0.41762192984E+01  0.28567378492E+02  0.00000000000E+00 0. -1.
</event>
<event>
 5    1  0.1758480E-003  0.9118800E+02  0.7818608E-02  0.1130116E+00
         25   -1    0    0    0    0  0.00000000000E+00  0.00000000000E+00  0.99999998245E-14  0.12500000000E+03  0.12500000000E+03 0.  0.
        -13    1    3    3    0    0  0.14378375015E+02 -0.37477260014E+02 -0.39876207660E+01  0.40338504802E+02  0.10566000000E+00 0.  1.
         23    2    1    0    0    0 -0.28411030025E+02 -0.12193426761E+01 -0.39302334591E-01  0.96562789020E+02  0.92280535624E+02 0.  0.
         13    1    3    3    0    0 -0.42789405040E+02  0.36257917338E+02  0.39483184314E+01  0.56224284218E+02  0.10566000000E+00 0. -1.
         22    1    1    0    0    0  0.28411030025E+02  0.12193426761E+01  0.39302334591E-01  0.28437210980E+02  0.00000000000E+00 0.  1.
</event>
<event>
 5    1  0.1758480E-003  0.9118800E+02  0.7818608E-02  0.1130116E+00
         25   -1    0    0    0    0  0.00000000000E+00  0.00000000000E+00  0.99999998245E-14  0.12500000000E+03  0.12500000000E+03 0.  0.
        -13    1    3    3    0    0  0.30797998051E+01  0.45887128271E+02  0.30142342011E+01  0.46089157940E+02  0.10566000000E+00 0.  1.
         23    2    1    0    0    0 -0.14386469349E+02  0.63570315147E+01  0.25677650379E+02  0.94888140558E+02  0.89983527046E+02 0.  0.
         13    1    3    3    0    0 -0.17466269154E+02 -0.39530096756E+02  0.22663416178E+02  0.48798982619E+02  0.10566000000E+00 0. -1.
         22    1    1    0    0    0  0.14386469349E+02 -0.63570315147E+01 -0.25677650379E+02  0.30111859442E+02  0.00000000000E+00 0.  1.
</event>
<event>
 5    1  0.1758480E-003  0.9118800E+02  0.7818608E-02  0.1130116E+00
         25   -1    0    0    0    0  0.00000000000E+00  0.00000000000E+00  0.99999998245E-14  0.12500000000E+03  0.12500000000E+03 0.  0.
        -13    1    3    3    0    0  0.84021354418E+01  0.45302395653E+02 -0.39515689591E+02  0.60699290109E+02  0.10566000000E+00 0. -1.
         23    2    1    0    0    0  0.49748820544E+01  0.12181904419E+02 -0.24423269156E+02  0.97257535744E+02  0.93216865083E+02 0.  0.
         13    1    3    3    0    0 -0.34272533873E+01 -0.33120491233E+02  0.15092420435E+02  0.36558245635E+02  0.10566000000E+00 0.  1.
         22    1    1    0    0    0 -0.49748820544E+01 -0.12181904419E+02  0.24423269156E+02  0.27742464256E+02  0.00000000000E+00 0. -1.
</event>
<event>
 5    1  0.1758480E-003  0.9118800E+02  0.7818608E-02  0.1130116E+00
         25   -1    0    0    0    0  0.00000000000E+00  0.00000000000E+00  0.99999998245E-14  0.12500000000E+03  0.12500000000E+03 0.  0.
        -13    1    3    3    0    0 -0.28356630112E+02  0.12716339060E+02  0.10168202076E+02  0.32698734653E+02  0.10566000000E+00 0.  1.
         23    2    1    0    0    0  0.22270801217E+02 -0.21023169560E+02  0.67759529932E+01  0.93633205708E+02  0.88223020958E+02 0.  0.
         13    1    3    3    0    0  0.50627431329E+02 -0.33739508620E+02 -0.33922490829E+01  0.60934471055E+02  0.10566000000E+00 0. -1.
         22    1    1    0    0    0 -0.22270801217E+02  0.21023169560E+02 -0.67759529932E+01  0.31366794292E+02  0.00000000000E+00 0. -1.
</event>
<event>
 5    1  0.1758480E-003  0.9118800E+02  0.7818608E-02  0.1130116E+00
         25   -1    0    0    0    0  0.00000000000E+00  0.00000000000E+00  0.99999998245E-14  0.12500000000E+03  0.12500000000E+03 0.  0.
        -13    1    3    3    0    0 -0.26832445313E+02  0.25616896660E+02 -0.74954144023E+01  0.37847033135E+02  0.10566000000E+00 0.  1.
         23    2    1    0    0    0 -0.19302251977E+02 -0.27260069723E+00  0.33159756008E+02  0.86630472233E+02  0.77669930206E+02 0.  0.
         13    1    3    3    0    0  0.75301933363E+01 -0.25889497357E+02  0.40655170411E+02  0.48783439098E+02  0.10566000000E+00 0. -1.
         22    1    1    0    0    0  0.19302251977E+02  0.27260069723E+00 -0.33159756008E+02  0.38369527767E+02  0.00000000000E+00 0. -1.
</event>
<event>
 5    1  0.1758480E-003  0.9118800E+02  0.7818608E-02  0.1130116E+00
         25   -1    0    0    0    0  0.00000000000E+00  0.00000000000E+00  0.99999998245E-14  0.12500000000E+03  0.12500000000E+03 0.  0.
        -13    1    3    3    0    0 -0.31852155872E+02 -0.10103019241E+02 -0.25022820474E+02  0.41746659028E+02  0.10566000000E+00 0.  1.
         23    2    1    0    0    0 -0.14593046523E+02  0.54206474822E+01  0.24232452955E+02  0.96198052111E+02  0.91785146009E+02 0.  0.
         13    1    3    3    0    0  0.17259109350E+02  0.15523666724E+02  0.49255273429E+02  0.54451393083E+02  0.10566000000E+00 0. -1.
         22    1    1    0    0    0  0.14593046523E+02 -0.54206474822E+01 -0.24232452955E+02  0.28801947889E+02  0.00000000000E+00 0. -1.
</event>
<event>
 5    1  0.1758480E-003  0.9118800E+02  0.7818608E-02  0.1130116E+00
         25   -1    0    0    0    0  0.00000000000E+00  0.00000000000E+00  0.99999998245E-14  0.12500000000E+03  0.12500000000E+03 0.  0.
        -13    1    3    3    0    0 -0.48025359879E+02 -0.89437100938E+01  0.32673186108E+02  0.58770514684E+02  0.10566000000E+00 0.  1.
         23    2    1    0    0    0 -0.16352880514E+02  0.72700957830E+01  0.23400855323E+02  0.95540349227E+02  0.90885022456E+02 0.  0.
         13    1    3    3    0    0  0.31672479365E+02  0.16213805877E+02 -0.92723307854E+01  0.36769834543E+02  0.10566000000E+00 0. -1.
         22    1    1    0    0    0  0.16352880514E+02 -0.72700957830E+01 -0.23400855323E+02  0.29459650773E+02  0.00000000000E+00 0.  1.
</event>
<event>
 5    1  0.1758480E-003  0.9118800E+02  0.7818608E-02  0.1130116E+00
         25   -1    0    0    0    0  0.00000000000E+00  0.00000000000E+00  0.99999998245E-14  0.12500000000E+03  0.12500000000E+03 0.  0.
        -13    1    3    3    0    0 -0.22727417509E+01  0.23584994715E+01  0.36869699947E+02  0.37015048468E+02  0.10566000000E+00 0.  1.
         23    2    1    0    0    0 -0.14067391438E+02 -0.12195872817E+02 -0.20465330218E+02  0.97333042152E+02  0.93318061156E+02 0.  0.
         13    1    3    3    0    0 -0.11794649687E+02 -0.14554372289E+02 -0.57335030165E+02  0.60317993684E+02  0.10566000000E+00 0. -1.
         22    1    1    0    0    0  0.14067391438E+02  0.12195872817E+02  0.20465330218E+02  0.27666957848E+02  0.00000000000E+00 0. -1.
</event>
<event>
 5    1  0.1758480E-003  0.9118800E+02  0.7818608E-02  0.1130116E+00
         25   -1    0    0    0    0  0.00000000000E+00  0.00000000000E+00  0.99999998245E-14  0.12500000000E+03  0.12500000000E+03 0.  0.
        -13    1    3    3    0    0  0.28071538579E+02 -0.97057637204E+01 -0.15892136457E+02  0.33686559527E+02  0.10566000000E+00 0.  1.
         23    2    1    0    0    0 -0.30398601044E+02  0.86270925751E+00 -0.34378480639E+01  0.94395457657E+02  0.89296497211E+02 0.  0.
         13    1    3    3    0    0 -0.58470139624E+02  0.10568472978E+02  0.12454288393E+02  0.60708898129E+02  0.10566000000E+00 0. -1.
         22    1    1    0    0    0  0.30398601044E+02 -0.86270925751E+00  0.34378480639E+01  0.30604542343E+02  0.00000000000E+00 0. -1.
</event>
<event>
 5    1  0.1758480E-003  0.9118800E+02  0.7818608E-02  0.1130116E+00
         25   -1    0    0    0    0  0.00000000000E+00  0.00000000000E+00  0.99999998245E-14  0.12500000000E+03  0.12500000000E+03 0.  0.
        -13    1    3    3    0    0  0.31279494031E+02 -0.11341119686E+02  0.20808288369E+02  0.39243136616E+02  0.10566000000E+00 0. -1.
         23    2    1    0    0    0  0.13671485787E+02  0.19183905124E+02 -0.20663164310E+02  0.93664746710E+02  0.88267698948E+02 0.  0.
         13    1    3    3    0    0 -0.17608008244E+02  0.30525024810E+02 -0.41471452678E+02  0.54421610094E+02  0.10566000000E+00 0.  1.
         22    1    1    0    0    0 -0.13671485787E+02 -0.19183905124E+02  0.20663164310E+02  0.31335253290E+02  0.00000000000E+00 0. -1.
</event>
<event>
 5    1  0.1758480E-003  0.9118800E+02  0.7818608E-02  0.1130116E+00
         25   -1    0    0    0    0  0.00000000000E+00  0.00000000000E+00  0.99999998245E-14  0.12500000000E+03  0.12500000000E+03 0.  0.
        -13    1    3    3    0    0 -0.18182144858E+02  0.59498189680E+02  0.44093122803E+01  0.62370491145E+02  0.10566000000E+00 0.  1.
         23    2    1    0    0    0 -0.56459986777E+01  0.28095544848E+02  0.16580888993E+01  0.96294840182E+02  0.91916864859E+02 0.  0.
         13    1    3    3    0    0  0.12536146180E+02 -0.31402644832E+02 -0.27512233809E+01  0.33924349038E+02  0.10566000000E+00 0. -1.
         22    1    1    0    0    0  0.56459986777E+01 -0.28095544848E+02 -0.16580888993E+01  0.28705159818E+02  0.00000000000E+00 0.  1.
</event>
<event>
 5    1  0.1758480E-003  0.9118800E+02  0.7818608E-02  0.1130116E+00
         25   -1    0    0    0    0  0.00000000000E+00  0.00000000000E+00  0.99999998245E-14  0.12500000000E+03  0.12500000000E+03 0.  0.
        -13    1    3    3    0    0 -0.29292948641E+02  0.32566967720E+01  0.53503418959E+02  0.61084449071E+02  0.10566000000E+00 0.  1.
         23    2    1    0    0    0 -0.19601806616E+02  0.68351347355E+01  0.19888920562E+02  0.96250755652E+02  0.91856893661E+02 0.  0.
         13    1    3    3    0    0  0.96911420258E+01  0.35784379636E+01 -0.33614498397E+02  0.35166306581E+02  0.10566000000E+00 0. -1.
         22    1    1    0    0    0  0.19601806616E+02 -0.68351347355E+01 -0.19888920562E+02  0.28749244348E+02  0.00000000000E+00 0.  1.
</event>
<event>
 5    1  0.1758480E-003  0.9118800E+02  0.7818608E-02  0.1130116E+00
         25   -1    0    0    0    0  0.00000000000E+00  0.00000000000E+00  0.99999998245E-14  0.12500000000E+03  0.12500000000E+03 0.  0.
        -13    1    3    3    0    0  0.33523047811E+02  0.29782019221E+01 -0.16469187231E+02  0.37468783184E+02  0.10566000000E+00 0. -1.
         23    2    1    0    0    0 -0.88650472308E+01 -0.25390510795E+02  0.11627042375E+02  0.95700593603E+02  0.91105150242E+02 0.  0.
         13    1    3    3    0    0 -0.42388095042E+02 -0.28368712717E+02  0.28096229606E+02  0.58231810418E+02  0.10566000000E+00 0.  1.
         22    1    1    0    0    0  0.88650472308E+01  0.25390510795E+02 -0.11627042375E+02  0.29299406397E+02  0.00000000000E+00 0.  1.
</event>
<event>
 5    1  0.1758480E-003  0.9118800E+02  0.7818608E-02  0.1130116E+00
         25   -1    0    0    0    0  0.00000000000E+00  0.00000000000E+00  0.99999998245E-14  0.12500000000E+03  0.12500000000E+03 0.  0.
        -13    1    3    3    0    0  0.28821935031E+02  0.64094726263E+01  0.44177259053E+02  0.53135926262E+02  0.10566000000E+00 0. -1.
         23    2    1    0    0    0 -0.92927461693E+01  0.27654077937E+01  0.29170569522E+02  0.94260371865E+02  0.89107199295E+02 0.  0.
         13    1    3    3    0    0 -0.38114681200E+02 -0.36440648326E+01 -0.15006689530E+02  0.41124445603E+02  0.10566000000E+00 0.  1.
         22    1    1    0    0    0  0.92927461693E+01 -0.27654077937E+01 -0.29170569522E+02  0.30739628135E+02  0.00000000000E+00 0. -1.
</event>
<event>
 5    1  0.1758480E-003  0.9118800E+02  0.7818608E-02  0.1130116E+00
         25   -1    0    0    0    0  0.00000000000E+00  0.00000000000E+00  0.99999998245E-14  0.12500000000E+03  0.12500000000E+03 0.  0.
        -13    1    3    3    0    0 -0.37324799026E+02 -0.31418921454E+02 -0.18077315071E+02  0.52029700479E+02  0.10566000000E+00 0. -1.
         23    2    1    0    0    0 -0.32762693403E+02 -0.36439841821E+02  0.46776473292E+01  0.75774635242E+02  0.57607801646E+02 0.  0.
         13    1    3    3    0    0  0.45621056225E+01 -0.50209203670E+01  0.22754962400E+02  0.23744934764E+02  0.10566000000E+00 0.  1.
         22    1    1    0    0    0  0.32762693403E+02  0.36439841821E+02 -0.46776473292E+01  0.49225364758E+02  0.00000000000E+00 0. -1.
</event>
<event>
 5    1  0.1758480E-003  0.9118800E+02  0.7818608E-02  0.1130116E+00
         25   -1    0    0    0    0  0.00000000000E+00  0.00000000000E+00  0.99999998245E-14  0.12500000000E+03  0.12500000000E+03 0.  0.
        -13    1    3    3    0    0 -0.47436768006E+02  0.62412012688E+01  0.13923379051E+02  0.49830424445E+02  0.10566000000E+00 0. -1.
         23    2    1    0    0    0 -0.77834713331E+01 -0.28030356448E+01  0.30236804310E+02  0.93651893682E+02  0.88249495299E+02 0.  0.
         13    1    3    3    0    0  0.39653296673E+02 -0.90442369136E+01  0.16313425259E+02  0.43821469237E+02  0.10566000000E+00 0.  1.
         22    1    1    0    0    0  0.77834713331E+01  0.28030356448E+01 -0.30236804310E+02  0.31348106318E+02  0.00000000000E+00 0. -1.
</event>
<event>
 5    1  0.1758480E-003  0.9118800E+02  0.7818608E-02  0.1130116E+00
         25   -1    0    0    0    0  0.00000000000E+00  0.00000000000E+00  0.99999998245E-14  0.12500000000E+03  0.12500000000E+03 0.  0.
        -13    1    3    3    0    0  0.48531623886E+02  0.30050225140E+01 -0.15632281017E+02  0.51075709013E+02  0.10566000000E+00 0.  1.
         23    2    1    0    0    0  0.77781269515E+01  0.16613262042E+02 -0.23942966457E+02  0.94837682826E+02  0.89913406712E+02 0.  0.
         13    1    3    3    0    0 -0.40753496935E+02  0.13608239528E+02 -0.83106854400E+01  0.43761973813E+02  0.10566000000E+00 0. -1.
         22    1    1    0    0    0 -0.77781269515E+01 -0.16613262042E+02  0.23942966457E+02  0.30162317174E+02  0.00000000000E+00 0. -1.
</event>
<event>
 5    1  0.1758480E-003  0.9118800E+02  0.7818608E-02  0.1130116E+00
         25   -1    0    0    0    0  0.00000000000E+00  0.00000000000E+00  0.99999998245E-14  0.12500000000E+03  0.12500000000E+03 0.  0.
        -13    1    3    3    0    0  0.39457518960E+02 -0.19829958609E+01  0.23379078853E+02  0.45906650576E+02  0.10566000000E+00 0. -1.
         23    2    1    0    0    0  0.20222123771E+02  0.13145920601E+02 -0.18629475065E+02  0.94523667224E+02  0.89475788938E+02 0.  0.
         13    1    3    3    0    0 -0.19235395189E+02  0.15128916462E+02 -0.42008553918E+02  0.48617016648E+02  0.10566000000E+00 0.  1.
         22    1    1    0    0    0 -0.20222123771E+02 -0.13145920601E+02  0.18629475065E+02  0.30476332776E+02  0.00000000000E+00 0. -1.
</event>
<event>
 5    1  0.1758480E-003  0.9118800E+02  0.7818608E-02  0.1130116E+00
         25   -1    0    0    0    0  0.00000000000E+00  0.00000000000E+00  0.99999998245E-14  0.12500000000E+03  0.12500000000E+03 0.  0.
        -13    1    3    3    0    0  0.25599265015E+00 -0.30155778844E+02 -0.33091663943E+02  0.44771708885E+02  0.10566000000E+00 0.  1.
         23    2    1    0    0    0  0.29979154583E+02 -0.10098918644E+01 -0.60867847202E+01  0.94392508445E+02  0.89292368717E+02 0.  0.
         13    1    3    3    0    0  0.29723161933E+02  0.29145886979E+02  0.27004879223E+02  0.49620799560E+02  0.10566000000E+00 0. -1.
         22    1    1    0    0    0 -0.29979154583E+02  0.10098918644E+01  0.60867847202E+01  0.30607491555E+02  0.00000000000E+00 0. -1.
</event>
<event>
 5    1  0.1758480E-003  0.9118800E+02  0.7818608E-02  0.1130116E+00
         25   -1    0    0    0    0  0.00000000000E+00  0.00000000000E+00  0.99999998245E-14  0.12500000000E+03  0.12500000000E+03 0.  0.
        -13    1    3    3    0    0  0.50484476718E+01  0.38970634203E+02  0.36005452276E+01  0.39461021832E+02  0.10566000000E+00 0. -1.
         23    2    1    0    0    0  0.21844658385E+02 -0.12359593637E+02 -0.13994538093E+02  0.96263337854E+02  0.91874014082E+02 0.  0.
         13    1    3    3    0    0  0.16796210713E+02 -0.51330227840E+02 -0.17595083321E+02  0.56802316022E+02  0.10566000000E+00 0.  1.
         22    1    1    0    0    0 -0.21844658385E+02  0.12359593637E+02  0.13994538093E+02  0.28736662146E+02  0.00000000000E+00 0.  1.
</event>
<event>
 5    1  0.1758480E-003  0.9118800E+02  0.7818608E-02  0.1130116E+00
         25   -1    0    0    0    0  0.00000000000E+00  0.00000000000E+00  0.99999998245E-14  0.12500000000E+03  0.12500000000E+03 0.  0.
        -13    1    3    3    0    0 -0.31959766993E+02 -0.18468637895E+02  0.18315750068E+02  0.41206736786E+02  0.10566000000E+00 0.  1.
         23    2    1    0    0    0 -0.30658133603E+01 -0.14507254716E+02 -0.26475003919E+02  0.94655552675E+02  0.89659847026E+02 0.  0.
         13    1    3    3    0    0  0.28893953633E+02  0.39613831782E+01 -0.44790753987E+02  0.53448815889E+02  0.10566000000E+00 0. -1.
         22    1    1    0    0    0  0.30658133603E+01  0.14507254716E+02  0.26475003919E+02  0.30344447325E+02  0.00000000000E+00 0.  1.
</event>
<event>
 5    1  0.1758480E-003  0.9118800E+02  0.7818608E-02  0.1130116E+00
         25   -1    0    0    0    0  0.00000000000E+00  0.00000000000E+00  0.99999998245E-14  0.12500000000E+03  0.12500000000E+03 0.  0.
        -13    1    3    3    0    0 -0.37135336390E+02  0.90654711009E+01 -0.20747159897E+02  0.43493353319E+02  0.10566000000E+00 0.  1.
         23    2    1    0    0    0  0.85816721765E+01 -0.14806486137E+02 -0.24399626794E+02  0.95196998192E+02  0.90411556496E+02 0.  0.
         13    1    3    3    0    0  0.45717008567E+02 -0.23871957238E+02 -0.36524668971E+01  0.51703644873E+02  0.10566000000E+00 0. -1.
         22    1    1    0    0    0 -0.85816721765E+01  0.14806486137E+02  0.24399626794E+02  0.29803001808E+02  0.00000000000E+00 0. -1.
</event>
<event>
 5    1  0.1758480E-003  0.9118800E+02  0.7818608E-02  0.1130116E+00
         25   -1    0    0    0    0  0.00000000000E+00  0.00000000000E+00  0.99999998245E-14  0.12500000000E+03  0.12500000000E+03 0.  0.
        -13    1    3    3    0    0  0.90911587279E+01 -0.37119321676E+02  0.27156785045E+02  0.46882783052E+02  0.10566000000E+00 0.  1.
         23    2    1    0    0    0 -0.23917016383E+02 -0.15834372957E+02 -0.26583331257E+01  0.96193442160E+02  0.91778867611E+02 0.  0.
         13    1    3    3    0    0 -0.33008175110E+02  0.21284948719E+02 -0.29815118170E+02  0.49310659108E+02  0.10566000000E+00 0. -1.
         22    1    1    0    0    0  0.23917016383E+02  0.15834372957E+02  0.26583331257E+01  0.28806557840E+02  0.00000000000E+00 0.  1.
</event>
<event>
 5    1  0.1758480E-003  0.9118800E+02  0.7818608E-02  0.1130116E+00
         25   -1    0    0    0    0  0.00000000000E+00  0.00000000000E+00  0.99999998245E-14  0.12500000000E+03  0.12500000000E+03 0.  0.
        -13    1    3    3    0    0 -0.13531221135E+02 -0.30021632755E+01 -0.47940756371E+02  0.49904250473E+02  0.10566000000E+00 0.  1.
         23    2    1    0    0    0 -0.27934620070E+02  0.15645956268E+02 -0.17144412049E+02  0.88680999319E+02  0.80902718308E+02 0.  0.
         13    1    3    3    0    0 -0.14403398934E+02  0.18648119544E+02  0.30796344323E+02  0.38776748846E+02  0.10566000000E+00 0. -1.
         22    1    1    0    0    0  0.27934620070E+02 -0.15645956268E+02  0.17144412049E+02  0.36319000681E+02  0.00000000000E+00 0.  1.
</event>
<event>
 5    1  0.1758480E-003  0.9118800E+02  0.7818608E-02  0.1130116E+00
         25   -1    0    0    0    0  0.00000000000E+00  0.00000000000E+00  0.99999998245E-14  0.12500000000E+03  0.12500000000E+03 0.  0.
        -13    1    3    3    0    0  0.13710741714E+02  0.28109738901E+02  0.14449918592E+02  0.34452186735E+02  0.10566000000E+00 0. -1.
         23    2    1    0    0    0 -0.19306294522E+02 -0.16390884491E+02 -0.13267530507E+02  0.96409416440E+02  0.92072548080E+02 0.  0.
         13    1    3    3    0    0 -0.33017036236E+02 -0.44500623392E+02 -0.27717449100E+02  0.61957229705E+02  0.10566000000E+00 0.  1.
         22    1    1    0    0    0  0.19306294522E+02  0.16390884491E+02  0.13267530507E+02  0.28590583560E+02  0.00000000000E+00 0.  1.
</event>
<event>
 5    1  0.1758480E-003  0.9118800E+02  0.7818608E-02  0.1130116E+00
         25   -1    0    0    0    0  0.00000000000E+00  0.00000000000E+00  0.99999998245E-14  0.12500000000E+03  0.12500000000E+03 0.  0.
        -13    1    3    3    0    0  0.15878378961E+02  0.16972943438E+02 -0.45247102858E+02  0.50867624364E+02  0.10566000000E+00 0.  1.
         23    2    1    0    0    0  0.40599520879E+01 -0.17204966018E+02 -0.30136748777E+02  0.90061229365E+02  0.83007875176E+02 0.  0.
         13    1    3    3    0    0 -0.11818426873E+02 -0.34177909456E+02  0.15110354081E+02  0.39193605001E+02  0.10566000000E+00 0. -1.
         22    1    1    0    0    0 -0.40599520879E+01  0.17204966018E+02  0.30136748777E+02  0.34938770635E+02  0.00000000000E+00 0. -1.
</event>
<event>
 5    1  0.1758480E-003  0.9118800E+02  0.7818608E-02  0.1130116E+00
         25   -1    0    0    0    0  0.00000000000E+00  0.00000000000E+00  0.99999998245E-14  0.12500000000E+03  0.12500000000E+03 0.  0.
        -13    1    3    3    0    0  0.43655464122E+02 -0.21837070790E+02 -0.30229875432E+02  0.57415274457E+02  0.10566000000E+00 0.  1.
         23    2    1    0    0    0  0.77294164783E+01 -0.95650130855E+01 -0.26774189407E+02  0.95536623194E+02  0.90879897659E+02 0.  0.
         13    1    3    3    0    0 -0.35926047643E+02  0.12272057704E+02  0.34556860250E+01  0.38121348737E+02  0.10566000000E+00 0. -1.
         22    1    1    0    0    0 -0.77294164783E+01  0.95650130855E+01  0.26774189407E+02  0.29463376806E+02  0.00000000000E+00 0.  1.
</event>
<event>
 5    1  0.1758480E-003  0.9118800E+02  0.7818608E-02  0.1130116E+00
         25   -1    0    0    0    0  0.00000000000E+00  0.00000000000E+00  0.99999998245E-14  0.12500000000E+03  0.12500000000E+03 0.  0.
        -13    1    3    3    0    0  0.11326135893E+02 -0.12728178605E+02  0.48888664026E+02  0.51772584629E+02  0.10566000000E+00 0. -1.
         23    2    1    0    0    0  0.24683396310E+02 -0.13418193635E+02  0.65803206958E+01  0.96144868839E+02  0.91712688380E+02 0.  0.
         13    1    3    3    0    0  0.13357260417E+02 -0.69001502984E+00 -0.42308343331E+02  0.44372284210E+02  0.10566000000E+00 0.  1.
         22    1    1    0    0    0 -0.24683396310E+02  0.13418193635E+02 -0.65803206958E+01  0.28855131161E+02  0.00000000000E+00 0. -1.
</event>
<event>
 5    1  0.1758480E-003  0.9118800E+02  0.7818608E-02  0.1130116E+00
         25   -1    0    0    0    0  0.00000000000E+00  0.00000000000E+00  0.99999998245E-14  0.12500000000E+03  0.12500000000E+03 0.  0.
        -13    1    3    3    0    0  0.26488765596E+02 -0.43375080345E+02  0.19320671946E+02  0.54372344314E+02  0.10566000000E+00 0.  1.
         23    2    1    0    0    0 -0.76446495228E+00 -0.15803224849E+02  0.26821870267E+02  0.93859366627E+02  0.88542880327E+02 0.  0.
         13    1    3    3    0    0 -0.27253230549E+02  0.27571855496E+02  0.75011983201E+01  0.39487022312E+02  0.10566000000E+00 0. -1.
         22    1    1    0    0    0  0.76446495228E+00  0.15803224849E+02 -0.26821870267E+02  0.31140633373E+02  0.00000000000E+00 0.  1.
</event>
<event>
 5    1  0.1758480E-003  0.9118800E+02  0.7818608E-02  0.1130116E+00
         25   -1    0    0    0    0  0.00000000000E+00  0.00000000000E+00  0.99999998245E-14  0.12500000000E+03  0.12500000000E+03 0.  0.
        -13    1    3    3    0    0 -0.20113479638E+02 -0.42270179398E+02 -0.31249262656E+02  0.56283636254E+02  0.10566000000E+00 0.  1.
         23    2    1    0    0    0  0.99446851925E+01 -0.23876597590E+02 -0.15130529081E+02  0.95034660250E+02  0.90186834197E+02 0.  0.
         13    1    3    3    0    0  0.30058164830E+02  0.18393581807E+02  0.16118733574E+02  0.38751023996E+02  0.10566000000E+00 0. -1.
         22    1    1    0    0    0 -0.99446851925E+01  0.23876597590E+02  0.15130529081E+02  0.29965339750E+02  0.00000000000E+00 0.  1.
</event>
<event>
 5    1  0.1758480E-003  0.9118800E+02  0.7818608E-02  0.1130116E+00
         25   -1    0    0    0    0  0.00000000000E+00  0.00000000000E+00  0.99999998245E-14  0.12500000000E+03  0.12500000000E+03 0.  0.
        -13    1    3    3    0    0 -0.46567616616E+02 -0.38204613031E+02 -0.12435725348E+02  0.61504421004E+02  0.10566000000E+00 0. -1.
         23    2    1    0    0    0 -0.20646313156E+02 -0.20413993563E+02  0.15716905994E+01  0.95923005804E+02  0.91409799535E+02 0.  0.
         13    1    3    3    0    0  0.25921303459E+02  0.17790619468E+02  0.14007415947E+02  0.34418584800E+02  0.10566000000E+00 0.  1.
         22    1    1    0    0    0  0.20646313156E+02  0.20413993563E+02 -0.15716905994E+01  0.29076994196E+02  0.00000000000E+00 0. -1.
</event>
<event>
 5    1  0.1758480E-003  0.9118800E+02  0.7818608E-02  0.1130116E+00
         25   -1    0    0    0    0  0.00000000000E+00  0.00000000000E+00  0.99999998245E-14  0.12500000000E+03  0.12500000000E+03 0.  0.
        -13    1    3    3    0    0 -0.12231666347E+02 -0.34076693773E+02  0.45459367421E+01  0.36489881132E+02  0.10566000000E+00 0. -1.
         23    2    1    0    0    0  0.23170119221E+02  0.11324849185E+02  0.15235301994E+02  0.95046351464E+02  0.90203036901E+02 0.  0.
         13    1    3    3    0    0  0.35401785567E+02  0.45401542958E+02  0.10689365252E+02  0.58556470333E+02  0.10566000000E+00 0.  1.
         22    1    1    0    0    0 -0.23170119221E+02 -0.11324849185E+02 -0.15235301994E+02  0.29953648536E+02  0.00000000000E+00 0.  1.
</event>
<event>
 4    1  0.1758480E-003  0.9118800E+02  0.7818608E-02  0.1130116E+00
         25   -1    0    0    0    0  0.00000000000E+00  0.00000000000E+00  0.99999998245E-14  0.12500000000E+03  0.12500000000E+03 0.  0.
        -13    1    1    0    0    0 -0.25372662041E+02  0.31458367142E+02  0.22247625577E+02  0.46134248126E+02  0.10566000000E+00 0.  1.
         13    1    1    0    0    0 -0.18125158751E+02  0.51132697030E+01 -0.56899201330E+01  0.19673669256E+02  0.10566000000E+00 0. -1.
         22    1    1    0    0    0  0.43497820793E+02 -0.36571636845E+02 -0.16557705444E+02  0.59192082619E+02  0.00000000000E+00 0.  1.
</event>
<event>
 5    1  0.1758480E-003  0.9118800E+02  0.7818608E-02  0.1130116E+00
         25   -1    0    0    0    0  0.00000000000E+00  0.00000000000E+00  0.99999998245E-14  0.12500000000E+03  0.12500000000E+03 0.  0.
        -13    1    3    3    0    0 -0.35159124694E+02  0.12873349309E+02  0.26382787369E+02  0.45803382027E+02  0.10566000000E+00 0. -1.
         23    2    1    0    0    0 -0.18325397633E+02  0.16448269396E+02 -0.18713419754E+02  0.94071730675E+02  0.88842178434E+02 0.  0.
         13    1    3    3    0    0  0.16833727061E+02  0.35749200861E+01 -0.45096207123E+02  0.48268348649E+02  0.10566000000E+00 0.  1.
         22    1    1    0    0    0  0.18325397633E+02 -0.16448269396E+02  0.18713419754E+02  0.30928269325E+02  0.00000000000E+00 0.  1.
</event>
<event>
 5    1  0.1758480E-003  0.9118800E+02  0.7818608E-02  0.1130116E+00
         25   -1    0    0    0    0  0.00000000000E+00  0.00000000000E+00  0.99999998245E-14  0.12500000000E+03  0.12500000000E+03 0.  0.
        -13    1    3    3    0    0 -0.35891673061E+02  0.10519100532E+02  0.47609194015E+01  0.37703331268E+02  0.10566000000E+00 0. -1.
         23    2    1    0    0    0  0.21137615379E+02  0.11003859798E+02 -0.13530666113E+02  0.97596302443E+02  0.93670035821E+02 0.  0.
         13    1    3    3    0    0  0.57029288440E+02  0.48475926618E+00 -0.18291585514E+02  0.59892971175E+02  0.10566000000E+00 0.  1.
         22    1    1    0    0    0 -0.21137615379E+02 -0.11003859798E+02  0.13530666113E+02  0.27403697557E+02  0.00000000000E+00 0.  1.
</event>
<event>
 5    1  0.1758480E-003  0.9118800E+02  0.7818608E-02  0.1130116E+00
         25   -1    0    0    0    0  0.00000000000E+00  0.00000000000E+00  0.99999998245E-14  0.12500000000E+03  0.12500000000E+03 0.  0.
        -13    1    3    3    0    0  0.14460564550E+02 -0.45314455559E+02 -0.91661648823E+01  0.48441072989E+02  0.10566000000E+00 0.  1.
         23    2    1    0    0    0  0.12592578461E+02 -0.40769935604E+00 -0.25737312503E+02  0.96344311107E+02  0.91984116981E+02 0.  0.
         13    1    3    3    0    0 -0.18679860892E+01  0.44906756203E+02 -0.16571147621E+02  0.47903238118E+02  0.10566000000E+00 0. -1.
         22    1    1    0    0    0 -0.12592578461E+02  0.40769935604E+00  0.25737312503E+02  0.28655688893E+02  0.00000000000E+00 0. -1.
</event>
<event>
 5    1  0.1758480E-003  0.9118800E+02  0.7818608E-02  0.1130116E+00
         25   -1    0    0    0    0  0.00000000000E+00  0.00000000000E+00  0.99999998245E-14  0.12500000000E+03  0.12500000000E+03 0.  0.
        -13    1    3    3    0    0  0.47142923442E+02 -0.19897834825E+02  0.44011347664E+01  0.51359129789E+02  0.10566000000E+00 0. -1.
         23    2    1    0    0    0  0.18070921667E+01 -0.27467733566E+02  0.24489959754E+01  0.97364161843E+02  0.93359736829E+02 0.  0.
         13    1    3    3    0    0 -0.45335831276E+02 -0.75698987411E+01 -0.19521387910E+01  0.46005032054E+02  0.10566000000E+00 0.  1.
         22    1    1    0    0    0 -0.18070921667E+01  0.27467733566E+02 -0.24489959754E+01  0.27635838157E+02  0.00000000000E+00 0. -1.
</event>
<event>
 5    1  0.1758480E-003  0.9118800E+02  0.7818608E-02  0.1130116E+00
         25   -1    0    0    0    0  0.00000000000E+00  0.00000000000E+00  0.99999998245E-14  0.12500000000E+03  0.12500000000E+03 0.  0.
        -13    1    3    3    0    0  0.26864578525E+02 -0.28655823984E+02 -0.20776803607E+02  0.44435892696E+02  0.10566000000E+00 0.  1.
         23    2    1    0    0    0  0.70019547975E+00 -0.24788314028E+02  0.20069776123E+02  0.93097857444E+02  0.87461216324E+02 0.  0.
         13    1    3    3    0    0 -0.26164383045E+02  0.38675099560E+01  0.40846579730E+02  0.48661964747E+02  0.10566000000E+00 0. -1.
         22    1    1    0    0    0 -0.70019547975E+00  0.24788314028E+02 -0.20069776123E+02  0.31902142556E+02  0.00000000000E+00 0.  1.
</event>
<event>
 5    1  0.1758480E-003  0.9118800E+02  0.7818608E-02  0.1130116E+00
         25   -1    0    0    0    0  0.00000000000E+00  0.00000000000E+00  0.99999998245E-14  0.12500000000E+03  0.12500000000E+03 0.  0.
        -13    1    3    3    0    0  0.28055530015E+00 -0.28456608967E+02 -0.21021539293E+02  0.35380412426E+02  0.10566000000E+00 0. -1.
         23    2    1    0    0    0 -0.18037036245E+02  0.22243039024E+02  0.60915758244E+01  0.95722111457E+02  0.91134668838E+02 0.  0.
         13    1    3    3    0    0 -0.18317591545E+02  0.50699647992E+02  0.27113115117E+02  0.60341699030E+02  0.10566000000E+00 0.  1.
         22    1    1    0    0    0  0.18037036245E+02 -0.22243039024E+02 -0.60915758244E+01  0.29277888543E+02  0.00000000000E+00 0.  1.
</event>
<event>
 5    1  0.1758480E-003  0.9118800E+02  0.7818608E-02  0.1130116E+00
         25   -1    0    0    0    0  0.00000000000E+00  0.00000000000E+00  0.99999998245E-14  0.12500000000E+03  0.12500000000E+03 0.  0.
        -13    1    3    3    0    0  0.91035693215E+00  0.35777745281E+02  0.65625384117E+01  0.36386177067E+02  0.10566000000E+00 0. -1.
         23    2    1    0    0    0 -0.75763252365E+01 -0.22124989339E+02  0.17333314994E+02  0.95890557099E+02  0.91365416185E+02 0.  0.
         13    1    3    3    0    0 -0.84866821686E+01 -0.57902734620E+02  0.10770776583E+02  0.59504380031E+02  0.10566000000E+00 0.  1.
         22    1    1    0    0    0  0.75763252365E+01  0.22124989339E+02 -0.17333314994E+02  0.29109442901E+02  0.00000000000E+00 0.  1.
</event>
<event>
 5    1  0.1758480E-003  0.9118800E+02  0.7818608E-02  0.1130116E+00
         25   -1    0    0    0    0  0.00000000000E+00  0.00000000000E+00  0.99999998245E-14  0.12500000000E+03  0.12500000000E+03 0.  0.
        -13    1    3    3    0    0 -0.53267845926E+02  0.23880487152E+02  0.36601934607E+01  0.58490591178E+02  0.10566000000E+00 0. -1.
         23    2    1    0    0    0 -0.26070341418E+02  0.40887325912E+01 -0.12491025109E+02  0.95804004656E+02  0.91246924135E+02 0.  0.
         13    1    3    3    0    0  0.27197504508E+02 -0.19791754561E+02 -0.16151218570E+02  0.37313413478E+02  0.10566000000E+00 0.  1.
         22    1    1    0    0    0  0.26070341418E+02 -0.40887325912E+01  0.12491025109E+02  0.29195995344E+02  0.00000000000E+00 0. -1.
</event>
<event>
 5    1  0.1758480E-003  0.9118800E+02  0.7818608E-02  0.1130116E+00
         25   -1    0    0    0    0  0.00000000000E+00  0.00000000000E+00  0.99999998245E-14  0.12500000000E+03  0.12500000000E+03 0.  0.
        -13    1    3    3    0    0  0.34516205642E+02 -0.19013624573E+02 -0.14107721886E+02  0.41856007361E+02  0.10566000000E+00 0. -1.
         23    2    1    0    0    0 -0.61909485484E+01 -0.19472438368E+02  0.21063085889E+02  0.95654518455E+02  0.91041911303E+02 0.  0.
         13    1    3    3    0    0 -0.40707154190E+02 -0.45881379495E+00  0.35170807776E+02  0.53798511095E+02  0.10566000000E+00 0.  1.
         22    1    1    0    0    0  0.61909485484E+01  0.19472438368E+02 -0.21063085889E+02  0.29345481545E+02  0.00000000000E+00 0.  1.
</event>
<event>
 5    1  0.1758480E-003  0.9118800E+02  0.7818608E-02  0.1130116E+00
         25   -1    0    0    0    0  0.00000000000E+00  0.00000000000E+00  0.99999998245E-14  0.12500000000E+03  0.12500000000E+03 0.  0.
        -13    1    3    3    0    0 -0.20237923855E+02 -0.42670727928E+01  0.30682919972E+02  0.37003164922E+02  0.10566000000E+00 0.  1.
         23    2    1    0    0    0  0.13709443802E+02 -0.31986797461E+02  0.54092177190E+00  0.90194875988E+02  0.83208887728E+02 0.  0.
         13    1    3    3    0    0  0.33947367657E+02 -0.27719724668E+02 -0.30141998201E+02  0.53191711065E+02  0.10566000000E+00 0. -1.
         22    1    1    0    0    0 -0.13709443802E+02  0.31986797461E+02 -0.54092177190E+00  0.34805124012E+02  0.00000000000E+00 0. -1.
</event>
<event>
 5    1  0.1758480E-003  0.9118800E+02  0.7818608E-02  0.1130116E+00
         25   -1    0    0    0    0  0.00000000000E+00  0.00000000000E+00  0.99999998245E-14  0.12500000000E+03  0.12500000000E+03 0.  0.
        -13    1    3    3    0    0 -0.25119269831E+02 -0.23633039031E+01  0.57051593595E+02  0.62381555110E+02  0.10566000000E+00 0. -1.
         23    2    1    0    0    0 -0.11316280063E+02 -0.37486158577E+01  0.27497306742E+02  0.95029811589E+02  0.90180113647E+02 0.  0.
         13    1    3    3    0    0  0.13802989768E+02 -0.13853119546E+01 -0.29554286853E+02  0.32648256480E+02  0.10566000000E+00 0.  1.
         22    1    1    0    0    0  0.11316280063E+02  0.37486158577E+01 -0.27497306742E+02  0.29970188411E+02  0.00000000000E+00 0. -1.
</event>
<event>
 5    1  0.1758480E-003  0.9118800E+02  0.7818608E-02  0.1130116E+00
         25   -1    0    0    0    0  0.00000000000E+00  0.00000000000E+00  0.99999998245E-14  0.12500000000E+03  0.12500000000E+03 0.  0.
        -13    1    3    3    0    0  0.19452728142E+02 -0.57637973806E+02 -0.15641831839E+01  0.60852300611E+02  0.10566000000E+00 0. -1.
         23    2    1    0    0    0  0.90571424564E+00 -0.30163599884E+02  0.43068608324E+01  0.94517019068E+02  0.89466500809E+02 0.  0.
         13    1    3    3    0    0 -0.18547013897E+02  0.27474373922E+02  0.58710440162E+01  0.33664718456E+02  0.10566000000E+00 0.  1.
         22    1    1    0    0    0 -0.90571424564E+00  0.30163599884E+02 -0.43068608324E+01  0.30482980932E+02  0.00000000000E+00 0. -1.
</event>
<event>
 5    1  0.1758480E-003  0.9118800E+02  0.7818608E-02  0.1130116E+00
         25   -1    0    0    0    0  0.00000000000E+00  0.00000000000E+00  0.99999998245E-14  0.12500000000E+03  0.12500000000E+03 0.  0.
        -13    1    3    3    0    0  0.11044293644E+02 -0.23195914638E+02  0.34579720262E+02  0.43078940277E+02  0.10566000000E+00 0.  1.
         23    2    1    0    0    0  0.16836573928E+02 -0.17061403720E+02 -0.17171843083E+02  0.95513835221E+02  0.90848548723E+02 0.  0.
         13    1    3    3    0    0  0.57922802839E+01  0.61345109175E+01 -0.51751563345E+02  0.52434894944E+02  0.10566000000E+00 0. -1.
         22    1    1    0    0    0 -0.16836573928E+02  0.17061403720E+02  0.17171843083E+02  0.29486164779E+02  0.00000000000E+00 0. -1.
</event>
<event>
 5    1  0.1758480E-003  0.9118800E+02  0.7818608E-02  0.1130116E+00
         25   -1    0    0    0    0  0.00000000000E+00  0.00000000000E+00  0.99999998245E-14  0.12500000000E+03  0.12500000000E+03 0.  0.
        -13    1    3    3    0    0  0.21289769905E+02 -0.36886240405E+02 -0.46733210018E+00  0.42592001563E+02  0.10566000000E+00 0. -1.
         23    2    1    0    0    0  0.18037937039E+02  0.15003743047E+02  0.15380757272E+02  0.96945638979E+02  0.92797681785E+02 0.  0.
         13    1    3    3    0    0 -0.32518328660E+01  0.51889983451E+02  0.15848089372E+02  0.54353637416E+02  0.10566000000E+00 0.  1.
         22    1    1    0    0    0 -0.18037937039E+02 -0.15003743047E+02 -0.15380757272E+02  0.28054361021E+02  0.00000000000E+00 0.  1.
</event>
<event>
 5    1  0.1758480E-003  0.9118800E+02  0.7818608E-02  0.1130116E+00
         25   -1    0    0    0    0  0.00000000000E+00  0.00000000000E+00  0.99999998245E-14  0.12500000000E+03  0.12500000000E+03 0.  0.
        -13    1    3    3    0    0  0.65009770325E+01  0.44443755878E+02 -0.53403668227E+01  0.45233182740E+02  0.10566000000E+00 0. -1.
         23    2    1    0    0    0  0.29592045588E+02  0.20277721134E+00 -0.15130365684E+00  0.95406872868E+02  0.90701258078E+02 0.  0.
         13    1    3    3    0    0  0.23091068555E+02 -0.44240978667E+02  0.51890631659E+01  0.50173690128E+02  0.10566000000E+00 0.  1.
         22    1    1    0    0    0 -0.29592045588E+02 -0.20277721134E+00  0.15130365684E+00  0.29593127132E+02  0.00000000000E+00 0. -1.
</event>
<event>
 5    1  0.1758480E-003  0.9118800E+02  0.7818608E-02  0.1130116E+00
         25   -1    0    0    0    0  0.00000000000E+00  0.00000000000E+00  0.99999998245E-14  0.12500000000E+03  0.12500000000E+03 0.  0.
        -13    1    3    3    0    0  0.29205563073E+02 -0.40399517030E+01 -0.21004412820E+02  0.36200589030E+02  0.10566000000E+00 0. -1.
         23    2    1    0    0    0 -0.27942767629E+02  0.46073677571E+01 -0.94644033153E+01  0.95140310943E+02  0.90333148599E+02 0.  0.
         13    1    3    3    0    0 -0.57148330702E+02  0.86473194601E+01  0.11540009505E+02  0.58939721914E+02  0.10566000000E+00 0.  1.
         22    1    1    0    0    0  0.27942767629E+02 -0.46073677571E+01  0.94644033153E+01  0.29859689057E+02  0.00000000000E+00 0.  1.
</event>
<event>
 5    1  0.1758480E-003  0.9118800E+02  0.7818608E-02  0.1130116E+00
         25   -1    0    0    0    0  0.00000000000E+00  0.00000000000E+00  0.99999998245E-14  0.12500000000E+03  0.12500000000E+03 0.  0.
        -13    1    3    3    0    0 -0.21835110993E+01 -0.39184779049E+02  0.98594349035E+01  0.40465222729E+02  0.10566000000E+00 0. -1.
         23    2    1    0    0    0  0.21906329766E+02  0.79472130080E+01  0.19918260806E+02  0.94344126306E+02  0.89224613065E+02 0.  0.
         13    1    3    3    0    0  0.24089840865E+02  0.47131992057E+02  0.10058825903E+02  0.53878903578E+02  0.10566000000E+00 0.  1.
         22    1    1    0    0    0 -0.21906329766E+02 -0.79472130080E+01 -0.19918260806E+02  0.30655873694E+02  0.00000000000E+00 0.  1.
</event>
<event>
 5    1  0.1758480E-003  0.9118800E+02  0.7818608E-02  0.1130116E+00
         25   -1    0    0    0    0  0.00000000000E+00  0.00000000000E+00  0.99999998245E-14  0.12500000000E+03  0.12500000000E+03 0.  0.
        -13    1    3    3    0    0 -0.16792992102E+01 -0.33883318886E+02  0.35554486235E+01  0.34110873978E+02  0.10566000000E+00 0. -1.
         23    2    1    0    0    0  0.15043181221E+02  0.25217708649E+02  0.23212752519E+01  0.95544636319E+02  0.90890918577E+02 0.  0.
         13    1    3    3    0    0  0.16722480431E+02  0.59101027535E+02 -0.12341733716E+01  0.61433762342E+02  0.10566000000E+00 0.  1.
         22    1    1    0    0    0 -0.15043181221E+02 -0.25217708649E+02 -0.23212752519E+01  0.29455363681E+02  0.00000000000E+00 0.  1.
</event>
<event>
 5    1  0.1758480E-003  0.9118800E+02  0.7818608E-02  0.1130116E+00
         25   -1    0    0    0    0  0.00000000000E+00  0.00000000000E+00  0.99999998245E-14  0.12500000000E+03  0.12500000000E+03 0.  0.
        -13    1    3    3    0    0  0.59812667548E+02 -0.52725761542E+01  0.34128897082E+01  0.60141618191E+02  0.10566000000E+00 0.  1.
         23    2    1    0    0    0  0.22144877880E+02  0.48668907067E+01 -0.82750799129E+01  0.10086373705E+03  0.97933315390E+02 0.  0.
         13    1    3    3    0    0 -0.37667789668E+02  0.10139466861E+02 -0.11687969621E+02  0.40722118862E+02  0.10566000000E+00 0. -1.
         22    1    1    0    0    0 -0.22144877880E+02 -0.48668907067E+01  0.82750799129E+01  0.24136262947E+02  0.00000000000E+00 0.  1.
</event>
<event>
 5    1  0.1758480E-003  0.9118800E+02  0.7818608E-02  0.1130116E+00
         25   -1    0    0    0    0  0.00000000000E+00  0.00000000000E+00  0.99999998245E-14  0.12500000000E+03  0.12500000000E+03 0.  0.
        -13    1    3    3    0    0 -0.31508079562E+02 -0.18779827371E+02  0.12447089798E+02  0.38734767358E+02  0.10566000000E+00 0.  1.
         23    2    1    0    0    0 -0.40533806682E+01  0.28946655663E+02 -0.21355448070E+01  0.95693015840E+02  0.91094752648E+02 0.  0.
         13    1    3    3    0    0  0.27454698894E+02  0.47726483034E+02 -0.14582634605E+02  0.56958248483E+02  0.10566000000E+00 0. -1.
         22    1    1    0    0    0  0.40533806682E+01 -0.28946655663E+02  0.21355448070E+01  0.29306984160E+02  0.00000000000E+00 0. -1.
</event>
<event>
 5    1  0.1758480E-003  0.9118800E+02  0.7818608E-02  0.1130116E+00
         25   -1    0    0    0    0  0.00000000000E+00  0.00000000000E+00  0.99999998245E-14  0.12500000000E+03  0.12500000000E+03 0.  0.
        -13    1    3    3    0    0 -0.13185272133E+02  0.20892460502E+02 -0.27252588711E+02  0.36783978341E+02  0.10566000000E+00 0. -1.
         23    2    1    0    0    0  0.79324289294E+01 -0.28262200592E+02 -0.30995954573E+01  0.95482498361E+02  0.90805421591E+02 0.  0.
         13    1    3    3    0    0  0.21117701062E+02 -0.49154661094E+02  0.24152993254E+02  0.58698520020E+02  0.10566000000E+00 0.  1.
         22    1    1    0    0    0 -0.79324289294E+01  0.28262200592E+02  0.30995954573E+01  0.29517501639E+02  0.00000000000E+00 0.  1.
</event>
<event>
 5    1  0.1758480E-003  0.9118800E+02  0.7818608E-02  0.1130116E+00
         25   -1    0    0    0    0  0.00000000000E+00  0.00000000000E+00  0.99999998245E-14  0.12500000000E+03  0.12500000000E+03 0.  0.
        -13    1    3    3    0    0  0.28153506003E+02  0.15213726998E+02 -0.14396190371E+02  0.35090438166E+02  0.10566000000E+00 0.  1.
         23    2    1    0    0    0 -0.67391789906E+01 -0.93498836431E+01  0.27679114634E+02  0.95017167503E+02  0.90162585787E+02 0.  0.
         13    1    3    3    0    0 -0.34892684993E+02 -0.24563610641E+02  0.42075305005E+02  0.59926729337E+02  0.10566000000E+00 0. -1.
         22    1    1    0    0    0  0.67391789906E+01  0.93498836431E+01 -0.27679114634E+02  0.29982832497E+02  0.00000000000E+00 0. -1.
</event>
<event>
 5    1  0.1758480E-003  0.9118800E+02  0.7818608E-02  0.1130116E+00
         25   -1    0    0    0    0  0.00000000000E+00  0.00000000000E+00  0.99999998245E-14  0.12500000000E+03  0.12500000000E+03 0.  0.
        -13    1    3    3    0    0  0.42641870874E+02 -0.15246553700E+02 -0.24872982118E+02  0.51666845799E+02  0.10566000000E+00 0. -1.
         23    2    1    0    0    0 -0.15732760903E+01 -0.86843750763E+01 -0.27177067472E+02  0.96425770973E+02  0.92094748728E+02 0.  0.
         13    1    3    3    0    0 -0.44215146964E+02  0.65621786237E+01 -0.23040853535E+01  0.44758925174E+02  0.10566000000E+00 0.  1.
         22    1    1    0    0    0  0.15732760903E+01  0.86843750763E+01  0.27177067472E+02  0.28574229027E+02  0.00000000000E+00 0. -1.
</event>
<event>
 5    1  0.1758480E-003  0.9118800E+02  0.7818608E-02  0.1130116E+00
         25   -1    0    0    0    0  0.00000000000E+00  0.00000000000E+00  0.99999998245E-14  0.12500000000E+03  0.12500000000E+03 0.  0.
        -13    1    3    3    0    0  0.26783211402E+02 -0.54696373441E+02  0.11062085808E+02  0.61898421523E+02  0.10566000000E+00 0. -1.
         23    2    1    0    0    0  0.16186706683E+02 -0.23994402610E+02  0.99394469217E+01  0.94397166226E+02  0.89298888888E+02 0.  0.
         13    1    3    3    0    0 -0.10596504719E+02  0.30701970831E+02 -0.11226388865E+01  0.32498744703E+02  0.10566000000E+00 0.  1.
         22    1    1    0    0    0 -0.16186706683E+02  0.23994402610E+02 -0.99394469217E+01  0.30602833774E+02  0.00000000000E+00 0. -1.
</event>
<event>
 5    1  0.1758480E-003  0.9118800E+02  0.7818608E-02  0.1130116E+00
         25   -1    0    0    0    0  0.00000000000E+00  0.00000000000E+00  0.99999998245E-14  0.12500000000E+03  0.12500000000E+03 0.  0.
        -13    1    3    3    0    0  0.61823019628E+01  0.16041653624E+02 -0.86770937205E+01  0.19257690101E+02  0.10566000000E+00 0.  1.
         23    2    1    0    0    0 -0.38625029493E+02 -0.11435541145E+02 -0.28737999138E+02  0.75517305055E+02  0.57046702479E+02 0.  0.
         13    1    3    3    0    0 -0.44807331456E+02 -0.27477194769E+02 -0.20060905417E+02  0.56259614954E+02  0.10566000000E+00 0. -1.
         22    1    1    0    0    0  0.38625029493E+02  0.11435541145E+02  0.28737999138E+02  0.49482694945E+02  0.00000000000E+00 0. -1.
</event>
<event>
 5    1  0.1758480E-003  0.9118800E+02  0.7818608E-02  0.1130116E+00
         25   -1    0    0    0    0  0.00000000000E+00  0.00000000000E+00  0.99999998245E-14  0.12500000000E+03  0.12500000000E+03 0.  0.
        -13    1    3    3    0    0  0.76270681947E+01 -0.61549683231E+02  0.35197956978E+01  0.62120333232E+02  0.10566000000E+00 0. -1.
         23    2    1    0    0    0  0.17792607085E+01 -0.28557174894E+02  0.61626193065E+01  0.95731315655E+02  0.91147292410E+02 0.  0.
         13    1    3    3    0    0 -0.58478074862E+01  0.32992508337E+02  0.26428236087E+01  0.33610982423E+02  0.10566000000E+00 0.  1.
         22    1    1    0    0    0 -0.17792607085E+01  0.28557174894E+02 -0.61626193065E+01  0.29268684345E+02  0.00000000000E+00 0. -1.
</event>
<event>
 5    1  0.1758480E-003  0.9118800E+02  0.7818608E-02  0.1130116E+00
         25   -1    0    0    0    0  0.00000000000E+00  0.00000000000E+00  0.99999998245E-14  0.12500000000E+03  0.12500000000E+03 0.  0.
        -13    1    3    3    0    0 -0.11740649546E+02 -0.31914429113E+02  0.20877113557E+02  0.39902865459E+02  0.10566000000E+00 0. -1.
         23    2    1    0    0    0 -0.54451847676E-01 -0.14393558430E+02 -0.28217069913E+02  0.93323817722E+02  0.87783565833E+02 0.  0.
         13    1    3    3    0    0  0.11686197698E+02  0.17520870683E+02 -0.49094183469E+02  0.53420952263E+02  0.10566000000E+00 0.  1.
         22    1    1    0    0    0  0.54451847676E-01  0.14393558430E+02  0.28217069913E+02  0.31676182278E+02  0.00000000000E+00 0.  1.
</event>
<event>
 5    1  0.1758480E-003  0.9118800E+02  0.7818608E-02  0.1130116E+00
         25   -1    0    0    0    0  0.00000000000E+00  0.00000000000E+00  0.99999998245E-14  0.12500000000E+03  0.12500000000E+03 0.  0.
        -13    1    3    3    0    0 -0.23045140313E+01  0.21003336177E+02 -0.40823000604E+02  0.45967156294E+02  0.10566000000E+00 0.  1.
         23    2    1    0    0    0 -0.43838861892E+01 -0.23061356407E+02 -0.16080678889E+02  0.96545951940E+02  0.92257725883E+02 0.  0.
         13    1    3    3    0    0 -0.20793721579E+01 -0.44064692584E+02  0.24742321715E+02  0.50578795646E+02  0.10566000000E+00 0. -1.
         22    1    1    0    0    0  0.43838861892E+01  0.23061356407E+02  0.16080678889E+02  0.28454048060E+02  0.00000000000E+00 0. -1.
</event>
<event>
 5    1  0.1758480E-003  0.9118800E+02  0.7818608E-02  0.1130116E+00
         25   -1    0    0    0    0  0.00000000000E+00  0.00000000000E+00  0.99999998245E-14  0.12500000000E+03  0.12500000000E+03 0.  0.
        -13    1    3    3    0    0  0.27017263066E+02  0.29991429617E+02  0.31585951580E+02  0.51255261733E+02  0.10566000000E+00 0. -1.
         23    2    1    0    0    0 -0.53080984484E+01 -0.63380196918E+00  0.28622121425E+02  0.95882935434E+02  0.91354988142E+02 0.  0.
         13    1    3    3    0    0 -0.32325361514E+02 -0.30625231587E+02 -0.29638301544E+01  0.44627673701E+02  0.10566000000E+00 0.  1.
         22    1    1    0    0    0  0.53080984484E+01  0.63380196918E+00 -0.28622121425E+02  0.29117064566E+02  0.00000000000E+00 0. -1.
</event>
<event>
 5    1  0.1758480E-003  0.9118800E+02  0.7818608E-02  0.1130116E+00
         25   -1    0    0    0    0  0.00000000000E+00  0.00000000000E+00  0.99999998245E-14  0.12500000000E+03  0.12500000000E+03 0.  0.
        -13    1    3    3    0    0  0.20278192674E+01 -0.62929411496E+01  0.49131023361E+02  0.49574003064E+02  0.10566000000E+00 0. -1.
         23    2    1    0    0    0  0.26905817554E+02 -0.85990616767E+01  0.12041698245E+02  0.94293821850E+02  0.89154110744E+02 0.  0.
         13    1    3    3    0    0  0.24877998286E+02 -0.23061205271E+01 -0.37089325116E+02  0.44719818786E+02  0.10566000000E+00 0.  1.
         22    1    1    0    0    0 -0.26905817554E+02  0.85990616767E+01 -0.12041698245E+02  0.30706178150E+02  0.00000000000E+00 0. -1.
</event>
<event>
 5    1  0.1758480E-003  0.9118800E+02  0.7818608E-02  0.1130116E+00
         25   -1    0    0    0    0  0.00000000000E+00  0.00000000000E+00  0.99999998245E-14  0.12500000000E+03  0.12500000000E+03 0.  0.
        -13    1    3    3    0    0 -0.95604649018E+01  0.33307681959E+02  0.16380065631E+02  0.38329125749E+02  0.10566000000E+00 0. -1.
         23    2    1    0    0    0  0.32047957832E+02  0.38480090682E+00  0.60499149426E+01  0.92383728850E+02  0.86434554505E+02 0.  0.
         13    1    3    3    0    0  0.41608422734E+02 -0.32922881052E+02 -0.10330150688E+02  0.54054603101E+02  0.10566000000E+00 0.  1.
         22    1    1    0    0    0 -0.32047957832E+02 -0.38480090682E+00 -0.60499149426E+01  0.32616271150E+02  0.00000000000E+00 0.  1.
</event>
<event>
 5    1  0.1758480E-003  0.9118800E+02  0.7818608E-02  0.1130116E+00
         25   -1    0    0    0    0  0.00000000000E+00  0.00000000000E+00  0.99999998245E-14  0.12500000000E+03  0.12500000000E+03 0.  0.
        -13    1    3    3    0    0  0.13146973272E+02  0.32063067553E+02  0.14610750450E+02  0.37608089554E+02  0.10566000000E+00 0. -1.
         23    2    1    0    0    0 -0.29766460126E+02  0.74655338045E+00  0.16862231157E+02  0.90781082279E+02  0.84084900962E+02 0.  0.
         13    1    3    3    0    0 -0.42913433398E+02 -0.31316514173E+02  0.22514807075E+01  0.53172992725E+02  0.10566000000E+00 0.  1.
         22    1    1    0    0    0  0.29766460126E+02 -0.74655338045E+00 -0.16862231157E+02  0.34218917721E+02  0.00000000000E+00 0.  1.
</event>
<event>
 4    1  0.1758480E-003  0.9118800E+02  0.7818608E-02  0.1130116E+00
         25   -1    0    0    0    0  0.00000000000E+00  0.00000000000E+00  0.99999998245E-14  0.12500000000E+03  0.12500000000E+03 0.  0.
        -13    1    1    0    0    0  0.60354187922E+01  0.22762711338E+02  0.84272355617E+00  0.23564563533E+02  0.10566000000E+00 0.  1.
         13    1    1    0    0    0  0.42396739276E+02  0.81283635687E+01  0.60011317965E+01  0.43584154717E+02  0.10566000000E+00 0. -1.
         22    1    1    0    0    0 -0.48432158068E+02 -0.30891074907E+02 -0.68438553526E+01  0.57851281750E+02  0.00000000000E+00 0. -1.
</event>
<event>
 5    1  0.1758480E-003  0.9118800E+02  0.7818608E-02  0.1130116E+00
         25   -1    0    0    0    0  0.00000000000E+00  0.00000000000E+00  0.99999998245E-14  0.12500000000E+03  0.12500000000E+03 0.  0.
        -13    1    3    3    0    0 -0.17743692956E+02 -0.50737584798E+02  0.10794683285E+01  0.53761673773E+02  0.10566000000E+00 0. -1.
         23    2    1    0    0    0 -0.23010602028E+02 -0.10849215247E+02  0.13926372838E+02  0.95997635655E+02  0.91511796583E+02 0.  0.
         13    1    3    3    0    0 -0.52669090714E+01  0.39888369552E+02  0.12846904510E+02  0.42235961883E+02  0.10566000000E+00 0.  1.
         22    1    1    0    0    0  0.23010602028E+02  0.10849215247E+02 -0.13926372838E+02  0.29002364345E+02  0.00000000000E+00 0. -1.
</event>
<event>
 5    1  0.1758480E-003  0.9118800E+02  0.7818608E-02  0.1130116E+00
         25   -1    0    0    0    0  0.00000000000E+00  0.00000000000E+00  0.99999998245E-14  0.12500000000E+03  0.12500000000E+03 0.  0.
        -13    1    3    3    0    0 -0.35908855635E+02  0.24455748073E+02  0.10948576881E+02  0.44804151890E+02  0.10566000000E+00 0.  1.
         23    2    1    0    0    0 -0.15106828787E+02 -0.22669867875E+02  0.88377131240E+01  0.96360091502E+02  0.92005558939E+02 0.  0.
         13    1    3    3    0    0  0.20802026848E+02 -0.47125615948E+02 -0.21108637571E+01  0.51555939612E+02  0.10566000000E+00 0. -1.
         22    1    1    0    0    0  0.15106828787E+02  0.22669867875E+02 -0.88377131240E+01  0.28639908498E+02  0.00000000000E+00 0. -1.
</event>
<event>
 5    1  0.1758480E-003  0.9118800E+02  0.7818608E-02  0.1130116E+00
         25   -1    0    0    0    0  0.00000000000E+00  0.00000000000E+00  0.99999998245E-14  0.12500000000E+03  0.12500000000E+03 0.  0.
        -13    1    3    3    0    0 -0.33332754010E+01 -0.48914208736E+01 -0.38602449925E+02  0.39053770974E+02  0.10566000000E+00 0.  1.
         23    2    1    0    0    0  0.24932691460E+02 -0.11828765116E+02  0.99525921929E+01  0.95663795764E+02  0.91054648103E+02 0.  0.
         13    1    3    3    0    0  0.28265966861E+02 -0.69373442428E+01  0.48555042118E+02  0.56610024790E+02  0.10566000000E+00 0. -1.
         22    1    1    0    0    0 -0.24932691460E+02  0.11828765116E+02 -0.99525921929E+01  0.29336204236E+02  0.00000000000E+00 0. -1.
</event>
<event>
 5    1  0.1758480E-003  0.9118800E+02  0.7818608E-02  0.1130116E+00
         25   -1    0    0    0    0  0.00000000000E+00  0.00000000000E+00  0.99999998245E-14  0.12500000000E+03  0.12500000000E+03 0.  0.
        -13    1    3    3    0    0  0.31074923371E+02  0.68878431827E+01 -0.14846204465E+02  0.35121420775E+02  0.10566000000E+00 0.  1.
         23    2    1    0    0    0 -0.18321288880E+02 -0.31068298834E+01  0.20993863282E+02  0.96963161490E+02  0.92821281894E+02 0.  0.
         13    1    3    3    0    0 -0.49396212251E+02 -0.99946730661E+01  0.35840067747E+02  0.61841740714E+02  0.10566000000E+00 0. -1.
         22    1    1    0    0    0  0.18321288880E+02  0.31068298834E+01 -0.20993863282E+02  0.28036838510E+02  0.00000000000E+00 0. -1.
</event>
<event>
 5    1  0.1758480E-003  0.9118800E+02  0.7818608E-02  0.1130116E+00
         25   -1    0    0    0    0  0.00000000000E+00  0.00000000000E+00  0.99999998245E-14  0.12500000000E+03  0.12500000000E+03 0.  0.
        -13    1    3    3    0    0 -0.13560006433E+02  0.52341472285E+01  0.36105199647E+02  0.38921288228E+02  0.10566000000E+00 0.  1.
         23    2    1    0    0    0  0.99732350106E+01 -0.29033747953E+02 -0.47886788101E+00  0.94297341301E+02  0.89159045111E+02 0.  0.
         13    1    3    3    0    0  0.23533241444E+02 -0.34267895181E+02 -0.36584067528E+02  0.55376053073E+02  0.10566000000E+00 0. -1.
         22    1    1    0    0    0 -0.99732350106E+01  0.29033747953E+02  0.47886788101E+00  0.30702658699E+02  0.00000000000E+00 0. -1.
</event>
<event>
 5    1  0.1758480E-003  0.9118800E+02  0.7818608E-02  0.1130116E+00
         25   -1    0    0    0    0  0.00000000000E+00  0.00000000000E+00  0.99999998245E-14  0.12500000000E+03  0.12500000000E+03 0.  0.
        -13    1    3    3    0    0  0.20417983809E+02  0.21577815233E+02 -0.22376917698E+02  0.37191851026E+02  0.10566000000E+00 0.  1.
         23    2    1    0    0    0 -0.23418051675E+01 -0.28297464537E+02  0.51207756282E+00  0.96601183580E+02  0.92332528910E+02 0.  0.
         13    1    3    3    0    0 -0.22759788977E+02 -0.49875279770E+02  0.22888995261E+02  0.59409332553E+02  0.10566000000E+00 0. -1.
         22    1    1    0    0    0  0.23418051675E+01  0.28297464537E+02 -0.51207756282E+00  0.28398816420E+02  0.00000000000E+00 0. -1.
</event>
<event>
 5    1  0.1758480E-003  0.9118800E+02  0.7818608E-02  0.1130116E+00
         25   -1    0    0    0    0  0.00000000000E+00  0.00000000000E+00  0.99999998245E-14  0.12500000000E+03  0.12500000000E+03 0.  0.
        -13    1    3    3    0    0  0.13320737453E+02  0.50944677808E+01  0.38714910396E+02  0.41258345814E+02  0.10566000000E+00 0.  1.
         23    2    1    0    0    0  0.25551156107E+02 -0.42318530857E+01 -0.13571678643E+02  0.95760290355E+02  0.91187019848E+02 0.  0.
         13    1    3    3    0    0  0.12230418654E+02 -0.93263208665E+01 -0.52286589039E+02  0.54501944541E+02  0.10566000000E+00 0. -1.
         22    1    1    0    0    0 -0.25551156107E+02  0.42318530857E+01  0.13571678643E+02  0.29239709645E+02  0.00000000000E+00 0. -1.
</event>
<event>
 5    1  0.1758480E-003  0.9118800E+02  0.7818608E-02  0.1130116E+00
         25   -1    0    0    0    0  0.00000000000E+00  0.00000000000E+00  0.99999998245E-14  0.12500000000E+03  0.12500000000E+03 0.  0.
        -13    1    3    3    0    0 -0.18899098622E+02 -0.32164091922E+02  0.11104699945E+02  0.38923389662E+02  0.10566000000E+00 0. -1.
         23    2    1    0    0    0 -0.79826723914E+01  0.79691507865E+01 -0.27254688511E+02  0.95503415984E+02  0.90834211595E+02 0.  0.
         13    1    3    3    0    0  0.10916426231E+02  0.40133242708E+02 -0.38359388456E+02  0.56580026322E+02  0.10566000000E+00 0.  1.
         22    1    1    0    0    0  0.79826723914E+01 -0.79691507865E+01  0.27254688511E+02  0.29496584016E+02  0.00000000000E+00 0.  1.
</event>
<event>
 5    1  0.1758480E-003  0.9118800E+02  0.7818608E-02  0.1130116E+00
         25   -1    0    0    0    0  0.00000000000E+00  0.00000000000E+00  0.99999998245E-14  0.12500000000E+03  0.12500000000E+03 0.  0.
        -13    1    3    3    0    0  0.10683199608E+02  0.25397156368E+02  0.39681598834E+02  0.48309282291E+02  0.10566000000E+00 0. -1.
         23    2    1    0    0    0  0.28052598507E+02 -0.56430479757E+01  0.98343941431E+01  0.94742644174E+02  0.89781184239E+02 0.  0.
         13    1    3    3    0    0  0.17369398899E+02 -0.31040204343E+02 -0.29847204691E+02  0.46433361882E+02  0.10566000000E+00 0.  1.
         22    1    1    0    0    0 -0.28052598507E+02  0.56430479757E+01 -0.98343941431E+01  0.30257355826E+02  0.00000000000E+00 0. -1.
</event>
<event>
 5    1  0.1758480E-003  0.9118800E+02  0.7818608E-02  0.1130116E+00
         25   -1    0    0    0    0  0.00000000000E+00  0.00000000000E+00  0.99999998245E-14  0.12500000000E+03  0.12500000000E+03 0.  0.
        -13    1    3    3    0    0 -0.31307265242E+02 -0.32232202139E+01  0.49690421670E+02  0.58819071527E+02  0.10566000000E+00 0.  1.
         23    2    1    0    0    0 -0.20777702166E+02  0.10790671879E+02  0.16489369246E+02  0.96363470793E+02  0.92010149974E+02 0.  0.
         13    1    3    3    0    0  0.10529563076E+02  0.14013892093E+02 -0.33201052424E+02  0.37544399266E+02  0.10566000000E+00 0. -1.
         22    1    1    0    0    0  0.20777702166E+02 -0.10790671879E+02 -0.16489369246E+02  0.28636529207E+02  0.00000000000E+00 0.  1.
</event>
<event>
 5    1  0.1758480E-003  0.9118800E+02  0.7818608E-02  0.1130116E+00
         25   -1    0    0    0    0  0.00000000000E+00  0.00000000000E+00  0.99999998245E-14  0.12500000000E+03  0.12500000000E+03 0.  0.
        -13    1    3    3    0    0  0.43843438008E+02 -0.24350902988E+02 -0.26140488518E+02  0.56555723289E+02  0.10566000000E+00 0.  1.
         23    2    1    0    0    0  0.21091673523E+02 -0.20191228292E+02  0.50314814711E+01  0.95371294362E+02  0.90652212276E+02 0.  0.
         13    1    3    3    0    0 -0.22751764484E+02  0.41596746961E+01  0.31171969990E+02  0.38815571074E+02  0.10566000000E+00 0. -1.
         22    1    1    0    0    0 -0.21091673523E+02  0.20191228292E+02 -0.50314814711E+01  0.29628705638E+02  0.00000000000E+00 0. -1.
</event>
<event>
 5    1  0.1758480E-003  0.9118800E+02  0.7818608E-02  0.1130116E+00
         25   -1    0    0    0    0  0.00000000000E+00  0.00000000000E+00  0.99999998245E-14  0.12500000000E+03  0.12500000000E+03 0.  0.
        -13    1    3    3    0    0 -0.11816082299E+02 -0.31127434718E+01 -0.59432293493E+02  0.60675511095E+02  0.10566000000E+00 0. -1.
         23    2    1    0    0    0  0.44492613289E+01  0.21334914757E+01 -0.29041083555E+02  0.95542704701E+02  0.90888262033E+02 0.  0.
         13    1    3    3    0    0  0.16265343628E+02  0.52462349476E+01  0.30391209937E+02  0.34867193606E+02  0.10566000000E+00 0.  1.
         22    1    1    0    0    0 -0.44492613289E+01 -0.21334914757E+01  0.29041083555E+02  0.29457295299E+02  0.00000000000E+00 0. -1.
</event>
<event>
 5    1  0.1758480E-003  0.9118800E+02  0.7818608E-02  0.1130116E+00
         25   -1    0    0    0    0  0.00000000000E+00  0.00000000000E+00  0.99999998245E-14  0.12500000000E+03  0.12500000000E+03 0.  0.
        -13    1    3    3    0    0 -0.12778680603E+02  0.47559542242E+02 -0.28322248102E+02  0.56809907919E+02  0.10566000000E+00 0. -1.
         23    2    1    0    0    0  0.13032456409E+02  0.22109907909E+02 -0.13814190816E+02  0.95853391009E+02  0.91314553890E+02 0.  0.
         13    1    3    3    0    0  0.25811137012E+02 -0.25449634333E+02  0.14508057286E+02  0.39043483089E+02  0.10566000000E+00 0.  1.
         22    1    1    0    0    0 -0.13032456409E+02 -0.22109907909E+02  0.13814190816E+02  0.29146608991E+02  0.00000000000E+00 0. -1.
</event>
<event>
 5    1  0.1758480E-003  0.9118800E+02  0.7818608E-02  0.1130116E+00
         25   -1    0    0    0    0  0.00000000000E+00  0.00000000000E+00  0.99999998245E-14  0.12500000000E+03  0.12500000000E+03 0.  0.
        -13    1    3    3    0    0  0.30175734961E+02 -0.22675210806E+02  0.27337188968E+02  0.46605506437E+02  0.10566000000E+00 0. -1.
         23    2    1    0    0    0  0.19475071513E+02  0.20654857336E+02  0.14905124188E+02  0.92936558683E+02  0.87230382728E+02 0.  0.
         13    1    3    3    0    0 -0.10700663449E+02  0.43330068143E+02 -0.12432064780E+02  0.46331052246E+02  0.10566000000E+00 0.  1.
         22    1    1    0    0    0 -0.19475071513E+02 -0.20654857336E+02 -0.14905124188E+02  0.32063441317E+02  0.00000000000E+00 0. -1.
</event>
<event>
 5    1  0.1758480E-003  0.9118800E+02  0.7818608E-02  0.1130116E+00
         25   -1    0    0    0    0  0.00000000000E+00  0.00000000000E+00  0.99999998245E-14  0.12500000000E+03  0.12500000000E+03 0.  0.
        -13    1    3    3    0    0 -0.23933478564E+02  0.23786108355E+02 -0.22717440375E+02  0.40677802399E+02  0.10566000000E+00 0. -1.
         23    2    1    0    0    0  0.26066261936E+02  0.47453860549E+01 -0.14467042643E+02  0.94812850035E+02  0.89878876878E+02 0.  0.
         13    1    3    3    0    0  0.49999740500E+02 -0.19040722300E+02  0.82503977314E+01  0.54135047636E+02  0.10566000000E+00 0.  1.
         22    1    1    0    0    0 -0.26066261936E+02 -0.47453860549E+01  0.14467042643E+02  0.30187149965E+02  0.00000000000E+00 0.  1.
</event>
<event>
 5    1  0.1758480E-003  0.9118800E+02  0.7818608E-02  0.1130116E+00
         25   -1    0    0    0    0  0.00000000000E+00  0.00000000000E+00  0.99999998245E-14  0.12500000000E+03  0.12500000000E+03 0.  0.
        -13    1    3    3    0    0  0.37015585188E+02  0.13329685080E+02  0.57439901318E+01  0.39759761541E+02  0.10566000000E+00 0.  1.
         23    2    1    0    0    0  0.42561654904E+01 -0.29801919250E+02  0.75913575209E+01  0.93953292531E+02  0.88675380647E+02 0.  0.
         13    1    3    3    0    0 -0.32759419697E+02 -0.43131604329E+02  0.18473673890E+01  0.54193530991E+02  0.10566000000E+00 0. -1.
         22    1    1    0    0    0 -0.42561654904E+01  0.29801919250E+02 -0.75913575209E+01  0.31046707469E+02  0.00000000000E+00 0. -1.
</event>
<event>
 5    1  0.1758480E-003  0.9118800E+02  0.7818608E-02  0.1130116E+00
         25   -1    0    0    0    0  0.00000000000E+00  0.00000000000E+00  0.99999998245E-14  0.12500000000E+03  0.12500000000E+03 0.  0.
        -13    1    3    3    0    0  0.25040107980E+02 -0.58288726753E+01 -0.27845705631E+02  0.37899567945E+02  0.10566000000E+00 0. -1.
         23    2    1    0    0    0  0.46756549159E+01 -0.17786410480E+02  0.23937477297E+02  0.94813563211E+02  0.89879868729E+02 0.  0.
         13    1    3    3    0    0 -0.20364453064E+02 -0.11957537805E+02  0.51783182928E+02  0.56913995266E+02  0.10566000000E+00 0.  1.
         22    1    1    0    0    0 -0.46756549159E+01  0.17786410480E+02 -0.23937477297E+02  0.30186436789E+02  0.00000000000E+00 0.  1.
</event>
<event>
 5    1  0.1758480E-003  0.9118800E+02  0.7818608E-02  0.1130116E+00
         25   -1    0    0    0    0  0.00000000000E+00  0.00000000000E+00  0.99999998245E-14  0.12500000000E+03  0.12500000000E+03 0.  0.
        -13    1    3    3    0    0  0.75350872206E+01  0.30277012558E+02  0.22635784385E+02  0.38546918523E+02  0.10566000000E+00 0. -1.
         23    2    1    0    0    0  0.21216542836E+02 -0.20841453704E+02  0.25433783056E+01  0.95150767923E+02  0.90347617460E+02 0.  0.
         13    1    3    3    0    0  0.13681455616E+02 -0.51118466262E+02 -0.20092406079E+02  0.56603849399E+02  0.10566000000E+00 0.  1.
         22    1    1    0    0    0 -0.21216542836E+02  0.20841453704E+02 -0.25433783056E+01  0.29849232077E+02  0.00000000000E+00 0.  1.
</event>
<event>
 5    1  0.1758480E-003  0.9118800E+02  0.7818608E-02  0.1130116E+00
         25   -1    0    0    0    0  0.00000000000E+00  0.00000000000E+00  0.99999998245E-14  0.12500000000E+03  0.12500000000E+03 0.  0.
        -13    1    3    3    0    0  0.31521534637E+02 -0.93225176460E+01 -0.38434972040E+01  0.33095318640E+02  0.10566000000E+00 0. -1.
         23    2    1    0    0    0 -0.27170047050E+02  0.10527819254E+02 -0.66346980690E+01  0.95115795922E+02  0.90299219157E+02 0.  0.
         13    1    3    3    0    0 -0.58691581686E+02  0.19850336900E+02 -0.27912008650E+01  0.62020477281E+02  0.10566000000E+00 0.  1.
         22    1    1    0    0    0  0.27170047050E+02 -0.10527819254E+02  0.66346980690E+01  0.29884204078E+02  0.00000000000E+00 0.  1.
</event>
<event>
 5    1  0.1758480E-003  0.9118800E+02  0.7818608E-02  0.1130116E+00
         25   -1    0    0    0    0  0.00000000000E+00  0.00000000000E+00  0.99999998245E-14  0.12500000000E+03  0.12500000000E+03 0.  0.
        -13    1    3    3    0    0 -0.44342524311E+02 -0.22418328008E+02 -0.25663333611E+02  0.55923686833E+02  0.10566000000E+00 0.  1.
         23    2    1    0    0    0 -0.18537738439E+02  0.81436575803E+01 -0.20382590908E+02  0.96269930085E+02  0.91882982761E+02 0.  0.
         13    1    3    3    0    0  0.25804785872E+02  0.30561985588E+02  0.52807427032E+01  0.40346243251E+02  0.10566000000E+00 0. -1.
         22    1    1    0    0    0  0.18537738439E+02 -0.81436575803E+01  0.20382590908E+02  0.28730069915E+02  0.00000000000E+00 0. -1.
</event>
<event>
 5    1  0.1758480E-003  0.9118800E+02  0.7818608E-02  0.1130116E+00
         25   -1    0    0    0    0  0.00000000000E+00  0.00000000000E+00  0.99999998245E-14  0.12500000000E+03  0.12500000000E+03 0.  0.
        -13    1    3    3    0    0  0.83892256425E+01 -0.48222128462E+02 -0.38155125622E+02  0.62061079233E+02  0.10566000000E+00 0.  1.
         23    2    1    0    0    0  0.63482745332E+01 -0.24989962519E+02 -0.13905536336E+02  0.95705584883E+02  0.91111998226E+02 0.  0.
         13    1    3    3    0    0 -0.20409511092E+01  0.23232165943E+02  0.24249589286E+02  0.33644505650E+02  0.10566000000E+00 0. -1.
         22    1    1    0    0    0 -0.63482745332E+01  0.24989962519E+02  0.13905536336E+02  0.29294415117E+02  0.00000000000E+00 0.  1.
</event>
<event>
 5    1  0.1758480E-003  0.9118800E+02  0.7818608E-02  0.1130116E+00
         25   -1    0    0    0    0  0.00000000000E+00  0.00000000000E+00  0.99999998245E-14  0.12500000000E+03  0.12500000000E+03 0.  0.
        -13    1    3    3    0    0  0.53879098940E+01  0.31137670499E+02  0.43369035020E+02  0.53660678897E+02  0.10566000000E+00 0. -1.
         23    2    1    0    0    0  0.19695541031E+02  0.20956681505E+02  0.50651450570E+01  0.95798073169E+02  0.91238798174E+02 0.  0.
         13    1    3    3    0    0  0.14307631137E+02 -0.10180988994E+02 -0.38303889963E+02  0.42137394272E+02  0.10566000000E+00 0.  1.
         22    1    1    0    0    0 -0.19695541031E+02 -0.20956681505E+02 -0.50651450570E+01  0.29201926831E+02  0.00000000000E+00 0.  1.
</event>
<event>
 5    1  0.1758480E-003  0.9118800E+02  0.7818608E-02  0.1130116E+00
         25   -1    0    0    0    0  0.00000000000E+00  0.00000000000E+00  0.99999998245E-14  0.12500000000E+03  0.12500000000E+03 0.  0.
        -13    1    3    3    0    0 -0.25869265521E+02  0.26784861905E+01  0.20302241577E+02  0.32993717037E+02  0.10566000000E+00 0. -1.
         23    2    1    0    0    0  0.30055177282E+02 -0.25716042573E+01 -0.46888591160E+01  0.94472762495E+02  0.89404645426E+02 0.  0.
         13    1    3    3    0    0  0.55924442803E+02 -0.52500904478E+01 -0.24991100693E+02  0.61479045457E+02  0.10566000000E+00 0.  1.
         22    1    1    0    0    0 -0.30055177282E+02  0.25716042573E+01  0.46888591160E+01  0.30527237505E+02  0.00000000000E+00 0.  1.
</event>
<event>
 5    1  0.1758480E-003  0.9118800E+02  0.7818608E-02  0.1130116E+00
         25   -1    0    0    0    0  0.00000000000E+00  0.00000000000E+00  0.99999998245E-14  0.12500000000E+03  0.12500000000E+03 0.  0.
        -13    1    3    3    0    0 -0.14829150838E+00  0.17244260796E+02  0.19974141792E+01  0.17360511174E+02  0.10566000000E+00 0.  1.
         23    2    1    0    0    0 -0.25312798709E+02 -0.74586395881E+01 -0.43011652424E+02  0.74538417314E+02  0.54859860813E+02 0.  0.
         13    1    3    3    0    0 -0.25164507201E+02 -0.24702900384E+02 -0.45009066603E+02  0.57177906140E+02  0.10566000000E+00 0. -1.
         22    1    1    0    0    0  0.25312798709E+02  0.74586395881E+01  0.43011652424E+02  0.50461582686E+02  0.00000000000E+00 0. -1.
</event>
<event>
 5    1  0.1758480E-003  0.9118800E+02  0.7818608E-02  0.1130116E+00
         25   -1    0    0    0    0  0.00000000000E+00  0.00000000000E+00  0.99999998245E-14  0.12500000000E+03  0.12500000000E+03 0.  0.
        -13    1    3    3    0    0  0.16732261854E+02  0.10760814521E+02 -0.39777209279E+02  0.44474726058E+02  0.10566000000E+00 0.  1.
         23    2    1    0    0    0 -0.50143142623E+01  0.28524125979E+02  0.32531490929E+01  0.95856354219E+02  0.91318610122E+02 0.  0.
         13    1    3    3    0    0 -0.21746576116E+02  0.17763311459E+02  0.43030358372E+02  0.51381628160E+02  0.10566000000E+00 0. -1.
         22    1    1    0    0    0  0.50143142623E+01 -0.28524125979E+02 -0.32531490929E+01  0.29143645781E+02  0.00000000000E+00 0. -1.
</event>
<event>
 5    1  0.1758480E-003  0.9118800E+02  0.7818608E-02  0.1130116E+00
         25   -1    0    0    0    0  0.00000000000E+00  0.00000000000E+00  0.99999998245E-14  0.12500000000E+03  0.12500000000E+03 0.  0.
        -13    1    3    3    0    0  0.54547047622E+02  0.18705385834E+02  0.22210796575E+02  0.61794842115E+02  0.10566000000E+00 0. -1.
         23    2    1    0    0    0  0.22203059732E+02  0.13523999251E+02  0.13579700593E+02  0.95669424053E+02  0.91062374300E+02 0.  0.
         13    1    3    3    0    0 -0.32343987890E+02 -0.51813865832E+01 -0.86310959816E+01  0.33874581938E+02  0.10566000000E+00 0.  1.
         22    1    1    0    0    0 -0.22203059732E+02 -0.13523999251E+02 -0.13579700593E+02  0.29330575947E+02  0.00000000000E+00 0. -1.
</event>
<event>
 5    1  0.1758480E-003  0.9118800E+02  0.7818608E-02  0.1130116E+00
         25   -1    0    0    0    0  0.00000000000E+00  0.00000000000E+00  0.99999998245E-14  0.12500000000E+03  0.12500000000E+03 0.  0.
        -13    1    3    3    0    0  0.43420463135E+01  0.28165361598E+02  0.21414939143E+02  0.35647605006E+02  0.10566000000E+00 0.  1.
         23    2    1    0    0    0  0.41072183655E+01 -0.26965248392E+01 -0.29449692319E+02  0.95143260951E+02  0.90337230630E+02 0.  0.
         13    1    3    3    0    0 -0.23482794798E+00 -0.30861886437E+02 -0.50864631462E+02  0.59495655946E+02  0.10566000000E+00 0. -1.
         22    1    1    0    0    0 -0.41072183655E+01  0.26965248392E+01  0.29449692319E+02  0.29856739049E+02  0.00000000000E+00 0. -1.
</event>
<event>
 5    1  0.1758480E-003  0.9118800E+02  0.7818608E-02  0.1130116E+00
         25   -1    0    0    0    0  0.00000000000E+00  0.00000000000E+00  0.99999998245E-14  0.12500000000E+03  0.12500000000E+03 0.  0.
        -13    1    3    3    0    0 -0.38990279277E+02 -0.11432169390E+01  0.25446365886E+02  0.46573356373E+02  0.10566000000E+00 0.  1.
         23    2    1    0    0    0  0.12637476646E+02 -0.70461570946E+01  0.22021616258E+02  0.98650318249E+02  0.95066185167E+02 0.  0.
         13    1    3    3    0    0  0.51627755923E+02 -0.59029401557E+01 -0.34247496280E+01  0.52076961876E+02  0.10566000000E+00 0. -1.
         22    1    1    0    0    0 -0.12637476646E+02  0.70461570946E+01 -0.22021616258E+02  0.26349681751E+02  0.00000000000E+00 0. -1.
</event>
<event>
 5    1  0.1758480E-003  0.9118800E+02  0.7818608E-02  0.1130116E+00
         25   -1    0    0    0    0  0.00000000000E+00  0.00000000000E+00  0.99999998245E-14  0.12500000000E+03  0.12500000000E+03 0.  0.
        -13    1    3    3    0    0 -0.39579227769E+02 -0.42399651733E+02 -0.37012743781E+01  0.58120188695E+02  0.10566000000E+00 0.  1.
         23    2    1    0    0    0 -0.33011120552E+02 -0.14389305243E+02 -0.10112399396E+02  0.87596165878E+02  0.79208847166E+02 0.  0.
         13    1    3    3    0    0  0.65681072164E+01  0.28010346489E+02 -0.64111250174E+01  0.29475977183E+02  0.10566000000E+00 0. -1.
         22    1    1    0    0    0  0.33011120552E+02  0.14389305243E+02  0.10112399396E+02  0.37403834122E+02  0.00000000000E+00 0.  1.
</event>
<event>
 5    1  0.1758480E-003  0.9118800E+02  0.7818608E-02  0.1130116E+00
         25   -1    0    0    0    0  0.00000000000E+00  0.00000000000E+00  0.99999998245E-14  0.12500000000E+03  0.12500000000E+03 0.  0.
        -13    1    3    3    0    0  0.56201515808E+01 -0.20277668588E+01  0.36821884768E+02  0.37303623204E+02  0.10566000000E+00 0.  1.
         23    2    1    0    0    0  0.18017505082E+00  0.23729079587E+02 -0.16039892326E+02  0.96357726576E+02  0.92002345861E+02 0.  0.
         13    1    3    3    0    0 -0.54399765299E+01  0.25756846446E+02 -0.52861777094E+02  0.59054103372E+02  0.10566000000E+00 0. -1.
         22    1    1    0    0    0 -0.18017505082E+00 -0.23729079587E+02  0.16039892326E+02  0.28642273424E+02  0.00000000000E+00 0. -1.
</event>
<event>
 5    1  0.1758480E-003  0.9118800E+02  0.7818608E-02  0.1130116E+00
         25   -1    0    0    0    0  0.00000000000E+00  0.00000000000E+00  0.99999998245E-14  0.12500000000E+03  0.12500000000E+03 0.  0.
        -13    1    3    3    0    0  0.26403557735E+02 -0.32372130309E+02 -0.45666447614E+02  0.61891342557E+02  0.10566000000E+00 0.  1.
         23    2    1    0    0    0  0.17527962973E+02 -0.12422438033E+02 -0.19349814663E+02  0.96086996349E+02  0.91633776999E+02 0.  0.
         13    1    3    3    0    0 -0.88755947623E+01  0.19949692276E+02  0.26316632951E+02  0.34195653791E+02  0.10566000000E+00 0. -1.
         22    1    1    0    0    0 -0.17527962973E+02  0.12422438033E+02  0.19349814663E+02  0.28913003651E+02  0.00000000000E+00 0.  1.
</event>
<event>
 5    1  0.1758480E-003  0.9118800E+02  0.7818608E-02  0.1130116E+00
         25   -1    0    0    0    0  0.00000000000E+00  0.00000000000E+00  0.99999998245E-14  0.12500000000E+03  0.12500000000E+03 0.  0.
        -13    1    3    3    0    0 -0.20107312946E+02 -0.22908630922E+02  0.31754640468E+02  0.44016789523E+02  0.10566000000E+00 0. -1.
         23    2    1    0    0    0 -0.26673745450E+01 -0.21441246025E+02 -0.18074575005E+02  0.96830296777E+02  0.92642183666E+02 0.  0.
         13    1    3    3    0    0  0.17439938401E+02  0.14673848972E+01 -0.49829215473E+02  0.52813507255E+02  0.10566000000E+00 0.  1.
         22    1    1    0    0    0  0.26673745450E+01  0.21441246025E+02  0.18074575005E+02  0.28169703223E+02  0.00000000000E+00 0. -1.
</event>
<event>
 5    1  0.1758480E-003  0.9118800E+02  0.7818608E-02  0.1130116E+00
         25   -1    0    0    0    0  0.00000000000E+00  0.00000000000E+00  0.99999998245E-14  0.12500000000E+03  0.12500000000E+03 0.  0.
        -13    1    3    3    0    0 -0.16663139954E+02  0.31147561673E+02  0.31357643344E+02  0.47234984825E+02  0.10566000000E+00 0. -1.
         23    2    1    0    0    0 -0.16723393210E+02  0.10692508950E+02 -0.16440463675E+02  0.99226166875E+02  0.95820361712E+02 0.  0.
         13    1    3    3    0    0 -0.60253255946E-01 -0.20455052723E+02 -0.47798107019E+02  0.51991182050E+02  0.10566000000E+00 0.  1.
         22    1    1    0    0    0  0.16723393210E+02 -0.10692508950E+02  0.16440463675E+02  0.25773833125E+02  0.00000000000E+00 0.  1.
</event>
<event>
 5    1  0.1758480E-003  0.9118800E+02  0.7818608E-02  0.1130116E+00
         25   -1    0    0    0    0  0.00000000000E+00  0.00000000000E+00  0.99999998245E-14  0.12500000000E+03  0.12500000000E+03 0.  0.
        -13    1    3    3    0    0 -0.33356219108E+02 -0.79769444050E+01  0.46169733062E+02  0.57514558246E+02  0.10566000000E+00 0.  1.
         23    2    1    0    0    0 -0.24084147663E+02 -0.13988107914E+02  0.98826329746E+01  0.95447000725E+02  0.90756543462E+02 0.  0.
         13    1    3    3    0    0  0.92720714457E+01 -0.60111635090E+01 -0.36287100087E+02  0.37932442479E+02  0.10566000000E+00 0. -1.
         22    1    1    0    0    0  0.24084147663E+02  0.13988107914E+02 -0.98826329746E+01  0.29552999275E+02  0.00000000000E+00 0.  1.
</event>
<event>
 5    1  0.1758480E-003  0.9118800E+02  0.7818608E-02  0.1130116E+00
         25   -1    0    0    0    0  0.00000000000E+00  0.00000000000E+00  0.99999998245E-14  0.12500000000E+03  0.12500000000E+03 0.  0.
        -13    1    3    3    0    0 -0.35618562946E+01 -0.48400346837E+02 -0.10610458118E+02  0.49677694992E+02  0.10566000000E+00 0.  1.
         23    2    1    0    0    0  0.18172165178E+02 -0.37241947176E+02 -0.23563124917E+02  0.77330186988E+02  0.60889627582E+02 0.  0.
         13    1    3    3    0    0  0.21734021473E+02  0.11158399661E+02 -0.12952666799E+02  0.27652491996E+02  0.10566000000E+00 0. -1.
         22    1    1    0    0    0 -0.18172165178E+02  0.37241947176E+02  0.23563124917E+02  0.47669813012E+02  0.00000000000E+00 0.  1.
</event>
<event>
 5    1  0.1758480E-003  0.9118800E+02  0.7818608E-02  0.1130116E+00
         25   -1    0    0    0    0  0.00000000000E+00  0.00000000000E+00  0.99999998245E-14  0.12500000000E+03  0.12500000000E+03 0.  0.
        -13    1    3    3    0    0  0.34355228829E+02  0.33851851328E+02  0.26766777650E+02  0.55160684695E+02  0.10566000000E+00 0.  1.
         23    2    1    0    0    0 -0.19619723159E+01  0.12355781077E+02  0.24579764979E+02  0.97419581080E+02  0.93433908566E+02 0.  0.
         13    1    3    3    0    0 -0.36317201145E+02 -0.21496070251E+02 -0.21870126711E+01  0.42258896385E+02  0.10566000000E+00 0. -1.
         22    1    1    0    0    0  0.19619723159E+01 -0.12355781077E+02 -0.24579764979E+02  0.27580418920E+02  0.00000000000E+00 0.  1.
</event>
<event>
 5    1  0.1758480E-003  0.9118800E+02  0.7818608E-02  0.1130116E+00
         25   -1    0    0    0    0  0.00000000000E+00  0.00000000000E+00  0.99999998245E-14  0.12500000000E+03  0.12500000000E+03 0.  0.
        -13    1    3    3    0    0 -0.27205361807E+02  0.35363868906E+02 -0.39068895158E+01  0.44788501703E+02  0.10566000000E+00 0.  1.
         23    2    1    0    0    0  0.20657120608E+02  0.15680426432E+02  0.79366204974E+01  0.97878378554E+02  0.94045705051E+02 0.  0.
         13    1    3    3    0    0  0.47862482416E+02 -0.19683442474E+02  0.11843510013E+02  0.53089876851E+02  0.10566000000E+00 0. -1.
         22    1    1    0    0    0 -0.20657120608E+02 -0.15680426432E+02 -0.79366204974E+01  0.27121621446E+02  0.00000000000E+00 0. -1.
</event>
<event>
 5    1  0.1758480E-003  0.9118800E+02  0.7818608E-02  0.1130116E+00
         25   -1    0    0    0    0  0.00000000000E+00  0.00000000000E+00  0.99999998245E-14  0.12500000000E+03  0.12500000000E+03 0.  0.
        -13    1    3    3    0    0  0.21783635110E+02  0.34659788103E+02 -0.20644912430E+02  0.45848132386E+02  0.10566000000E+00 0.  1.
         23    2    1    0    0    0 -0.21653847893E+02  0.19533944226E+02 -0.11220823183E+01  0.95815703292E+02  0.91262948796E+02 0.  0.
         13    1    3    3    0    0 -0.43437483003E+02 -0.15125843877E+02  0.19522830112E+02  0.49967570906E+02  0.10566000000E+00 0. -1.
         22    1    1    0    0    0  0.21653847893E+02 -0.19533944226E+02  0.11220823183E+01  0.29184296708E+02  0.00000000000E+00 0.  1.
</event>
<event>
 5    1  0.1758480E-003  0.9118800E+02  0.7818608E-02  0.1130116E+00
         25   -1    0    0    0    0  0.00000000000E+00  0.00000000000E+00  0.99999998245E-14  0.12500000000E+03  0.12500000000E+03 0.  0.
        -13    1    3    3    0    0  0.35084733531E+02  0.31471963339E+02 -0.44395186916E+01  0.47340717079E+02  0.10566000000E+00 0.  1.
         23    2    1    0    0    0  0.46659662314E+01  0.88018986440E+01  0.26751290419E+02  0.96453963503E+02  0.92133006440E+02 0.  0.
         13    1    3    3    0    0 -0.30418767299E+02 -0.22670064695E+02  0.31190809111E+02  0.49113246424E+02  0.10566000000E+00 0. -1.
         22    1    1    0    0    0 -0.46659662314E+01 -0.88018986440E+01 -0.26751290419E+02  0.28546036497E+02  0.00000000000E+00 0. -1.
</event>
<event>
 5    1  0.1758480E-003  0.9118800E+02  0.7818608E-02  0.1130116E+00
         25   -1    0    0    0    0  0.00000000000E+00  0.00000000000E+00  0.99999998245E-14  0.12500000000E+03  0.12500000000E+03 0.  0.
        -13    1    3    3    0    0 -0.15168075640E+02 -0.14110926558E+02 -0.19968730820E+02  0.28774122776E+02  0.10566000000E+00 0. -1.
         23    2    1    0    0    0  0.28480650201E+02  0.80968782118E+01  0.17650892528E+02  0.90528839885E+02  0.83709079383E+02 0.  0.
         13    1    3    3    0    0  0.43648725841E+02  0.22207804770E+02  0.37619623348E+02  0.61754717108E+02  0.10566000000E+00 0.  1.
         22    1    1    0    0    0 -0.28480650201E+02 -0.80968782118E+01 -0.17650892528E+02  0.34471160115E+02  0.00000000000E+00 0.  1.
</event>
<event>
 5    1  0.1758480E-003  0.9118800E+02  0.7818608E-02  0.1130116E+00
         25   -1    0    0    0    0  0.00000000000E+00  0.00000000000E+00  0.99999998245E-14  0.12500000000E+03  0.12500000000E+03 0.  0.
        -13    1    3    3    0    0 -0.33976563664E+02 -0.15875613756E+02  0.10182201050E+02  0.38860395943E+02  0.10566000000E+00 0.  1.
         23    2    1    0    0    0  0.23771270894E+02 -0.13306892800E+02  0.75745030094E+01  0.96724218636E+02  0.92498944096E+02 0.  0.
         13    1    3    3    0    0  0.57747834558E+02  0.25687209559E+01 -0.26076980405E+01  0.57863822693E+02  0.10566000000E+00 0. -1.
         22    1    1    0    0    0 -0.23771270894E+02  0.13306892800E+02 -0.75745030094E+01  0.28275781364E+02  0.00000000000E+00 0. -1.
</event>
<event>
 5    1  0.1758480E-003  0.9118800E+02  0.7818608E-02  0.1130116E+00
         25   -1    0    0    0    0  0.00000000000E+00  0.00000000000E+00  0.99999998245E-14  0.12500000000E+03  0.12500000000E+03 0.  0.
        -13    1    3    3    0    0 -0.20456515783E+02  0.25160586720E+02 -0.24762094619E+02  0.40800694308E+02  0.10566000000E+00 0.  1.
         23    2    1    0    0    0 -0.13581456493E+02 -0.10130036468E+02  0.20370669086E+02  0.98504004862E+02  0.94873606528E+02 0.  0.
         13    1    3    3    0    0  0.68750592895E+01 -0.35290623188E+02  0.45132763705E+02  0.57703310554E+02  0.10566000000E+00 0. -1.
         22    1    1    0    0    0  0.13581456493E+02  0.10130036468E+02 -0.20370669086E+02  0.26495995138E+02  0.00000000000E+00 0. -1.
</event>
<event>
 5    1  0.1758480E-003  0.9118800E+02  0.7818608E-02  0.1130116E+00
         25   -1    0    0    0    0  0.00000000000E+00  0.00000000000E+00  0.99999998245E-14  0.12500000000E+03  0.12500000000E+03 0.  0.
        -13    1    3    3    0    0 -0.21731635331E+02 -0.40269153100E+02 -0.15553352322E+02  0.48329976184E+02  0.10566000000E+00 0.  1.
         23    2    1    0    0    0  0.20442781337E+02 -0.18386469078E+02 -0.72694719951E+01  0.96560330926E+02  0.92277205915E+02 0.  0.
         13    1    3    3    0    0  0.42174416667E+02  0.21882684022E+02  0.82838803268E+01  0.48230354742E+02  0.10566000000E+00 0. -1.
         22    1    1    0    0    0 -0.20442781337E+02  0.18386469078E+02  0.72694719951E+01  0.28439669074E+02  0.00000000000E+00 0.  1.
</event>
<event>
 5    1  0.1758480E-003  0.9118800E+02  0.7818608E-02  0.1130116E+00
         25   -1    0    0    0    0  0.00000000000E+00  0.00000000000E+00  0.99999998245E-14  0.12500000000E+03  0.12500000000E+03 0.  0.
        -13    1    3    3    0    0 -0.26460043307E+02 -0.53385651481E+00 -0.37885026440E+02  0.46213691553E+02  0.10566000000E+00 0.  1.
         23    2    1    0    0    0  0.13639066784E+02  0.19144908861E+02 -0.19267946645E+02  0.94605832040E+02  0.89590501785E+02 0.  0.
         13    1    3    3    0    0  0.40099110091E+02  0.19678765375E+02  0.18617079795E+02  0.48392140487E+02  0.10566000000E+00 0. -1.
         22    1    1    0    0    0 -0.13639066784E+02 -0.19144908861E+02  0.19267946645E+02  0.30394167960E+02  0.00000000000E+00 0.  1.
</event>
<event>
 5    1  0.1758480E-003  0.9118800E+02  0.7818608E-02  0.1130116E+00
         25   -1    0    0    0    0  0.00000000000E+00  0.00000000000E+00  0.99999998245E-14  0.12500000000E+03  0.12500000000E+03 0.  0.
        -13    1    3    3    0    0  0.23299448568E+02 -0.22313420286E+02 -0.22107944764E+02  0.39109147449E+02  0.10566000000E+00 0.  1.
         23    2    1    0    0    0  0.12523806581E+02  0.27859367483E+02 -0.14726423866E+01  0.94419634348E+02  0.89330334081E+02 0.  0.
         13    1    3    3    0    0 -0.10775641987E+02  0.50172787769E+02  0.20635302378E+02  0.55310486899E+02  0.10566000000E+00 0. -1.
         22    1    1    0    0    0 -0.12523806581E+02 -0.27859367483E+02  0.14726423866E+01  0.30580365652E+02  0.00000000000E+00 0. -1.
</event>
<event>
 5    1  0.1758480E-003  0.9118800E+02  0.7818608E-02  0.1130116E+00
         25   -1    0    0    0    0  0.00000000000E+00  0.00000000000E+00  0.99999998245E-14  0.12500000000E+03  0.12500000000E+03 0.  0.
        -13    1    3    3    0    0  0.78025670311E+01  0.38942364576E+02  0.20325457734E+02  0.44615279974E+02  0.10566000000E+00 0.  1.
         23    2    1    0    0    0 -0.79795216566E+01  0.23399631856E+02 -0.21689344888E+02  0.92111655278E+02  0.86040187236E+02 0.  0.
         13    1    3    3    0    0 -0.15782088688E+02 -0.15542732719E+02 -0.42014802621E+02  0.47496375305E+02  0.10566000000E+00 0. -1.
         22    1    1    0    0    0  0.79795216566E+01 -0.23399631856E+02  0.21689344888E+02  0.32888344722E+02  0.00000000000E+00 0. -1.
</event>
<event>
 5    1  0.1758480E-003  0.9118800E+02  0.7818608E-02  0.1130116E+00
         25   -1    0    0    0    0  0.00000000000E+00  0.00000000000E+00  0.99999998245E-14  0.12500000000E+03  0.12500000000E+03 0.  0.
        -13    1    3    3    0    0 -0.44694640137E+02 -0.42865868517E+01 -0.18897815105E+02  0.48714723274E+02  0.10566000000E+00 0.  1.
         23    2    1    0    0    0  0.58912279121E+01 -0.36685275182E+01 -0.24427472591E+02  0.99605786532E+02  0.96314311673E+02 0.  0.
         13    1    3    3    0    0  0.50585868050E+02  0.61805933349E+00 -0.55296574861E+01  0.50891063259E+02  0.10566000000E+00 0. -1.
         22    1    1    0    0    0 -0.58912279121E+01  0.36685275182E+01  0.24427472591E+02  0.25394213468E+02  0.00000000000E+00 0. -1.
</event>
<event>
 5    1  0.1758480E-003  0.9118800E+02  0.7818608E-02  0.1130116E+00
         25   -1    0    0    0    0  0.00000000000E+00  0.00000000000E+00  0.99999998245E-14  0.12500000000E+03  0.12500000000E+03 0.  0.
        -13    1    3    3    0    0 -0.21681582526E+02  0.35011280226E+02 -0.38031370191E+01  0.41356447855E+02  0.10566000000E+00 0. -1.
         23    2    1    0    0    0  0.15192876935E+02 -0.12436891152E+01 -0.23747046292E+02  0.96781345181E+02  0.92576110824E+02 0.  0.
         13    1    3    3    0    0  0.36874459461E+02 -0.36254969342E+02 -0.19943909273E+02  0.55424897327E+02  0.10566000000E+00 0.  1.
         22    1    1    0    0    0 -0.15192876935E+02  0.12436891152E+01  0.23747046292E+02  0.28218654819E+02  0.00000000000E+00 0. -1.
</event>
<event>
 5    1  0.1758480E-003  0.9118800E+02  0.7818608E-02  0.1130116E+00
         25   -1    0    0    0    0  0.00000000000E+00  0.00000000000E+00  0.99999998245E-14  0.12500000000E+03  0.12500000000E+03 0.  0.
        -13    1    3    3    0    0  0.39635303850E+02 -0.38603367996E+02 -0.75596642917E+00  0.55333172521E+02  0.10566000000E+00 0. -1.
         23    2    1    0    0    0  0.88467176618E+01 -0.33912201872E+02 -0.11240035212E+02  0.88194562348E+02  0.80147617475E+02 0.  0.
         13    1    3    3    0    0 -0.30788586188E+02  0.46911661243E+01 -0.10484068783E+02  0.32861389827E+02  0.10566000000E+00 0.  1.
         22    1    1    0    0    0 -0.88467176618E+01  0.33912201872E+02  0.11240035212E+02  0.36805437652E+02  0.00000000000E+00 0. -1.
</event>
<event>
 5    1  0.1758480E-003  0.9118800E+02  0.7818608E-02  0.1130116E+00
         25   -1    0    0    0    0  0.00000000000E+00  0.00000000000E+00  0.99999998245E-14  0.12500000000E+03  0.12500000000E+03 0.  0.
        -13    1    3    3    0    0  0.41666004792E+02 -0.31455151346E+02 -0.20732932720E+02  0.56172485834E+02  0.10566000000E+00 0. -1.
         23    2    1    0    0    0  0.74604945943E+01 -0.12546935720E+02 -0.25572155539E+02  0.95554801504E+02  0.90904897426E+02 0.  0.
         13    1    3    3    0    0 -0.34205510197E+02  0.18908215627E+02 -0.48392228186E+01  0.39382315671E+02  0.10566000000E+00 0.  1.
         22    1    1    0    0    0 -0.74604945943E+01  0.12546935720E+02  0.25572155539E+02  0.29445198496E+02  0.00000000000E+00 0. -1.
</event>
<event>
 5    1  0.1758480E-003  0.9118800E+02  0.7818608E-02  0.1130116E+00
         25   -1    0    0    0    0  0.00000000000E+00  0.00000000000E+00  0.99999998245E-14  0.12500000000E+03  0.12500000000E+03 0.  0.
        -13    1    3    3    0    0 -0.17792662851E+02  0.29521112460E+02  0.66281151813E+01  0.35100114061E+02  0.10566000000E+00 0.  1.
         23    2    1    0    0    0 -0.26839806002E+01 -0.28943277932E+02 -0.67081571235E+00  0.95924802958E+02  0.91412257053E+02 0.  0.
         13    1    3    3    0    0  0.15108682251E+02 -0.58464390392E+02 -0.72989308936E+01  0.60824688897E+02  0.10566000000E+00 0. -1.
         22    1    1    0    0    0  0.26839806002E+01  0.28943277932E+02  0.67081571235E+00  0.29075197042E+02  0.00000000000E+00 0. -1.
</event>
<event>
 5    1  0.1758480E-003  0.9118800E+02  0.7818608E-02  0.1130116E+00
         25   -1    0    0    0    0  0.00000000000E+00  0.00000000000E+00  0.99999998245E-14  0.12500000000E+03  0.12500000000E+03 0.  0.
        -13    1    3    3    0    0  0.19416990206E+02 -0.40414581167E+01  0.32044154946E+02  0.37685433826E+02  0.10566000000E+00 0. -1.
         23    2    1    0    0    0 -0.21698506195E+02 -0.15231513492E+02 -0.91513086469E+01  0.96954133561E+02  0.92809123422E+02 0.  0.
         13    1    3    3    0    0 -0.41115496401E+02 -0.11190055375E+02 -0.41195463593E+02  0.59268699735E+02  0.10566000000E+00 0.  1.
         22    1    1    0    0    0  0.21698506195E+02  0.15231513492E+02  0.91513086469E+01  0.28045866439E+02  0.00000000000E+00 0.  1.
</event>
<event>
 5    1  0.1758480E-003  0.9118800E+02  0.7818608E-02  0.1130116E+00
         25   -1    0    0    0    0  0.00000000000E+00  0.00000000000E+00  0.99999998245E-14  0.12500000000E+03  0.12500000000E+03 0.  0.
        -13    1    3    3    0    0  0.34753038038E+02 -0.22183748608E+01 -0.16627329712E+02  0.38589818570E+02  0.10566000000E+00 0.  1.
         23    2    1    0    0    0 -0.57889366282E+01  0.38600046142E+01  0.26209696103E+02  0.97882485499E+02  0.94051163602E+02 0.  0.
         13    1    3    3    0    0 -0.40541974666E+02  0.60783794751E+01  0.42837025815E+02  0.59292666929E+02  0.10566000000E+00 0. -1.
         22    1    1    0    0    0  0.57889366282E+01 -0.38600046142E+01 -0.26209696103E+02  0.27117514501E+02  0.00000000000E+00 0. -1.
</event>
<event>
 5    1  0.1758480E-003  0.9118800E+02  0.7818608E-02  0.1130116E+00
         25   -1    0    0    0    0  0.00000000000E+00  0.00000000000E+00  0.99999998245E-14  0.12500000000E+03  0.12500000000E+03 0.  0.
        -13    1    3    3    0    0  0.88416358757E+01  0.29433621813E+02  0.49665124807E+02  0.58405037489E+02  0.10566000000E+00 0.  1.
         23    2    1    0    0    0 -0.70973227055E+01  0.22667207687E+02  0.15704949564E+02  0.96525103429E+02  0.92229473908E+02 0.  0.
         13    1    3    3    0    0 -0.15938958581E+02 -0.67664141256E+01 -0.33960175243E+02  0.38120065941E+02  0.10566000000E+00 0. -1.
         22    1    1    0    0    0  0.70973227055E+01 -0.22667207687E+02 -0.15704949564E+02  0.28474896571E+02  0.00000000000E+00 0.  1.
</event>
<event>
 5    1  0.1758480E-003  0.9118800E+02  0.7818608E-02  0.1130116E+00
         25   -1    0    0    0    0  0.00000000000E+00  0.00000000000E+00  0.99999998245E-14  0.12500000000E+03  0.12500000000E+03 0.  0.
        -13    1    3    3    0    0 -0.42009486824E+01 -0.92239439606E+01 -0.49595028608E+02  0.50620224602E+02  0.10566000000E+00 0.  1.
         23    2    1    0    0    0  0.21989160355E+02 -0.16554410313E+02 -0.19004983157E+02  0.91552114286E+02  0.85223403895E+02 0.  0.
         13    1    3    3    0    0  0.26190109038E+02 -0.73304663527E+01  0.30590045452E+02  0.40931889684E+02  0.10566000000E+00 0. -1.
         22    1    1    0    0    0 -0.21989160355E+02  0.16554410313E+02  0.19004983157E+02  0.33447885714E+02  0.00000000000E+00 0.  1.
</event>
<event>
 4    1  0.1758480E-003  0.9118800E+02  0.7818608E-02  0.1130116E+00
         25   -1    0    0    0    0  0.00000000000E+00  0.00000000000E+00  0.99999998245E-14  0.12500000000E+03  0.12500000000E+03 0.  0.
        -13    1    1    0    0    0 -0.12739317442E+02 -0.52832548719E+02  0.17723023096E+02  0.57163669622E+02  0.10566000000E+00 0.  1.
         13    1    1    0    0    0  0.50234418221E+01  0.77115096925E+01  0.10575281791E+02  0.14019632608E+02  0.10566000000E+00 0. -1.
         22    1    1    0    0    0  0.77158756197E+01  0.45121039026E+02 -0.28298304886E+02  0.53816697770E+02  0.00000000000E+00 0.  1.
</event>
<event>
 5    1  0.1758480E-003  0.9118800E+02  0.7818608E-02  0.1130116E+00
         25   -1    0    0    0    0  0.00000000000E+00  0.00000000000E+00  0.99999998245E-14  0.12500000000E+03  0.12500000000E+03 0.  0.
        -13    1    3    3    0    0 -0.26134368082E+02  0.45038602735E+02 -0.13631584575E+01  0.52089829107E+02  0.10566000000E+00 0.  1.
         23    2    1    0    0    0 -0.26261155061E+02 -0.60544895023E+00 -0.62604461475E+01  0.97996148061E+02  0.94202107276E+02 0.  0.
         13    1    3    3    0    0 -0.12678697963E+00 -0.45644051685E+02 -0.48972876901E+01  0.45906318954E+02  0.10566000000E+00 0. -1.
         22    1    1    0    0    0  0.26261155061E+02  0.60544895023E+00  0.62604461475E+01  0.27003851939E+02  0.00000000000E+00 0. -1.
</event>
<event>
 5    1  0.1758480E-003  0.9118800E+02  0.7818608E-02  0.1130116E+00
         25   -1    0    0    0    0  0.00000000000E+00  0.00000000000E+00  0.99999998245E-14  0.12500000000E+03  0.12500000000E+03 0.  0.
        -13    1    3    3    0    0  0.41723176926E+02  0.80897934619E+00 -0.21379445922E+02  0.46888909269E+02  0.10566000000E+00 0. -1.
         23    2    1    0    0    0  0.19800081872E+02  0.29227115927E+02  0.18617399049E+01  0.89648428281E+02  0.82383900552E+02 0.  0.
         13    1    3    3    0    0 -0.21923095054E+02  0.28418136581E+02  0.23241185827E+02  0.42759519012E+02  0.10566000000E+00 0.  1.
         22    1    1    0    0    0 -0.19800081872E+02 -0.29227115927E+02 -0.18617399049E+01  0.35351571719E+02  0.00000000000E+00 0.  1.
</event>
<event>
 5    1  0.1758480E-003  0.9118800E+02  0.7818608E-02  0.1130116E+00
         25   -1    0    0    0    0  0.00000000000E+00  0.00000000000E+00  0.99999998245E-14  0.12500000000E+03  0.12500000000E+03 0.  0.
        -13    1    3    3    0    0  0.29994191696E+02 -0.43913156773E+02 -0.24922708519E+02  0.58729629978E+02  0.10566000000E+00 0.  1.
         23    2    1    0    0    0 -0.11674841777E+00 -0.25391220851E+02 -0.15250727144E+02  0.95380540097E+02  0.90664960290E+02 0.  0.
         13    1    3    3    0    0 -0.30110940114E+02  0.18521935922E+02  0.96719813756E+01  0.36650910120E+02  0.10566000000E+00 0. -1.
         22    1    1    0    0    0  0.11674841777E+00  0.25391220851E+02  0.15250727144E+02  0.29619459903E+02  0.00000000000E+00 0.  1.
</event>
<event>
 5    1  0.1758480E-003  0.9118800E+02  0.7818608E-02  0.1130116E+00
         25   -1    0    0    0    0  0.00000000000E+00  0.00000000000E+00  0.99999998245E-14  0.12500000000E+03  0.12500000000E+03 0.  0.
        -13    1    3    3    0    0  0.26319637900E+01 -0.23803521920E+01  0.37436015441E+02  0.37603985508E+02  0.10566000000E+00 0. -1.
         23    2    1    0    0    0 -0.20074636407E+02 -0.18586196174E+02 -0.12591488197E+02  0.94883836730E+02  0.89977548213E+02 0.  0.
         13    1    3    3    0    0 -0.22706600197E+02 -0.16205843982E+02 -0.50027503638E+02  0.57279851222E+02  0.10566000000E+00 0.  1.
         22    1    1    0    0    0  0.20074636407E+02  0.18586196174E+02  0.12591488197E+02  0.30116163270E+02  0.00000000000E+00 0.  1.
</event>
<event>
 5    1  0.1758480E-003  0.9118800E+02  0.7818608E-02  0.1130116E+00
         25   -1    0    0    0    0  0.00000000000E+00  0.00000000000E+00  0.99999998245E-14  0.12500000000E+03  0.12500000000E+03 0.  0.
        -13    1    3    3    0    0  0.18422987863E+02  0.26005422848E+02 -0.18000499597E+02  0.36602153613E+02  0.10566000000E+00 0.  1.
         23    2    1    0    0    0 -0.14491511622E+02 -0.19109202152E+02 -0.21818112983E+02  0.92577853709E+02  0.86714839718E+02 0.  0.
         13    1    3    3    0    0 -0.32914499485E+02 -0.45114625000E+02 -0.38176133854E+01  0.55975700096E+02  0.10566000000E+00 0. -1.
         22    1    1    0    0    0  0.14491511622E+02  0.19109202152E+02  0.21818112983E+02  0.32422146291E+02  0.00000000000E+00 0. -1.
</event>
<event>
 5    1  0.1758480E-003  0.9118800E+02  0.7818608E-02  0.1130116E+00
         25   -1    0    0    0    0  0.00000000000E+00  0.00000000000E+00  0.99999998245E-14  0.12500000000E+03  0.12500000000E+03 0.  0.
        -13    1    3    3    0    0  0.50199317203E+02  0.78629754497E+01 -0.31066388912E+02  0.59556103924E+02  0.10566000000E+00 0.  1.
         23    2    1    0    0    0  0.22279758878E+02  0.14874782029E+02 -0.64194890075E+01  0.97452647401E+02  0.93478135681E+02 0.  0.
         13    1    3    3    0    0 -0.27919558325E+02  0.70118065794E+01  0.24646899905E+02  0.37896543477E+02  0.10566000000E+00 0. -1.
         22    1    1    0    0    0 -0.22279758878E+02 -0.14874782029E+02  0.64194890075E+01  0.27547352599E+02  0.00000000000E+00 0.  1.
</event>
<event>
 5    1  0.1758480E-003  0.9118800E+02  0.7818608E-02  0.1130116E+00
         25   -1    0    0    0    0  0.00000000000E+00  0.00000000000E+00  0.99999998245E-14  0.12500000000E+03  0.12500000000E+03 0.  0.
        -13    1    3    3    0    0  0.45098386205E+00 -0.27601673002E+02 -0.31294382796E+02  0.41730148545E+02  0.10566000000E+00 0. -1.
         23    2    1    0    0    0 -0.17890738827E+02  0.17139951562E+02  0.15343041417E+01  0.10017641113E+03  0.97052062224E+02 0.  0.
         13    1    3    3    0    0 -0.18341722689E+02  0.44741624564E+02  0.32828686938E+02  0.58446262583E+02  0.10566000000E+00 0.  1.
         22    1    1    0    0    0  0.17890738827E+02 -0.17139951562E+02 -0.15343041417E+01  0.24823588873E+02  0.00000000000E+00 0.  1.
</event>
<event>
 5    1  0.1758480E-003  0.9118800E+02  0.7818608E-02  0.1130116E+00
         25   -1    0    0    0    0  0.00000000000E+00  0.00000000000E+00  0.99999998245E-14  0.12500000000E+03  0.12500000000E+03 0.  0.
        -13    1    3    3    0    0 -0.31667577699E+02 -0.16314920889E+02 -0.21580635473E+01  0.35688660990E+02  0.10566000000E+00 0. -1.
         23    2    1    0    0    0  0.95296260050E+01  0.25417387505E+02 -0.12295963543E+02  0.95199864450E+02  0.90415519201E+02 0.  0.
         13    1    3    3    0    0  0.41197203704E+02  0.41732308394E+02 -0.10137899996E+02  0.59511203460E+02  0.10566000000E+00 0.  1.
         22    1    1    0    0    0 -0.95296260050E+01 -0.25417387505E+02  0.12295963543E+02  0.29800135550E+02  0.00000000000E+00 0.  1.
</event>
<event>
 5    1  0.1758480E-003  0.9118800E+02  0.7818608E-02  0.1130116E+00
         25   -1    0    0    0    0  0.00000000000E+00  0.00000000000E+00  0.99999998245E-14  0.12500000000E+03  0.12500000000E+03 0.  0.
        -13    1    3    3    0    0 -0.99804967404E+01 -0.42587844332E+02  0.38050112757E+02  0.57975486586E+02  0.10566000000E+00 0. -1.
         23    2    1    0    0    0 -0.16216776583E+02 -0.88756436440E+01  0.23193276656E+02  0.95340448842E+02  0.90609669520E+02 0.  0.
         13    1    3    3    0    0 -0.62362798422E+01  0.33712200688E+02 -0.14856836100E+02  0.37364962257E+02  0.10566000000E+00 0.  1.
         22    1    1    0    0    0  0.16216776583E+02  0.88756436440E+01 -0.23193276656E+02  0.29659551158E+02  0.00000000000E+00 0. -1.
</event>
<event>
 5    1  0.1758480E-003  0.9118800E+02  0.7818608E-02  0.1130116E+00
         25   -1    0    0    0    0  0.00000000000E+00  0.00000000000E+00  0.99999998245E-14  0.12500000000E+03  0.12500000000E+03 0.  0.
        -13    1    3    3    0    0  0.37714064634E+02 -0.14548850948E+01  0.22390088757E+02  0.43883876315E+02  0.10566000000E+00 0.  1.
         23    2    1    0    0    0 -0.11769840719E+02  0.12047089037E+02  0.24556698904E+02  0.95222609821E+02  0.90446959348E+02 0.  0.
         13    1    3    3    0    0 -0.49483905353E+02  0.13501974131E+02  0.21666101468E+01  0.51338733506E+02  0.10566000000E+00 0. -1.
         22    1    1    0    0    0  0.11769840719E+02 -0.12047089037E+02 -0.24556698904E+02  0.29777390179E+02  0.00000000000E+00 0.  1.
</event>
<event>
 5    1  0.1758480E-003  0.9118800E+02  0.7818608E-02  0.1130116E+00
         25   -1    0    0    0    0  0.00000000000E+00  0.00000000000E+00  0.99999998245E-14  0.12500000000E+03  0.12500000000E+03 0.  0.
        -13    1    3    3    0    0 -0.48840857708E+02 -0.65569163675E+01  0.25567104163E+02  0.55516758850E+02  0.10566000000E+00 0. -1.
         23    2    1    0    0    0 -0.25622212238E+02  0.11545103973E+02 -0.32443439948E+01  0.96710197002E+02  0.92479993786E+02 0.  0.
         13    1    3    3    0    0  0.23218645470E+02  0.18102020340E+02 -0.28811448158E+02  0.41193438153E+02  0.10566000000E+00 0.  1.
         22    1    1    0    0    0  0.25622212238E+02 -0.11545103973E+02  0.32443439948E+01  0.28289802998E+02  0.00000000000E+00 0. -1.
</event>
<event>
 5    1  0.1758480E-003  0.9118800E+02  0.7818608E-02  0.1130116E+00
         25   -1    0    0    0    0  0.00000000000E+00  0.00000000000E+00  0.99999998245E-14  0.12500000000E+03  0.12500000000E+03 0.  0.
        -13    1    3    3    0    0 -0.13979112758E+02 -0.15781402512E+02  0.32327630254E+02  0.38594754833E+02  0.10566000000E+00 0.  1.
         23    2    1    0    0    0  0.29275030677E+02  0.19817584113E+01 -0.37519349252E+00  0.95655570244E+02  0.91043355392E+02 0.  0.
         13    1    3    3    0    0  0.43254143436E+02  0.17763160923E+02 -0.32702823746E+02  0.57060815411E+02  0.10566000000E+00 0. -1.
         22    1    1    0    0    0 -0.29275030677E+02 -0.19817584113E+01  0.37519349252E+00  0.29344429756E+02  0.00000000000E+00 0. -1.
</event>
<event>
 5    1  0.1758480E-003  0.9118800E+02  0.7818608E-02  0.1130116E+00
         25   -1    0    0    0    0  0.00000000000E+00  0.00000000000E+00  0.99999998245E-14  0.12500000000E+03  0.12500000000E+03 0.  0.
        -13    1    3    3    0    0 -0.26474320845E+02 -0.12510911802E+02  0.33961897735E+02  0.44842326435E+02  0.10566000000E+00 0. -1.
         23    2    1    0    0    0  0.28889775916E+01 -0.30350846967E+02 -0.18311303684E+01  0.94457027951E+02  0.89382643661E+02 0.  0.
         13    1    3    3    0    0  0.29363298436E+02 -0.17839935166E+02 -0.35793028103E+02  0.49614701517E+02  0.10566000000E+00 0.  1.
         22    1    1    0    0    0 -0.28889775916E+01  0.30350846967E+02  0.18311303684E+01  0.30542972049E+02  0.00000000000E+00 0. -1.
</event>
<event>
 5    1  0.1758480E-003  0.9118800E+02  0.7818608E-02  0.1130116E+00
         25   -1    0    0    0    0  0.00000000000E+00  0.00000000000E+00  0.99999998245E-14  0.12500000000E+03  0.12500000000E+03 0.  0.
        -13    1    3    3    0    0 -0.52060968794E+02  0.21574099702E+02 -0.15556204213E+02  0.58461892745E+02  0.10566000000E+00 0.  1.
         23    2    1    0    0    0 -0.17611290446E+02  0.21719181798E+02  0.16881681585E+01  0.96986961591E+02  0.92853327338E+02 0.  0.
         13    1    3    3    0    0  0.34449678348E+02  0.14508209670E+00  0.17244372371E+02  0.38525068846E+02  0.10566000000E+00 0. -1.
         22    1    1    0    0    0  0.17611290446E+02 -0.21719181798E+02 -0.16881681585E+01  0.28013038409E+02  0.00000000000E+00 0.  1.
</event>
<event>
 5    1  0.1758480E-003  0.9118800E+02  0.7818608E-02  0.1130116E+00
         25   -1    0    0    0    0  0.00000000000E+00  0.00000000000E+00  0.99999998245E-14  0.12500000000E+03  0.12500000000E+03 0.  0.
        -13    1    3    3    0    0 -0.32826702677E+01 -0.26638549403E+02  0.44375883545E+02  0.51861531435E+02  0.10566000000E+00 0. -1.
         23    2    1    0    0    0  0.73636074786E+01 -0.29764112864E+02  0.35909134431E+01  0.94128981406E+02  0.88922693119E+02 0.  0.
         13    1    3    3    0    0  0.10646277746E+02 -0.31255634608E+01 -0.40784970102E+02  0.42267449971E+02  0.10566000000E+00 0.  1.
         22    1    1    0    0    0 -0.73636074786E+01  0.29764112864E+02 -0.35909134431E+01  0.30871018594E+02  0.00000000000E+00 0. -1.
</event>
<event>
 5    1  0.1758480E-003  0.9118800E+02  0.7818608E-02  0.1130116E+00
         25   -1    0    0    0    0  0.00000000000E+00  0.00000000000E+00  0.99999998245E-14  0.12500000000E+03  0.12500000000E+03 0.  0.
        -13    1    3    3    0    0  0.30861205503E+02 -0.47663034420E+01  0.26321500954E+02  0.40840717796E+02  0.10566000000E+00 0.  1.
         23    2    1    0    0    0 -0.20251924195E+02 -0.67842596596E+01  0.25146648044E+02  0.92007265639E+02  0.85888395082E+02 0.  0.
         13    1    3    3    0    0 -0.51113129698E+02 -0.20179562176E+01 -0.11748529097E+01  0.51166547843E+02  0.10566000000E+00 0. -1.
         22    1    1    0    0    0  0.20251924195E+02  0.67842596596E+01 -0.25146648044E+02  0.32992734361E+02  0.00000000000E+00 0.  1.
</event>
<event>
 5    1  0.1758480E-003  0.9118800E+02  0.7818608E-02  0.1130116E+00
         25   -1    0    0    0    0  0.00000000000E+00  0.00000000000E+00  0.99999998245E-14  0.12500000000E+03  0.12500000000E+03 0.  0.
        -13    1    3    3    0    0 -0.51181340046E+02 -0.24741456148E+02 -0.18883145470E+02  0.59902033088E+02  0.10566000000E+00 0.  1.
         23    2    1    0    0    0 -0.22924642815E+02 -0.33973906298E+01 -0.18549177689E+02  0.95315770109E+02  0.90575617731E+02 0.  0.
         13    1    3    3    0    0  0.28256697232E+02  0.21344065518E+02  0.33396778116E+00  0.35413737021E+02  0.10566000000E+00 0. -1.
         22    1    1    0    0    0  0.22924642815E+02  0.33973906298E+01  0.18549177689E+02  0.29684229891E+02  0.00000000000E+00 0.  1.
</event>
<event>
 5    1  0.1758480E-003  0.9118800E+02  0.7818608E-02  0.1130116E+00
         25   -1    0    0    0    0  0.00000000000E+00  0.00000000000E+00  0.99999998245E-14  0.12500000000E+03  0.12500000000E+03 0.  0.
        -13    1    3    3    0    0 -0.10740970673E+02 -0.30869447793E+02 -0.10074588010E+02  0.34202335383E+02  0.10566000000E+00 0.  1.
         23    2    1    0    0    0 -0.60513878636E+01  0.28509609589E+02  0.44648340210E+01  0.95515226356E+02  0.90850462790E+02 0.  0.
         13    1    3    3    0    0  0.46895828090E+01  0.59379057382E+02  0.14539422031E+02  0.61312890973E+02  0.10566000000E+00 0. -1.
         22    1    1    0    0    0  0.60513878636E+01 -0.28509609589E+02 -0.44648340210E+01  0.29484773644E+02  0.00000000000E+00 0. -1.
</event>
<event>
 5    1  0.1758480E-003  0.9118800E+02  0.7818608E-02  0.1130116E+00
         25   -1    0    0    0    0  0.00000000000E+00  0.00000000000E+00  0.99999998245E-14  0.12500000000E+03  0.12500000000E+03 0.  0.
        -13    1    3    3    0    0  0.13809305448E+02 -0.30976297966E+02 -0.13327383255E+02  0.36439789532E+02  0.10566000000E+00 0. -1.
         23    2    1    0    0    0 -0.81780157813E+01 -0.27687983791E+02  0.28892466723E+02  0.84155428489E+02  0.73578917649E+02 0.  0.
         13    1    3    3    0    0 -0.21987321229E+02  0.32883141751E+01  0.42219849978E+02  0.47715638958E+02  0.10566000000E+00 0.  1.
         22    1    1    0    0    0  0.81780157813E+01  0.27687983791E+02 -0.28892466723E+02  0.40844571511E+02  0.00000000000E+00 0. -1.
</event>
<event>
 5    1  0.1758480E-003  0.9118800E+02  0.7818608E-02  0.1130116E+00
         25   -1    0    0    0    0  0.00000000000E+00  0.00000000000E+00  0.99999998245E-14  0.12500000000E+03  0.12500000000E+03 0.  0.
        -13    1    3    3    0    0 -0.37761398742E+02  0.63877336425E+01  0.22837494129E+01  0.38366040341E+02  0.10566000000E+00 0.  1.
         23    2    1    0    0    0  0.18249183829E+02 -0.13282957591E+01 -0.18853283766E+02  0.98727516509E+02  0.95167636974E+02 0.  0.
         13    1    3    3    0    0  0.56010582570E+02 -0.77160294016E+01 -0.21137033179E+02  0.60361476168E+02  0.10566000000E+00 0. -1.
         22    1    1    0    0    0 -0.18249183829E+02  0.13282957591E+01  0.18853283766E+02  0.26272483491E+02  0.00000000000E+00 0. -1.
</event>
<event>
 5    1  0.1758480E-003  0.9118800E+02  0.7818608E-02  0.1130116E+00
         25   -1    0    0    0    0  0.00000000000E+00  0.00000000000E+00  0.99999998245E-14  0.12500000000E+03  0.12500000000E+03 0.  0.
        -13    1    3    3    0    0 -0.28514215294E+02 -0.22706494322E+02 -0.33096723692E+02  0.49234638634E+02  0.10566000000E+00 0.  1.
         23    2    1    0    0    0 -0.42188592093E+02 -0.77200376756E+01 -0.82283648102E+01  0.81328701966E+02  0.68608858696E+02 0.  0.
         13    1    3    3    0    0 -0.13674376799E+02  0.14986456647E+02  0.24868358882E+02  0.32094063332E+02  0.10566000000E+00 0. -1.
         22    1    1    0    0    0  0.42188592093E+02  0.77200376756E+01  0.82283648102E+01  0.43671298034E+02  0.00000000000E+00 0.  1.
</event>
<event>
 5    1  0.1758480E-003  0.9118800E+02  0.7818608E-02  0.1130116E+00
         25   -1    0    0    0    0  0.00000000000E+00  0.00000000000E+00  0.99999998245E-14  0.12500000000E+03  0.12500000000E+03 0.  0.
        -13    1    3    3    0    0 -0.33158611772E+02 -0.17484015207E+02  0.27279008477E+02  0.46360972702E+02  0.10566000000E+00 0.  1.
         23    2    1    0    0    0  0.14519053248E+02 -0.19197608992E+02  0.17952537981E+02  0.94972600542E+02  0.90100777664E+02 0.  0.
         13    1    3    3    0    0  0.47677665019E+02 -0.17135937847E+01 -0.93264704953E+01  0.48611627840E+02  0.10566000000E+00 0. -1.
         22    1    1    0    0    0 -0.14519053248E+02  0.19197608992E+02 -0.17952537981E+02  0.30027399458E+02  0.00000000000E+00 0. -1.
</event>
<event>
 5    1  0.1758480E-003  0.9118800E+02  0.7818608E-02  0.1130116E+00
         25   -1    0    0    0    0  0.00000000000E+00  0.00000000000E+00  0.99999998245E-14  0.12500000000E+03  0.12500000000E+03 0.  0.
        -13    1    3    3    0    0 -0.40960403835E+02  0.22823822296E+02  0.31010410002E+02  0.56216885711E+02  0.10566000000E+00 0. -1.
         23    2    1    0    0    0 -0.17338171959E+02 -0.77622200455E+01  0.22063822400E+02  0.95885115047E+02  0.91357970434E+02 0.  0.
         13    1    3    3    0    0  0.23622231877E+02 -0.30586042341E+02 -0.89465876016E+01  0.39668229336E+02  0.10566000000E+00 0.  1.
         22    1    1    0    0    0  0.17338171959E+02  0.77622200455E+01 -0.22063822400E+02  0.29114884953E+02  0.00000000000E+00 0.  1.
</event>
<event>
 5    1  0.1758480E-003  0.9118800E+02  0.7818608E-02  0.1130116E+00
         25   -1    0    0    0    0  0.00000000000E+00  0.00000000000E+00  0.99999998245E-14  0.12500000000E+03  0.12500000000E+03 0.  0.
        -13    1    3    3    0    0 -0.16350909597E+02  0.57171418164E+02 -0.65527031149E+01  0.59823677434E+02  0.10566000000E+00 0.  1.
         23    2    1    0    0    0 -0.15136645277E+01  0.25910219458E+02 -0.14417656856E+02  0.95309943047E+02  0.90567575664E+02 0.  0.
         13    1    3    3    0    0  0.14837245069E+02 -0.31261198706E+02 -0.78649537410E+01  0.35486265613E+02  0.10566000000E+00 0. -1.
         22    1    1    0    0    0  0.15136645277E+01 -0.25910219458E+02  0.14417656856E+02  0.29690056953E+02  0.00000000000E+00 0.  1.
</event>
<event>
 5    1  0.1758480E-003  0.9118800E+02  0.7818608E-02  0.1130116E+00
         25   -1    0    0    0    0  0.00000000000E+00  0.00000000000E+00  0.99999998245E-14  0.12500000000E+03  0.12500000000E+03 0.  0.
        -13    1    3    3    0    0 -0.51080362116E+02 -0.48880513440E+01  0.14360095576E+02  0.53285269529E+02  0.10566000000E+00 0. -1.
         23    2    1    0    0    0 -0.10371541772E+02  0.56602550819E+01  0.25591439570E+02  0.96812606620E+02  0.92618311661E+02 0.  0.
         13    1    3    3    0    0  0.40708820344E+02  0.10548306426E+02  0.11231343994E+02  0.43527337090E+02  0.10566000000E+00 0.  1.
         22    1    1    0    0    0  0.10371541772E+02 -0.56602550819E+01 -0.25591439570E+02  0.28187393380E+02  0.00000000000E+00 0. -1.
</event>
<event>
 5    1  0.1758480E-003  0.9118800E+02  0.7818608E-02  0.1130116E+00
         25   -1    0    0    0    0  0.00000000000E+00  0.00000000000E+00  0.99999998245E-14  0.12500000000E+03  0.12500000000E+03 0.  0.
        -13    1    3    3    0    0 -0.51375593573E+02 -0.11303313888E+02  0.29442721953E+02  0.60283509850E+02  0.10566000000E+00 0.  1.
         23    2    1    0    0    0 -0.22879571444E+02 -0.15689879526E+02  0.82810352967E+01  0.96047924866E+02  0.91580463072E+02 0.  0.
         13    1    3    3    0    0  0.28496022129E+02 -0.43865656380E+01 -0.21161686656E+02  0.35764415016E+02  0.10566000000E+00 0. -1.
         22    1    1    0    0    0  0.22879571444E+02  0.15689879526E+02 -0.82810352967E+01  0.28952075134E+02  0.00000000000E+00 0.  1.
</event>
<event>
 5    1  0.1758480E-003  0.9118800E+02  0.7818608E-02  0.1130116E+00
         25   -1    0    0    0    0  0.00000000000E+00  0.00000000000E+00  0.99999998245E-14  0.12500000000E+03  0.12500000000E+03 0.  0.
        -13    1    3    3    0    0  0.98311653168E+01 -0.31784807920E+02  0.11269569189E+02  0.35127484677E+02  0.10566000000E+00 0. -1.
         23    2    1    0    0    0  0.79929405193E+01  0.23658476802E+02 -0.14313791326E+02  0.96216406672E+02  0.91810139244E+02 0.  0.
         13    1    3    3    0    0 -0.18382247975E+01  0.55443284722E+02 -0.25583360516E+02  0.61088921995E+02  0.10566000000E+00 0.  1.
         22    1    1    0    0    0 -0.79929405193E+01 -0.23658476802E+02  0.14313791326E+02  0.28783593328E+02  0.00000000000E+00 0.  1.
</event>
<event>
 5    1  0.1758480E-003  0.9118800E+02  0.7818608E-02  0.1130116E+00
         25   -1    0    0    0    0  0.00000000000E+00  0.00000000000E+00  0.99999998245E-14  0.12500000000E+03  0.12500000000E+03 0.  0.
        -13    1    3    3    0    0  0.34147195377E+02 -0.61362060139E+01 -0.10529293003E+02  0.36256877300E+02  0.10566000000E+00 0.  1.
         23    2    1    0    0    0  0.17238564982E+02  0.30103173933E+02 -0.28504902271E+02  0.80101239917E+02  0.66334832323E+02 0.  0.
         13    1    3    3    0    0 -0.16908630395E+02  0.36239379947E+02 -0.17975609268E+02  0.43844362618E+02  0.10566000000E+00 0. -1.
         22    1    1    0    0    0 -0.17238564982E+02 -0.30103173933E+02  0.28504902271E+02  0.44898760083E+02  0.00000000000E+00 0.  1.
</event>
<event>
 5    1  0.1758480E-003  0.9118800E+02  0.7818608E-02  0.1130116E+00
         25   -1    0    0    0    0  0.00000000000E+00  0.00000000000E+00  0.99999998245E-14  0.12500000000E+03  0.12500000000E+03 0.  0.
        -13    1    3    3    0    0  0.31171160461E+02 -0.37048298964E+02  0.97398446175E+01  0.49387178881E+02  0.10566000000E+00 0. -1.
         23    2    1    0    0    0  0.16466967194E+02 -0.17095492371E+00  0.27552678785E+02  0.92901085028E+02  0.87179534622E+02 0.  0.
         13    1    3    3    0    0 -0.14704193267E+02  0.36877344040E+02  0.17812834168E+02  0.43513906147E+02  0.10566000000E+00 0.  1.
         22    1    1    0    0    0 -0.16466967194E+02  0.17095492371E+00 -0.27552678785E+02  0.32098914972E+02  0.00000000000E+00 0. -1.
</event>
<event>
 5    1  0.1758480E-003  0.9118800E+02  0.7818608E-02  0.1130116E+00
         25   -1    0    0    0    0  0.00000000000E+00  0.00000000000E+00  0.99999998245E-14  0.12500000000E+03  0.12500000000E+03 0.  0.
        -13    1    3    3    0    0 -0.48876565918E+02 -0.33486996649E+02 -0.97320446865E+01  0.60041831238E+02  0.10566000000E+00 0. -1.
         23    2    1    0    0    0 -0.18222023385E+02 -0.20851718775E+02  0.58810484830E+01  0.96690583839E+02  0.92453479977E+02 0.  0.
         13    1    3    3    0    0  0.30654542534E+02  0.12635277874E+02  0.15613093169E+02  0.36648752602E+02  0.10566000000E+00 0.  1.
         22    1    1    0    0    0  0.18222023385E+02  0.20851718775E+02 -0.58810484830E+01  0.28309416161E+02  0.00000000000E+00 0.  1.
</event>
<event>
 5    1  0.1758480E-003  0.9118800E+02  0.7818608E-02  0.1130116E+00
         25   -1    0    0    0    0  0.00000000000E+00  0.00000000000E+00  0.99999998245E-14  0.12500000000E+03  0.12500000000E+03 0.  0.
        -13    1    3    3    0    0  0.20257247603E+02 -0.45506857440E+02 -0.27172489867E+02  0.56741391630E+02  0.10566000000E+00 0.  1.
         23    2    1    0    0    0  0.10047008736E+02 -0.27093798456E+02  0.54749624761E+01  0.95589261937E+02  0.90952270363E+02 0.  0.
         13    1    3    3    0    0 -0.10210238867E+02  0.18413058984E+02  0.32647452343E+02  0.38847870307E+02  0.10566000000E+00 0. -1.
         22    1    1    0    0    0 -0.10047008736E+02  0.27093798456E+02 -0.54749624761E+01  0.29410738063E+02  0.00000000000E+00 0.  1.
</event>
<event>
 5    1  0.1758480E-003  0.9118800E+02  0.7818608E-02  0.1130116E+00
         25   -1    0    0    0    0  0.00000000000E+00  0.00000000000E+00  0.99999998245E-14  0.12500000000E+03  0.12500000000E+03 0.  0.
        -13    1    3    3    0    0  0.16194433239E+02 -0.10383020255E+02 -0.32105606781E+02  0.37427903072E+02  0.10566000000E+00 0.  1.
         23    2    1    0    0    0  0.17966477774E+01  0.24707990957E+02  0.13533537573E+02  0.96771124720E+02  0.92562309716E+02 0.  0.
         13    1    3    3    0    0 -0.14397785461E+02  0.35091011212E+02  0.45639144355E+02  0.59343221648E+02  0.10566000000E+00 0. -1.
         22    1    1    0    0    0 -0.17966477774E+01 -0.24707990957E+02 -0.13533537573E+02  0.28228875280E+02  0.00000000000E+00 0. -1.
</event>
<event>
 5    1  0.1758480E-003  0.9118800E+02  0.7818608E-02  0.1130116E+00
         25   -1    0    0    0    0  0.00000000000E+00  0.00000000000E+00  0.99999998245E-14  0.12500000000E+03  0.12500000000E+03 0.  0.
        -13    1    3    3    0    0 -0.13653652696E+02  0.33275010125E+01  0.37449107923E+02  0.39999266783E+02  0.10566000000E+00 0.  1.
         23    2    1    0    0    0  0.89255366664E+01  0.28961756824E+02 -0.47843125871E+01  0.94318764529E+02  0.89189075184E+02 0.  0.
         13    1    3    3    0    0  0.22579189362E+02  0.25634255812E+02 -0.42233420510E+02  0.54319497745E+02  0.10566000000E+00 0. -1.
         22    1    1    0    0    0 -0.89255366664E+01 -0.28961756824E+02  0.47843125871E+01  0.30681235471E+02  0.00000000000E+00 0. -1.
</event>
<event>
 5    1  0.1758480E-003  0.9118800E+02  0.7818608E-02  0.1130116E+00
         25   -1    0    0    0    0  0.00000000000E+00  0.00000000000E+00  0.99999998245E-14  0.12500000000E+03  0.12500000000E+03 0.  0.
        -13    1    3    3    0    0 -0.36809324476E+02  0.18423243304E+02 -0.60424554375E+01  0.41603662026E+02  0.10566000000E+00 0. -1.
         23    2    1    0    0    0  0.19222533068E+02  0.18385875985E+02 -0.64182153609E+01  0.97636891593E+02  0.93724185236E+02 0.  0.
         13    1    3    3    0    0  0.56031857544E+02 -0.37367318560E-01 -0.37575992334E+00  0.56033229567E+02  0.10566000000E+00 0.  1.
         22    1    1    0    0    0 -0.19222533068E+02 -0.18385875985E+02  0.64182153609E+01  0.27363108407E+02  0.00000000000E+00 0. -1.
</event>
<event>
 5    1  0.1758480E-003  0.9118800E+02  0.7818608E-02  0.1130116E+00
         25   -1    0    0    0    0  0.00000000000E+00  0.00000000000E+00  0.99999998245E-14  0.12500000000E+03  0.12500000000E+03 0.  0.
        -13    1    3    3    0    0  0.36085178546E+01 -0.42723762336E+02 -0.24035153198E+02  0.49153240204E+02  0.10566000000E+00 0.  1.
         23    2    1    0    0    0 -0.24630047230E+02 -0.76560365261E+01 -0.15281288307E+02  0.95020475418E+02  0.90167171712E+02 0.  0.
         13    1    3    3    0    0 -0.28238565085E+02  0.35067725810E+02  0.87538648911E+01  0.45867235213E+02  0.10566000000E+00 0. -1.
         22    1    1    0    0    0  0.24630047230E+02  0.76560365261E+01  0.15281288307E+02  0.29979524582E+02  0.00000000000E+00 0.  1.
</event>
<event>
 5    1  0.1758480E-003  0.9118800E+02  0.7818608E-02  0.1130116E+00
         25   -1    0    0    0    0  0.00000000000E+00  0.00000000000E+00  0.99999998245E-14  0.12500000000E+03  0.12500000000E+03 0.  0.
        -13    1    3    3    0    0  0.68786713035E+01 -0.33600687853E+02 -0.34375180802E+02  0.48559103804E+02  0.10566000000E+00 0.  1.
         23    2    1    0    0    0 -0.20730255322E+02 -0.19279370346E+02  0.22408586523E+01  0.96601777272E+02  0.92333332648E+02 0.  0.
         13    1    3    3    0    0 -0.27608926625E+02  0.14321317507E+02  0.36616039454E+02  0.48042673467E+02  0.10566000000E+00 0. -1.
         22    1    1    0    0    0  0.20730255322E+02  0.19279370346E+02 -0.22408586523E+01  0.28398222728E+02  0.00000000000E+00 0.  1.
</event>
<event>
 5    1  0.1758480E-003  0.9118800E+02  0.7818608E-02  0.1130116E+00
         25   -1    0    0    0    0  0.00000000000E+00  0.00000000000E+00  0.99999998245E-14  0.12500000000E+03  0.12500000000E+03 0.  0.
        -13    1    3    3    0    0  0.15458625036E+02  0.48084200943E+02 -0.34723345486E+02  0.61292588085E+02  0.10566000000E+00 0.  1.
         23    2    1    0    0    0  0.14042064433E+02  0.23833870685E+02 -0.11050409718E+02  0.95211671408E+02  0.90431840919E+02 0.  0.
         13    1    3    3    0    0 -0.14165606027E+01 -0.24250330258E+02  0.23672935767E+02  0.33919083323E+02  0.10566000000E+00 0. -1.
         22    1    1    0    0    0 -0.14042064433E+02 -0.23833870685E+02  0.11050409718E+02  0.29788328592E+02  0.00000000000E+00 0.  1.
</event>
<event>
 5    1  0.1758480E-003  0.9118800E+02  0.7818608E-02  0.1130116E+00
         25   -1    0    0    0    0  0.00000000000E+00  0.00000000000E+00  0.99999998245E-14  0.12500000000E+03  0.12500000000E+03 0.  0.
        -13    1    3    3    0    0  0.40341823357E+02  0.12659817237E+00 -0.54626936074E+01  0.40710329456E+02  0.10566000000E+00 0. -1.
         23    2    1    0    0    0 -0.59562446178E+01  0.21721574864E+02 -0.21100361520E+02  0.94136932738E+02  0.88933869727E+02 0.  0.
         13    1    3    3    0    0 -0.46298067975E+02  0.21594976691E+02 -0.15637667913E+02  0.53426603283E+02  0.10566000000E+00 0.  1.
         22    1    1    0    0    0  0.59562446178E+01 -0.21721574864E+02  0.21100361520E+02  0.30863067262E+02  0.00000000000E+00 0.  1.
</event>
<event>
 5    1  0.1758480E-003  0.9118800E+02  0.7818608E-02  0.1130116E+00
         25   -1    0    0    0    0  0.00000000000E+00  0.00000000000E+00  0.99999998245E-14  0.12500000000E+03  0.12500000000E+03 0.  0.
        -13    1    3    3    0    0  0.27597508078E+01  0.38596018786E+02  0.40782496325E+02  0.56218253807E+02  0.10566000000E+00 0.  1.
         23    2    1    0    0    0  0.15278192477E+02  0.45112846000E+01  0.23937319846E+02  0.96246389174E+02  0.91850951512E+02 0.  0.
         13    1    3    3    0    0  0.12518441669E+02 -0.34084734186E+02 -0.16845176478E+02  0.40028135367E+02  0.10566000000E+00 0. -1.
         22    1    1    0    0    0 -0.15278192477E+02 -0.45112846000E+01 -0.23937319846E+02  0.28753610826E+02  0.00000000000E+00 0.  1.
</event>
<event>
 5    1  0.1758480E-003  0.9118800E+02  0.7818608E-02  0.1130116E+00
         25   -1    0    0    0    0  0.00000000000E+00  0.00000000000E+00  0.99999998245E-14  0.12500000000E+03  0.12500000000E+03 0.  0.
        -13    1    3    3    0    0  0.31774327845E+02  0.25993495339E+01  0.65117729940E+01  0.32538882581E+02  0.10566000000E+00 0.  1.
         23    2    1    0    0    0 -0.27313408834E+02 -0.39175957393E+01 -0.12157234818E+02  0.94847583564E+02  0.89927169927E+02 0.  0.
         13    1    3    3    0    0 -0.59087736679E+02 -0.65169452732E+01 -0.18669007812E+02  0.62308700984E+02  0.10566000000E+00 0. -1.
         22    1    1    0    0    0  0.27313408834E+02  0.39175957393E+01  0.12157234818E+02  0.30152416436E+02  0.00000000000E+00 0. -1.
</event>
<event>
 5    1  0.1758480E-003  0.9118800E+02  0.7818608E-02  0.1130116E+00
         25   -1    0    0    0    0  0.00000000000E+00  0.00000000000E+00  0.99999998245E-14  0.12500000000E+03  0.12500000000E+03 0.  0.
        -13    1    3    3    0    0 -0.18035420794E+01  0.23740748950E+02 -0.40628438407E+02  0.47090944949E+02  0.10566000000E+00 0. -1.
         23    2    1    0    0    0 -0.21580383740E+01 -0.20496543622E+02 -0.21279119299E+02  0.95376253643E+02  0.90659050352E+02 0.  0.
         13    1    3    3    0    0 -0.35449629458E+00 -0.44237292572E+02  0.19349319108E+02  0.48285308694E+02  0.10566000000E+00 0.  1.
         22    1    1    0    0    0  0.21580383740E+01  0.20496543622E+02  0.21279119299E+02  0.29623746357E+02  0.00000000000E+00 0. -1.
</event>
<event>
 5    1  0.1758480E-003  0.9118800E+02  0.7818608E-02  0.1130116E+00
         25   -1    0    0    0    0  0.00000000000E+00  0.00000000000E+00  0.99999998245E-14  0.12500000000E+03  0.12500000000E+03 0.  0.
        -13    1    3    3    0    0  0.30816693320E+02 -0.26404347400E+02  0.37616421768E+02  0.55334116958E+02  0.10566000000E+00 0.  1.
         23    2    1    0    0    0  0.33124610134E+02 -0.63632694785E+01  0.94664491669E+01  0.89966520943E+02  0.82865132811E+02 0.  0.
         13    1    3    3    0    0  0.23079168141E+01  0.20041077922E+02 -0.28149972601E+02  0.34632403985E+02  0.10566000000E+00 0. -1.
         22    1    1    0    0    0 -0.33124610134E+02  0.63632694785E+01 -0.94664491669E+01  0.35033479057E+02  0.00000000000E+00 0.  1.
</event>
<event>
 5    1  0.1758480E-003  0.9118800E+02  0.7818608E-02  0.1130116E+00
         25   -1    0    0    0    0  0.00000000000E+00  0.00000000000E+00  0.99999998245E-14  0.12500000000E+03  0.12500000000E+03 0.  0.
        -13    1    3    3    0    0  0.41819917968E+00  0.32869665916E+02  0.18832408296E+02  0.37884833301E+02  0.10566000000E+00 0.  1.
         23    2    1    0    0    0  0.44641362185E+00 -0.66580927677E-01 -0.29019902354E+02  0.95976587886E+02  0.91483041988E+02 0.  0.
         13    1    3    3    0    0  0.28214442171E-01 -0.32936246844E+02 -0.47852310650E+02  0.58091754585E+02  0.10566000000E+00 0. -1.
         22    1    1    0    0    0 -0.44641362185E+00  0.66580927677E-01  0.29019902354E+02  0.29023412114E+02  0.00000000000E+00 0. -1.
</event>
<event>
 5    1  0.1758480E-003  0.9118800E+02  0.7818608E-02  0.1130116E+00
         25   -1    0    0    0    0  0.00000000000E+00  0.00000000000E+00  0.99999998245E-14  0.12500000000E+03  0.12500000000E+03 0.  0.
        -13    1    3    3    0    0 -0.27586367411E+02  0.24777952200E+02  0.18516644940E+02  0.41446735529E+02  0.10566000000E+00 0. -1.
         23    2    1    0    0    0  0.23902177844E+02  0.16888833828E+02  0.44992831892E+01  0.95389353891E+02  0.90677111074E+02 0.  0.
         13    1    3    3    0    0  0.51488545256E+02 -0.78891183718E+01 -0.14017361751E+02  0.53942618362E+02  0.10566000000E+00 0.  1.
         22    1    1    0    0    0 -0.23902177844E+02 -0.16888833828E+02 -0.44992831892E+01  0.29610646109E+02  0.00000000000E+00 0.  1.
</event>
<event>
 5    1  0.1758480E-003  0.9118800E+02  0.7818608E-02  0.1130116E+00
         25   -1    0    0    0    0  0.00000000000E+00  0.00000000000E+00  0.99999998245E-14  0.12500000000E+03  0.12500000000E+03 0.  0.
        -13    1    3    3    0    0  0.12279098089E+02  0.18974181940E+02 -0.37744187076E+02  0.43993529664E+02  0.10566000000E+00 0.  1.
         23    2    1    0    0    0  0.14007393528E+02 -0.24115603806E+02 -0.95279106312E+01  0.95528819138E+02  0.90869163001E+02 0.  0.
         13    1    3    3    0    0  0.17282954392E+01 -0.43089785746E+02  0.28216276445E+02  0.51535289475E+02  0.10566000000E+00 0. -1.
         22    1    1    0    0    0 -0.14007393528E+02  0.24115603806E+02  0.95279106312E+01  0.29471180862E+02  0.00000000000E+00 0. -1.
</event>
<event>
 5    1  0.1758480E-003  0.9118800E+02  0.7818608E-02  0.1130116E+00
         25   -1    0    0    0    0  0.00000000000E+00  0.00000000000E+00  0.99999998245E-14  0.12500000000E+03  0.12500000000E+03 0.  0.
        -13    1    3    3    0    0  0.50108932520E+02 -0.17270395120E+02  0.24079920225E+02  0.58215336364E+02  0.10566000000E+00 0. -1.
         23    2    1    0    0    0  0.27439568938E+02 -0.70042653151E+01 -0.47333245131E+01  0.96287737165E+02  0.91907204785E+02 0.  0.
         13    1    3    3    0    0 -0.22669363582E+02  0.10266129805E+02 -0.28813244738E+02  0.38072400801E+02  0.10566000000E+00 0.  1.
         22    1    1    0    0    0 -0.27439568938E+02  0.70042653151E+01  0.47333245131E+01  0.28712262835E+02  0.00000000000E+00 0. -1.
</event>
<event>
 5    1  0.1758480E-003  0.9118800E+02  0.7818608E-02  0.1130116E+00
         25   -1    0    0    0    0  0.00000000000E+00  0.00000000000E+00  0.99999998245E-14  0.12500000000E+03  0.12500000000E+03 0.  0.
        -13    1    3    3    0    0 -0.29421200504E+02 -0.41347205746E+02  0.26735633058E+02  0.57358553862E+02  0.10566000000E+00 0. -1.
         23    2    1    0    0    0 -0.48744525105E+01 -0.28844869364E+02  0.89189610682E-03  0.95746166462E+02  0.91167656630E+02 0.  0.
         13    1    3    3    0    0  0.24546747993E+02  0.12502336382E+02 -0.26734741162E+02  0.38387612600E+02  0.10566000000E+00 0.  1.
         22    1    1    0    0    0  0.48744525105E+01  0.28844869364E+02 -0.89189610682E-03  0.29253833538E+02  0.00000000000E+00 0.  1.
</event>
<event>
 5    1  0.1758480E-003  0.9118800E+02  0.7818608E-02  0.1130116E+00
         25   -1    0    0    0    0  0.00000000000E+00  0.00000000000E+00  0.99999998245E-14  0.12500000000E+03  0.12500000000E+03 0.  0.
        -13    1    3    3    0    0  0.24582067665E+02  0.46027074965E+02 -0.10951398270E+02  0.53317107655E+02  0.10566000000E+00 0.  1.
         23    2    1    0    0    0  0.27654786820E+02  0.56147660948E+01  0.39645939941E+01  0.96503845208E+02  0.92200657818E+02 0.  0.
         13    1    3    3    0    0  0.30727191551E+01 -0.40412308870E+02  0.14915992264E+02  0.43186737553E+02  0.10566000000E+00 0. -1.
         22    1    1    0    0    0 -0.27654786820E+02 -0.56147660948E+01 -0.39645939941E+01  0.28496154792E+02  0.00000000000E+00 0.  1.
</event>
<event>
 5    1  0.1758480E-003  0.9118800E+02  0.7818608E-02  0.1130116E+00
         25   -1    0    0    0    0  0.00000000000E+00  0.00000000000E+00  0.99999998245E-14  0.12500000000E+03  0.12500000000E+03 0.  0.
        -13    1    3    3    0    0 -0.20502244763E+02  0.22857174914E+02  0.97871717612E+01  0.32227199390E+02  0.10566000000E+00 0. -1.
         23    2    1    0    0    0  0.19222536021E+02 -0.97858349277E+01 -0.23204895308E+02  0.93318213078E+02  0.87775584700E+02 0.  0.
         13    1    3    3    0    0  0.39724780784E+02 -0.32643009842E+02 -0.32992067069E+02  0.61091013688E+02  0.10566000000E+00 0.  1.
         22    1    1    0    0    0 -0.19222536021E+02  0.97858349277E+01  0.23204895308E+02  0.31681786922E+02  0.00000000000E+00 0.  1.
</event>
<event>
 5    1  0.1758480E-003  0.9118800E+02  0.7818608E-02  0.1130116E+00
         25   -1    0    0    0    0  0.00000000000E+00  0.00000000000E+00  0.99999998245E-14  0.12500000000E+03  0.12500000000E+03 0.  0.
        -13    1    3    3    0    0  0.19182005338E+02  0.19055131670E+02  0.27556077024E+02  0.38605646177E+02  0.10566000000E+00 0. -1.
         23    2    1    0    0    0  0.35511713298E+01 -0.27138130803E+02 -0.49140643980E+01  0.97192860805E+02  0.93130098256E+02 0.  0.
         13    1    3    3    0    0 -0.15630834008E+02 -0.46193262474E+02 -0.32470141422E+02  0.58587214627E+02  0.10566000000E+00 0.  1.
         22    1    1    0    0    0 -0.35511713298E+01  0.27138130803E+02  0.49140643980E+01  0.27807139195E+02  0.00000000000E+00 0.  1.
</event>
<event>
 5    1  0.1758480E-003  0.9118800E+02  0.7818608E-02  0.1130116E+00
         25   -1    0    0    0    0  0.00000000000E+00  0.00000000000E+00  0.99999998245E-14  0.12500000000E+03  0.12500000000E+03 0.  0.
        -13    1    3    3    0    0  0.59726234853E+01 -0.16089695062E+02  0.36117459402E+02  0.39987905124E+02  0.10566000000E+00 0.  1.
         23    2    1    0    0    0  0.16555535746E+02 -0.15160775620E+02 -0.18673937423E+02  0.95799814725E+02  0.91241184129E+02 0.  0.
         13    1    3    3    0    0  0.10582912261E+02  0.92891944218E+00 -0.54791396825E+02  0.55811909601E+02  0.10566000000E+00 0. -1.
         22    1    1    0    0    0 -0.16555535746E+02  0.15160775620E+02  0.18673937423E+02  0.29200185275E+02  0.00000000000E+00 0. -1.
</event>
<event>
 5    1  0.1758480E-003  0.9118800E+02  0.7818608E-02  0.1130116E+00
         25   -1    0    0    0    0  0.00000000000E+00  0.00000000000E+00  0.99999998245E-14  0.12500000000E+03  0.12500000000E+03 0.  0.
        -13    1    3    3    0    0 -0.25930917519E+02 -0.20027181989E+02  0.23044501140E+02  0.40056968166E+02  0.10566000000E+00 0.  1.
         23    2    1    0    0    0  0.84555528923E+01 -0.19111590557E+02 -0.20618486777E+02  0.95642355930E+02  0.91025210698E+02 0.  0.
         13    1    3    3    0    0  0.34386470412E+02  0.91559143145E+00 -0.43662987917E+02  0.55585387765E+02  0.10566000000E+00 0. -1.
         22    1    1    0    0    0 -0.84555528923E+01  0.19111590557E+02  0.20618486777E+02  0.29357644070E+02  0.00000000000E+00 0. -1.
</event>
<event>
 5    1  0.1758480E-003  0.9118800E+02  0.7818608E-02  0.1130116E+00
         25   -1    0    0    0    0  0.00000000000E+00  0.00000000000E+00  0.99999998245E-14  0.12500000000E+03  0.12500000000E+03 0.  0.
        -13    1    3    3    0    0 -0.51652692409E+02 -0.21889861972E+02 -0.25523267930E+02  0.61632905660E+02  0.10566000000E+00 0.  1.
         23    2    1    0    0    0 -0.29046779387E+02 -0.66106006473E+01 -0.76741982477E+01  0.94237868207E+02  0.89075625464E+02 0.  0.
         13    1    3    3    0    0  0.22605913022E+02  0.15279261324E+02  0.17849069683E+02  0.32604962548E+02  0.10566000000E+00 0. -1.
         22    1    1    0    0    0  0.29046779387E+02  0.66106006473E+01  0.76741982477E+01  0.30762131793E+02  0.00000000000E+00 0.  1.
</event>
<event>
 5    1  0.1758480E-003  0.9118800E+02  0.7818608E-02  0.1130116E+00
         25   -1    0    0    0    0  0.00000000000E+00  0.00000000000E+00  0.99999998245E-14  0.12500000000E+03  0.12500000000E+03 0.  0.
        -13    1    3    3    0    0 -0.41083803452E+02  0.15367363734E+01  0.15594361943E+02  0.43970851176E+02  0.10566000000E+00 0. -1.
         23    2    1    0    0    0 -0.99582677687E+01  0.26394027878E+02 -0.13915622404E+02  0.93544374883E+02  0.88097069876E+02 0.  0.
         13    1    3    3    0    0  0.31125535683E+02  0.24857291505E+02 -0.29509984347E+02  0.49573523707E+02  0.10566000000E+00 0.  1.
         22    1    1    0    0    0  0.99582677687E+01 -0.26394027878E+02  0.13915622404E+02  0.31455625117E+02  0.00000000000E+00 0.  1.
</event>
<event>
 5    1  0.1758480E-003  0.9118800E+02  0.7818608E-02  0.1130116E+00
         25   -1    0    0    0    0  0.00000000000E+00  0.00000000000E+00  0.99999998245E-14  0.12500000000E+03  0.12500000000E+03 0.  0.
        -13    1    3    3    0    0 -0.79769873314E+01  0.22113722985E+02 -0.29642662841E+02  0.37833156034E+02  0.10566000000E+00 0. -1.
         23    2    1    0    0    0  0.19642761197E+02  0.13265738418E+02  0.19105188829E+02  0.94556180867E+02  0.89521199818E+02 0.  0.
         13    1    3    3    0    0  0.27619748528E+02 -0.88479845673E+01  0.48747851671E+02  0.56723024833E+02  0.10566000000E+00 0.  1.
         22    1    1    0    0    0 -0.19642761197E+02 -0.13265738418E+02 -0.19105188829E+02  0.30443819133E+02  0.00000000000E+00 0.  1.
</event>
<event>
 5    1  0.1758480E-003  0.9118800E+02  0.7818608E-02  0.1130116E+00
         25   -1    0    0    0    0  0.00000000000E+00  0.00000000000E+00  0.99999998245E-14  0.12500000000E+03  0.12500000000E+03 0.  0.
        -13    1    3    3    0    0  0.53755028148E+02 -0.30176723762E+01 -0.24677086390E+02  0.59225662973E+02  0.10566000000E+00 0. -1.
         23    2    1    0    0    0  0.29576634996E+02 -0.15822528192E+02 -0.12057998075E+02  0.89355574719E+02  0.81938352923E+02 0.  0.
         13    1    3    3    0    0 -0.24178393152E+02 -0.12804855815E+02  0.12619088315E+02  0.30129911746E+02  0.10566000000E+00 0.  1.
         22    1    1    0    0    0 -0.29576634996E+02  0.15822528192E+02  0.12057998075E+02  0.35644425281E+02  0.00000000000E+00 0. -1.
</event>
<event>
 5    1  0.1758480E-003  0.9118800E+02  0.7818608E-02  0.1130116E+00
         25   -1    0    0    0    0  0.00000000000E+00  0.00000000000E+00  0.99999998245E-14  0.12500000000E+03  0.12500000000E+03 0.  0.
        -13    1    3    3    0    0 -0.26257412695E+02 -0.21078452545E+02  0.54917711127E+00  0.33675891119E+02  0.10566000000E+00 0.  1.
         23    2    1    0    0    0  0.24722692348E+02  0.14442889577E+02 -0.45025925949E+01  0.96015833351E+02  0.91536650243E+02 0.  0.
         13    1    3    3    0    0  0.50980105042E+02  0.35521342122E+02 -0.50517697062E+01  0.62339942232E+02  0.10566000000E+00 0. -1.
         22    1    1    0    0    0 -0.24722692348E+02 -0.14442889577E+02  0.45025925949E+01  0.28984166649E+02  0.00000000000E+00 0. -1.
</event>
<event>
 5    1  0.1758480E-003  0.9118800E+02  0.7818608E-02  0.1130116E+00
         25   -1    0    0    0    0  0.00000000000E+00  0.00000000000E+00  0.99999998245E-14  0.12500000000E+03  0.12500000000E+03 0.  0.
        -13    1    3    3    0    0  0.20680484959E+02 -0.21056001630E+02 -0.37355574980E+02  0.47607644438E+02  0.10566000000E+00 0. -1.
         23    2    1    0    0    0  0.25484277424E+02  0.10147310648E+02  0.13262188667E+01  0.97537750170E+02  0.93591866861E+02 0.  0.
         13    1    3    3    0    0  0.48037924658E+01  0.31203312278E+02  0.38681793847E+02  0.49930105732E+02  0.10566000000E+00 0.  1.
         22    1    1    0    0    0 -0.25484277424E+02 -0.10147310648E+02 -0.13262188667E+01  0.27462249830E+02  0.00000000000E+00 0. -1.
</event>
<event>
 5    1  0.1758480E-003  0.9118800E+02  0.7818608E-02  0.1130116E+00
         25   -1    0    0    0    0  0.00000000000E+00  0.00000000000E+00  0.99999998245E-14  0.12500000000E+03  0.12500000000E+03 0.  0.
        -13    1    3    3    0    0 -0.90612478450E+01  0.10420903385E+02  0.56211247566E+02  0.57882786361E+02  0.10566000000E+00 0.  1.
         23    2    1    0    0    0 -0.87891555021E+01  0.20437453820E+02  0.21313202039E+02  0.94191050744E+02  0.89009902180E+02 0.  0.
         13    1    3    3    0    0  0.27209234290E+00  0.10016550435E+02 -0.34898045528E+02  0.36308264384E+02  0.10566000000E+00 0. -1.
         22    1    1    0    0    0  0.87891555021E+01 -0.20437453820E+02 -0.21313202039E+02  0.30808949256E+02  0.00000000000E+00 0.  1.
</event>
<event>
 5    1  0.1758480E-003  0.9118800E+02  0.7818608E-02  0.1130116E+00
         25   -1    0    0    0    0  0.00000000000E+00  0.00000000000E+00  0.99999998245E-14  0.12500000000E+03  0.12500000000E+03 0.  0.
        -13    1    3    3    0    0 -0.41824021410E+02  0.11193088584E+02 -0.12243821096E+01  0.43313326755E+02  0.10566000000E+00 0. -1.
         23    2    1    0    0    0 -0.97174503979E+01  0.12790304939E+01  0.32580117305E+02  0.90977525004E+02  0.84376425920E+02 0.  0.
         13    1    3    3    0    0  0.32106571012E+02 -0.99140580906E+01  0.33804499415E+02  0.47664198249E+02  0.10566000000E+00 0.  1.
         22    1    1    0    0    0  0.97174503979E+01 -0.12790304939E+01 -0.32580117305E+02  0.34022474996E+02  0.00000000000E+00 0.  1.
</event>
<event>
 5    1  0.1758480E-003  0.9118800E+02  0.7818608E-02  0.1130116E+00
         25   -1    0    0    0    0  0.00000000000E+00  0.00000000000E+00  0.99999998245E-14  0.12500000000E+03  0.12500000000E+03 0.  0.
        -13    1    3    3    0    0 -0.36574646482E+02 -0.11725018598E+02 -0.36277672766E+02  0.52832390934E+02  0.10566000000E+00 0.  1.
         23    2    1    0    0    0 -0.27869401483E+02 -0.13924103473E+02  0.35357215370E+01  0.93645805331E+02  0.88240871101E+02 0.  0.
         13    1    3    3    0    0  0.87052449985E+01 -0.21990848755E+01  0.39813394303E+02  0.40813414397E+02  0.10566000000E+00 0. -1.
         22    1    1    0    0    0  0.27869401483E+02  0.13924103473E+02 -0.35357215370E+01  0.31354194669E+02  0.00000000000E+00 0.  1.
</event>
<event>
 5    1  0.1758480E-003  0.9118800E+02  0.7818608E-02  0.1130116E+00
         25   -1    0    0    0    0  0.00000000000E+00  0.00000000000E+00  0.99999998245E-14  0.12500000000E+03  0.12500000000E+03 0.  0.
        -13    1    3    3    0    0  0.24057130380E+02 -0.94694593296E+01 -0.20015986698E+02  0.32696591102E+02  0.10566000000E+00 0.  1.
         23    2    1    0    0    0 -0.13381093228E+02  0.19212691693E+02  0.19736694704E+02  0.94377813665E+02  0.89271795190E+02 0.  0.
         13    1    3    3    0    0 -0.37438223608E+02  0.28682151023E+02  0.39752681402E+02  0.61681222564E+02  0.10566000000E+00 0. -1.
         22    1    1    0    0    0  0.13381093228E+02 -0.19212691693E+02 -0.19736694704E+02  0.30622186335E+02  0.00000000000E+00 0. -1.
</event>
<event>
 5    1  0.1758480E-003  0.9118800E+02  0.7818608E-02  0.1130116E+00
         25   -1    0    0    0    0  0.00000000000E+00  0.00000000000E+00  0.99999998245E-14  0.12500000000E+03  0.12500000000E+03 0.  0.
        -13    1    3    3    0    0 -0.27249552410E+02  0.36643252218E+02 -0.26782361271E+02  0.52939324504E+02  0.10566000000E+00 0. -1.
         23    2    1    0    0    0 -0.10772056178E+02 -0.28791274900E+01 -0.27030696740E+02  0.95759871142E+02  0.91186445185E+02 0.  0.
         13    1    3    3    0    0  0.16477496232E+02 -0.39522379708E+02 -0.24833546883E+00  0.42820546638E+02  0.10566000000E+00 0.  1.
         22    1    1    0    0    0  0.10772056178E+02  0.28791274900E+01  0.27030696740E+02  0.29240128858E+02  0.00000000000E+00 0. -1.
</event>
<event>
 5    1  0.1758480E-003  0.9118800E+02  0.7818608E-02  0.1130116E+00
         25   -1    0    0    0    0  0.00000000000E+00  0.00000000000E+00  0.99999998245E-14  0.12500000000E+03  0.12500000000E+03 0.  0.
        -13    1    3    3    0    0  0.67150884406E+01  0.27159613147E+02  0.23410134047E+02  0.36479892259E+02  0.10566000000E+00 0.  1.
         23    2    1    0    0    0 -0.15057764514E+02 -0.24015210000E+02  0.43963111702E+00  0.96651104801E+02  0.92400087664E+02 0.  0.
         13    1    3    3    0    0 -0.21772852954E+02 -0.51174823147E+02 -0.22970502930E+02  0.60171212542E+02  0.10566000000E+00 0. -1.
         22    1    1    0    0    0  0.15057764514E+02  0.24015210000E+02 -0.43963111702E+00  0.28348895199E+02  0.00000000000E+00 0. -1.
</event>
<event>
 5    1  0.1758480E-003  0.9118800E+02  0.7818608E-02  0.1130116E+00
         25   -1    0    0    0    0  0.00000000000E+00  0.00000000000E+00  0.99999998245E-14  0.12500000000E+03  0.12500000000E+03 0.  0.
        -13    1    3    3    0    0 -0.50320008688E+02 -0.34691927823E+02  0.83472348285E+01  0.61687280891E+02  0.10566000000E+00 0.  1.
         23    2    1    0    0    0 -0.61738201724E+01 -0.87545070882E+01 -0.24396514716E+01  0.11401321934E+03  0.11348261909E+03 0.  0.
         13    1    3    3    0    0  0.44146188516E+02  0.25937420735E+02 -0.10786886300E+02  0.52325938453E+02  0.10566000000E+00 0. -1.
         22    1    1    0    0    0  0.61738201724E+01  0.87545070882E+01  0.24396514716E+01  0.10986780656E+02  0.00000000000E+00 0.  1.
</event>
<event>
 5    1  0.1758480E-003  0.9118800E+02  0.7818608E-02  0.1130116E+00
         25   -1    0    0    0    0  0.00000000000E+00  0.00000000000E+00  0.99999998245E-14  0.12500000000E+03  0.12500000000E+03 0.  0.
        -13    1    3    3    0    0 -0.47761190410E+02  0.36371854675E+02  0.43250755718E+01  0.60189372523E+02  0.10566000000E+00 0.  1.
         23    2    1    0    0    0 -0.14814763490E+02  0.25848363810E+02 -0.10374658355E+01  0.95189071395E+02  0.90400596507E+02 0.  0.
         13    1    3    3    0    0  0.32946426920E+02 -0.10523490865E+02 -0.53625414073E+01  0.34999698873E+02  0.10566000000E+00 0. -1.
         22    1    1    0    0    0  0.14814763490E+02 -0.25848363810E+02  0.10374658355E+01  0.29810928605E+02  0.00000000000E+00 0.  1.
</event>
<event>
 5    1  0.1758480E-003  0.9118800E+02  0.7818608E-02  0.1130116E+00
         25   -1    0    0    0    0  0.00000000000E+00  0.00000000000E+00  0.99999998245E-14  0.12500000000E+03  0.12500000000E+03 0.  0.
        -13    1    3    3    0    0 -0.43214719093E+02 -0.29349203548E+02  0.18191099795E+01  0.52270527263E+02  0.10566000000E+00 0. -1.
         23    2    1    0    0    0 -0.12715216217E+01 -0.25796710231E+02  0.13365156123E+02  0.95918830419E+02  0.91404089650E+02 0.  0.
         13    1    3    3    0    0  0.41943197471E+02  0.35524933163E+01  0.11546046143E+02  0.43648303157E+02  0.10566000000E+00 0.  1.
         22    1    1    0    0    0  0.12715216217E+01  0.25796710231E+02 -0.13365156123E+02  0.29081169581E+02  0.00000000000E+00 0.  1.
</event>
<event>
 5    1  0.1758480E-003  0.9118800E+02  0.7818608E-02  0.1130116E+00
         25   -1    0    0    0    0  0.00000000000E+00  0.00000000000E+00  0.99999998245E-14  0.12500000000E+03  0.12500000000E+03 0.  0.
        -13    1    3    3    0    0 -0.35835936055E+02  0.14659939409E+02  0.75181859955E+00  0.38726018795E+02  0.10566000000E+00 0.  1.
         23    2    1    0    0    0 -0.16448508743E+01 -0.25539541988E+02 -0.16851232098E+02  0.94357908645E+02  0.89243919464E+02 0.  0.
         13    1    3    3    0    0  0.34191085181E+02 -0.40199481397E+02 -0.17603050698E+02  0.55631889851E+02  0.10566000000E+00 0. -1.
         22    1    1    0    0    0  0.16448508743E+01  0.25539541988E+02  0.16851232098E+02  0.30642091355E+02  0.00000000000E+00 0. -1.
</event>
<event>
 5    1  0.1758480E-003  0.9118800E+02  0.7818608E-02  0.1130116E+00
         25   -1    0    0    0    0  0.00000000000E+00  0.00000000000E+00  0.99999998245E-14  0.12500000000E+03  0.12500000000E+03 0.  0.
        -13    1    3    3    0    0  0.20564785772E+02 -0.15386743495E+02 -0.21410822804E+02  0.33437954280E+02  0.10566000000E+00 0. -1.
         23    2    1    0    0    0 -0.13697631418E+02 -0.12900440632E+02  0.26566014232E+02  0.92445436769E+02  0.86523749296E+02 0.  0.
         13    1    3    3    0    0 -0.34262417190E+02  0.24863028634E+01  0.47976837037E+02  0.59007482489E+02  0.10566000000E+00 0.  1.
         22    1    1    0    0    0  0.13697631418E+02  0.12900440632E+02 -0.26566014232E+02  0.32554563231E+02  0.00000000000E+00 0.  1.
</event>
<event>
 5    1  0.1758480E-003  0.9118800E+02  0.7818608E-02  0.1130116E+00
         25   -1    0    0    0    0  0.00000000000E+00  0.00000000000E+00  0.99999998245E-14  0.12500000000E+03  0.12500000000E+03 0.  0.
        -13    1    3    3    0    0 -0.68159778083E+01  0.11634747094E+02  0.25888558156E+02  0.29189955479E+02  0.10566000000E+00 0.  1.
         23    2    1    0    0    0  0.10146218416E+02  0.47637339834E+02  0.70098136652E+00  0.76289084699E+02  0.58713466724E+02 0.  0.
         13    1    3    3    0    0  0.16962196225E+02  0.36002592739E+02 -0.25187576789E+02  0.47099129220E+02  0.10566000000E+00 0. -1.
         22    1    1    0    0    0 -0.10146218416E+02 -0.47637339834E+02 -0.70098136652E+00  0.48710915301E+02  0.00000000000E+00 0. -1.
</event>
<event>
 5    1  0.1758480E-003  0.9118800E+02  0.7818608E-02  0.1130116E+00
         25   -1    0    0    0    0  0.00000000000E+00  0.00000000000E+00  0.99999998245E-14  0.12500000000E+03  0.12500000000E+03 0.  0.
        -13    1    3    3    0    0 -0.31885921636E+02  0.26915017376E+02  0.30887484961E+02  0.51915104258E+02  0.10566000000E+00 0.  1.
         23    2    1    0    0    0 -0.31489314253E+02  0.41883646472E+00 -0.11440164558E+01  0.93487127872E+02  0.88015805216E+02 0.  0.
         13    1    3    3    0    0  0.39660738238E+00 -0.26496180911E+02 -0.32031501417E+02  0.41572023613E+02  0.10566000000E+00 0. -1.
         22    1    1    0    0    0  0.31489314253E+02 -0.41883646472E+00  0.11440164558E+01  0.31512872128E+02  0.00000000000E+00 0. -1.
</event>
<event>
 5    1  0.1758480E-003  0.9118800E+02  0.7818608E-02  0.1130116E+00
         25   -1    0    0    0    0  0.00000000000E+00  0.00000000000E+00  0.99999998245E-14  0.12500000000E+03  0.12500000000E+03 0.  0.
        -13    1    3    3    0    0  0.33736303116E+02  0.22611835467E+02  0.43276809492E+02  0.59349192539E+02  0.10566000000E+00 0. -1.
         23    2    1    0    0    0  0.14139790702E+02 -0.30744086388E+01  0.24011911118E+02  0.96965065630E+02  0.92823846115E+02 0.  0.
         13    1    3    3    0    0 -0.19596512413E+02 -0.25686244106E+02 -0.19264898374E+02  0.37615873092E+02  0.10566000000E+00 0.  1.
         22    1    1    0    0    0 -0.14139790702E+02  0.30744086388E+01 -0.24011911118E+02  0.28034934370E+02  0.00000000000E+00 0. -1.
</event>
<event>
 5    1  0.1758480E-003  0.9118800E+02  0.7818608E-02  0.1130116E+00
         25   -1    0    0    0    0  0.00000000000E+00  0.00000000000E+00  0.99999998245E-14  0.12500000000E+03  0.12500000000E+03 0.  0.
        -13    1    3    3    0    0  0.84980222066E+00  0.27464782750E+02  0.42081585355E+02  0.50258406713E+02  0.10566000000E+00 0. -1.
         23    2    1    0    0    0 -0.22324230665E+02  0.17922254756E+02  0.36496194433E+01  0.96140024040E+02  0.91706084913E+02 0.  0.
         13    1    3    3    0    0 -0.23174032886E+02 -0.95425279939E+01 -0.38431965911E+02  0.45881617327E+02  0.10566000000E+00 0.  1.
         22    1    1    0    0    0  0.22324230665E+02 -0.17922254756E+02 -0.36496194433E+01  0.28859975960E+02  0.00000000000E+00 0. -1.
</event>
<event>
 5    1  0.1758480E-003  0.9118800E+02  0.7818608E-02  0.1130116E+00
         25   -1    0    0    0    0  0.00000000000E+00  0.00000000000E+00  0.99999998245E-14  0.12500000000E+03  0.12500000000E+03 0.  0.
        -13    1    3    3    0    0  0.14055064408E+02  0.46992282547E+02  0.12928864208E+01  0.49066303853E+02  0.10566000000E+00 0. -1.
         23    2    1    0    0    0  0.27299214815E+02  0.97007788644E+01 -0.15600793374E+02  0.92095030862E+02  0.86016031735E+02 0.  0.
         13    1    3    3    0    0  0.13244150408E+02 -0.37291503683E+02 -0.16893679794E+02  0.43028727008E+02  0.10566000000E+00 0.  1.
         22    1    1    0    0    0 -0.27299214815E+02 -0.97007788644E+01  0.15600793374E+02  0.32904969138E+02  0.00000000000E+00 0. -1.
</event>
<event>
 5    1  0.1758480E-003  0.9118800E+02  0.7818608E-02  0.1130116E+00
         25   -1    0    0    0    0  0.00000000000E+00  0.00000000000E+00  0.99999998245E-14  0.12500000000E+03  0.12500000000E+03 0.  0.
        -13    1    3    3    0    0 -0.37437666014E+02  0.46751764917E+02  0.11466379873E+02  0.60981926756E+02  0.10566000000E+00 0.  1.
         23    2    1    0    0    0 -0.17091217997E+02  0.24146961847E+02 -0.40769068123E+01  0.95136867742E+02  0.90328383887E+02 0.  0.
         13    1    3    3    0    0  0.20346448017E+02 -0.22604803070E+02 -0.15543286685E+02  0.34154940986E+02  0.10566000000E+00 0. -1.
         22    1    1    0    0    0  0.17091217997E+02 -0.24146961847E+02  0.40769068123E+01  0.29863132258E+02  0.00000000000E+00 0.  1.
</event>
<event>
 5    1  0.1758480E-003  0.9118800E+02  0.7818608E-02  0.1130116E+00
         25   -1    0    0    0    0  0.00000000000E+00  0.00000000000E+00  0.99999998245E-14  0.12500000000E+03  0.12500000000E+03 0.  0.
        -13    1    3    3    0    0 -0.55460294899E+02  0.16793412295E+02 -0.16343609186E+02  0.60207871014E+02  0.10566000000E+00 0.  1.
         23    2    1    0    0    0 -0.30208516069E+02  0.88109620388E+01  0.35530659869E+01  0.93332796570E+02  0.87796350395E+02 0.  0.
         13    1    3    3    0    0  0.25251778830E+02 -0.79824502565E+01  0.19896675173E+02  0.33124925557E+02  0.10566000000E+00 0. -1.
         22    1    1    0    0    0  0.30208516069E+02 -0.88109620388E+01 -0.35530659869E+01  0.31667203430E+02  0.00000000000E+00 0.  1.
</event>
<event>
 5    1  0.1758480E-003  0.9118800E+02  0.7818608E-02  0.1130116E+00
         25   -1    0    0    0    0  0.00000000000E+00  0.00000000000E+00  0.99999998245E-14  0.12500000000E+03  0.12500000000E+03 0.  0.
        -13    1    3    3    0    0  0.17569654628E+02  0.46929550483E+02  0.26638036237E+02  0.56750961321E+02  0.10566000000E+00 0.  1.
         23    2    1    0    0    0  0.72360852933E+01  0.28245132701E+02 -0.54932681753E+01  0.95329738004E+02  0.90594892245E+02 0.  0.
         13    1    3    3    0    0 -0.10333569335E+02 -0.18684417781E+02 -0.32131304413E+02  0.38578776683E+02  0.10566000000E+00 0. -1.
         22    1    1    0    0    0 -0.72360852933E+01 -0.28245132701E+02  0.54932681753E+01  0.29670261996E+02  0.00000000000E+00 0.  1.
</event>
<event>
 5    1  0.1758480E-003  0.9118800E+02  0.7818608E-02  0.1130116E+00
         25   -1    0    0    0    0  0.00000000000E+00  0.00000000000E+00  0.99999998245E-14  0.12500000000E+03  0.12500000000E+03 0.  0.
        -13    1    3    3    0    0 -0.25756706731E+02  0.31465959781E+02  0.41403916600E+01  0.40873812811E+02  0.10566000000E+00 0. -1.
         23    2    1    0    0    0 -0.50640986411E+01 -0.99524229361E+01 -0.26397557187E+02  0.96337710440E+02  0.91975146698E+02 0.  0.
         13    1    3    3    0    0  0.20692608090E+02 -0.41418382717E+02 -0.30537948847E+02  0.55463897630E+02  0.10566000000E+00 0.  1.
         22    1    1    0    0    0  0.50640986411E+01  0.99524229361E+01  0.26397557187E+02  0.28662289560E+02  0.00000000000E+00 0.  1.
</event>
<event>
 5    1  0.1758480E-003  0.9118800E+02  0.7818608E-02  0.1130116E+00
         25   -1    0    0    0    0  0.00000000000E+00  0.00000000000E+00  0.99999998245E-14  0.12500000000E+03  0.12500000000E+03 0.  0.
        -13    1    3    3    0    0 -0.41784930910E+02  0.18784755430E+01  0.23837206511E+02  0.48142836433E+02  0.10566000000E+00 0.  1.
         23    2    1    0    0    0 -0.10851667637E+01 -0.24526128054E+02  0.77245164565E+01  0.99263319975E+02  0.95868816587E+02 0.  0.
         13    1    3    3    0    0  0.40699764147E+02 -0.26404603597E+02 -0.16112690055E+02  0.51120483542E+02  0.10566000000E+00 0. -1.
         22    1    1    0    0    0  0.10851667637E+01  0.24526128054E+02 -0.77245164565E+01  0.25736680025E+02  0.00000000000E+00 0. -1.
</event>
<event>
 5    1  0.1758480E-003  0.9118800E+02  0.7818608E-02  0.1130116E+00
         25   -1    0    0    0    0  0.00000000000E+00  0.00000000000E+00  0.99999998245E-14  0.12500000000E+03  0.12500000000E+03 0.  0.
        -13    1    3    3    0    0  0.12473749713E+01 -0.39769340588E+02  0.23754067728E+02  0.46340298799E+02  0.10566000000E+00 0.  1.
         23    2    1    0    0    0  0.26934703446E+02 -0.21889174833E+01 -0.60687152187E+00  0.97969685490E+02  0.94166986638E+02 0.  0.
         13    1    3    3    0    0  0.25687328475E+02  0.37580423105E+02 -0.24360939249E+02  0.51629386691E+02  0.10566000000E+00 0. -1.
         22    1    1    0    0    0 -0.26934703446E+02  0.21889174833E+01  0.60687152187E+00  0.27030314510E+02  0.00000000000E+00 0. -1.
</event>
<event>
 5    1  0.1758480E-003  0.9118800E+02  0.7818608E-02  0.1130116E+00
         25   -1    0    0    0    0  0.00000000000E+00  0.00000000000E+00  0.99999998245E-14  0.12500000000E+03  0.12500000000E+03 0.  0.
        -13    1    3    3    0    0  0.12026863150E+02  0.35030534376E+02  0.34150291142E+01  0.37194856685E+02  0.10566000000E+00 0.  1.
         23    2    1    0    0    0 -0.78521539382E+00 -0.78972326040E+01 -0.30564087201E+02  0.93422377029E+02  0.87923798015E+02 0.  0.
         13    1    3    3    0    0 -0.12812078544E+02 -0.42927766980E+02 -0.33979116316E+02  0.56227520345E+02  0.10566000000E+00 0. -1.
         22    1    1    0    0    0  0.78521539382E+00  0.78972326040E+01  0.30564087201E+02  0.31577622971E+02  0.00000000000E+00 0. -1.
</event>
<event>
 5    1  0.1758480E-003  0.9118800E+02  0.7818608E-02  0.1130116E+00
         25   -1    0    0    0    0  0.00000000000E+00  0.00000000000E+00  0.99999998245E-14  0.12500000000E+03  0.12500000000E+03 0.  0.
        -13    1    3    3    0    0  0.30292286057E+01  0.14888329749E+02 -0.52074463035E+02  0.54245732118E+02  0.10566000000E+00 0.  1.
         23    2    1    0    0    0 -0.37657112702E+00 -0.15522764012E+02 -0.27193748779E+02  0.93685498870E+02  0.88297082158E+02 0.  0.
         13    1    3    3    0    0 -0.34057997327E+01 -0.30411093760E+02  0.24880714256E+02  0.39439766752E+02  0.10566000000E+00 0. -1.
         22    1    1    0    0    0  0.37657112702E+00  0.15522764012E+02  0.27193748779E+02  0.31314501130E+02  0.00000000000E+00 0.  1.
</event>
<event>
 5    1  0.1758480E-003  0.9118800E+02  0.7818608E-02  0.1130116E+00
         25   -1    0    0    0    0  0.00000000000E+00  0.00000000000E+00  0.99999998245E-14  0.12500000000E+03  0.12500000000E+03 0.  0.
        -13    1    3    3    0    0 -0.40408464310E+02 -0.54743433194E+01  0.18826827306E+02  0.44914062532E+02  0.10566000000E+00 0.  1.
         23    2    1    0    0    0 -0.12913473519E+02  0.17239959799E+02 -0.18548070852E+02  0.96574572219E+02  0.92296495354E+02 0.  0.
         13    1    3    3    0    0  0.27494990790E+02  0.22714303119E+02 -0.37374898158E+02  0.51660509687E+02  0.10566000000E+00 0. -1.
         22    1    1    0    0    0  0.12913473519E+02 -0.17239959799E+02  0.18548070852E+02  0.28425427781E+02  0.00000000000E+00 0.  1.
</event>
<event>
 5    1  0.1758480E-003  0.9118800E+02  0.7818608E-02  0.1130116E+00
         25   -1    0    0    0    0  0.00000000000E+00  0.00000000000E+00  0.99999998245E-14  0.12500000000E+03  0.12500000000E+03 0.  0.
        -13    1    3    3    0    0 -0.16993359735E+02 -0.35226931961E+02 -0.10805167390E+02  0.40576764494E+02  0.10566000000E+00 0.  1.
         23    2    1    0    0    0  0.26828285247E+02 -0.27856646570E+02 -0.10135387628E+02  0.85019057917E+02  0.75031756472E+02 0.  0.
         13    1    3    3    0    0  0.43821644983E+02  0.73702853905E+01  0.66977976218E+00  0.44442293423E+02  0.10566000000E+00 0. -1.
         22    1    1    0    0    0 -0.26828285247E+02  0.27856646570E+02  0.10135387628E+02  0.39980942083E+02  0.00000000000E+00 0.  1.
</event>
<event>
 5    1  0.1758480E-003  0.9118800E+02  0.7818608E-02  0.1130116E+00
         25   -1    0    0    0    0  0.00000000000E+00  0.00000000000E+00  0.99999998245E-14  0.12500000000E+03  0.12500000000E+03 0.  0.
        -13    1    3    3    0    0  0.31773371098E+02  0.25141755011E+02 -0.38179768605E+02  0.55671903602E+02  0.10566000000E+00 0.  1.
         23    2    1    0    0    0  0.52104514245E+01  0.27647313192E+02 -0.84372331966E+01  0.95628080846E+02  0.91005605385E+02 0.  0.
         13    1    3    3    0    0 -0.26562919673E+02  0.25055581811E+01  0.29742535408E+02  0.39956177243E+02  0.10566000000E+00 0. -1.
         22    1    1    0    0    0 -0.52104514245E+01 -0.27647313192E+02  0.84372331966E+01  0.29371919154E+02  0.00000000000E+00 0.  1.
</event>
<event>
 5    1  0.1758480E-003  0.9118800E+02  0.7818608E-02  0.1130116E+00
         25   -1    0    0    0    0  0.00000000000E+00  0.00000000000E+00  0.99999998245E-14  0.12500000000E+03  0.12500000000E+03 0.  0.
        -13    1    3    3    0    0 -0.48336228642E+02 -0.46243409128E+00 -0.21019530325E+02  0.52710878040E+02  0.10566000000E+00 0.  1.
         23    2    1    0    0    0 -0.98767622598E+01 -0.20810927797E+02 -0.16926937253E+02  0.96413878310E+02  0.92078605428E+02 0.  0.
         13    1    3    3    0    0  0.38459466383E+02 -0.20348493705E+02  0.40925930716E+01  0.43703000270E+02  0.10566000000E+00 0. -1.
         22    1    1    0    0    0  0.98767622598E+01  0.20810927797E+02  0.16926937253E+02  0.28586121690E+02  0.00000000000E+00 0. -1.
</event>
<event>
 5    1  0.1758480E-003  0.9118800E+02  0.7818608E-02  0.1130116E+00
         25   -1    0    0    0    0  0.00000000000E+00  0.00000000000E+00  0.99999998245E-14  0.12500000000E+03  0.12500000000E+03 0.  0.
        -13    1    3    3    0    0  0.35348745424E+02  0.38737750817E+02  0.26360899034E+01  0.52508163892E+02  0.10566000000E+00 0.  1.
         23    2    1    0    0    0  0.23200143219E+02  0.43474627285E+01 -0.18808763436E+02  0.94818604082E+02  0.89886879023E+02 0.  0.
         13    1    3    3    0    0 -0.12148602204E+02 -0.34390288088E+02 -0.21444853339E+02  0.42310440190E+02  0.10566000000E+00 0. -1.
         22    1    1    0    0    0 -0.23200143219E+02 -0.43474627285E+01  0.18808763436E+02  0.30181395918E+02  0.00000000000E+00 0.  1.
</event>
<event>
 5    1  0.1758480E-003  0.9118800E+02  0.7818608E-02  0.1130116E+00
         25   -1    0    0    0    0  0.00000000000E+00  0.00000000000E+00  0.99999998245E-14  0.12500000000E+03  0.12500000000E+03 0.  0.
        -13    1    3    3    0    0 -0.30758544481E+02 -0.13758466065E+02 -0.15200726103E+02  0.36965614903E+02  0.10566000000E+00 0.  1.
         23    2    1    0    0    0  0.27506329545E+01  0.49359655114E+01  0.28974909187E+02  0.95479242903E+02  0.90800940114E+02 0.  0.
         13    1    3    3    0    0  0.33509177436E+02  0.18694431577E+02  0.44175635290E+02  0.58513628000E+02  0.10566000000E+00 0. -1.
         22    1    1    0    0    0 -0.27506329545E+01 -0.49359655114E+01 -0.28974909187E+02  0.29520757097E+02  0.00000000000E+00 0. -1.
</event>
<event>
 5    1  0.1758480E-003  0.9118800E+02  0.7818608E-02  0.1130116E+00
         25   -1    0    0    0    0  0.00000000000E+00  0.00000000000E+00  0.99999998245E-14  0.12500000000E+03  0.12500000000E+03 0.  0.
        -13    1    3    3    0    0  0.30637310578E+02 -0.15338050439E+02 -0.46306194692E+02  0.57603605978E+02  0.10566000000E+00 0.  1.
         23    2    1    0    0    0  0.76580347142E+01 -0.22864642508E+02 -0.17542680240E+02  0.95180828269E+02  0.90389197736E+02 0.  0.
         13    1    3    3    0    0 -0.22979275864E+02 -0.75265920695E+01  0.28763514453E+02  0.37577222291E+02  0.10566000000E+00 0. -1.
         22    1    1    0    0    0 -0.76580347142E+01  0.22864642508E+02  0.17542680240E+02  0.29819171731E+02  0.00000000000E+00 0.  1.
</event>
<event>
 5    1  0.1758480E-003  0.9118800E+02  0.7818608E-02  0.1130116E+00
         25   -1    0    0    0    0  0.00000000000E+00  0.00000000000E+00  0.99999998245E-14  0.12500000000E+03  0.12500000000E+03 0.  0.
        -13    1    3    3    0    0  0.28473438419E+02  0.17883127365E+02  0.46962312074E+01  0.33950091184E+02  0.10566000000E+00 0.  1.
         23    2    1    0    0    0 -0.17723872214E+02 -0.16952677054E+02 -0.16355717653E+02  0.95520542653E+02  0.90857777120E+02 0.  0.
         13    1    3    3    0    0 -0.46197310633E+02 -0.34835804419E+02 -0.21051948860E+02  0.61570451469E+02  0.10566000000E+00 0. -1.
         22    1    1    0    0    0  0.17723872214E+02  0.16952677054E+02  0.16355717653E+02  0.29479457347E+02  0.00000000000E+00 0. -1.
</event>
<event>
 5    1  0.1758480E-003  0.9118800E+02  0.7818608E-02  0.1130116E+00
         25   -1    0    0    0    0  0.00000000000E+00  0.00000000000E+00  0.99999998245E-14  0.12500000000E+03  0.12500000000E+03 0.  0.
        -13    1    3    3    0    0  0.13751105931E+02  0.16771751725E+00 -0.34285570745E+02  0.36940933513E+02  0.10566000000E+00 0.  1.
         23    2    1    0    0    0 -0.26260836533E+02  0.11737200190E+02  0.67964619527E+01  0.95443523573E+02  0.90751754215E+02 0.  0.
         13    1    3    3    0    0 -0.40011942464E+02  0.11569482673E+02  0.41082032697E+02  0.58502590060E+02  0.10566000000E+00 0. -1.
         22    1    1    0    0    0  0.26260836533E+02 -0.11737200190E+02 -0.67964619527E+01  0.29556476427E+02  0.00000000000E+00 0. -1.
</event>
<event>
 5    1  0.1758480E-003  0.9118800E+02  0.7818608E-02  0.1130116E+00
         25   -1    0    0    0    0  0.00000000000E+00  0.00000000000E+00  0.99999998245E-14  0.12500000000E+03  0.12500000000E+03 0.  0.
        -13    1    3    3    0    0 -0.19708153026E+02  0.19475250920E+02  0.23234457568E+02  0.36160031480E+02  0.10566000000E+00 0.  1.
         23    2    1    0    0    0  0.21674859821E+02 -0.19070111830E+02  0.42271499328E+01  0.95822311435E+02  0.91271999313E+02 0.  0.
         13    1    3    3    0    0  0.41383012847E+02 -0.38545362750E+02 -0.19007307635E+02  0.59662279955E+02  0.10566000000E+00 0. -1.
         22    1    1    0    0    0 -0.21674859821E+02  0.19070111830E+02 -0.42271499328E+01  0.29177688565E+02  0.00000000000E+00 0. -1.
</event>
<event>
 5    1  0.1758480E-003  0.9118800E+02  0.7818608E-02  0.1130116E+00
         25   -1    0    0    0    0  0.00000000000E+00  0.00000000000E+00  0.99999998245E-14  0.12500000000E+03  0.12500000000E+03 0.  0.
        -13    1    3    3    0    0  0.18969762993E+02 -0.44334722982E+02  0.28730630720E+02  0.56132698808E+02  0.10566000000E+00 0.  1.
         23    2    1    0    0    0 -0.90014174627E+01 -0.29160241132E+02  0.11007496794E+02  0.92557586944E+02  0.86685620122E+02 0.  0.
         13    1    3    3    0    0 -0.27971180455E+02  0.15174481850E+02 -0.17723133926E+02  0.36424888135E+02  0.10566000000E+00 0. -1.
         22    1    1    0    0    0  0.90014174627E+01  0.29160241132E+02 -0.11007496794E+02  0.32442413056E+02  0.00000000000E+00 0.  1.
</event>
<event>
 5    1  0.1758480E-003  0.9118800E+02  0.7818608E-02  0.1130116E+00
         25   -1    0    0    0    0  0.00000000000E+00  0.00000000000E+00  0.99999998245E-14  0.12500000000E+03  0.12500000000E+03 0.  0.
        -13    1    3    3    0    0 -0.16538119507E+02  0.48585020170E+02 -0.35125558445E+02  0.62191877298E+02  0.10566000000E+00 0. -1.
         23    2    1    0    0    0 -0.60812621650E+01  0.24500310904E+02 -0.12603516077E+02  0.96784833840E+02  0.92580821232E+02 0.  0.
         13    1    3    3    0    0  0.10456857341E+02 -0.24084709266E+02  0.22522042368E+02  0.34592956542E+02  0.10566000000E+00 0.  1.
         22    1    1    0    0    0  0.60812621650E+01 -0.24500310904E+02  0.12603516077E+02  0.28215166160E+02  0.00000000000E+00 0. -1.
</event>
<event>
 5    1  0.1758480E-003  0.9118800E+02  0.7818608E-02  0.1130116E+00
         25   -1    0    0    0    0  0.00000000000E+00  0.00000000000E+00  0.99999998245E-14  0.12500000000E+03  0.12500000000E+03 0.  0.
        -13    1    3    3    0    0 -0.10858259606E+02 -0.49605707896E+02  0.82592309260E+01  0.51447586115E+02  0.10566000000E+00 0.  1.
         23    2    1    0    0    0  0.15429421694E+02 -0.13321765921E+02  0.18570382050E+02  0.97424728641E+02  0.93440794946E+02 0.  0.
         13    1    3    3    0    0  0.26287681300E+02  0.36283941974E+02  0.10311151124E+02  0.45977142526E+02  0.10566000000E+00 0. -1.
         22    1    1    0    0    0 -0.15429421694E+02  0.13321765921E+02 -0.18570382050E+02  0.27575271359E+02  0.00000000000E+00 0.  1.
</event>
<event>
 5    1  0.1758480E-003  0.9118800E+02  0.7818608E-02  0.1130116E+00
         25   -1    0    0    0    0  0.00000000000E+00  0.00000000000E+00  0.99999998245E-14  0.12500000000E+03  0.12500000000E+03 0.  0.
        -13    1    3    3    0    0  0.35853647860E+02  0.20387251331E+02  0.39220748720E+02  0.56915748049E+02  0.10566000000E+00 0. -1.
         23    2    1    0    0    0  0.25895696923E+02  0.14553551211E+02  0.27514272337E+01  0.95167746920E+02  0.90371105615E+02 0.  0.
         13    1    3    3    0    0 -0.99579509371E+01 -0.58337001203E+01 -0.36469321487E+02  0.38251998872E+02  0.10566000000E+00 0.  1.
         22    1    1    0    0    0 -0.25895696923E+02 -0.14553551211E+02 -0.27514272337E+01  0.29832253080E+02  0.00000000000E+00 0. -1.
</event>
<event>
 5    1  0.1758480E-003  0.9118800E+02  0.7818608E-02  0.1130116E+00
         25   -1    0    0    0    0  0.00000000000E+00  0.00000000000E+00  0.99999998245E-14  0.12500000000E+03  0.12500000000E+03 0.  0.
        -13    1    3    3    0    0  0.26557027718E+02  0.22567366795E+02  0.24978805531E+02  0.42877892382E+02  0.10566000000E+00 0. -1.
         23    2    1    0    0    0 -0.13614326859E+02 -0.14515259440E+02  0.18316793686E+02  0.97952863675E+02  0.94144654223E+02 0.  0.
         13    1    3    3    0    0 -0.40171354577E+02 -0.37082626235E+02 -0.66620118450E+01  0.55074971293E+02  0.10566000000E+00 0.  1.
         22    1    1    0    0    0  0.13614326859E+02  0.14515259440E+02 -0.18316793686E+02  0.27047136325E+02  0.00000000000E+00 0.  1.
</event>
<event>
 5    1  0.1758480E-003  0.9118800E+02  0.7818608E-02  0.1130116E+00
         25   -1    0    0    0    0  0.00000000000E+00  0.00000000000E+00  0.99999998245E-14  0.12500000000E+03  0.12500000000E+03 0.  0.
        -13    1    3    3    0    0  0.14279065455E+02  0.46945337482E+01  0.58879039923E+02  0.60767449047E+02  0.10566000000E+00 0. -1.
         23    2    1    0    0    0  0.25928604640E+01  0.11727529166E+02  0.26243698428E+02  0.96138441260E+02  0.91703927479E+02 0.  0.
         13    1    3    3    0    0 -0.11686204991E+02  0.70329954180E+01 -0.32635341495E+02  0.35370992214E+02  0.10566000000E+00 0.  1.
         22    1    1    0    0    0 -0.25928604640E+01 -0.11727529166E+02 -0.26243698428E+02  0.28861558740E+02  0.00000000000E+00 0. -1.
</event>
<event>
 5    1  0.1758480E-003  0.9118800E+02  0.7818608E-02  0.1130116E+00
         25   -1    0    0    0    0  0.00000000000E+00  0.00000000000E+00  0.99999998245E-14  0.12500000000E+03  0.12500000000E+03 0.  0.
        -13    1    3    3    0    0  0.25605121189E+02 -0.12984849990E+02 -0.54581048455E+02  0.61671148643E+02  0.10566000000E+00 0. -1.
         23    2    1    0    0    0  0.18013590483E+02 -0.39236838483E+01 -0.22197352066E+02  0.96145066700E+02  0.91712958053E+02 0.  0.
         13    1    3    3    0    0 -0.75915307063E+01  0.90611661421E+01  0.32383696390E+02  0.34473918057E+02  0.10566000000E+00 0.  1.
         22    1    1    0    0    0 -0.18013590483E+02  0.39236838483E+01  0.22197352066E+02  0.28854933300E+02  0.00000000000E+00 0. -1.
</event>
<event>
 5    1  0.1758480E-003  0.9118800E+02  0.7818608E-02  0.1130116E+00
         25   -1    0    0    0    0  0.00000000000E+00  0.00000000000E+00  0.99999998245E-14  0.12500000000E+03  0.12500000000E+03 0.  0.
        -13    1    3    3    0    0  0.40267572007E+02 -0.52751948312E+01  0.23587827828E+01  0.40680217011E+02  0.10566000000E+00 0.  1.
         23    2    1    0    0    0 -0.96403656351E+01  0.15256540400E+02  0.20568969387E+02  0.97636133749E+02  0.93723174494E+02 0.  0.
         13    1    3    3    0    0 -0.49907937642E+02  0.20531735231E+02  0.18210186605E+02  0.56955916738E+02  0.10566000000E+00 0. -1.
         22    1    1    0    0    0  0.96403656351E+01 -0.15256540400E+02 -0.20568969387E+02  0.27363866251E+02  0.00000000000E+00 0.  1.
</event>
<event>
 5    1  0.1758480E-003  0.9118800E+02  0.7818608E-02  0.1130116E+00
         25   -1    0    0    0    0  0.00000000000E+00  0.00000000000E+00  0.99999998245E-14  0.12500000000E+03  0.12500000000E+03 0.  0.
        -13    1    3    3    0    0  0.33743971281E+02 -0.10020791359E+02  0.18172677385E+02  0.39614760187E+02  0.10566000000E+00 0.  1.
         23    2    1    0    0    0 -0.11293692233E+02  0.24290445154E+02  0.49055121913E+01  0.97766982175E+02  0.93897526824E+02 0.  0.
         13    1    3    3    0    0 -0.45037663514E+02  0.34311236513E+02 -0.13267165194E+02  0.58152221988E+02  0.10566000000E+00 0. -1.
         22    1    1    0    0    0  0.11293692233E+02 -0.24290445154E+02 -0.49055121913E+01  0.27233017825E+02  0.00000000000E+00 0. -1.
</event>
<event>
 5    1  0.1758480E-003  0.9118800E+02  0.7818608E-02  0.1130116E+00
         25   -1    0    0    0    0  0.00000000000E+00  0.00000000000E+00  0.99999998245E-14  0.12500000000E+03  0.12500000000E+03 0.  0.
        -13    1    3    3    0    0 -0.43455689515E+02 -0.37560059587E+02 -0.21732331904E+02  0.61412217363E+02  0.10566000000E+00 0. -1.
         23    2    1    0    0    0 -0.24440582674E+02 -0.16402306136E+02 -0.31343376770E+01  0.95399293916E+02  0.90690812538E+02 0.  0.
         13    1    3    3    0    0  0.19015106841E+02  0.21157753451E+02  0.18597994227E+02  0.33987076552E+02  0.10566000000E+00 0.  1.
         22    1    1    0    0    0  0.24440582674E+02  0.16402306136E+02  0.31343376770E+01  0.29600706084E+02  0.00000000000E+00 0. -1.
</event>
<event>
 5    1  0.1758480E-003  0.9118800E+02  0.7818608E-02  0.1130116E+00
         25   -1    0    0    0    0  0.00000000000E+00  0.00000000000E+00  0.99999998245E-14  0.12500000000E+03  0.12500000000E+03 0.  0.
        -13    1    3    3    0    0  0.35896067982E+01  0.12548090901E+02 -0.39676725695E+02  0.41768332360E+02  0.10566000000E+00 0. -1.
         23    2    1    0    0    0  0.25389727692E+02 -0.13701654217E+02  0.25249571206E+01  0.96038836193E+02  0.91568056921E+02 0.  0.
         13    1    3    3    0    0  0.21800120894E+02 -0.26249745118E+02  0.42201682816E+02  0.54270503833E+02  0.10566000000E+00 0.  1.
         22    1    1    0    0    0 -0.25389727692E+02  0.13701654217E+02 -0.25249571206E+01  0.28961163807E+02  0.00000000000E+00 0. -1.
</event>
<event>
 5    1  0.1758480E-003  0.9118800E+02  0.7818608E-02  0.1130116E+00
         25   -1    0    0    0    0  0.00000000000E+00  0.00000000000E+00  0.99999998245E-14  0.12500000000E+03  0.12500000000E+03 0.  0.
        -13    1    3    3    0    0  0.33049696808E+02 -0.21119282745E+02 -0.16628891104E+02  0.42600912504E+02  0.10566000000E+00 0. -1.
         23    2    1    0    0    0 -0.10567188671E+02 -0.23937470108E+02  0.13372496651E+02  0.95614772108E+02  0.90987323441E+02 0.  0.
         13    1    3    3    0    0 -0.43616885479E+02 -0.28181873631E+01  0.30001387755E+02  0.53013859604E+02  0.10566000000E+00 0.  1.
         22    1    1    0    0    0  0.10567188671E+02  0.23937470108E+02 -0.13372496651E+02  0.29385227892E+02  0.00000000000E+00 0. -1.
</event>
<event>
 5    1  0.1758480E-003  0.9118800E+02  0.7818608E-02  0.1130116E+00
         25   -1    0    0    0    0  0.00000000000E+00  0.00000000000E+00  0.99999998245E-14  0.12500000000E+03  0.12500000000E+03 0.  0.
        -13    1    3    3    0    0  0.32562517449E+02 -0.46281905816E+02  0.68068105865E+01  0.56997159429E+02  0.10566000000E+00 0. -1.
         23    2    1    0    0    0  0.12618173973E+02 -0.15825918339E+02  0.20779550924E+02  0.95991936599E+02  0.91504011659E+02 0.  0.
         13    1    3    3    0    0 -0.19944343476E+02  0.30455987477E+02  0.13972740338E+02  0.38994777169E+02  0.10566000000E+00 0.  1.
         22    1    1    0    0    0 -0.12618173973E+02  0.15825918339E+02 -0.20779550924E+02  0.29008063401E+02  0.00000000000E+00 0. -1.
</event>
<event>
 5    1  0.1758480E-003  0.9118800E+02  0.7818608E-02  0.1130116E+00
         25   -1    0    0    0    0  0.00000000000E+00  0.00000000000E+00  0.99999998245E-14  0.12500000000E+03  0.12500000000E+03 0.  0.
        -13    1    3    3    0    0 -0.11168542294E+02  0.43674535888E+02 -0.98588814327E+01  0.46145532061E+02  0.10566000000E+00 0. -1.
         23    2    1    0    0    0 -0.27898769839E+02 -0.32303320156E+01 -0.71523712513E+01  0.96018405530E+02  0.91540162675E+02 0.  0.
         13    1    3    3    0    0 -0.16730227545E+02 -0.46904867904E+02  0.27065101814E+01  0.49872873470E+02  0.10566000000E+00 0.  1.
         22    1    1    0    0    0  0.27898769839E+02  0.32303320156E+01  0.71523712513E+01  0.28981594470E+02  0.00000000000E+00 0.  1.
</event>
<event>
 5    1  0.1758480E-003  0.9118800E+02  0.7818608E-02  0.1130116E+00
         25   -1    0    0    0    0  0.00000000000E+00  0.00000000000E+00  0.99999998245E-14  0.12500000000E+03  0.12500000000E+03 0.  0.
        -13    1    3    3    0    0 -0.17091734809E+02 -0.24034731445E+02 -0.28059590264E+02  0.40708076401E+02  0.10566000000E+00 0.  1.
         23    2    1    0    0    0  0.10932409885E+02 -0.20263459820E+02  0.18690255604E+02  0.95344460141E+02  0.90615203114E+02 0.  0.
         13    1    3    3    0    0  0.28024144694E+02  0.37712716251E+01  0.46749845868E+02  0.54636383740E+02  0.10566000000E+00 0. -1.
         22    1    1    0    0    0 -0.10932409885E+02  0.20263459820E+02 -0.18690255604E+02  0.29655539859E+02  0.00000000000E+00 0. -1.
</event>
<event>
 5    1  0.1758480E-003  0.9118800E+02  0.7818608E-02  0.1130116E+00
         25   -1    0    0    0    0  0.00000000000E+00  0.00000000000E+00  0.99999998245E-14  0.12500000000E+03  0.12500000000E+03 0.  0.
        -13    1    3    3    0    0 -0.53808043585E+02  0.17463008467E+01 -0.36775876900E+01  0.53961939702E+02  0.10566000000E+00 0.  1.
         23    2    1    0    0    0 -0.18165723854E+02  0.44712698142E+00 -0.23911195188E+02  0.94967705699E+02  0.90093986618E+02 0.  0.
         13    1    3    3    0    0  0.35642319731E+02 -0.12991738653E+01 -0.20233607498E+02  0.41005765997E+02  0.10566000000E+00 0. -1.
         22    1    1    0    0    0  0.18165723854E+02 -0.44712698142E+00  0.23911195188E+02  0.30032294301E+02  0.00000000000E+00 0.  1.
</event>
<event>
 5    1  0.1758480E-003  0.9118800E+02  0.7818608E-02  0.1130116E+00
         25   -1    0    0    0    0  0.00000000000E+00  0.00000000000E+00  0.99999998245E-14  0.12500000000E+03  0.12500000000E+03 0.  0.
        -13    1    3    3    0    0 -0.19480648861E+02  0.32605475792E+02  0.29343114269E+01  0.38095066337E+02  0.10566000000E+00 0. -1.
         23    2    1    0    0    0  0.28736799433E+02  0.16266785259E+01 -0.44314618737E+01  0.95878056744E+02  0.91348312442E+02 0.  0.
         13    1    3    3    0    0  0.48217448294E+02 -0.30978797266E+02 -0.73657733006E+01  0.57782990407E+02  0.10566000000E+00 0.  1.
         22    1    1    0    0    0 -0.28736799433E+02 -0.16266785259E+01  0.44314618737E+01  0.29121943256E+02  0.00000000000E+00 0.  1.
</event>
<event>
 5    1  0.1758480E-003  0.9118800E+02  0.7818608E-02  0.1130116E+00
         25   -1    0    0    0    0  0.00000000000E+00  0.00000000000E+00  0.99999998245E-14  0.12500000000E+03  0.12500000000E+03 0.  0.
        -13    1    3    3    0    0  0.51570555741E+02  0.30505161981E+02 -0.15511662797E+02  0.61892729570E+02  0.10566000000E+00 0.  1.
         23    2    1    0    0    0  0.26703588333E+02  0.87916933602E+01 -0.83369890603E+01  0.95676274305E+02  0.91071777057E+02 0.  0.
         13    1    3    3    0    0 -0.24866967408E+02 -0.21713468621E+02  0.71746737368E+01  0.33783544735E+02  0.10566000000E+00 0. -1.
         22    1    1    0    0    0 -0.26703588333E+02 -0.87916933602E+01  0.83369890603E+01  0.29323725695E+02  0.00000000000E+00 0.  1.
</event>
<event>
 5    1  0.1758480E-003  0.9118800E+02  0.7818608E-02  0.1130116E+00
         25   -1    0    0    0    0  0.00000000000E+00  0.00000000000E+00  0.99999998245E-14  0.12500000000E+03  0.12500000000E+03 0.  0.
        -13    1    3    3    0    0 -0.21440202927E+02  0.55772716504E+02 -0.28808294887E+01  0.59821305155E+02  0.10566000000E+00 0. -1.
         23    2    1    0    0    0 -0.95173158950E+01  0.24711450249E+02  0.11578395692E+02  0.96098541178E+02  0.91649524246E+02 0.  0.
         13    1    3    3    0    0  0.11922887032E+02 -0.31061266256E+02  0.14459225181E+02  0.36277236023E+02  0.10566000000E+00 0.  1.
         22    1    1    0    0    0  0.95173158950E+01 -0.24711450249E+02 -0.11578395692E+02  0.28901458822E+02  0.00000000000E+00 0. -1.
</event>
<event>
 5    1  0.1758480E-003  0.9118800E+02  0.7818608E-02  0.1130116E+00
         25   -1    0    0    0    0  0.00000000000E+00  0.00000000000E+00  0.99999998245E-14  0.12500000000E+03  0.12500000000E+03 0.  0.
        -13    1    3    3    0    0 -0.11771817745E+02  0.40863055981E+02  0.22849630789E+01  0.42586350600E+02  0.10566000000E+00 0. -1.
         23    2    1    0    0    0 -0.16537785882E+02 -0.58397571638E+01 -0.23132045848E+02  0.95970830692E+02  0.91475175174E+02 0.  0.
         13    1    3    3    0    0 -0.47659681368E+01 -0.46702813145E+02 -0.25417008926E+02  0.53384480092E+02  0.10566000000E+00 0.  1.
         22    1    1    0    0    0  0.16537785882E+02  0.58397571638E+01  0.23132045848E+02  0.29029169308E+02  0.00000000000E+00 0.  1.
</event>
<event>
 5    1  0.1758480E-003  0.9118800E+02  0.7818608E-02  0.1130116E+00
         25   -1    0    0    0    0  0.00000000000E+00  0.00000000000E+00  0.99999998245E-14  0.12500000000E+03  0.12500000000E+03 0.  0.
        -13    1    3    3    0    0 -0.51229655652E+02 -0.17983357744E+02  0.11596859669E+02  0.55519159685E+02  0.10566000000E+00 0. -1.
         23    2    1    0    0    0 -0.19188366868E+02 -0.17353576276E+02 -0.13120711357E+02  0.95991499537E+02  0.91503414604E+02 0.  0.
         13    1    3    3    0    0  0.32041288784E+02  0.62978146880E+00 -0.24717571026E+02  0.40472339852E+02  0.10566000000E+00 0.  1.
         22    1    1    0    0    0  0.19188366868E+02  0.17353576276E+02  0.13120711357E+02  0.29008500463E+02  0.00000000000E+00 0. -1.
</event>
<event>
 5    1  0.1758480E-003  0.9118800E+02  0.7818608E-02  0.1130116E+00
         25   -1    0    0    0    0  0.00000000000E+00  0.00000000000E+00  0.99999998245E-14  0.12500000000E+03  0.12500000000E+03 0.  0.
        -13    1    3    3    0    0  0.15655912410E+02 -0.56572056621E+02 -0.85102554806E+01  0.59312231421E+02  0.10566000000E+00 0.  1.
         23    2    1    0    0    0 -0.34494378123E+01 -0.28998351251E+02  0.48056308211E+01  0.95404441481E+02  0.90697907199E+02 0.  0.
         13    1    3    3    0    0 -0.19105350222E+02  0.27573705371E+02  0.13315886302E+02  0.36092210060E+02  0.10566000000E+00 0. -1.
         22    1    1    0    0    0  0.34494378123E+01  0.28998351251E+02 -0.48056308211E+01  0.29595558519E+02  0.00000000000E+00 0.  1.
</event>
<event>
 5    1  0.1758480E-003  0.9118800E+02  0.7818608E-02  0.1130116E+00
         25   -1    0    0    0    0  0.00000000000E+00  0.00000000000E+00  0.99999998245E-14  0.12500000000E+03  0.12500000000E+03 0.  0.
        -13    1    3    3    0    0 -0.45658746160E+02  0.19522100344E+02  0.10263610256E+02  0.50706867013E+02  0.10566000000E+00 0.  1.
         23    2    1    0    0    0 -0.29464626497E+02 -0.12734882110E+02 -0.90586204219E+01  0.91647338323E+02  0.85362957896E+02 0.  0.
         13    1    3    3    0    0  0.16194119663E+02 -0.32256982454E+02 -0.19322230678E+02  0.40940471310E+02  0.10566000000E+00 0. -1.
         22    1    1    0    0    0  0.29464626497E+02  0.12734882110E+02  0.90586204219E+01  0.33352661677E+02  0.00000000000E+00 0.  1.
</event>
<event>
 5    1  0.1758480E-003  0.9118800E+02  0.7818608E-02  0.1130116E+00
         25   -1    0    0    0    0  0.00000000000E+00  0.00000000000E+00  0.99999998245E-14  0.12500000000E+03  0.12500000000E+03 0.  0.
        -13    1    3    3    0    0  0.23296598287E+02 -0.13326547350E+02  0.53504404586E+02  0.59858673809E+02  0.10566000000E+00 0.  1.
         23    2    1    0    0    0  0.58107942402E+01  0.50539114638E+01  0.28494652994E+02  0.95483011671E+02  0.90806128195E+02 0.  0.
         13    1    3    3    0    0 -0.17485804047E+02  0.18380458813E+02 -0.25009751592E+02  0.35624337862E+02  0.10566000000E+00 0. -1.
         22    1    1    0    0    0 -0.58107942402E+01 -0.50539114638E+01 -0.28494652994E+02  0.29516988329E+02  0.00000000000E+00 0.  1.
</event>
<event>
 5    1  0.1758480E-003  0.9118800E+02  0.7818608E-02  0.1130116E+00
         25   -1    0    0    0    0  0.00000000000E+00  0.00000000000E+00  0.99999998245E-14  0.12500000000E+03  0.12500000000E+03 0.  0.
        -13    1    3    3    0    0  0.21991772691E+02 -0.27061812384E+02  0.17722523341E+02  0.39116221101E+02  0.10566000000E+00 0. -1.
         23    2    1    0    0    0 -0.19079305720E+02  0.11096342075E+02  0.19987380083E+02  0.95223430742E+02  0.90448093874E+02 0.  0.
         13    1    3    3    0    0 -0.41071078412E+02  0.38158154459E+02  0.22648567425E+01  0.56107209641E+02  0.10566000000E+00 0.  1.
         22    1    1    0    0    0  0.19079305720E+02 -0.11096342075E+02 -0.19987380083E+02  0.29776569258E+02  0.00000000000E+00 0.  1.
</event>
<event>
 5    1  0.1758480E-003  0.9118800E+02  0.7818608E-02  0.1130116E+00
         25   -1    0    0    0    0  0.00000000000E+00  0.00000000000E+00  0.99999998245E-14  0.12500000000E+03  0.12500000000E+03 0.  0.
        -13    1    3    3    0    0  0.43734935033E+02 -0.38448215976E+02  0.12402580422E+02  0.59538601086E+02  0.10566000000E+00 0.  1.
         23    2    1    0    0    0  0.11383963965E+02 -0.25127462876E+02  0.12942029247E+02  0.94529027794E+02  0.89483277480E+02 0.  0.
         13    1    3    3    0    0 -0.32350971068E+02  0.13320753100E+02  0.53944882447E+00  0.34990426709E+02  0.10566000000E+00 0. -1.
         22    1    1    0    0    0 -0.11383963965E+02  0.25127462876E+02 -0.12942029247E+02  0.30470972206E+02  0.00000000000E+00 0.  1.
</event>
<event>
 5    1  0.1758480E-003  0.9118800E+02  0.7818608E-02  0.1130116E+00
         25   -1    0    0    0    0  0.00000000000E+00  0.00000000000E+00  0.99999998245E-14  0.12500000000E+03  0.12500000000E+03 0.  0.
        -13    1    3    3    0    0  0.33236137614E+02 -0.43884193414E+02  0.14915996642E+02  0.57034738493E+02  0.10566000000E+00 0. -1.
         23    2    1    0    0    0  0.21782222637E+02 -0.68809005696E+01  0.18034665915E+02  0.95895684335E+02  0.91372430655E+02 0.  0.
         13    1    3    3    0    0 -0.11453914977E+02  0.37003292845E+02  0.31186692727E+01  0.38860945842E+02  0.10566000000E+00 0.  1.
         22    1    1    0    0    0 -0.21782222637E+02  0.68809005696E+01 -0.18034665915E+02  0.29104315665E+02  0.00000000000E+00 0. -1.
</event>
<event>
 5    1  0.1758480E-003  0.9118800E+02  0.7818608E-02  0.1130116E+00
         25   -1    0    0    0    0  0.00000000000E+00  0.00000000000E+00  0.99999998245E-14  0.12500000000E+03  0.12500000000E+03 0.  0.
        -13    1    3    3    0    0 -0.12141709667E+02 -0.57323041593E+02  0.15762418326E+02  0.60677979586E+02  0.10566000000E+00 0.  1.
         23    2    1    0    0    0 -0.14125706245E+02 -0.22755694066E+02  0.12461643122E+02  0.95459354465E+02  0.90773556812E+02 0.  0.
         13    1    3    3    0    0 -0.19839965772E+01  0.34567347527E+02 -0.33007752040E+01  0.34781374879E+02  0.10566000000E+00 0. -1.
         22    1    1    0    0    0  0.14125706245E+02  0.22755694066E+02 -0.12461643122E+02  0.29540645535E+02  0.00000000000E+00 0.  1.
</event>
<event>
 5    1  0.1758480E-003  0.9118800E+02  0.7818608E-02  0.1130116E+00
         25   -1    0    0    0    0  0.00000000000E+00  0.00000000000E+00  0.99999998245E-14  0.12500000000E+03  0.12500000000E+03 0.  0.
        -13    1    3    3    0    0  0.21758287730E+02 -0.21386518158E+02  0.50541547241E+02  0.59036136437E+02  0.10566000000E+00 0. -1.
         23    2    1    0    0    0  0.10658094884E+02  0.42664452516E+01  0.27286461700E+02  0.95396815479E+02  0.90687396422E+02 0.  0.
         13    1    3    3    0    0 -0.11100192845E+02  0.25652963409E+02 -0.23255085541E+02  0.36360679042E+02  0.10566000000E+00 0.  1.
         22    1    1    0    0    0 -0.10658094884E+02 -0.42664452516E+01 -0.27286461700E+02  0.29603184521E+02  0.00000000000E+00 0. -1.
</event>
<event>
 5    1  0.1758480E-003  0.9118800E+02  0.7818608E-02  0.1130116E+00
         25   -1    0    0    0    0  0.00000000000E+00  0.00000000000E+00  0.99999998245E-14  0.12500000000E+03  0.12500000000E+03 0.  0.
        -13    1    3    3    0    0 -0.41623332688E+00  0.25943316698E+02 -0.53082607597E+02  0.59084713123E+02  0.10566000000E+00 0.  1.
         23    2    1    0    0    0  0.10160858965E+02  0.51182073106E+01 -0.33681931206E+02  0.89448465705E+02  0.82079939243E+02 0.  0.
         13    1    3    3    0    0  0.10577092292E+02 -0.20825109387E+02  0.19400676391E+02  0.30363752581E+02  0.10566000000E+00 0. -1.
         22    1    1    0    0    0 -0.10160858965E+02 -0.51182073106E+01  0.33681931206E+02  0.35551534295E+02  0.00000000000E+00 0.  1.
</event>
<event>
 5    1  0.1758480E-003  0.9118800E+02  0.7818608E-02  0.1130116E+00
         25   -1    0    0    0    0  0.00000000000E+00  0.00000000000E+00  0.99999998245E-14  0.12500000000E+03  0.12500000000E+03 0.  0.
        -13    1    3    3    0    0  0.50156999834E+01 -0.27224512428E+01  0.39429652435E+02  0.39840653135E+02  0.10566000000E+00 0. -1.
         23    2    1    0    0    0 -0.18758800845E+02  0.23310696462E+02 -0.29106504003E+01  0.94937514001E+02  0.90052087706E+02 0.  0.
         13    1    3    3    0    0 -0.23774500829E+02  0.26033147705E+02 -0.42340302835E+02  0.55096860866E+02  0.10566000000E+00 0.  1.
         22    1    1    0    0    0  0.18758800845E+02 -0.23310696462E+02  0.29106504003E+01  0.30062485999E+02  0.00000000000E+00 0.  1.
</event>
<event>
 5    1  0.1758480E-003  0.9118800E+02  0.7818608E-02  0.1130116E+00
         25   -1    0    0    0    0  0.00000000000E+00  0.00000000000E+00  0.99999998245E-14  0.12500000000E+03  0.12500000000E+03 0.  0.
        -13    1    3    3    0    0  0.91928791565E+00  0.39411887345E+02 -0.89805539804E+01  0.40432702954E+02  0.10566000000E+00 0.  1.
         23    2    1    0    0    0  0.18716155330E+02 -0.15219245650E+02 -0.12175638661E+02  0.97978414456E+02  0.94178573009E+02 0.  0.
         13    1    3    3    0    0  0.17796867415E+02 -0.54631132995E+02 -0.31950846806E+01  0.57545711502E+02  0.10566000000E+00 0. -1.
         22    1    1    0    0    0 -0.18716155330E+02  0.15219245650E+02  0.12175638661E+02  0.27021585544E+02  0.00000000000E+00 0. -1.
</event>
<event>
 5    1  0.1758480E-003  0.9118800E+02  0.7818608E-02  0.1130116E+00
         25   -1    0    0    0    0  0.00000000000E+00  0.00000000000E+00  0.99999998245E-14  0.12500000000E+03  0.12500000000E+03 0.  0.
        -13    1    3    3    0    0  0.46991155033E+02  0.22483986516E+02  0.29822895942E+02  0.60025949283E+02  0.10566000000E+00 0. -1.
         23    2    1    0    0    0  0.17759918239E+02  0.44413318514E+01  0.23916332916E+02  0.94881382757E+02  0.89974139003E+02 0.  0.
         13    1    3    3    0    0 -0.29231236794E+02 -0.18042654664E+02 -0.59065630261E+01  0.34855433474E+02  0.10566000000E+00 0.  1.
         22    1    1    0    0    0 -0.17759918239E+02 -0.44413318514E+01 -0.23916332916E+02  0.30118617243E+02  0.00000000000E+00 0. -1.
</event>
<event>
 5    1  0.1758480E-003  0.9118800E+02  0.7818608E-02  0.1130116E+00
         25   -1    0    0    0    0  0.00000000000E+00  0.00000000000E+00  0.99999998245E-14  0.12500000000E+03  0.12500000000E+03 0.  0.
        -13    1    3    3    0    0  0.27367187416E+02 -0.46367232583E+02 -0.53119381550E+01  0.54102782326E+02  0.10566000000E+00 0. -1.
         23    2    1    0    0    0  0.25895472244E+02 -0.53205425464E+01 -0.12428285029E+02  0.95787914752E+02  0.91224879765E+02 0.  0.
         13    1    3    3    0    0 -0.14717151717E+01  0.41046690037E+02 -0.71163468743E+01  0.41685132426E+02  0.10566000000E+00 0.  1.
         22    1    1    0    0    0 -0.25895472244E+02  0.53205425464E+01  0.12428285029E+02  0.29212085248E+02  0.00000000000E+00 0. -1.
</event>
<event>
 5    1  0.1758480E-003  0.9118800E+02  0.7818608E-02  0.1130116E+00
         25   -1    0    0    0    0  0.00000000000E+00  0.00000000000E+00  0.99999998245E-14  0.12500000000E+03  0.12500000000E+03 0.  0.
        -13    1    3    3    0    0 -0.14727154575E+01  0.19799167858E+02 -0.31602796581E+02  0.37321895108E+02  0.10566000000E+00 0.  1.
         23    2    1    0    0    0  0.18295753675E+02 -0.23413328142E+02  0.15213618086E+01  0.95247133264E+02  0.90480845023E+02 0.  0.
         13    1    3    3    0    0  0.19768469133E+02 -0.43212496000E+02  0.33124158390E+02  0.57925238156E+02  0.10566000000E+00 0. -1.
         22    1    1    0    0    0 -0.18295753675E+02  0.23413328142E+02 -0.15213618086E+01  0.29752866736E+02  0.00000000000E+00 0. -1.
</event>
<event>
 5    1  0.1758480E-003  0.9118800E+02  0.7818608E-02  0.1130116E+00
         25   -1    0    0    0    0  0.00000000000E+00  0.00000000000E+00  0.99999998245E-14  0.12500000000E+03  0.12500000000E+03 0.  0.
        -13    1    3    3    0    0  0.28781761815E+02  0.60893812797E+01 -0.17177226810E+02  0.34066679651E+02  0.10566000000E+00 0. -1.
         23    2    1    0    0    0 -0.28883248737E+02 -0.70760186878E+01 -0.16640646779E+01  0.95216091436E+02  0.90437950325E+02 0.  0.
         13    1    3    3    0    0 -0.57665010552E+02 -0.13165399967E+02  0.15513162132E+02  0.61149411785E+02  0.10566000000E+00 0.  1.
         22    1    1    0    0    0  0.28883248737E+02  0.70760186878E+01  0.16640646779E+01  0.29783908564E+02  0.00000000000E+00 0.  1.
</event>
<event>
 5    1  0.1758480E-003  0.9118800E+02  0.7818608E-02  0.1130116E+00
         25   -1    0    0    0    0  0.00000000000E+00  0.00000000000E+00  0.99999998245E-14  0.12500000000E+03  0.12500000000E+03 0.  0.
        -13    1    3    3    0    0 -0.42771675990E+02  0.63331730575E+00 -0.35438711585E+02  0.55549354637E+02  0.10566000000E+00 0.  1.
         23    2    1    0    0    0 -0.29619635717E+02  0.40248181280E+01  0.16657690329E+01  0.95061784164E+02  0.90224420425E+02 0.  0.
         13    1    3    3    0    0  0.13152040273E+02  0.33915008223E+01  0.37104480618E+02  0.39512429527E+02  0.10566000000E+00 0. -1.
         22    1    1    0    0    0  0.29619635717E+02 -0.40248181280E+01 -0.16657690329E+01  0.29938215836E+02  0.00000000000E+00 0.  1.
</event>
<event>
 5    1  0.1758480E-003  0.9118800E+02  0.7818608E-02  0.1130116E+00
         25   -1    0    0    0    0  0.00000000000E+00  0.00000000000E+00  0.99999998245E-14  0.12500000000E+03  0.12500000000E+03 0.  0.
        -13    1    3    3    0    0  0.50390220299E+02 -0.27471339407E+02 -0.18271504040E+02  0.60230455872E+02  0.10566000000E+00 0. -1.
         23    2    1    0    0    0  0.20057588281E+02 -0.21604507477E+02 -0.12737869393E+01  0.95492642881E+02  0.90819385157E+02 0.  0.
         13    1    3    3    0    0 -0.30332632018E+02  0.58668319296E+01  0.16997717100E+02  0.35262187009E+02  0.10566000000E+00 0.  1.
         22    1    1    0    0    0 -0.20057588281E+02  0.21604507477E+02  0.12737869393E+01  0.29507357119E+02  0.00000000000E+00 0. -1.
</event>
<event>
 5    1  0.1758480E-003  0.9118800E+02  0.7818608E-02  0.1130116E+00
         25   -1    0    0    0    0  0.00000000000E+00  0.00000000000E+00  0.99999998245E-14  0.12500000000E+03  0.12500000000E+03 0.  0.
        -13    1    3    3    0    0 -0.53170914709E+02  0.69646205383E+01  0.25115434595E+02  0.59215271081E+02  0.10566000000E+00 0. -1.
         23    2    1    0    0    0 -0.19920463827E+02  0.14998108525E+02  0.18237116102E+02  0.94107273637E+02  0.88892172936E+02 0.  0.
         13    1    3    3    0    0  0.33250450882E+02  0.80334879870E+01 -0.68783184930E+01  0.34892002556E+02  0.10566000000E+00 0.  1.
         22    1    1    0    0    0  0.19920463827E+02 -0.14998108525E+02 -0.18237116102E+02  0.30892726363E+02  0.00000000000E+00 0. -1.
</event>
<event>
 5    1  0.1758480E-003  0.9118800E+02  0.7818608E-02  0.1130116E+00
         25   -1    0    0    0    0  0.00000000000E+00  0.00000000000E+00  0.99999998245E-14  0.12500000000E+03  0.12500000000E+03 0.  0.
        -13    1    3    3    0    0  0.21741993925E+00  0.22459926296E+02  0.22611228062E+02  0.31871215213E+02  0.10566000000E+00 0. -1.
         23    2    1    0    0    0 -0.17012534354E+02 -0.30274870441E+02  0.11202344292E+02  0.88510458717E+02  0.80638791405E+02 0.  0.
         13    1    3    3    0    0 -0.17229954293E+02 -0.52734796737E+02 -0.11408883770E+02  0.56639243504E+02  0.10566000000E+00 0.  1.
         22    1    1    0    0    0  0.17012534354E+02  0.30274870441E+02 -0.11202344292E+02  0.36489541283E+02  0.00000000000E+00 0.  1.
</event>
<event>
 5    1  0.1758480E-003  0.9118800E+02  0.7818608E-02  0.1130116E+00
         25   -1    0    0    0    0  0.00000000000E+00  0.00000000000E+00  0.99999998245E-14  0.12500000000E+03  0.12500000000E+03 0.  0.
        -13    1    3    3    0    0  0.33042026471E+02  0.31667341671E+02 -0.30038655503E+02  0.54744205449E+02  0.10566000000E+00 0. -1.
         23    2    1    0    0    0 -0.43242700092E+01  0.20822449907E+02 -0.21858078552E+02  0.94503289862E+02  0.89447316704E+02 0.  0.
         13    1    3    3    0    0 -0.37366296481E+02 -0.10844891764E+02  0.81805769505E+01  0.39759084413E+02  0.10566000000E+00 0.  1.
         22    1    1    0    0    0  0.43242700092E+01 -0.20822449907E+02  0.21858078552E+02  0.30496710138E+02  0.00000000000E+00 0. -1.
</event>
<event>
 5    1  0.1758480E-003  0.9118800E+02  0.7818608E-02  0.1130116E+00
         25   -1    0    0    0    0  0.00000000000E+00  0.00000000000E+00  0.99999998245E-14  0.12500000000E+03  0.12500000000E+03 0.  0.
        -13    1    3    3    0    0 -0.31958140927E+02  0.46740583368E+02  0.86912002779E+01  0.57284841201E+02  0.10566000000E+00 0.  1.
         23    2    1    0    0    0 -0.21912833253E+02  0.72584459168E+01  0.13420499353E+02  0.98298556196E+02  0.94602531938E+02 0.  0.
         13    1    3    3    0    0  0.10045307674E+02 -0.39482137451E+02  0.47292990755E+01  0.41013714995E+02  0.10566000000E+00 0. -1.
         22    1    1    0    0    0  0.21912833253E+02 -0.72584459168E+01 -0.13420499353E+02  0.26701443804E+02  0.00000000000E+00 0.  1.
</event>
<event>
 5    1  0.1758480E-003  0.9118800E+02  0.7818608E-02  0.1130116E+00
         25   -1    0    0    0    0  0.00000000000E+00  0.00000000000E+00  0.99999998245E-14  0.12500000000E+03  0.12500000000E+03 0.  0.
        -13    1    3    3    0    0  0.48369179855E+02 -0.33770896732E+02 -0.79870336643E+01  0.59530285542E+02  0.10566000000E+00 0. -1.
         23    2    1    0    0    0  0.14698543044E+02 -0.22565265612E+02  0.55369634320E+01  0.97506430864E+02  0.93550027879E+02 0.  0.
         13    1    3    3    0    0 -0.33670636811E+02  0.11205631120E+02  0.13523997096E+02  0.37976145322E+02  0.10566000000E+00 0.  1.
         22    1    1    0    0    0 -0.14698543044E+02  0.22565265612E+02 -0.55369634320E+01  0.27493569136E+02  0.00000000000E+00 0. -1.
</event>
<event>
 5    1  0.1758480E-003  0.9118800E+02  0.7818608E-02  0.1130116E+00
         25   -1    0    0    0    0  0.00000000000E+00  0.00000000000E+00  0.99999998245E-14  0.12500000000E+03  0.12500000000E+03 0.  0.
        -13    1    3    3    0    0  0.11425281678E+02  0.35221358012E+01 -0.50715810882E+02  0.52106114224E+02  0.10566000000E+00 0.  1.
         23    2    1    0    0    0 -0.19885959018E+02  0.63778336801E+01 -0.18969918668E+02  0.96786777164E+02  0.92583445016E+02 0.  0.
         13    1    3    3    0    0 -0.31311240695E+02  0.28556978788E+01  0.31745892214E+02  0.44680662940E+02  0.10566000000E+00 0. -1.
         22    1    1    0    0    0  0.19885959018E+02 -0.63778336801E+01  0.18969918668E+02  0.28213222836E+02  0.00000000000E+00 0.  1.
</event>
<event>
 5    1  0.1758480E-003  0.9118800E+02  0.7818608E-02  0.1130116E+00
         25   -1    0    0    0    0  0.00000000000E+00  0.00000000000E+00  0.99999998245E-14  0.12500000000E+03  0.12500000000E+03 0.  0.
        -13    1    3    3    0    0  0.46947657520E+01  0.36169579437E+02 -0.62875944458E+01  0.37011137649E+02  0.10566000000E+00 0. -1.
         23    2    1    0    0    0 -0.32169903472E+02  0.38410405502E+01  0.13521040928E+02  0.89893379119E+02  0.82754726631E+02 0.  0.
         13    1    3    3    0    0 -0.36864669224E+02 -0.32328538887E+02  0.19808635374E+02  0.52882241470E+02  0.10566000000E+00 0.  1.
         22    1    1    0    0    0  0.32169903472E+02 -0.38410405502E+01 -0.13521040928E+02  0.35106620881E+02  0.00000000000E+00 0.  1.
</event>
<event>
 5    1  0.1758480E-003  0.9118800E+02  0.7818608E-02  0.1130116E+00
         25   -1    0    0    0    0  0.00000000000E+00  0.00000000000E+00  0.99999998245E-14  0.12500000000E+03  0.12500000000E+03 0.  0.
        -13    1    3    3    0    0  0.13025504219E+02 -0.32596044555E+02  0.14403154446E+02  0.37942428795E+02  0.10566000000E+00 0. -1.
         23    2    1    0    0    0 -0.34521492869E+01  0.23801000954E+02  0.14916539387E+02  0.96699679712E+02  0.92465777064E+02 0.  0.
         13    1    3    3    0    0 -0.16477653506E+02  0.56397045509E+02  0.51338494104E+00  0.58757250917E+02  0.10566000000E+00 0.  1.
         22    1    1    0    0    0  0.34521492869E+01 -0.23801000954E+02 -0.14916539387E+02  0.28300320288E+02  0.00000000000E+00 0.  1.
</event>
<event>
 5    1  0.1758480E-003  0.9118800E+02  0.7818608E-02  0.1130116E+00
         25   -1    0    0    0    0  0.00000000000E+00  0.00000000000E+00  0.99999998245E-14  0.12500000000E+03  0.12500000000E+03 0.  0.
        -13    1    3    3    0    0  0.63192610442E+01 -0.29201685877E+01  0.39652143038E+02  0.40258714041E+02  0.10566000000E+00 0.  1.
         23    2    1    0    0    0 -0.10824802089E+02 -0.27424663418E+02 -0.60746824995E+01  0.94897005608E+02  0.89995841027E+02 0.  0.
         13    1    3    3    0    0 -0.17144063133E+02 -0.24504494831E+02 -0.45726825537E+02  0.54638291567E+02  0.10566000000E+00 0. -1.
         22    1    1    0    0    0  0.10824802089E+02  0.27424663418E+02  0.60746824995E+01  0.30102994392E+02  0.00000000000E+00 0. -1.
</event>
<event>
 5    1  0.1758480E-003  0.9118800E+02  0.7818608E-02  0.1130116E+00
         25   -1    0    0    0    0  0.00000000000E+00  0.00000000000E+00  0.99999998245E-14  0.12500000000E+03  0.12500000000E+03 0.  0.
        -13    1    3    3    0    0 -0.31668432293E+02  0.18876749676E+02  0.18708386783E+02  0.41342909698E+02  0.10566000000E+00 0.  1.
         23    2    1    0    0    0  0.20458382358E+02  0.20892101249E+02  0.44480270752E+01  0.95422808650E+02  0.90723217329E+02 0.  0.
         13    1    3    3    0    0  0.52126814651E+02  0.20153515730E+01 -0.14260359708E+02  0.54079898952E+02  0.10566000000E+00 0. -1.
         22    1    1    0    0    0 -0.20458382358E+02 -0.20892101249E+02 -0.44480270752E+01  0.29577191350E+02  0.00000000000E+00 0. -1.
</event>
<event>
 5    1  0.1758480E-003  0.9118800E+02  0.7818608E-02  0.1130116E+00
         25   -1    0    0    0    0  0.00000000000E+00  0.00000000000E+00  0.99999998245E-14  0.12500000000E+03  0.12500000000E+03 0.  0.
        -13    1    3    3    0    0  0.23598809940E+02  0.34042579244E+02 -0.11113843720E+02  0.42887407457E+02  0.10566000000E+00 0.  1.
         23    2    1    0    0    0  0.28602268421E-01  0.20726559289E+02  0.27819833647E+02  0.90308009250E+02  0.83378668210E+02 0.  0.
         13    1    3    3    0    0 -0.23570207671E+02 -0.13316019954E+02  0.38933677366E+02  0.47420601793E+02  0.10566000000E+00 0. -1.
         22    1    1    0    0    0 -0.28602268421E-01 -0.20726559289E+02 -0.27819833647E+02  0.34691990750E+02  0.00000000000E+00 0.  1.
</event>
<event>
 5    1  0.1758480E-003  0.9118800E+02  0.7818608E-02  0.1130116E+00
         25   -1    0    0    0    0  0.00000000000E+00  0.00000000000E+00  0.99999998245E-14  0.12500000000E+03  0.12500000000E+03 0.  0.
        -13    1    3    3    0    0  0.24729030346E+01  0.24222671553E+01  0.37431140593E+02  0.37591010598E+02  0.10566000000E+00 0. -1.
         23    2    1    0    0    0 -0.18896291658E+02  0.28827575418E+02 -0.30034597019E+01  0.90400582186E+02  0.83517336802E+02 0.  0.
         13    1    3    3    0    0 -0.21369194693E+02  0.26405308263E+02 -0.40434600295E+02  0.52809571588E+02  0.10566000000E+00 0.  1.
         22    1    1    0    0    0  0.18896291658E+02 -0.28827575418E+02  0.30034597019E+01  0.34599417814E+02  0.00000000000E+00 0.  1.
</event>
<event>
 5    1  0.1758480E-003  0.9118800E+02  0.7818608E-02  0.1130116E+00
         25   -1    0    0    0    0  0.00000000000E+00  0.00000000000E+00  0.99999998245E-14  0.12500000000E+03  0.12500000000E+03 0.  0.
        -13    1    3    3    0    0  0.25354671977E+02 -0.39527163900E+02 -0.18974827134E+02  0.50648902316E+02  0.10566000000E+00 0. -1.
         23    2    1    0    0    0 -0.64711557346E+01 -0.39532680767E+02 -0.10976543048E+02  0.83464554866E+02  0.72395709242E+02 0.  0.
         13    1    3    3    0    0 -0.31825827711E+02 -0.55168667241E-02  0.79982840862E+01  0.32815652550E+02  0.10566000000E+00 0.  1.
         22    1    1    0    0    0  0.64711557346E+01  0.39532680767E+02  0.10976543048E+02  0.41535445134E+02  0.00000000000E+00 0.  1.
</event>
<event>
 5    1  0.1758480E-003  0.9118800E+02  0.7818608E-02  0.1130116E+00
         25   -1    0    0    0    0  0.00000000000E+00  0.00000000000E+00  0.99999998245E-14  0.12500000000E+03  0.12500000000E+03 0.  0.
        -13    1    3    3    0    0 -0.98125188939E+01 -0.23777414072E+02 -0.54575156848E+02  0.60333322932E+02  0.10566000000E+00 0.  1.
         23    2    1    0    0    0 -0.15453204203E+02 -0.10508611781E+02 -0.20910383320E+02  0.96955810365E+02  0.92811381798E+02 0.  0.
         13    1    3    3    0    0 -0.56406853093E+01  0.13268802291E+02  0.33664773529E+02  0.36622487433E+02  0.10566000000E+00 0. -1.
         22    1    1    0    0    0  0.15453204203E+02  0.10508611781E+02  0.20910383320E+02  0.28044189635E+02  0.00000000000E+00 0.  1.
</event>
<event>
 5    1  0.1758480E-003  0.9118800E+02  0.7818608E-02  0.1130116E+00
         25   -1    0    0    0    0  0.00000000000E+00  0.00000000000E+00  0.99999998245E-14  0.12500000000E+03  0.12500000000E+03 0.  0.
        -13    1    3    3    0    0  0.26289753727E+02 -0.47885891994E+02  0.74809588495E+01  0.55137879107E+02  0.10566000000E+00 0. -1.
         23    2    1    0    0    0 -0.83878413437E+01 -0.27381713328E+02 -0.11545801661E+01  0.96339100458E+02  0.91977035800E+02 0.  0.
         13    1    3    3    0    0 -0.34677595071E+02  0.20504178666E+02 -0.86355390156E+01  0.41201221351E+02  0.10566000000E+00 0.  1.
         22    1    1    0    0    0  0.83878413437E+01  0.27381713328E+02  0.11545801661E+01  0.28660899542E+02  0.00000000000E+00 0. -1.
</event>
<event>
 5    1  0.1758480E-003  0.9118800E+02  0.7818608E-02  0.1130116E+00
         25   -1    0    0    0    0  0.00000000000E+00  0.00000000000E+00  0.99999998245E-14  0.12500000000E+03  0.12500000000E+03 0.  0.
        -13    1    3    3    0    0  0.34211408432E+02 -0.13754332074E+02 -0.39144135800E+02  0.53776171761E+02  0.10566000000E+00 0.  1.
         23    2    1    0    0    0 -0.59664147441E+01 -0.44591913626E+01 -0.27328431023E+02  0.96674646786E+02  0.92431930071E+02 0.  0.
         13    1    3    3    0    0 -0.40177823177E+02  0.92951407114E+01  0.11815704777E+02  0.42898475025E+02  0.10566000000E+00 0. -1.
         22    1    1    0    0    0  0.59664147441E+01  0.44591913626E+01  0.27328431023E+02  0.28325353214E+02  0.00000000000E+00 0.  1.
</event>
<event>
 5    1  0.1758480E-003  0.9118800E+02  0.7818608E-02  0.1130116E+00
         25   -1    0    0    0    0  0.00000000000E+00  0.00000000000E+00  0.99999998245E-14  0.12500000000E+03  0.12500000000E+03 0.  0.
        -13    1    3    3    0    0 -0.11743128263E+02 -0.19639835943E+02  0.18952048558E+02  0.29712211729E+02  0.10566000000E+00 0. -1.
         23    2    1    0    0    0  0.26950193054E+02  0.38612910973E+01 -0.21410838841E+02  0.90364086638E+02  0.83462696215E+02 0.  0.
         13    1    3    3    0    0  0.38693321317E+02  0.23501127041E+02 -0.40362887398E+02  0.60651874908E+02  0.10566000000E+00 0.  1.
         22    1    1    0    0    0 -0.26950193054E+02 -0.38612910973E+01  0.21410838841E+02  0.34635913362E+02  0.00000000000E+00 0.  1.
</event>
<event>
 5    1  0.1758480E-003  0.9118800E+02  0.7818608E-02  0.1130116E+00
         25   -1    0    0    0    0  0.00000000000E+00  0.00000000000E+00  0.99999998245E-14  0.12500000000E+03  0.12500000000E+03 0.  0.
        -13    1    3    3    0    0 -0.82477854066E+00 -0.62157430225E+01  0.35986945213E+02  0.36529263759E+02  0.10566000000E+00 0.  1.
         23    2    1    0    0    0 -0.20211299502E+02 -0.36971634793E+01 -0.20301165520E+02  0.96115696878E+02  0.91672919772E+02 0.  0.
         13    1    3    3    0    0 -0.19386520962E+02  0.25185795432E+01 -0.56288110733E+02  0.59586433119E+02  0.10566000000E+00 0. -1.
         22    1    1    0    0    0  0.20211299502E+02  0.36971634793E+01  0.20301165520E+02  0.28884303122E+02  0.00000000000E+00 0. -1.
</event>
<event>
 5    1  0.1758480E-003  0.9118800E+02  0.7818608E-02  0.1130116E+00
         25   -1    0    0    0    0  0.00000000000E+00  0.00000000000E+00  0.99999998245E-14  0.12500000000E+03  0.12500000000E+03 0.  0.
        -13    1    3    3    0    0 -0.19821852495E+02  0.26070815191E+02  0.13965444162E+02  0.35603904782E+02  0.10566000000E+00 0. -1.
         23    2    1    0    0    0 -0.85266002707E+01 -0.97775151964E+01 -0.29324618546E+02  0.92933881301E+02  0.87226545989E+02 0.  0.
         13    1    3    3    0    0  0.11295252224E+02 -0.35848330387E+02 -0.43290062707E+02  0.57329976519E+02  0.10566000000E+00 0.  1.
         22    1    1    0    0    0  0.85266002707E+01  0.97775151964E+01  0.29324618546E+02  0.32066118699E+02  0.00000000000E+00 0.  1.
</event>
<event>
 5    1  0.1758480E-003  0.9118800E+02  0.7818608E-02  0.1130116E+00
         25   -1    0    0    0    0  0.00000000000E+00  0.00000000000E+00  0.99999998245E-14  0.12500000000E+03  0.12500000000E+03 0.  0.
        -13    1    3    3    0    0 -0.25906844121E+02 -0.77400392688E+01 -0.74691635007E+01  0.28051245028E+02  0.10566000000E+00 0.  1.
         23    2    1    0    0    0  0.10063600078E+02 -0.38043172124E+02  0.18210835461E+02  0.81638801677E+02  0.69171528964E+02 0.  0.
         13    1    3    3    0    0  0.35970444200E+02 -0.30303132856E+02  0.25679998962E+02  0.53587556648E+02  0.10566000000E+00 0. -1.
         22    1    1    0    0    0 -0.10063600078E+02  0.38043172124E+02 -0.18210835461E+02  0.43361198323E+02  0.00000000000E+00 0. -1.
</event>
<event>
 5    1  0.1758480E-003  0.9118800E+02  0.7818608E-02  0.1130116E+00
         25   -1    0    0    0    0  0.00000000000E+00  0.00000000000E+00  0.99999998245E-14  0.12500000000E+03  0.12500000000E+03 0.  0.
        -13    1    3    3    0    0 -0.37890262614E+02 -0.46802319397E+02 -0.13364222243E+02  0.61682596428E+02  0.10566000000E+00 0.  1.
         23    2    1    0    0    0 -0.16524351215E+02 -0.22387371748E+02  0.98332538499E+00  0.97157307500E+02  0.93082366080E+02 0.  0.
         13    1    3    3    0    0  0.21365911400E+02  0.24414947649E+02  0.14347547628E+02  0.35474711072E+02  0.10566000000E+00 0. -1.
         22    1    1    0    0    0  0.16524351215E+02  0.22387371748E+02 -0.98332538499E+00  0.27842692500E+02  0.00000000000E+00 0.  1.
</event>
<event>
 5    1  0.1758480E-003  0.9118800E+02  0.7818608E-02  0.1130116E+00
         25   -1    0    0    0    0  0.00000000000E+00  0.00000000000E+00  0.99999998245E-14  0.12500000000E+03  0.12500000000E+03 0.  0.
        -13    1    3    3    0    0 -0.53925160685E+01 -0.97557980670E+01 -0.29305832401E+02  0.31354390478E+02  0.10566000000E+00 0.  1.
         23    2    1    0    0    0  0.93163071670E+01  0.18781596349E+01  0.29987323677E+02  0.93542717152E+02  0.88094717708E+02 0.  0.
         13    1    3    3    0    0  0.14708823236E+02  0.11633957702E+02  0.59293156078E+02  0.62188326674E+02  0.10566000000E+00 0. -1.
         22    1    1    0    0    0 -0.93163071670E+01 -0.18781596349E+01 -0.29987323677E+02  0.31457282848E+02  0.00000000000E+00 0. -1.
</event>
<event>
 5    1  0.1758480E-003  0.9118800E+02  0.7818608E-02  0.1130116E+00
         25   -1    0    0    0    0  0.00000000000E+00  0.00000000000E+00  0.99999998245E-14  0.12500000000E+03  0.12500000000E+03 0.  0.
        -13    1    3    3    0    0 -0.41722383039E+02 -0.17488992266E+02 -0.26110363950E+02  0.52233938839E+02  0.10566000000E+00 0.  1.
         23    2    1    0    0    0 -0.15907257131E+02 -0.19886770668E+02  0.10798675949E+02  0.97338910375E+02  0.93325921338E+02 0.  0.
         13    1    3    3    0    0  0.25815125909E+02 -0.23977784020E+01  0.36909039899E+02  0.45104971536E+02  0.10566000000E+00 0. -1.
         22    1    1    0    0    0  0.15907257131E+02  0.19886770668E+02 -0.10798675949E+02  0.27661089625E+02  0.00000000000E+00 0.  1.
</event>
<event>
 5    1  0.1758480E-003  0.9118800E+02  0.7818608E-02  0.1130116E+00
         25   -1    0    0    0    0  0.00000000000E+00  0.00000000000E+00  0.99999998245E-14  0.12500000000E+03  0.12500000000E+03 0.  0.
        -13    1    3    3    0    0 -0.36125223661E+01  0.62224656570E+01  0.39586631022E+02  0.40235331692E+02  0.10566000000E+00 0. -1.
         23    2    1    0    0    0 -0.20105189247E+02  0.24066602342E+02 -0.70818968169E+01  0.92850766020E+02  0.87107356205E+02 0.  0.
         13    1    3    3    0    0 -0.16492666881E+02  0.17844136685E+02 -0.46668527839E+02  0.52615434328E+02  0.10566000000E+00 0.  1.
         22    1    1    0    0    0  0.20105189247E+02 -0.24066602342E+02  0.70818968169E+01  0.32149233980E+02  0.00000000000E+00 0.  1.
</event>
<event>
 5    1  0.1758480E-003  0.9118800E+02  0.7818608E-02  0.1130116E+00
         25   -1    0    0    0    0  0.00000000000E+00  0.00000000000E+00  0.99999998245E-14  0.12500000000E+03  0.12500000000E+03 0.  0.
        -13    1    3    3    0    0  0.44356627250E+02  0.24763716860E+02 -0.13221206247E+02  0.52493461615E+02  0.10566000000E+00 0. -1.
         23    2    1    0    0    0  0.43606429185E+01  0.30507572647E+02 -0.41671002711E+01  0.93901898448E+02  0.88602904084E+02 0.  0.
         13    1    3    3    0    0 -0.39995984331E+02  0.57438557869E+01  0.90541059762E+01  0.41408436833E+02  0.10566000000E+00 0.  1.
         22    1    1    0    0    0 -0.43606429185E+01 -0.30507572647E+02  0.41671002711E+01  0.31098101552E+02  0.00000000000E+00 0. -1.
</event>
<event>
 5    1  0.1758480E-003  0.9118800E+02  0.7818608E-02  0.1130116E+00
         25   -1    0    0    0    0  0.00000000000E+00  0.00000000000E+00  0.99999998245E-14  0.12500000000E+03  0.12500000000E+03 0.  0.
        -13    1    3    3    0    0 -0.24149796324E+02  0.28363982788E+02 -0.75625308859E+01  0.38012250913E+02  0.10566000000E+00 0.  1.
         23    2    1    0    0    0  0.24664075827E+02  0.45790655453E+01  0.13806511455E+02  0.96366030030E+02  0.92013626749E+02 0.  0.
         13    1    3    3    0    0  0.48813872151E+02 -0.23784917242E+02  0.21369042341E+02  0.58353779117E+02  0.10566000000E+00 0. -1.
         22    1    1    0    0    0 -0.24664075827E+02 -0.45790655453E+01 -0.13806511455E+02  0.28633969970E+02  0.00000000000E+00 0. -1.
</event>
<event>
 5    1  0.1758480E-003  0.9118800E+02  0.7818608E-02  0.1130116E+00
         25   -1    0    0    0    0  0.00000000000E+00  0.00000000000E+00  0.99999998245E-14  0.12500000000E+03  0.12500000000E+03 0.  0.
        -13    1    3    3    0    0  0.40040703472E+02  0.91944572351E+01  0.18576075775E+02  0.45087445410E+02  0.10566000000E+00 0. -1.
         23    2    1    0    0    0  0.76445984432E+01  0.97940705116E+01 -0.23633597531E+02  0.98299613583E+02  0.94603929072E+02 0.  0.
         13    1    3    3    0    0 -0.32396105028E+02  0.59961327646E+00 -0.42209673306E+02  0.53212168173E+02  0.10566000000E+00 0.  1.
         22    1    1    0    0    0 -0.76445984432E+01 -0.97940705116E+01  0.23633597531E+02  0.26700386417E+02  0.00000000000E+00 0.  1.
</event>
<event>
 5    1  0.1758480E-003  0.9118800E+02  0.7818608E-02  0.1130116E+00
         25   -1    0    0    0    0  0.00000000000E+00  0.00000000000E+00  0.99999998245E-14  0.12500000000E+03  0.12500000000E+03 0.  0.
        -13    1    3    3    0    0  0.50237973885E+02 -0.21228802192E+02 -0.10428640158E+01  0.54549196071E+02  0.10566000000E+00 0.  1.
         23    2    1    0    0    0  0.23681688281E+02  0.12506411671E+02 -0.53199416042E+01  0.97695522869E+02  0.93802349210E+02 0.  0.
         13    1    3    3    0    0 -0.26556285604E+02  0.33735213863E+02 -0.42770775884E+01  0.43146326798E+02  0.10566000000E+00 0. -1.
         22    1    1    0    0    0 -0.23681688281E+02 -0.12506411671E+02  0.53199416042E+01  0.27304477131E+02  0.00000000000E+00 0.  1.
</event>
<event>
 5    1  0.1758480E-003  0.9118800E+02  0.7818608E-02  0.1130116E+00
         25   -1    0    0    0    0  0.00000000000E+00  0.00000000000E+00  0.99999998245E-14  0.12500000000E+03  0.12500000000E+03 0.  0.
        -13    1    3    3    0    0 -0.22340676495E+01  0.52077015635E+01  0.37198411665E+02  0.37627705329E+02  0.10566000000E+00 0. -1.
         23    2    1    0    0    0  0.83429203917E+00 -0.19428232001E+02 -0.18219348014E+02  0.98352356878E+02  0.94673593042E+02 0.  0.
         13    1    3    3    0    0  0.30683596887E+01 -0.24635933565E+02 -0.55417759680E+02  0.60724651549E+02  0.10566000000E+00 0.  1.
         22    1    1    0    0    0 -0.83429203917E+00  0.19428232001E+02  0.18219348014E+02  0.26647643122E+02  0.00000000000E+00 0.  1.
</event>
<event>
 5    1  0.1758480E-003  0.9118800E+02  0.7818608E-02  0.1130116E+00
         25   -1    0    0    0    0  0.00000000000E+00  0.00000000000E+00  0.99999998245E-14  0.12500000000E+03  0.12500000000E+03 0.  0.
        -13    1    3    3    0    0  0.11845079421E+02  0.44281070399E+02 -0.33544119696E+02  0.56800864715E+02  0.10566000000E+00 0.  1.
         23    2    1    0    0    0  0.42958666438E+01  0.56230968454E+01 -0.27443541641E+02  0.96658834425E+02  0.92410543804E+02 0.  0.
         13    1    3    3    0    0 -0.75492127776E+01 -0.38657973553E+02  0.61005780545E+01  0.39857969710E+02  0.10566000000E+00 0. -1.
         22    1    1    0    0    0 -0.42958666438E+01 -0.56230968454E+01  0.27443541641E+02  0.28341165575E+02  0.00000000000E+00 0. -1.
</event>
<event>
 5    1  0.1758480E-003  0.9118800E+02  0.7818608E-02  0.1130116E+00
         25   -1    0    0    0    0  0.00000000000E+00  0.00000000000E+00  0.99999998245E-14  0.12500000000E+03  0.12500000000E+03 0.  0.
        -13    1    3    3    0    0  0.42612035492E+02  0.19794064442E+01 -0.22808760138E+02  0.48373074346E+02  0.10566000000E+00 0. -1.
         23    2    1    0    0    0  0.13034629483E+02 -0.27370995595E+02 -0.29244078086E+01  0.94543061108E+02  0.89502878597E+02 0.  0.
         13    1    3    3    0    0 -0.29577406009E+02 -0.29350402039E+02  0.19884352329E+02  0.46169986762E+02  0.10566000000E+00 0.  1.
         22    1    1    0    0    0 -0.13034629483E+02  0.27370995595E+02  0.29244078086E+01  0.30456938892E+02  0.00000000000E+00 0.  1.
</event>
<event>
 5    1  0.1758480E-003  0.9118800E+02  0.7818608E-02  0.1130116E+00
         25   -1    0    0    0    0  0.00000000000E+00  0.00000000000E+00  0.99999998245E-14  0.12500000000E+03  0.12500000000E+03 0.  0.
        -13    1    3    3    0    0 -0.43907203919E+02  0.57083098948E+01  0.40681010830E+02  0.60128056380E+02  0.10566000000E+00 0.  1.
         23    2    1    0    0    0 -0.23516010032E+02  0.13467611995E+02  0.14310444769E+02  0.94354149871E+02  0.89238654560E+02 0.  0.
         13    1    3    3    0    0  0.20391193887E+02  0.77593021003E+01 -0.26370566061E+02  0.34226093491E+02  0.10566000000E+00 0. -1.
         22    1    1    0    0    0  0.23516010032E+02 -0.13467611995E+02 -0.14310444769E+02  0.30645850129E+02  0.00000000000E+00 0.  1.
</event>
<event>
 5    1  0.1758480E-003  0.9118800E+02  0.7818608E-02  0.1130116E+00
         25   -1    0    0    0    0  0.00000000000E+00  0.00000000000E+00  0.99999998245E-14  0.12500000000E+03  0.12500000000E+03 0.  0.
        -13    1    3    3    0    0 -0.59631559601E+02  0.15795629306E+02  0.55715185277E+01  0.61939307296E+02  0.10566000000E+00 0.  1.
         23    2    1    0    0    0 -0.28011792232E+02  0.37720164098E+01  0.72855601348E+01  0.95811509146E+02  0.91257204025E+02 0.  0.
         13    1    3    3    0    0  0.31619767368E+02 -0.12023612896E+02  0.17140416071E+01  0.33872201850E+02  0.10566000000E+00 0. -1.
         22    1    1    0    0    0  0.28011792232E+02 -0.37720164098E+01 -0.72855601348E+01  0.29188490854E+02  0.00000000000E+00 0.  1.
</event>
<event>
 5    1  0.1758480E-003  0.9118800E+02  0.7818608E-02  0.1130116E+00
         25   -1    0    0    0    0  0.00000000000E+00  0.00000000000E+00  0.99999998245E-14  0.12500000000E+03  0.12500000000E+03 0.  0.
        -13    1    3    3    0    0  0.30884385814E+02  0.33035449322E+02 -0.26263393679E+02  0.52296875725E+02  0.10566000000E+00 0. -1.
         23    2    1    0    0    0  0.22501026711E+02  0.15361620680E+02  0.11968282523E+02  0.95242389553E+02  0.90474291311E+02 0.  0.
         13    1    3    3    0    0 -0.83833591030E+01 -0.17673828641E+02  0.38231676202E+02  0.42945513828E+02  0.10566000000E+00 0.  1.
         22    1    1    0    0    0 -0.22501026711E+02 -0.15361620680E+02 -0.11968282523E+02  0.29757610447E+02  0.00000000000E+00 0. -1.
</event>
<event>
 5    1  0.1758480E-003  0.9118800E+02  0.7818608E-02  0.1130116E+00
         25   -1    0    0    0    0  0.00000000000E+00  0.00000000000E+00  0.99999998245E-14  0.12500000000E+03  0.12500000000E+03 0.  0.
        -13    1    3    3    0    0 -0.30109175446E+02 -0.11882673244E+02  0.29554651779E+02  0.43832054199E+02  0.10566000000E+00 0. -1.
         23    2    1    0    0    0 -0.49386544296E+01  0.27458863081E+02  0.48026832331E+01  0.96690191885E+02  0.92452950040E+02 0.  0.
         13    1    3    3    0    0  0.25170521016E+02  0.39341536326E+02 -0.24751968546E+02  0.52858137686E+02  0.10566000000E+00 0.  1.
         22    1    1    0    0    0  0.49386544296E+01 -0.27458863081E+02 -0.48026832331E+01  0.28309808115E+02  0.00000000000E+00 0.  1.
</event>
<event>
 5    1  0.1758480E-003  0.9118800E+02  0.7818608E-02  0.1130116E+00
         25   -1    0    0    0    0  0.00000000000E+00  0.00000000000E+00  0.99999998245E-14  0.12500000000E+03  0.12500000000E+03 0.  0.
        -13    1    3    3    0    0 -0.46259033964E+02  0.33362440304E+02 -0.13200657007E+02  0.58542456011E+02  0.10566000000E+00 0.  1.
         23    2    1    0    0    0 -0.20542884820E+02  0.18857568627E+02  0.92352588450E+01  0.95624703964E+02  0.91000966979E+02 0.  0.
         13    1    3    3    0    0  0.25716149144E+02 -0.14504871677E+02  0.22435915852E+02  0.37082247954E+02  0.10566000000E+00 0. -1.
         22    1    1    0    0    0  0.20542884820E+02 -0.18857568627E+02 -0.92352588450E+01  0.29375296036E+02  0.00000000000E+00 0.  1.
</event>
<event>
 5    1  0.1758480E-003  0.9118800E+02  0.7818608E-02  0.1130116E+00
         25   -1    0    0    0    0  0.00000000000E+00  0.00000000000E+00  0.99999998245E-14  0.12500000000E+03  0.12500000000E+03 0.  0.
        -13    1    3    3    0    0  0.17586739094E+02 -0.18593982596E+02 -0.29107481564E+02  0.38759337298E+02  0.10566000000E+00 0.  1.
         23    2    1    0    0    0  0.80394415878E+01 -0.15467768704E+02  0.25404681426E+02  0.94189574360E+02  0.89007828814E+02 0.  0.
         13    1    3    3    0    0 -0.95472975066E+01  0.31262138912E+01  0.54512162990E+02  0.55430237063E+02  0.10566000000E+00 0. -1.
         22    1    1    0    0    0 -0.80394415878E+01  0.15467768704E+02 -0.25404681426E+02  0.30810425640E+02  0.00000000000E+00 0. -1.
</event>
<event>
 5    1  0.1758480E-003  0.9118800E+02  0.7818608E-02  0.1130116E+00
         25   -1    0    0    0    0  0.00000000000E+00  0.00000000000E+00  0.99999998245E-14  0.12500000000E+03  0.12500000000E+03 0.  0.
        -13    1    3    3    0    0 -0.28771125784E+02  0.82648467237E+00  0.25656479992E+02  0.38558097533E+02  0.10566000000E+00 0. -1.
         23    2    1    0    0    0 -0.87476747216E+01 -0.84948805170E+01 -0.26844505146E+02  0.95515898105E+02  0.90851387035E+02 0.  0.
         13    1    3    3    0    0  0.20023451062E+02 -0.93213651893E+01 -0.52500985138E+02  0.56957800571E+02  0.10566000000E+00 0.  1.
         22    1    1    0    0    0  0.87476747216E+01  0.84948805170E+01  0.26844505146E+02  0.29484101895E+02  0.00000000000E+00 0.  1.
</event>
<event>
 5    1  0.1758480E-003  0.9118800E+02  0.7818608E-02  0.1130116E+00
         25   -1    0    0    0    0  0.00000000000E+00  0.00000000000E+00  0.99999998245E-14  0.12500000000E+03  0.12500000000E+03 0.  0.
        -13    1    3    3    0    0  0.39262003885E+02  0.40934461148E+02  0.91795371922E+00  0.56727320240E+02  0.10566000000E+00 0.  1.
         23    2    1    0    0    0  0.16578196453E+02  0.34814562689E+01  0.14636384681E+02  0.10261293025E+03  0.10014106332E+03 0.  0.
         13    1    3    3    0    0 -0.22683807432E+02 -0.37453004879E+02  0.13718430962E+02  0.45885610012E+02  0.10566000000E+00 0. -1.
         22    1    1    0    0    0 -0.16578196453E+02 -0.34814562689E+01 -0.14636384681E+02  0.22387069748E+02  0.00000000000E+00 0.  1.
</event>
<event>
 5    1  0.1758480E-003  0.9118800E+02  0.7818608E-02  0.1130116E+00
         25   -1    0    0    0    0  0.00000000000E+00  0.00000000000E+00  0.99999998245E-14  0.12500000000E+03  0.12500000000E+03 0.  0.
        -13    1    3    3    0    0 -0.16096355273E+01  0.34203067640E+02  0.10131141834E+02  0.35708429837E+02  0.10566000000E+00 0. -1.
         23    2    1    0    0    0  0.20665097905E+02 -0.20784868845E+02  0.51028013258E+01  0.95249443270E+02  0.90484036258E+02 0.  0.
         13    1    3    3    0    0  0.22274733432E+02 -0.54987936485E+02 -0.50283405083E+01  0.59541013434E+02  0.10566000000E+00 0.  1.
         22    1    1    0    0    0 -0.20665097905E+02  0.20784868845E+02 -0.51028013258E+01  0.29750556730E+02  0.00000000000E+00 0.  1.
</event>
<event>
 5    1  0.1758480E-003  0.9118800E+02  0.7818608E-02  0.1130116E+00
         25   -1    0    0    0    0  0.00000000000E+00  0.00000000000E+00  0.99999998245E-14  0.12500000000E+03  0.12500000000E+03 0.  0.
        -13    1    3    3    0    0  0.27025221679E+02 -0.20510181172E+01  0.36417897000E+02  0.45396516034E+02  0.10566000000E+00 0.  1.
         23    2    1    0    0    0 -0.19867431806E+02 -0.88653401522E+01  0.19717547125E+02  0.95638617757E+02  0.91020077122E+02 0.  0.
         13    1    3    3    0    0 -0.46892653484E+02 -0.68143220350E+01 -0.16700349874E+02  0.50242101723E+02  0.10566000000E+00 0. -1.
         22    1    1    0    0    0  0.19867431806E+02  0.88653401522E+01 -0.19717547125E+02  0.29361382243E+02  0.00000000000E+00 0.  1.
</event>
<event>
 5    1  0.1758480E-003  0.9118800E+02  0.7818608E-02  0.1130116E+00
         25   -1    0    0    0    0  0.00000000000E+00  0.00000000000E+00  0.99999998245E-14  0.12500000000E+03  0.12500000000E+03 0.  0.
        -13    1    3    3    0    0 -0.31423273835E+02 -0.48549058807E+02  0.18047694059E+02  0.60581875791E+02  0.10566000000E+00 0. -1.
         23    2    1    0    0    0 -0.14705288504E+02 -0.12518166358E+02  0.15235319536E+02  0.10040193178E+03  0.97342092356E+02 0.  0.
         13    1    3    3    0    0  0.16717985332E+02  0.36030892449E+02 -0.28123745228E+01  0.39820055986E+02  0.10566000000E+00 0.  1.
         22    1    1    0    0    0  0.14705288504E+02  0.12518166358E+02 -0.15235319536E+02  0.24598068223E+02  0.00000000000E+00 0. -1.
</event>
<event>
 5    1  0.1758480E-003  0.9118800E+02  0.7818608E-02  0.1130116E+00
         25   -1    0    0    0    0  0.00000000000E+00  0.00000000000E+00  0.99999998245E-14  0.12500000000E+03  0.12500000000E+03 0.  0.
        -13    1    3    3    0    0  0.15668777254E+02 -0.29684313972E+02 -0.17668722605E+01  0.33612528590E+02  0.10566000000E+00 0. -1.
         23    2    1    0    0    0 -0.13436105145E+02  0.24125605940E+02 -0.10593794871E+02  0.95422943466E+02  0.90723403081E+02 0.  0.
         13    1    3    3    0    0 -0.29104882399E+02  0.53809919912E+02 -0.88269226104E+01  0.61810414876E+02  0.10566000000E+00 0.  1.
         22    1    1    0    0    0  0.13436105145E+02 -0.24125605940E+02  0.10593794871E+02  0.29577056534E+02  0.00000000000E+00 0.  1.
</event>
<event>
 5    1  0.1758480E-003  0.9118800E+02  0.7818608E-02  0.1130116E+00
         25   -1    0    0    0    0  0.00000000000E+00  0.00000000000E+00  0.99999998245E-14  0.12500000000E+03  0.12500000000E+03 0.  0.
        -13    1    3    3    0    0  0.29034691840E+02 -0.63649390342E+01  0.16026439328E+02  0.33769567672E+02  0.10566000000E+00 0. -1.
         23    2    1    0    0    0 -0.28813692878E+02 -0.12944235667E+02  0.59689967485E+01  0.92853288559E+02  0.87110976001E+02 0.  0.
         13    1    3    3    0    0 -0.57848384718E+02 -0.65792966326E+01 -0.10057442580E+02  0.59083720888E+02  0.10566000000E+00 0.  1.
         22    1    1    0    0    0  0.28813692878E+02  0.12944235667E+02 -0.59689967485E+01  0.32146711441E+02  0.00000000000E+00 0.  1.
</event>
<event>
 5    1  0.1758480E-003  0.9118800E+02  0.7818608E-02  0.1130116E+00
         25   -1    0    0    0    0  0.00000000000E+00  0.00000000000E+00  0.99999998245E-14  0.12500000000E+03  0.12500000000E+03 0.  0.
        -13    1    3    3    0    0  0.30981040555E+02  0.82372960298E+01  0.19911999386E+02  0.37738267095E+02  0.10566000000E+00 0. -1.
         23    2    1    0    0    0 -0.26416650072E+02  0.36292896674E+01  0.11614598005E+02  0.95915467489E+02  0.91399490547E+02 0.  0.
         13    1    3    3    0    0 -0.57397690628E+02 -0.46080063624E+01 -0.82974013809E+01  0.58177200394E+02  0.10566000000E+00 0.  1.
         22    1    1    0    0    0  0.26416650072E+02 -0.36292896674E+01 -0.11614598005E+02  0.29084532511E+02  0.00000000000E+00 0.  1.
</event>
<event>
 5    1  0.1758480E-003  0.9118800E+02  0.7818608E-02  0.1130116E+00
         25   -1    0    0    0    0  0.00000000000E+00  0.00000000000E+00  0.99999998245E-14  0.12500000000E+03  0.12500000000E+03 0.  0.
        -13    1    3    3    0    0 -0.21742176224E+02 -0.35984582507E+02 -0.36351409483E+02  0.55579209608E+02  0.10566000000E+00 0.  1.
         23    2    1    0    0    0  0.72166396384E+01 -0.24144431755E+02 -0.61578723019E+01  0.99058664959E+02  0.95601601658E+02 0.  0.
         13    1    3    3    0    0  0.28958815863E+02  0.11840150752E+02  0.30193537182E+02  0.43479455350E+02  0.10566000000E+00 0. -1.
         22    1    1    0    0    0 -0.72166396384E+01  0.24144431755E+02  0.61578723019E+01  0.25941335041E+02  0.00000000000E+00 0.  1.
</event>
<event>
 5    1  0.1758480E-003  0.9118800E+02  0.7818608E-02  0.1130116E+00
         25   -1    0    0    0    0  0.00000000000E+00  0.00000000000E+00  0.99999998245E-14  0.12500000000E+03  0.12500000000E+03 0.  0.
        -13    1    3    3    0    0 -0.17842528534E+02  0.36536132845E+02 -0.43360216382E+02  0.59442109287E+02  0.10566000000E+00 0.  1.
         23    2    1    0    0    0  0.22883346164E+01  0.18554412497E+02 -0.30223672801E+02  0.89461667231E+02  0.82100041461E+02 0.  0.
         13    1    3    3    0    0  0.20130863150E+02 -0.17981720348E+02  0.13136543581E+02  0.30019557944E+02  0.10566000000E+00 0. -1.
         22    1    1    0    0    0 -0.22883346164E+01 -0.18554412497E+02  0.30223672801E+02  0.35538332769E+02  0.00000000000E+00 0.  1.
</event>
<event>
 5    1  0.1758480E-003  0.9118800E+02  0.7818608E-02  0.1130116E+00
         25   -1    0    0    0    0  0.00000000000E+00  0.00000000000E+00  0.99999998245E-14  0.12500000000E+03  0.12500000000E+03 0.  0.
        -13    1    3    3    0    0  0.55687127697E+02 -0.51120305626E-01  0.12367554411E+02  0.57044073930E+02  0.10566000000E+00 0.  1.
         23    2    1    0    0    0  0.17652887863E+02 -0.10424771633E+02  0.19031283150E+02  0.97026976355E+02  0.92907179963E+02 0.  0.
         13    1    3    3    0    0 -0.38034239834E+02 -0.10373651327E+02  0.66637287389E+01  0.39982902425E+02  0.10566000000E+00 0. -1.
         22    1    1    0    0    0 -0.17652887863E+02  0.10424771633E+02 -0.19031283150E+02  0.27973023645E+02  0.00000000000E+00 0.  1.
</event>
<event>
 5    1  0.1758480E-003  0.9118800E+02  0.7818608E-02  0.1130116E+00
         25   -1    0    0    0    0  0.00000000000E+00  0.00000000000E+00  0.99999998245E-14  0.12500000000E+03  0.12500000000E+03 0.  0.
        -13    1    3    3    0    0  0.40580006773E+02 -0.11448856293E+02 -0.20541504432E+02  0.46901789182E+02  0.10566000000E+00 0.  1.
         23    2    1    0    0    0  0.16499166130E+02  0.25272209675E+02 -0.14535372205E+01  0.94783781916E+02  0.89838440987E+02 0.  0.
         13    1    3    3    0    0 -0.24080840643E+02  0.36721065968E+02  0.19087967211E+02  0.47881992734E+02  0.10566000000E+00 0. -1.
         22    1    1    0    0    0 -0.16499166130E+02 -0.25272209675E+02  0.14535372205E+01  0.30216218084E+02  0.00000000000E+00 0.  1.
</event>
<event>
 5    1  0.1758480E-003  0.9118800E+02  0.7818608E-02  0.1130116E+00
         25   -1    0    0    0    0  0.00000000000E+00  0.00000000000E+00  0.99999998245E-14  0.12500000000E+03  0.12500000000E+03 0.  0.
        -13    1    3    3    0    0  0.47850019059E+01  0.57018876551E+02  0.12443907415E+02  0.58556899868E+02  0.10566000000E+00 0.  1.
         23    2    1    0    0    0  0.11189090496E+02  0.21966374402E+02  0.17804628593E+02  0.94590755520E+02  0.89569463994E+02 0.  0.
         13    1    3    3    0    0  0.64040885905E+01 -0.35052502149E+02  0.53607211775E+01  0.36033855652E+02  0.10566000000E+00 0. -1.
         22    1    1    0    0    0 -0.11189090496E+02 -0.21966374402E+02 -0.17804628593E+02  0.30409244480E+02  0.00000000000E+00 0.  1.
</event>
<event>
 5    1  0.1758480E-003  0.9118800E+02  0.7818608E-02  0.1130116E+00
         25   -1    0    0    0    0  0.00000000000E+00  0.00000000000E+00  0.99999998245E-14  0.12500000000E+03  0.12500000000E+03 0.  0.
        -13    1    3    3    0    0 -0.86335633770E+01  0.35480822933E+02 -0.27056448131E+02  0.45447659589E+02  0.10566000000E+00 0.  1.
         23    2    1    0    0    0  0.19684623679E+02 -0.53204224644E+01 -0.21410439457E+02  0.95433156707E+02  0.90737473938E+02 0.  0.
         13    1    3    3    0    0  0.28318187056E+02 -0.40801245398E+02  0.56460086743E+01  0.49985497118E+02  0.10566000000E+00 0. -1.
         22    1    1    0    0    0 -0.19684623679E+02  0.53204224644E+01  0.21410439457E+02  0.29566843293E+02  0.00000000000E+00 0. -1.
</event>
<event>
 5    1  0.1758480E-003  0.9118800E+02  0.7818608E-02  0.1130116E+00
         25   -1    0    0    0    0  0.00000000000E+00  0.00000000000E+00  0.99999998245E-14  0.12500000000E+03  0.12500000000E+03 0.  0.
        -13    1    3    3    0    0  0.25529735231E+02  0.22066605702E+02  0.72051451868E+01  0.34505474194E+02  0.10566000000E+00 0.  1.
         23    2    1    0    0    0 -0.21488870585E+02 -0.68737173298E+01 -0.18891408810E+02  0.95573738331E+02  0.90930933036E+02 0.  0.
         13    1    3    3    0    0 -0.47018605816E+02 -0.28940323032E+02 -0.26096553997E+02  0.61068264137E+02  0.10566000000E+00 0. -1.
         22    1    1    0    0    0  0.21488870585E+02  0.68737173298E+01  0.18891408810E+02  0.29426261669E+02  0.00000000000E+00 0. -1.
</event>
<event>
 5    1  0.1758480E-003  0.9118800E+02  0.7818608E-02  0.1130116E+00
         25   -1    0    0    0    0  0.00000000000E+00  0.00000000000E+00  0.99999998245E-14  0.12500000000E+03  0.12500000000E+03 0.  0.
        -13    1    3    3    0    0  0.39377775544E+02  0.12415864579E+02 -0.19161437456E+02  0.45518509965E+02  0.10566000000E+00 0. -1.
         23    2    1    0    0    0 -0.13059939580E+02 -0.13040996739E+02 -0.80785878365E+01  0.10485320871E+03  0.10289947608E+03 0.  0.
         13    1    3    3    0    0 -0.52437715125E+02 -0.25456861318E+02  0.11082849619E+02  0.59334698746E+02  0.10566000000E+00 0.  1.
         22    1    1    0    0    0  0.13059939580E+02  0.13040996739E+02  0.80785878365E+01  0.20146791288E+02  0.00000000000E+00 0.  1.
</event>
<event>
 5    1  0.1758480E-003  0.9118800E+02  0.7818608E-02  0.1130116E+00
         25   -1    0    0    0    0  0.00000000000E+00  0.00000000000E+00  0.99999998245E-14  0.12500000000E+03  0.12500000000E+03 0.  0.
        -13    1    3    3    0    0  0.16294124302E+02 -0.35092862058E+02  0.51766864640E+01  0.39036094848E+02  0.10566000000E+00 0. -1.
         23    2    1    0    0    0  0.36085601694E+02 -0.15695208464E+01 -0.18312475589E+02  0.84503323501E+02  0.74167586418E+02 0.  0.
         13    1    3    3    0    0  0.19791477392E+02  0.33523341212E+02 -0.23489162053E+02  0.45467228652E+02  0.10566000000E+00 0.  1.
         22    1    1    0    0    0 -0.36085601694E+02  0.15695208464E+01  0.18312475589E+02  0.40496676499E+02  0.00000000000E+00 0.  1.
</event>
<event>
 5    1  0.1758480E-003  0.9118800E+02  0.7818608E-02  0.1130116E+00
         25   -1    0    0    0    0  0.00000000000E+00  0.00000000000E+00  0.99999998245E-14  0.12500000000E+03  0.12500000000E+03 0.  0.
        -13    1    3    3    0    0 -0.13524600040E+02 -0.18133443745E+02 -0.26244002760E+02  0.34648166375E+02  0.10566000000E+00 0.  1.
         23    2    1    0    0    0 -0.89358291989E+01  0.50917952734E+01  0.28720030707E+02  0.94494007369E+02  0.89434343752E+02 0.  0.
         13    1    3    3    0    0  0.45887708408E+01  0.23225239018E+02  0.54964033467E+02  0.59845840994E+02  0.10566000000E+00 0. -1.
         22    1    1    0    0    0  0.89358291989E+01 -0.50917952734E+01 -0.28720030707E+02  0.30505992631E+02  0.00000000000E+00 0. -1.
</event>
<event>
 5    1  0.1758480E-003  0.9118800E+02  0.7818608E-02  0.1130116E+00
         25   -1    0    0    0    0  0.00000000000E+00  0.00000000000E+00  0.99999998245E-14  0.12500000000E+03  0.12500000000E+03 0.  0.
        -13    1    3    3    0    0 -0.15016212584E+02 -0.21752903788E+01 -0.19384282450E+02  0.24616663030E+02  0.10566000000E+00 0.  1.
         23    2    1    0    0    0 -0.91101360946E+01  0.79381725647E+01  0.39003542841E+02  0.84167592314E+02  0.73599579336E+02 0.  0.
         13    1    3    3    0    0  0.59060764890E+01  0.10113462943E+02  0.58387825291E+02  0.59550929283E+02  0.10566000000E+00 0. -1.
         22    1    1    0    0    0  0.91101360946E+01 -0.79381725647E+01 -0.39003542841E+02  0.40832407686E+02  0.00000000000E+00 0. -1.
</event>
<event>
 5    1  0.1758480E-003  0.9118800E+02  0.7818608E-02  0.1130116E+00
         25   -1    0    0    0    0  0.00000000000E+00  0.00000000000E+00  0.99999998245E-14  0.12500000000E+03  0.12500000000E+03 0.  0.
        -13    1    3    3    0    0 -0.39336046742E+02  0.23415339123E+02  0.20706392044E+02  0.50243094203E+02  0.10566000000E+00 0. -1.
         23    2    1    0    0    0  0.85658193199E+01  0.17308308588E+02  0.17986561637E+02  0.98609334864E+02  0.95012281922E+02 0.  0.
         13    1    3    3    0    0  0.47901866062E+02 -0.61070305352E+01 -0.27198304069E+01  0.48366240661E+02  0.10566000000E+00 0.  1.
         22    1    1    0    0    0 -0.85658193199E+01 -0.17308308588E+02 -0.17986561637E+02  0.26390665136E+02  0.00000000000E+00 0. -1.
</event>
<event>
 5    1  0.1758480E-003  0.9118800E+02  0.7818608E-02  0.1130116E+00
         25   -1    0    0    0    0  0.00000000000E+00  0.00000000000E+00  0.99999998245E-14  0.12500000000E+03  0.12500000000E+03 0.  0.
        -13    1    3    3    0    0  0.95700559858E+01 -0.31018761745E+02 -0.11626418153E+02  0.34480926827E+02  0.10566000000E+00 0.  1.
         23    2    1    0    0    0 -0.23144426863E+02  0.18483909819E+02  0.18310014447E+01  0.95323881936E+02  0.90586811866E+02 0.  0.
         13    1    3    3    0    0 -0.32714482849E+02  0.49502671565E+02  0.13457419597E+02  0.60842955109E+02  0.10566000000E+00 0. -1.
         22    1    1    0    0    0  0.23144426863E+02 -0.18483909819E+02 -0.18310014447E+01  0.29676118064E+02  0.00000000000E+00 0. -1.
</event>
<event>
 5    1  0.1758480E-003  0.9118800E+02  0.7818608E-02  0.1130116E+00
         25   -1    0    0    0    0  0.00000000000E+00  0.00000000000E+00  0.99999998245E-14  0.12500000000E+03  0.12500000000E+03 0.  0.
        -13    1    3    3    0    0  0.58586226562E+01  0.46552208596E+02  0.37448849957E+01  0.47068746661E+02  0.10566000000E+00 0. -1.
         23    2    1    0    0    0  0.27538306295E+02  0.60330803820E+01  0.13015530839E+02  0.93949067397E+02  0.88669424545E+02 0.  0.
         13    1    3    3    0    0  0.21679683639E+02 -0.40519128214E+02  0.92706458437E+01  0.46880320736E+02  0.10566000000E+00 0.  1.
         22    1    1    0    0    0 -0.27538306295E+02 -0.60330803820E+01 -0.13015530839E+02  0.31050932603E+02  0.00000000000E+00 0. -1.
</event>
<event>
 5    1  0.1758480E-003  0.9118800E+02  0.7818608E-02  0.1130116E+00
         25   -1    0    0    0    0  0.00000000000E+00  0.00000000000E+00  0.99999998245E-14  0.12500000000E+03  0.12500000000E+03 0.  0.
        -13    1    3    3    0    0  0.19207805865E+02 -0.51614383325E+02  0.12585082866E+02  0.56492299006E+02  0.10566000000E+00 0.  1.
         23    2    1    0    0    0  0.79529465431E+01 -0.18441141681E+02  0.24341578782E+02  0.93443106572E+02  0.87953263970E+02 0.  0.
         13    1    3    3    0    0 -0.11254859322E+02  0.33173241644E+02  0.11756495916E+02  0.36950807566E+02  0.10566000000E+00 0. -1.
         22    1    1    0    0    0 -0.79529465431E+01  0.18441141681E+02 -0.24341578782E+02  0.31556893428E+02  0.00000000000E+00 0.  1.
</event>
<event>
 5    1  0.1758480E-003  0.9118800E+02  0.7818608E-02  0.1130116E+00
         25   -1    0    0    0    0  0.00000000000E+00  0.00000000000E+00  0.99999998245E-14  0.12500000000E+03  0.12500000000E+03 0.  0.
        -13    1    3    3    0    0 -0.35692401839E+02 -0.35871647905E+02  0.25195713187E+02  0.56529264983E+02  0.10566000000E+00 0. -1.
         23    2    1    0    0    0 -0.12885134553E+01 -0.15737830417E+02  0.23827633906E+02  0.96415113946E+02  0.92080282832E+02 0.  0.
         13    1    3    3    0    0  0.34403888384E+02  0.20133817488E+02 -0.13680792810E+01  0.39885848963E+02  0.10566000000E+00 0.  1.
         22    1    1    0    0    0  0.12885134553E+01  0.15737830417E+02 -0.23827633906E+02  0.28584886054E+02  0.00000000000E+00 0. -1.
</event>
<event>
 5    1  0.1758480E-003  0.9118800E+02  0.7818608E-02  0.1130116E+00
         25   -1    0    0    0    0  0.00000000000E+00  0.00000000000E+00  0.99999998245E-14  0.12500000000E+03  0.12500000000E+03 0.  0.
        -13    1    3    3    0    0  0.30181574145E+02  0.73487716339E+01  0.37007053290E+01  0.31283194312E+02  0.10566000000E+00 0. -1.
         23    2    1    0    0    0 -0.29737757949E+02 -0.71236882688E+01  0.89207500415E+01  0.93146256677E+02  0.87530361413E+02 0.  0.
         13    1    3    3    0    0 -0.59919332094E+02 -0.14472459903E+02  0.52200447125E+01  0.61863062365E+02  0.10566000000E+00 0.  1.
         22    1    1    0    0    0  0.29737757949E+02  0.71236882688E+01 -0.89207500415E+01  0.31853743323E+02  0.00000000000E+00 0.  1.
</event>
<event>
 5    1  0.1758480E-003  0.9118800E+02  0.7818608E-02  0.1130116E+00
         25   -1    0    0    0    0  0.00000000000E+00  0.00000000000E+00  0.99999998245E-14  0.12500000000E+03  0.12500000000E+03 0.  0.
        -13    1    3    3    0    0 -0.28705113681E+02  0.25296392870E+02  0.96913819642E+00  0.38273247008E+02  0.10566000000E+00 0.  1.
         23    2    1    0    0    0 -0.22658576935E+02 -0.26318770123E+02  0.13946735370E+01  0.90243218161E+02  0.83281477775E+02 0.  0.
         13    1    3    3    0    0  0.60465367456E+01 -0.51615162992E+02  0.42553534058E+00  0.51969971154E+02  0.10566000000E+00 0. -1.
         22    1    1    0    0    0  0.22658576935E+02  0.26318770123E+02 -0.13946735370E+01  0.34756781839E+02  0.00000000000E+00 0. -1.
</event>
<event>
 5    1  0.1758480E-003  0.9118800E+02  0.7818608E-02  0.1130116E+00
         25   -1    0    0    0    0  0.00000000000E+00  0.00000000000E+00  0.99999998245E-14  0.12500000000E+03  0.12500000000E+03 0.  0.
        -13    1    3    3    0    0  0.21741357321E+02  0.10868818183E+02 -0.56482409662E+02  0.61490581328E+02  0.10566000000E+00 0. -1.
         23    2    1    0    0    0  0.11459525424E+02 -0.28471952041E+01 -0.25489633327E+02  0.96908210263E+02  0.92747250987E+02 0.  0.
         13    1    3    3    0    0 -0.10281831897E+02 -0.13716013387E+02  0.30992776334E+02  0.35417628935E+02  0.10566000000E+00 0.  1.
         22    1    1    0    0    0 -0.11459525424E+02  0.28471952041E+01  0.25489633327E+02  0.28091789737E+02  0.00000000000E+00 0. -1.
</event>
<event>
 5    1  0.1758480E-003  0.9118800E+02  0.7818608E-02  0.1130116E+00
         25   -1    0    0    0    0  0.00000000000E+00  0.00000000000E+00  0.99999998245E-14  0.12500000000E+03  0.12500000000E+03 0.  0.
        -13    1    3    3    0    0  0.19255615281E+02 -0.57358075627E+02 -0.97657986446E+01  0.61287107508E+02  0.10566000000E+00 0. -1.
         23    2    1    0    0    0  0.14782009327E+02 -0.23382245332E+02  0.13221774533E+01  0.97305499648E+02  0.93281160542E+02 0.  0.
         13    1    3    3    0    0 -0.44736059541E+01  0.33975830294E+02  0.11087976098E+02  0.36018392141E+02  0.10566000000E+00 0.  1.
         22    1    1    0    0    0 -0.14782009327E+02  0.23382245332E+02 -0.13221774533E+01  0.27694500352E+02  0.00000000000E+00 0. -1.
</event>
<event>
 5    1  0.1758480E-003  0.9118800E+02  0.7818608E-02  0.1130116E+00
         25   -1    0    0    0    0  0.00000000000E+00  0.00000000000E+00  0.99999998245E-14  0.12500000000E+03  0.12500000000E+03 0.  0.
        -13    1    3    3    0    0  0.43121320749E+01 -0.43018806847E+01  0.59506694256E+02  0.59817710469E+02  0.10566000000E+00 0. -1.
         23    2    1    0    0    0  0.89189257715E+01 -0.12593710331E+02  0.24859539147E+02  0.95740036510E+02  0.91159251464E+02 0.  0.
         13    1    3    3    0    0  0.46067936966E+01 -0.82918296459E+01 -0.34647155109E+02  0.35922326041E+02  0.10566000000E+00 0.  1.
         22    1    1    0    0    0 -0.89189257715E+01  0.12593710331E+02 -0.24859539147E+02  0.29259963490E+02  0.00000000000E+00 0. -1.
</event>
<event>
 5    1  0.1758480E-003  0.9118800E+02  0.7818608E-02  0.1130116E+00
         25   -1    0    0    0    0  0.00000000000E+00  0.00000000000E+00  0.99999998245E-14  0.12500000000E+03  0.12500000000E+03 0.  0.
        -13    1    3    3    0    0  0.77069076823E+01 -0.38059744917E+02  0.24296234807E+01  0.38908287594E+02  0.10566000000E+00 0.  1.
         23    2    1    0    0    0 -0.22144267820E+02  0.58080188542E+01  0.19791565280E+02  0.94737684548E+02  0.89774278816E+02 0.  0.
         13    1    3    3    0    0 -0.29851175502E+02  0.43867763771E+02  0.17361941800E+02  0.55829396954E+02  0.10566000000E+00 0. -1.
         22    1    1    0    0    0  0.22144267820E+02 -0.58080188542E+01 -0.19791565280E+02  0.30262315452E+02  0.00000000000E+00 0. -1.
</event>
<event>
 5    1  0.1758480E-003  0.9118800E+02  0.7818608E-02  0.1130116E+00
         25   -1    0    0    0    0  0.00000000000E+00  0.00000000000E+00  0.99999998245E-14  0.12500000000E+03  0.12500000000E+03 0.  0.
        -13    1    3    3    0    0 -0.37719170534E+02 -0.44458455625E+02 -0.18588385663E+02  0.61195010809E+02  0.10566000000E+00 0.  1.
         23    2    1    0    0    0 -0.10542527467E+02 -0.24929084742E+02 -0.12398733313E+02  0.95228659096E+02  0.90455319213E+02 0.  0.
         13    1    3    3    0    0  0.27176643067E+02  0.19529370883E+02  0.61896523507E+01  0.34033648287E+02  0.10566000000E+00 0. -1.
         22    1    1    0    0    0  0.10542527467E+02  0.24929084742E+02  0.12398733313E+02  0.29771340904E+02  0.00000000000E+00 0.  1.
</event>
<event>
 5    1  0.1758480E-003  0.9118800E+02  0.7818608E-02  0.1130116E+00
         25   -1    0    0    0    0  0.00000000000E+00  0.00000000000E+00  0.99999998245E-14  0.12500000000E+03  0.12500000000E+03 0.  0.
        -13    1    3    3    0    0 -0.25631730689E+02 -0.40812470707E+02 -0.11684277634E+02  0.49590088639E+02  0.10566000000E+00 0.  1.
         23    2    1    0    0    0 -0.17164815689E+02  0.35169514895E+01 -0.22969538269E+02  0.96110563631E+02  0.91665920100E+02 0.  0.
         13    1    3    3    0    0  0.84669150003E+01  0.44329422197E+02 -0.11285260635E+02  0.46520474993E+02  0.10566000000E+00 0. -1.
         22    1    1    0    0    0  0.17164815689E+02 -0.35169514895E+01  0.22969538269E+02  0.28889436369E+02  0.00000000000E+00 0.  1.
</event>
<event>
 5    1  0.1758480E-003  0.9118800E+02  0.7818608E-02  0.1130116E+00
         25   -1    0    0    0    0  0.00000000000E+00  0.00000000000E+00  0.99999998245E-14  0.12500000000E+03  0.12500000000E+03 0.  0.
        -13    1    3    3    0    0  0.39096624157E+02 -0.26796280730E+02 -0.85465813780E+01  0.48162660835E+02  0.10566000000E+00 0. -1.
         23    2    1    0    0    0  0.23491128184E+02  0.95764278648E+01  0.16255192467E+02  0.94870739204E+02  0.89959350826E+02 0.  0.
         13    1    3    3    0    0 -0.15605495973E+02  0.36372708595E+02  0.24801773845E+02  0.46708078369E+02  0.10566000000E+00 0.  1.
         22    1    1    0    0    0 -0.23491128184E+02 -0.95764278648E+01 -0.16255192467E+02  0.30129260796E+02  0.00000000000E+00 0.  1.
</event>
<event>
 5    1  0.1758480E-003  0.9118800E+02  0.7818608E-02  0.1130116E+00
         25   -1    0    0    0    0  0.00000000000E+00  0.00000000000E+00  0.99999998245E-14  0.12500000000E+03  0.12500000000E+03 0.  0.
        -13    1    3    3    0    0 -0.31612763789E+02 -0.61246723284E+01  0.10436429132E+02  0.33849795606E+02  0.10566000000E+00 0.  1.
         23    2    1    0    0    0  0.21179059003E+02 -0.21219803867E+02 -0.11379248609E+02  0.92932572362E+02  0.87224670194E+02 0.  0.
         13    1    3    3    0    0  0.52791822792E+02 -0.15095131539E+02 -0.21815677740E+02  0.59082776756E+02  0.10566000000E+00 0. -1.
         22    1    1    0    0    0 -0.21179059003E+02  0.21219803867E+02  0.11379248609E+02  0.32067427638E+02  0.00000000000E+00 0. -1.
</event>
<event>
 5    1  0.1758480E-003  0.9118800E+02  0.7818608E-02  0.1130116E+00
         25   -1    0    0    0    0  0.00000000000E+00  0.00000000000E+00  0.99999998245E-14  0.12500000000E+03  0.12500000000E+03 0.  0.
        -13    1    3    3    0    0 -0.36016049326E+01  0.16853429827E+02  0.57321715085E+02  0.59856493711E+02  0.10566000000E+00 0. -1.
         23    2    1    0    0    0 -0.14379750918E+02  0.60080501901E+01  0.26667360689E+02  0.94112752961E+02  0.88899877616E+02 0.  0.
         13    1    3    3    0    0 -0.10778145985E+02 -0.10845379637E+02 -0.30654354396E+02  0.34256259250E+02  0.10566000000E+00 0.  1.
         22    1    1    0    0    0  0.14379750918E+02 -0.60080501901E+01 -0.26667360689E+02  0.30887247039E+02  0.00000000000E+00 0. -1.
</event>
<event>
 5    1  0.1758480E-003  0.9118800E+02  0.7818608E-02  0.1130116E+00
         25   -1    0    0    0    0  0.00000000000E+00  0.00000000000E+00  0.99999998245E-14  0.12500000000E+03  0.12500000000E+03 0.  0.
        -13    1    3    3    0    0 -0.27624931599E+02  0.10287731212E+02  0.42153747399E+02  0.51438544333E+02  0.10566000000E+00 0. -1.
         23    2    1    0    0    0  0.28268858028E+01  0.25451842884E+02  0.12800216902E+02  0.96370764204E+02  0.92020057873E+02 0.  0.
         13    1    3    3    0    0  0.30451817402E+02  0.15164111672E+02 -0.29353530496E+02  0.44932219871E+02  0.10566000000E+00 0.  1.
         22    1    1    0    0    0 -0.28268858028E+01 -0.25451842884E+02 -0.12800216902E+02  0.28629235796E+02  0.00000000000E+00 0. -1.
</event>
<event>
 5    1  0.1758480E-003  0.9118800E+02  0.7818608E-02  0.1130116E+00
         25   -1    0    0    0    0  0.00000000000E+00  0.00000000000E+00  0.99999998245E-14  0.12500000000E+03  0.12500000000E+03 0.  0.
        -13    1    3    3    0    0 -0.20599100681E+02  0.27047745671E+02 -0.48937266553E+01  0.34349137098E+02  0.10566000000E+00 0.  1.
         23    2    1    0    0    0  0.16982209833E+01 -0.28747568888E+02  0.64314224033E+01  0.95492884492E+02  0.90819717699E+02 0.  0.
         13    1    3    3    0    0  0.22297321664E+02 -0.55795314559E+02  0.11325149059E+02  0.61143747394E+02  0.10566000000E+00 0. -1.
         22    1    1    0    0    0 -0.16982209833E+01  0.28747568888E+02 -0.64314224033E+01  0.29507115508E+02  0.00000000000E+00 0. -1.
</event>
<event>
 5    1  0.1758480E-003  0.9118800E+02  0.7818608E-02  0.1130116E+00
         25   -1    0    0    0    0  0.00000000000E+00  0.00000000000E+00  0.99999998245E-14  0.12500000000E+03  0.12500000000E+03 0.  0.
        -13    1    3    3    0    0  0.21478350546E+02 -0.29760275922E+02 -0.17587174124E+02  0.40697830689E+02  0.10566000000E+00 0. -1.
         23    2    1    0    0    0  0.78185316324E+01  0.11759434728E+01  0.27117835651E+02  0.96753065825E+02  0.92537919018E+02 0.  0.
         13    1    3    3    0    0 -0.13659818913E+02  0.30936219394E+02  0.44705009774E+02  0.56055235136E+02  0.10566000000E+00 0.  1.
         22    1    1    0    0    0 -0.78185316324E+01 -0.11759434728E+01 -0.27117835651E+02  0.28246934175E+02  0.00000000000E+00 0.  1.
</event>
<event>
 5    1  0.1758480E-003  0.9118800E+02  0.7818608E-02  0.1130116E+00
         25   -1    0    0    0    0  0.00000000000E+00  0.00000000000E+00  0.99999998245E-14  0.12500000000E+03  0.12500000000E+03 0.  0.
        -13    1    3    3    0    0 -0.26113216058E+02  0.19215895378E+02 -0.32479553731E+02  0.45892082788E+02  0.10566000000E+00 0.  1.
         23    2    1    0    0    0 -0.24576163340E+02 -0.19387655672E+02 -0.50047933828E+01  0.93299574865E+02  0.87749038263E+02 0.  0.
         13    1    3    3    0    0  0.15370527177E+01 -0.38603551050E+02  0.27474760349E+02  0.47407492076E+02  0.10566000000E+00 0. -1.
         22    1    1    0    0    0  0.24576163340E+02  0.19387655672E+02  0.50047933828E+01  0.31700425135E+02  0.00000000000E+00 0.  1.
</event>
<event>
 5    1  0.1758480E-003  0.9118800E+02  0.7818608E-02  0.1130116E+00
         25   -1    0    0    0    0  0.00000000000E+00  0.00000000000E+00  0.99999998245E-14  0.12500000000E+03  0.12500000000E+03 0.  0.
        -13    1    3    3    0    0 -0.18494283168E+02  0.38767007550E+02 -0.27235313650E+02  0.50859540481E+02  0.10566000000E+00 0.  1.
         23    2    1    0    0    0  0.76623118659E+01  0.26126449161E+02  0.80904422939E+01  0.96596520893E+02  0.92326216338E+02 0.  0.
         13    1    3    3    0    0  0.26156595033E+02 -0.12640558389E+02  0.35325755944E+02  0.45736980412E+02  0.10566000000E+00 0. -1.
         22    1    1    0    0    0 -0.76623118659E+01 -0.26126449161E+02 -0.80904422939E+01  0.28403479107E+02  0.00000000000E+00 0.  1.
</event>
<event>
 5    1  0.1758480E-003  0.9118800E+02  0.7818608E-02  0.1130116E+00
         25   -1    0    0    0    0  0.00000000000E+00  0.00000000000E+00  0.99999998245E-14  0.12500000000E+03  0.12500000000E+03 0.  0.
        -13    1    3    3    0    0  0.33312370695E+02  0.33154663422E+02  0.15772641658E+02  0.49575529617E+02  0.10566000000E+00 0. -1.
         23    2    1    0    0    0  0.20845089616E+02 -0.10156908031E+02  0.19365728217E+02  0.94788876697E+02  0.89845529518E+02 0.  0.
         13    1    3    3    0    0 -0.12467281079E+02 -0.43311571452E+02  0.35930865587E+01  0.45213347080E+02  0.10566000000E+00 0.  1.
         22    1    1    0    0    0 -0.20845089616E+02  0.10156908031E+02 -0.19365728217E+02  0.30211123303E+02  0.00000000000E+00 0. -1.
</event>
<event>
 5    1  0.1758480E-003  0.9118800E+02  0.7818608E-02  0.1130116E+00
         25   -1    0    0    0    0  0.00000000000E+00  0.00000000000E+00  0.99999998245E-14  0.12500000000E+03  0.12500000000E+03 0.  0.
        -13    1    3    3    0    0  0.23100113646E+02  0.30277095128E+02  0.38152290011E+02  0.53906642791E+02  0.10566000000E+00 0.  1.
         23    2    1    0    0    0 -0.12476620605E+02  0.16707871322E+02  0.20067809622E+02  0.96059785612E+02  0.91596650610E+02 0.  0.
         13    1    3    3    0    0 -0.35576734251E+02 -0.13569223807E+02 -0.18084480390E+02  0.42153142821E+02  0.10566000000E+00 0. -1.
         22    1    1    0    0    0  0.12476620605E+02 -0.16707871322E+02 -0.20067809622E+02  0.28940214388E+02  0.00000000000E+00 0. -1.
</event>
<event>
 5    1  0.1758480E-003  0.9118800E+02  0.7818608E-02  0.1130116E+00
         25   -1    0    0    0    0  0.00000000000E+00  0.00000000000E+00  0.99999998245E-14  0.12500000000E+03  0.12500000000E+03 0.  0.
        -13    1    3    3    0    0  0.22725598468E+02  0.25303249901E+02 -0.78640540501E+01  0.34907904426E+02  0.10566000000E+00 0.  1.
         23    2    1    0    0    0 -0.29348813422E+02 -0.38884993794E+01  0.15979063069E+01  0.95351617561E+02  0.90625075946E+02 0.  0.
         13    1    3    3    0    0 -0.52074411890E+02 -0.29191749280E+02  0.94619603570E+01  0.60443713135E+02  0.10566000000E+00 0. -1.
         22    1    1    0    0    0  0.29348813422E+02  0.38884993794E+01 -0.15979063069E+01  0.29648382439E+02  0.00000000000E+00 0. -1.
</event>
<event>
 5    1  0.1758480E-003  0.9118800E+02  0.7818608E-02  0.1130116E+00
         25   -1    0    0    0    0  0.00000000000E+00  0.00000000000E+00  0.99999998245E-14  0.12500000000E+03  0.12500000000E+03 0.  0.
        -13    1    3    3    0    0 -0.22764796165E+02  0.10936887889E+02 -0.28504974378E+02  0.38084067397E+02  0.10566000000E+00 0.  1.
         23    2    1    0    0    0  0.10491288016E+01  0.23142323065E+02  0.20595107976E+02  0.94002802374E+02  0.88745144056E+02 0.  0.
         13    1    3    3    0    0  0.23813924967E+02  0.12205435176E+02  0.49100082355E+02  0.55918734977E+02  0.10566000000E+00 0. -1.
         22    1    1    0    0    0 -0.10491288016E+01 -0.23142323065E+02 -0.20595107976E+02  0.30997197626E+02  0.00000000000E+00 0. -1.
</event>
<event>
 5    1  0.1758480E-003  0.9118800E+02  0.7818608E-02  0.1130116E+00
         25   -1    0    0    0    0  0.00000000000E+00  0.00000000000E+00  0.99999998245E-14  0.12500000000E+03  0.12500000000E+03 0.  0.
        -13    1    3    3    0    0 -0.98689729397E+01 -0.15077740675E+02 -0.39529992189E+02  0.43443829680E+02  0.10566000000E+00 0.  1.
         23    2    1    0    0    0 -0.26731754000E+02 -0.80950234794E+01  0.92907674466E+01  0.95564741605E+02  0.90918564668E+02 0.  0.
         13    1    3    3    0    0 -0.16862781060E+02  0.69827171956E+01  0.48820759635E+02  0.52120911925E+02  0.10566000000E+00 0. -1.
         22    1    1    0    0    0  0.26731754000E+02  0.80950234794E+01 -0.92907674466E+01  0.29435258395E+02  0.00000000000E+00 0. -1.
</event>
<event>
 5    1  0.1758480E-003  0.9118800E+02  0.7818608E-02  0.1130116E+00
         25   -1    0    0    0    0  0.00000000000E+00  0.00000000000E+00  0.99999998245E-14  0.12500000000E+03  0.12500000000E+03 0.  0.
        -13    1    3    3    0    0 -0.47359627200E+02  0.14726114112E+02  0.24658058871E+01  0.49657668976E+02  0.10566000000E+00 0. -1.
         23    2    1    0    0    0 -0.17553123974E+02 -0.18212476800E+02  0.14712875996E+02  0.95737819758E+02  0.91156211744E+02 0.  0.
         13    1    3    3    0    0  0.29806503226E+02 -0.32938590912E+02  0.12247070109E+02  0.46080150782E+02  0.10566000000E+00 0.  1.
         22    1    1    0    0    0  0.17553123974E+02  0.18212476800E+02 -0.14712875996E+02  0.29262180242E+02  0.00000000000E+00 0. -1.
</event>
<event>
 5    1  0.1758480E-003  0.9118800E+02  0.7818608E-02  0.1130116E+00
         25   -1    0    0    0    0  0.00000000000E+00  0.00000000000E+00  0.99999998245E-14  0.12500000000E+03  0.12500000000E+03 0.  0.
        -13    1    3    3    0    0 -0.35919533465E+01 -0.33258191803E+02  0.10544941117E+02  0.35074440809E+02  0.10566000000E+00 0. -1.
         23    2    1    0    0    0  0.76097609314E+01  0.63496286414E+01 -0.30335106371E+02  0.93086916103E+02  0.87445577508E+02 0.  0.
         13    1    3    3    0    0  0.11201714278E+02  0.39607820445E+02 -0.40880047487E+02  0.58012475294E+02  0.10566000000E+00 0.  1.
         22    1    1    0    0    0 -0.76097609314E+01 -0.63496286414E+01  0.30335106371E+02  0.31913083897E+02  0.00000000000E+00 0.  1.
</event>
<event>
 5    1  0.1758480E-003  0.9118800E+02  0.7818608E-02  0.1130116E+00
         25   -1    0    0    0    0  0.00000000000E+00  0.00000000000E+00  0.99999998245E-14  0.12500000000E+03  0.12500000000E+03 0.  0.
        -13    1    3    3    0    0 -0.39064792249E+02  0.17275821577E+02  0.97236723748E+01  0.43807225124E+02  0.10566000000E+00 0.  1.
         23    2    1    0    0    0  0.20621353906E+01 -0.10263366687E+02  0.26849249580E+02  0.96182101028E+02  0.91763420038E+02 0.  0.
         13    1    3    3    0    0  0.41126927640E+02 -0.27539188263E+02  0.17125577206E+02  0.52374875904E+02  0.10566000000E+00 0. -1.
         22    1    1    0    0    0 -0.20621353906E+01  0.10263366687E+02 -0.26849249580E+02  0.28817898972E+02  0.00000000000E+00 0. -1.
</event>
<event>
 5    1  0.1758480E-003  0.9118800E+02  0.7818608E-02  0.1130116E+00
         25   -1    0    0    0    0  0.00000000000E+00  0.00000000000E+00  0.99999998245E-14  0.12500000000E+03  0.12500000000E+03 0.  0.
        -13    1    3    3    0    0 -0.90536535177E+01  0.25770590672E+02  0.27230395630E+02  0.38569386770E+02  0.10566000000E+00 0.  1.
         23    2    1    0    0    0 -0.10994780882E+02 -0.26987774169E+02  0.77200906960E+01  0.94853276105E+02  0.89935082289E+02 0.  0.
         13    1    3    3    0    0 -0.19411273644E+01 -0.52758364840E+02 -0.19510304934E+02  0.56283889336E+02  0.10566000000E+00 0. -1.
         22    1    1    0    0    0  0.10994780882E+02  0.26987774169E+02 -0.77200906960E+01  0.30146723895E+02  0.00000000000E+00 0. -1.
</event>
<event>
 5    1  0.1758480E-003  0.9118800E+02  0.7818608E-02  0.1130116E+00
         25   -1    0    0    0    0  0.00000000000E+00  0.00000000000E+00  0.99999998245E-14  0.12500000000E+03  0.12500000000E+03 0.  0.
        -13    1    3    3    0    0 -0.53314900192E+02 -0.89542770048E+00 -0.30740465223E+01  0.53411059710E+02  0.10566000000E+00 0.  1.
         23    2    1    0    0    0 -0.19295583776E+02 -0.29905986586E+01  0.21895584280E+02  0.95662654439E+02  0.91053081276E+02 0.  0.
         13    1    3    3    0    0  0.34019316416E+02 -0.20951709581E+01  0.24969630802E+02  0.42251594729E+02  0.10566000000E+00 0. -1.
         22    1    1    0    0    0  0.19295583776E+02  0.29905986586E+01 -0.21895584280E+02  0.29337345561E+02  0.00000000000E+00 0.  1.
</event>
<event>
 5    1  0.1758480E-003  0.9118800E+02  0.7818608E-02  0.1130116E+00
         25   -1    0    0    0    0  0.00000000000E+00  0.00000000000E+00  0.99999998245E-14  0.12500000000E+03  0.12500000000E+03 0.  0.
        -13    1    3    3    0    0 -0.52209952494E+01 -0.36591827832E+02 -0.29219242227E+02  0.47116832829E+02  0.10566000000E+00 0.  1.
         23    2    1    0    0    0 -0.14517208089E+02  0.12845443389E+02 -0.17761067760E+02  0.98709121838E+02  0.95143473026E+02 0.  0.
         13    1    3    3    0    0 -0.92962128396E+01  0.49437271222E+02  0.11458174467E+02  0.51592289009E+02  0.10566000000E+00 0. -1.
         22    1    1    0    0    0  0.14517208089E+02 -0.12845443389E+02  0.17761067760E+02  0.26290878162E+02  0.00000000000E+00 0. -1.
</event>
<event>
 5    1  0.1758480E-003  0.9118800E+02  0.7818608E-02  0.1130116E+00
         25   -1    0    0    0    0  0.00000000000E+00  0.00000000000E+00  0.99999998245E-14  0.12500000000E+03  0.12500000000E+03 0.  0.
        -13    1    3    3    0    0 -0.49314524005E+02  0.29581338896E+02  0.18857426102E+01  0.57537336382E+02  0.10566000000E+00 0.  1.
         23    2    1    0    0    0 -0.14723598797E+02  0.22602167503E+02  0.13693398702E+02  0.94748528872E+02  0.89789376978E+02 0.  0.
         13    1    3    3    0    0  0.34590925208E+02 -0.69791713930E+01  0.11807656092E+02  0.37211192490E+02  0.10566000000E+00 0. -1.
         22    1    1    0    0    0  0.14723598797E+02 -0.22602167503E+02 -0.13693398702E+02  0.30251471128E+02  0.00000000000E+00 0.  1.
</event>
<event>
 5    1  0.1758480E-003  0.9118800E+02  0.7818608E-02  0.1130116E+00
         25   -1    0    0    0    0  0.00000000000E+00  0.00000000000E+00  0.99999998245E-14  0.12500000000E+03  0.12500000000E+03 0.  0.
        -13    1    3    3    0    0  0.36270950088E+02 -0.33580901410E+01 -0.13832167855E+02  0.38964068336E+02  0.10566000000E+00 0.  1.
         23    2    1    0    0    0 -0.78495277100E+01  0.27777942578E+02  0.40564793412E+01  0.95850656889E+02  0.91310811092E+02 0.  0.
         13    1    3    3    0    0 -0.44120477798E+02  0.31136032719E+02  0.17888647197E+02  0.56886588553E+02  0.10566000000E+00 0. -1.
         22    1    1    0    0    0  0.78495277100E+01 -0.27777942578E+02 -0.40564793412E+01  0.29149343111E+02  0.00000000000E+00 0. -1.
</event>
<event>
 5    1  0.1758480E-003  0.9118800E+02  0.7818608E-02  0.1130116E+00
         25   -1    0    0    0    0  0.00000000000E+00  0.00000000000E+00  0.99999998245E-14  0.12500000000E+03  0.12500000000E+03 0.  0.
        -13    1    3    3    0    0  0.46608057015E+02  0.28626428557E+02  0.23217344893E+02  0.59420868881E+02  0.10566000000E+00 0.  1.
         23    2    1    0    0    0  0.18702217702E+02  0.16851582464E+02 -0.32150211721E+01  0.99621167488E+02  0.96334271535E+02 0.  0.
         13    1    3    3    0    0 -0.27905839313E+02 -0.11774846093E+02 -0.26432366065E+02  0.40200298607E+02  0.10566000000E+00 0. -1.
         22    1    1    0    0    0 -0.18702217702E+02 -0.16851582464E+02  0.32150211721E+01  0.25378832512E+02  0.00000000000E+00 0.  1.
</event>
<event>
 5    1  0.1758480E-003  0.9118800E+02  0.7818608E-02  0.1130116E+00
         25   -1    0    0    0    0  0.00000000000E+00  0.00000000000E+00  0.99999998245E-14  0.12500000000E+03  0.12500000000E+03 0.  0.
        -13    1    3    3    0    0  0.96711974228E+01  0.20246088553E+02 -0.49025702308E+02  0.53916294495E+02  0.10566000000E+00 0.  1.
         23    2    1    0    0    0  0.21073131302E+02 -0.67798268902E+01 -0.20752159269E+02  0.94657043159E+02  0.89661924973E+02 0.  0.
         13    1    3    3    0    0  0.11401933879E+02 -0.27025915443E+02  0.28273543039E+02  0.40740748664E+02  0.10566000000E+00 0. -1.
         22    1    1    0    0    0 -0.21073131302E+02  0.67798268902E+01  0.20752159269E+02  0.30342956841E+02  0.00000000000E+00 0.  1.
</event>
<event>
 5    1  0.1758480E-003  0.9118800E+02  0.7818608E-02  0.1130116E+00
         25   -1    0    0    0    0  0.00000000000E+00  0.00000000000E+00  0.99999998245E-14  0.12500000000E+03  0.12500000000E+03 0.  0.
        -13    1    3    3    0    0  0.16945836360E+02  0.41005861225E+02  0.25805586296E+01  0.44444487528E+02  0.10566000000E+00 0. -1.
         23    2    1    0    0    0  0.12019844201E+01  0.25719599406E+01 -0.28524567919E+02  0.96334502979E+02  0.91970787453E+02 0.  0.
         13    1    3    3    0    0 -0.15743851940E+02 -0.38433901284E+02 -0.31105126549E+02  0.51890015451E+02  0.10566000000E+00 0.  1.
         22    1    1    0    0    0 -0.12019844201E+01 -0.25719599406E+01  0.28524567919E+02  0.28665497021E+02  0.00000000000E+00 0.  1.
</event>
<event>
 5    1  0.1758480E-003  0.9118800E+02  0.7818608E-02  0.1130116E+00
         25   -1    0    0    0    0  0.00000000000E+00  0.00000000000E+00  0.99999998245E-14  0.12500000000E+03  0.12500000000E+03 0.  0.
        -13    1    3    3    0    0  0.35443415412E+02  0.29166916282E+02 -0.15278275708E+02  0.48377490366E+02  0.10566000000E+00 0.  1.
         23    2    1    0    0    0  0.11415391237E+02 -0.17642979396E+02  0.23180129980E+01  0.10385859363E+03  0.10168406172E+03 0.  0.
         13    1    3    3    0    0 -0.24028024175E+02 -0.46809895677E+02  0.17596288706E+02  0.55481103264E+02  0.10566000000E+00 0. -1.
         22    1    1    0    0    0 -0.11415391237E+02  0.17642979396E+02 -0.23180129980E+01  0.21141406370E+02  0.00000000000E+00 0. -1.
</event>
<event>
 5    1  0.1758480E-003  0.9118800E+02  0.7818608E-02  0.1130116E+00
         25   -1    0    0    0    0  0.00000000000E+00  0.00000000000E+00  0.99999998245E-14  0.12500000000E+03  0.12500000000E+03 0.  0.
        -13    1    3    3    0    0  0.26326485250E+02  0.30770807601E+02 -0.44733774398E+02  0.60341098448E+02  0.10566000000E+00 0.  1.
         23    2    1    0    0    0  0.13595990698E+01  0.16714507551E+02 -0.24057670860E+02  0.95674332070E+02  0.91069111215E+02 0.  0.
         13    1    3    3    0    0 -0.24966886181E+02 -0.14056300050E+02  0.20676103537E+02  0.35333233622E+02  0.10566000000E+00 0. -1.
         22    1    1    0    0    0 -0.13595990698E+01 -0.16714507551E+02  0.24057670860E+02  0.29325667930E+02  0.00000000000E+00 0.  1.
</event>
<event>
 5    1  0.1758480E-003  0.9118800E+02  0.7818608E-02  0.1130116E+00
         25   -1    0    0    0    0  0.00000000000E+00  0.00000000000E+00  0.99999998245E-14  0.12500000000E+03  0.12500000000E+03 0.  0.
        -13    1    3    3    0    0 -0.27575203052E+01 -0.19897031891E+02  0.30853512630E+02  0.36816384966E+02  0.10566000000E+00 0. -1.
         23    2    1    0    0    0 -0.20998895368E+02  0.21658387411E+02 -0.47020679904E+01  0.94468888076E+02  0.89399228291E+02 0.  0.
         13    1    3    3    0    0 -0.18241375063E+02  0.41555419302E+02 -0.35555580620E+02  0.57652503110E+02  0.10566000000E+00 0.  1.
         22    1    1    0    0    0  0.20998895368E+02 -0.21658387411E+02  0.47020679904E+01  0.30531111924E+02  0.00000000000E+00 0.  1.
</event>
<event>
 5    1  0.1758480E-003  0.9118800E+02  0.7818608E-02  0.1130116E+00
         25   -1    0    0    0    0  0.00000000000E+00  0.00000000000E+00  0.99999998245E-14  0.12500000000E+03  0.12500000000E+03 0.  0.
        -13    1    3    3    0    0  0.40286835852E+02  0.10034736754E+02 -0.10362703342E+02  0.42791609800E+02  0.10566000000E+00 0.  1.
         23    2    1    0    0    0 -0.57609301802E+01  0.22540832962E+02  0.15479009596E+02  0.97055819833E+02  0.92945978709E+02 0.  0.
         13    1    3    3    0    0 -0.46047766032E+02  0.12506096208E+02  0.25841712938E+02  0.54264210033E+02  0.10566000000E+00 0. -1.
         22    1    1    0    0    0  0.57609301802E+01 -0.22540832962E+02 -0.15479009596E+02  0.27944180167E+02  0.00000000000E+00 0. -1.
</event>
<event>
 5    1  0.1758480E-003  0.9118800E+02  0.7818608E-02  0.1130116E+00
         25   -1    0    0    0    0  0.00000000000E+00  0.00000000000E+00  0.99999998245E-14  0.12500000000E+03  0.12500000000E+03 0.  0.
        -13    1    3    3    0    0 -0.52358912454E+02 -0.21099298885E+02  0.20066497541E+02  0.59910863910E+02  0.10566000000E+00 0.  1.
         23    2    1    0    0    0 -0.23415210623E+02 -0.16443243683E+02 -0.15672470415E+01  0.96345007161E+02  0.91985062865E+02 0.  0.
         13    1    3    3    0    0  0.28943701832E+02  0.46560552023E+01 -0.21633744583E+02  0.36434143251E+02  0.10566000000E+00 0. -1.
         22    1    1    0    0    0  0.23415210623E+02  0.16443243683E+02  0.15672470415E+01  0.28654992839E+02  0.00000000000E+00 0.  1.
</event>
<event>
 5    1  0.1758480E-003  0.9118800E+02  0.7818608E-02  0.1130116E+00
         25   -1    0    0    0    0  0.00000000000E+00  0.00000000000E+00  0.99999998245E-14  0.12500000000E+03  0.12500000000E+03 0.  0.
        -13    1    3    3    0    0  0.31563784820E+02  0.10527144166E+02 -0.39900851636E+02  0.51953656289E+02  0.10566000000E+00 0.  1.
         23    2    1    0    0    0  0.95358305769E+00 -0.16225347266E+02 -0.24856227116E+02  0.95301460625E+02  0.90555867597E+02 0.  0.
         13    1    3    3    0    0 -0.30610201762E+02 -0.26752491433E+02  0.15044624520E+02  0.43347804336E+02  0.10566000000E+00 0. -1.
         22    1    1    0    0    0 -0.95358305769E+00  0.16225347266E+02  0.24856227116E+02  0.29698539375E+02  0.00000000000E+00 0.  1.
</event>
<event>
 5    1  0.1758480E-003  0.9118800E+02  0.7818608E-02  0.1130116E+00
         25   -1    0    0    0    0  0.00000000000E+00  0.00000000000E+00  0.99999998245E-14  0.12500000000E+03  0.12500000000E+03 0.  0.
        -13    1    3    3    0    0 -0.30744964868E+02  0.43759743645E+00 -0.21406214678E+02  0.37465738310E+02  0.10566000000E+00 0. -1.
         23    2    1    0    0    0  0.21832536394E+02  0.19177227989E+02 -0.74021083035E+01  0.95013054073E+02  0.90156882811E+02 0.  0.
         13    1    3    3    0    0  0.52577501261E+02  0.18739630552E+02  0.14004106374E+02  0.57547315763E+02  0.10566000000E+00 0.  1.
         22    1    1    0    0    0 -0.21832536394E+02 -0.19177227989E+02  0.74021083035E+01  0.29986945927E+02  0.00000000000E+00 0.  1.
</event>
<event>
 5    1  0.1758480E-003  0.9118800E+02  0.7818608E-02  0.1130116E+00
         25   -1    0    0    0    0  0.00000000000E+00  0.00000000000E+00  0.99999998245E-14  0.12500000000E+03  0.12500000000E+03 0.  0.
        -13    1    3    3    0    0 -0.40579658102E+02  0.23031507645E+02  0.42277835278E+01  0.46851300021E+02  0.10566000000E+00 0.  1.
         23    2    1    0    0    0  0.38577276967E+01  0.22881214938E+02 -0.17132636695E+02  0.96156295311E+02  0.91728260792E+02 0.  0.
         13    1    3    3    0    0  0.44437385798E+02 -0.15029270660E+00 -0.21360420223E+02  0.49304995291E+02  0.10566000000E+00 0. -1.
         22    1    1    0    0    0 -0.38577276967E+01 -0.22881214938E+02  0.17132636695E+02  0.28843704689E+02  0.00000000000E+00 0. -1.
</event>
<event>
 5    1  0.1758480E-003  0.9118800E+02  0.7818608E-02  0.1130116E+00
         25   -1    0    0    0    0  0.00000000000E+00  0.00000000000E+00  0.99999998245E-14  0.12500000000E+03  0.12500000000E+03 0.  0.
        -13    1    3    3    0    0  0.29161486709E+02  0.25695217095E+02  0.44364117472E+02  0.58981544332E+02  0.10566000000E+00 0. -1.
         23    2    1    0    0    0  0.49767832585E+01  0.32820898653E+01  0.29062065129E+02  0.95332777092E+02  0.90599085387E+02 0.  0.
         13    1    3    3    0    0 -0.24184703451E+02 -0.22413127230E+02 -0.15302052343E+02  0.36351232760E+02  0.10566000000E+00 0.  1.
         22    1    1    0    0    0 -0.49767832585E+01 -0.32820898653E+01 -0.29062065129E+02  0.29667222908E+02  0.00000000000E+00 0. -1.
</event>
<event>
 5    1  0.1758480E-003  0.9118800E+02  0.7818608E-02  0.1130116E+00
         25   -1    0    0    0    0  0.00000000000E+00  0.00000000000E+00  0.99999998245E-14  0.12500000000E+03  0.12500000000E+03 0.  0.
        -13    1    3    3    0    0 -0.44729081485E+01  0.49743548543E+02 -0.24010767500E+02  0.55416203848E+02  0.10566000000E+00 0.  1.
         23    2    1    0    0    0 -0.11070528653E+02  0.26303641662E+02  0.77409070620E+01  0.95430424226E+02  0.90733709592E+02 0.  0.
         13    1    3    3    0    0 -0.65976205047E+01 -0.23439906881E+02  0.31751674562E+02  0.40014220378E+02  0.10566000000E+00 0. -1.
         22    1    1    0    0    0  0.11070528653E+02 -0.26303641662E+02 -0.77409070620E+01  0.29569575774E+02  0.00000000000E+00 0.  1.
</event>
<event>
 5    1  0.1758480E-003  0.9118800E+02  0.7818608E-02  0.1130116E+00
         25   -1    0    0    0    0  0.00000000000E+00  0.00000000000E+00  0.99999998245E-14  0.12500000000E+03  0.12500000000E+03 0.  0.
        -13    1    3    3    0    0 -0.11482711651E+02 -0.30122194545E+02  0.27403440936E+02  0.42310270741E+02  0.10566000000E+00 0. -1.
         23    2    1    0    0    0  0.25790285510E+02 -0.12601604214E+01 -0.38825334329E+01  0.98888682591E+02  0.95379089153E+02 0.  0.
         13    1    3    3    0    0  0.37272997162E+02  0.28862034123E+02 -0.31285974368E+02  0.56578411849E+02  0.10566000000E+00 0.  1.
         22    1    1    0    0    0 -0.25790285510E+02  0.12601604214E+01  0.38825334329E+01  0.26111317409E+02  0.00000000000E+00 0.  1.
</event>
<event>
 5    1  0.1758480E-003  0.9118800E+02  0.7818608E-02  0.1130116E+00
         25   -1    0    0    0    0  0.00000000000E+00  0.00000000000E+00  0.99999998245E-14  0.12500000000E+03  0.12500000000E+03 0.  0.
        -13    1    3    3    0    0  0.11542097567E+02  0.15921894157E+02 -0.38204111654E+02  0.42968500568E+02  0.10566000000E+00 0. -1.
         23    2    1    0    0    0  0.22250364832E+02  0.13353173830E+02  0.13441857378E+02  0.95775532233E+02  0.91207911160E+02 0.  0.
         13    1    3    3    0    0  0.10708267266E+02 -0.25687203266E+01  0.51645969032E+02  0.52807031665E+02  0.10566000000E+00 0.  1.
         22    1    1    0    0    0 -0.22250364832E+02 -0.13353173830E+02 -0.13441857378E+02  0.29224467767E+02  0.00000000000E+00 0.  1.
</event>
<event>
 5    1  0.1758480E-003  0.9118800E+02  0.7818608E-02  0.1130116E+00
         25   -1    0    0    0    0  0.00000000000E+00  0.00000000000E+00  0.99999998245E-14  0.12500000000E+03  0.12500000000E+03 0.  0.
        -13    1    3    3    0    0  0.44924805360E+02 -0.90797049672E+01  0.11641793836E+02  0.47288705910E+02  0.10566000000E+00 0.  1.
         23    2    1    0    0    0  0.27015820754E+01 -0.29713843350E+02  0.42217857088E+01  0.94866389082E+02  0.89953306057E+02 0.  0.
         13    1    3    3    0    0 -0.42223223285E+02 -0.20634138383E+02 -0.74200081275E+01  0.47577683172E+02  0.10566000000E+00 0. -1.
         22    1    1    0    0    0 -0.27015820754E+01  0.29713843350E+02 -0.42217857088E+01  0.30133610918E+02  0.00000000000E+00 0. -1.
</event>
<event>
 4    1  0.1758480E-003  0.9118800E+02  0.7818608E-02  0.1130116E+00
         25   -1    0    0    0    0  0.00000000000E+00  0.00000000000E+00  0.99999998245E-14  0.12500000000E+03  0.12500000000E+03 0.  0.
        -13    1    1    0    0    0  0.26905483750E+01  0.65664825113E+01 -0.16429785878E+02  0.17897116281E+02  0.10566000000E+00 0.  1.
         13    1    1    0    0    0  0.46534575262E+02 -0.20635641677E+02 -0.59061907416E+01  0.51246372119E+02  0.10566000000E+00 0. -1.
         22    1    1    0    0    0 -0.49225123637E+02  0.14069159166E+02  0.22335976620E+02  0.55856511601E+02  0.00000000000E+00 0. -1.
</event>
<event>
 4    1  0.1758480E-003  0.9118800E+02  0.7818608E-02  0.1130116E+00
         25   -1    0    0    0    0  0.00000000000E+00  0.00000000000E+00  0.99999998245E-14  0.12500000000E+03  0.12500000000E+03 0.  0.
        -13    1    1    0    0    0  0.14824767801E+02  0.12960813345E+02 -0.58922414190E+02  0.62125827809E+02  0.10566000000E+00 0. -1.
         13    1    1    0    0    0 -0.46850848982E+01 -0.14673552098E+00  0.68720962344E+01  0.83191599641E+01  0.10566000000E+00 0.  1.
         22    1    1    0    0    0 -0.10139682902E+02 -0.12814077824E+02  0.52050317955E+02  0.54555012227E+02  0.00000000000E+00 0. -1.
</event>
<event>
 5    1  0.1758480E-003  0.9118800E+02  0.7818608E-02  0.1130116E+00
         25   -1    0    0    0    0  0.00000000000E+00  0.00000000000E+00  0.99999998245E-14  0.12500000000E+03  0.12500000000E+03 0.  0.
        -13    1    3    3    0    0  0.19813328740E+02  0.35353624096E+02 -0.88813839741E+01  0.41488997069E+02  0.10566000000E+00 0. -1.
         23    2    1    0    0    0  0.16838995598E+02 -0.10379761303E+02  0.20961138355E+02  0.96178817883E+02  0.91758947634E+02 0.  0.
         13    1    3    3    0    0 -0.29743331417E+01 -0.45733385399E+02  0.29842522329E+02  0.54689820814E+02  0.10566000000E+00 0.  1.
         22    1    1    0    0    0 -0.16838995598E+02  0.10379761303E+02 -0.20961138355E+02  0.28821182117E+02  0.00000000000E+00 0.  1.
</event>
<event>
 5    1  0.1758480E-003  0.9118800E+02  0.7818608E-02  0.1130116E+00
         25   -1    0    0    0    0  0.00000000000E+00  0.00000000000E+00  0.99999998245E-14  0.12500000000E+03  0.12500000000E+03 0.  0.
        -13    1    3    3    0    0  0.12988227097E+02 -0.41634262280E+02  0.35518043375E+02  0.56246319062E+02  0.10566000000E+00 0.  1.
         23    2    1    0    0    0 -0.11991263134E+01 -0.32614272500E+01  0.26670908786E+02  0.98103677071E+02  0.94344683304E+02 0.  0.
         13    1    3    3    0    0 -0.14187353411E+02  0.38372835030E+02 -0.88471345892E+01  0.41857358009E+02  0.10566000000E+00 0. -1.
         22    1    1    0    0    0  0.11991263134E+01  0.32614272500E+01 -0.26670908786E+02  0.26896322929E+02  0.00000000000E+00 0.  1.
</event>
<event>
 5    1  0.1758480E-003  0.9118800E+02  0.7818608E-02  0.1130116E+00
         25   -1    0    0    0    0  0.00000000000E+00  0.00000000000E+00  0.99999998245E-14  0.12500000000E+03  0.12500000000E+03 0.  0.
        -13    1    3    3    0    0  0.16984171714E+02  0.27710271293E+02 -0.16800884986E+02  0.36586911927E+02  0.10566000000E+00 0.  1.
         23    2    1    0    0    0 -0.45797003034E+01 -0.25176447537E+02 -0.18000368895E+02  0.93713574097E+02  0.88336818622E+02 0.  0.
         13    1    3    3    0    0 -0.21563872018E+02 -0.52886718830E+02 -0.11994839086E+01  0.57126662170E+02  0.10566000000E+00 0. -1.
         22    1    1    0    0    0  0.45797003034E+01  0.25176447537E+02  0.18000368895E+02  0.31286425903E+02  0.00000000000E+00 0. -1.
</event>
<event>
 5    1  0.1758480E-003  0.9118800E+02  0.7818608E-02  0.1130116E+00
         25   -1    0    0    0    0  0.00000000000E+00  0.00000000000E+00  0.99999998245E-14  0.12500000000E+03  0.12500000000E+03 0.  0.
        -13    1    3    3    0    0  0.62519716039E+01  0.33023689055E+02 -0.20069391068E+02  0.39146427801E+02  0.10566000000E+00 0.  1.
         23    2    1    0    0    0 -0.17434139352E+02 -0.17718901702E+02 -0.16305760211E+02  0.95271452970E+02  0.90514436652E+02 0.  0.
         13    1    3    3    0    0 -0.23686110956E+02 -0.50742590757E+02  0.37636308567E+01  0.56125025169E+02  0.10566000000E+00 0. -1.
         22    1    1    0    0    0  0.17434139352E+02  0.17718901702E+02  0.16305760211E+02  0.29728547030E+02  0.00000000000E+00 0. -1.
</event>
<event>
 5    1  0.1758480E-003  0.9118800E+02  0.7818608E-02  0.1130116E+00
         25   -1    0    0    0    0  0.00000000000E+00  0.00000000000E+00  0.99999998245E-14  0.12500000000E+03  0.12500000000E+03 0.  0.
        -13    1    3    3    0    0 -0.29211543839E+02  0.20923870846E+02  0.49538914068E+02  0.61198348309E+02  0.10566000000E+00 0.  1.
         23    2    1    0    0    0 -0.21081956477E+02  0.84223810881E+01  0.18204743444E+02  0.95900204881E+02  0.91378614677E+02 0.  0.
         13    1    3    3    0    0  0.81295873613E+01 -0.12501489758E+02 -0.31334170624E+02  0.34701856572E+02  0.10566000000E+00 0. -1.
         22    1    1    0    0    0  0.21081956477E+02 -0.84223810881E+01 -0.18204743444E+02  0.29099795119E+02  0.00000000000E+00 0.  1.
</event>
<event>
 5    1  0.1758480E-003  0.9118800E+02  0.7818608E-02  0.1130116E+00
         25   -1    0    0    0    0  0.00000000000E+00  0.00000000000E+00  0.99999998245E-14  0.12500000000E+03  0.12500000000E+03 0.  0.
        -13    1    3    3    0    0 -0.31156815621E+02 -0.52905483790E+01 -0.14891880590E+02  0.34935888902E+02  0.10566000000E+00 0. -1.
         23    2    1    0    0    0  0.17998251197E+02 -0.59667434309E+01  0.21672993951E+02  0.96203164408E+02  0.91792108059E+02 0.  0.
         13    1    3    3    0    0  0.49155066818E+02 -0.67619505193E+00  0.36564874542E+02  0.61267275506E+02  0.10566000000E+00 0.  1.
         22    1    1    0    0    0 -0.17998251197E+02  0.59667434309E+01 -0.21672993951E+02  0.28796835592E+02  0.00000000000E+00 0.  1.
</event>
<event>
 5    1  0.1758480E-003  0.9118800E+02  0.7818608E-02  0.1130116E+00
         25   -1    0    0    0    0  0.00000000000E+00  0.00000000000E+00  0.99999998245E-14  0.12500000000E+03  0.12500000000E+03 0.  0.
        -13    1    3    3    0    0  0.95325510819E+01 -0.31860548021E+02  0.15269370105E+02  0.36594109878E+02  0.10566000000E+00 0. -1.
         23    2    1    0    0    0  0.20921488151E+02  0.21567812135E+02 -0.43492685824E+01  0.94638917609E+02  0.89636652114E+02 0.  0.
         13    1    3    3    0    0  0.11388937069E+02  0.53428360156E+02 -0.19618638688E+02  0.58044807731E+02  0.10566000000E+00 0.  1.
         22    1    1    0    0    0 -0.20921488151E+02 -0.21567812135E+02  0.43492685824E+01  0.30361082391E+02  0.00000000000E+00 0.  1.
</event>
<event>
 5    1  0.1758480E-003  0.9118800E+02  0.7818608E-02  0.1130116E+00
         25   -1    0    0    0    0  0.00000000000E+00  0.00000000000E+00  0.99999998245E-14  0.12500000000E+03  0.12500000000E+03 0.  0.
        -13    1    3    3    0    0  0.29880328695E+02 -0.20202759920E+02 -0.49340264949E+01  0.36405237711E+02  0.10566000000E+00 0.  1.
         23    2    1    0    0    0 -0.62480779626E+01  0.26837091428E+02 -0.93997797286E+01  0.95886020308E+02  0.91359209044E+02 0.  0.
         13    1    3    3    0    0 -0.36128406657E+02  0.47039851348E+02 -0.44657532337E+01  0.59480782598E+02  0.10566000000E+00 0. -1.
         22    1    1    0    0    0  0.62480779626E+01 -0.26837091428E+02  0.93997797286E+01  0.29113979692E+02  0.00000000000E+00 0. -1.
</event>
<event>
 5    1  0.1758480E-003  0.9118800E+02  0.7818608E-02  0.1130116E+00
         25   -1    0    0    0    0  0.00000000000E+00  0.00000000000E+00  0.99999998245E-14  0.12500000000E+03  0.12500000000E+03 0.  0.
        -13    1    3    3    0    0 -0.37528842214E+00 -0.30433183584E+02 -0.25190993443E+02  0.39508439847E+02  0.10566000000E+00 0. -1.
         23    2    1    0    0    0 -0.84449225137E+01 -0.94158197096E+01  0.26360825812E+02  0.95761882507E+02  0.91189202358E+02 0.  0.
         13    1    3    3    0    0 -0.80696340915E+01  0.21017363874E+02  0.51551819255E+02  0.56253442660E+02  0.10566000000E+00 0.  1.
         22    1    1    0    0    0  0.84449225137E+01  0.94158197096E+01 -0.26360825812E+02  0.29238117493E+02  0.00000000000E+00 0.  1.
</event>
<event>
 5    1  0.1758480E-003  0.9118800E+02  0.7818608E-02  0.1130116E+00
         25   -1    0    0    0    0  0.00000000000E+00  0.00000000000E+00  0.99999998245E-14  0.12500000000E+03  0.12500000000E+03 0.  0.
        -13    1    3    3    0    0  0.14259494577E+02  0.59469986329E+02  0.29432075329E+01  0.61226514634E+02  0.10566000000E+00 0.  1.
         23    2    1    0    0    0  0.15157948426E+02  0.25206701194E+02  0.62432728951E+00  0.95580092282E+02  0.90939667201E+02 0.  0.
         13    1    3    3    0    0  0.89845384856E+00 -0.34263285136E+02 -0.23188802433E+01  0.34353577648E+02  0.10566000000E+00 0. -1.
         22    1    1    0    0    0 -0.15157948426E+02 -0.25206701194E+02 -0.62432728951E+00  0.29419907718E+02  0.00000000000E+00 0.  1.
</event>
<event>
 5    1  0.1758480E-003  0.9118800E+02  0.7818608E-02  0.1130116E+00
         25   -1    0    0    0    0  0.00000000000E+00  0.00000000000E+00  0.99999998245E-14  0.12500000000E+03  0.12500000000E+03 0.  0.
        -13    1    3    3    0    0  0.12946274236E+02 -0.45872716830E+02 -0.12778263674E+01  0.47681822220E+02  0.10566000000E+00 0. -1.
         23    2    1    0    0    0 -0.23487409521E+02 -0.16808261498E+02 -0.86106509252E+01  0.94861662787E+02  0.89946738110E+02 0.  0.
         13    1    3    3    0    0 -0.36433683758E+02  0.29064455332E+02 -0.73328245578E+01  0.47179840567E+02  0.10566000000E+00 0.  1.
         22    1    1    0    0    0  0.23487409521E+02  0.16808261498E+02  0.86106509252E+01  0.30138337213E+02  0.00000000000E+00 0. -1.
</event>
<event>
 5    1  0.1758480E-003  0.9118800E+02  0.7818608E-02  0.1130116E+00
         25   -1    0    0    0    0  0.00000000000E+00  0.00000000000E+00  0.99999998245E-14  0.12500000000E+03  0.12500000000E+03 0.  0.
        -13    1    3    3    0    0  0.23310347710E+02  0.25861506414E+02  0.18863578358E+02  0.39598428970E+02  0.10566000000E+00 0. -1.
         23    2    1    0    0    0 -0.42133814288E+00  0.85613335824E+01 -0.28450575261E+02  0.95286212102E+02  0.90534816648E+02 0.  0.
         13    1    3    3    0    0 -0.23731685853E+02 -0.17300172832E+02 -0.47314153619E+02  0.55687783132E+02  0.10566000000E+00 0.  1.
         22    1    1    0    0    0  0.42133814288E+00 -0.85613335824E+01  0.28450575261E+02  0.29713787898E+02  0.00000000000E+00 0.  1.
</event>
<event>
 5    1  0.1758480E-003  0.9118800E+02  0.7818608E-02  0.1130116E+00
         25   -1    0    0    0    0  0.00000000000E+00  0.00000000000E+00  0.99999998245E-14  0.12500000000E+03  0.12500000000E+03 0.  0.
        -13    1    3    3    0    0  0.11029323780E+02 -0.34725273512E+02  0.48315707702E+02  0.60513712316E+02  0.10566000000E+00 0. -1.
         23    2    1    0    0    0  0.15717097471E+02 -0.12836710142E+02  0.24201171692E+02  0.93416697585E+02  0.87915723259E+02 0.  0.
         13    1    3    3    0    0  0.46877736911E+01  0.21888563370E+02 -0.24114536010E+02  0.32902985269E+02  0.10566000000E+00 0.  1.
         22    1    1    0    0    0 -0.15717097471E+02  0.12836710142E+02 -0.24201171692E+02  0.31583302415E+02  0.00000000000E+00 0. -1.
</event>
<event>
 5    1  0.1758480E-003  0.9118800E+02  0.7818608E-02  0.1130116E+00
         25   -1    0    0    0    0  0.00000000000E+00  0.00000000000E+00  0.99999998245E-14  0.12500000000E+03  0.12500000000E+03 0.  0.
        -13    1    3    3    0    0 -0.27476597308E+02 -0.21794887420E+02  0.47471181366E+02  0.59021222806E+02  0.10566000000E+00 0.  1.
         23    2    1    0    0    0 -0.17694507040E+02 -0.20291096444E+02  0.12590652017E+02  0.95278817444E+02  0.90524606385E+02 0.  0.
         13    1    3    3    0    0  0.97820902676E+01  0.15037909765E+01 -0.34880529348E+02  0.36257594638E+02  0.10566000000E+00 0. -1.
         22    1    1    0    0    0  0.17694507040E+02  0.20291096444E+02 -0.12590652017E+02  0.29721182556E+02  0.00000000000E+00 0.  1.
</event>
<event>
 5    1  0.1758480E-003  0.9118800E+02  0.7818608E-02  0.1130116E+00
         25   -1    0    0    0    0  0.00000000000E+00  0.00000000000E+00  0.99999998245E-14  0.12500000000E+03  0.12500000000E+03 0.  0.
        -13    1    3    3    0    0  0.28734556667E+02 -0.51617162270E+02  0.40612393783E+01  0.59215800400E+02  0.10566000000E+00 0. -1.
         23    2    1    0    0    0  0.25435476374E+02 -0.17040347249E+02  0.50836541440E+01  0.93964851665E+02  0.88691673320E+02 0.  0.
         13    1    3    3    0    0 -0.32990802938E+01  0.34576815021E+02  0.10224147657E+01  0.34749051265E+02  0.10566000000E+00 0.  1.
         22    1    1    0    0    0 -0.25435476374E+02  0.17040347249E+02 -0.50836541440E+01  0.31035148335E+02  0.00000000000E+00 0. -1.
</event>
<event>
 5    1  0.1758480E-003  0.9118800E+02  0.7818608E-02  0.1130116E+00
         25   -1    0    0    0    0  0.00000000000E+00  0.00000000000E+00  0.99999998245E-14  0.12500000000E+03  0.12500000000E+03 0.  0.
        -13    1    3    3    0    0 -0.19601850820E+02 -0.55491334848E+02 -0.20797352195E+02  0.62418441355E+02  0.10566000000E+00 0. -1.
         23    2    1    0    0    0 -0.95713405904E+01 -0.24534963237E+02 -0.11509704612E+02  0.96258944313E+02  0.91868036216E+02 0.  0.
         13    1    3    3    0    0  0.10030510230E+02  0.30956371611E+02  0.92876475821E+01  0.33840502958E+02  0.10566000000E+00 0.  1.
         22    1    1    0    0    0  0.95713405904E+01  0.24534963237E+02  0.11509704612E+02  0.28741055687E+02  0.00000000000E+00 0. -1.
</event>
<event>
 5    1  0.1758480E-003  0.9118800E+02  0.7818608E-02  0.1130116E+00
         25   -1    0    0    0    0  0.00000000000E+00  0.00000000000E+00  0.99999998245E-14  0.12500000000E+03  0.12500000000E+03 0.  0.
        -13    1    3    3    0    0  0.41801330024E+02  0.21468588361E+00 -0.15335013921E+02  0.44526072113E+02  0.10566000000E+00 0.  1.
         23    2    1    0    0    0  0.42920959134E+01  0.25872674855E+02  0.10440178237E+02  0.96772093363E+02  0.92563617803E+02 0.  0.
         13    1    3    3    0    0 -0.37509234111E+02  0.25657988971E+02  0.25775192159E+02  0.52246021250E+02  0.10566000000E+00 0. -1.
         22    1    1    0    0    0 -0.42920959134E+01 -0.25872674855E+02 -0.10440178237E+02  0.28227906637E+02  0.00000000000E+00 0. -1.
</event>
<event>
 5    1  0.1758480E-003  0.9118800E+02  0.7818608E-02  0.1130116E+00
         25   -1    0    0    0    0  0.00000000000E+00  0.00000000000E+00  0.99999998245E-14  0.12500000000E+03  0.12500000000E+03 0.  0.
        -13    1    3    3    0    0 -0.23127326591E+02  0.37181741075E+02 -0.25166344493E+02  0.50504565772E+02  0.10566000000E+00 0. -1.
         23    2    1    0    0    0 -0.26164181181E+02  0.14885110318E+00 -0.26598613214E+02  0.87689508735E+02  0.79356015423E+02 0.  0.
         13    1    3    3    0    0 -0.30368545903E+01 -0.37032889972E+02 -0.14322687205E+01  0.37184942963E+02  0.10566000000E+00 0.  1.
         22    1    1    0    0    0  0.26164181181E+02 -0.14885110318E+00  0.26598613214E+02  0.37310491265E+02  0.00000000000E+00 0. -1.
</event>
<event>
 5    1  0.1758480E-003  0.9118800E+02  0.7818608E-02  0.1130116E+00
         25   -1    0    0    0    0  0.00000000000E+00  0.00000000000E+00  0.99999998245E-14  0.12500000000E+03  0.12500000000E+03 0.  0.
        -13    1    3    3    0    0 -0.34191906877E+02 -0.19750206730E+01  0.16861834896E+02  0.38174858777E+02  0.10566000000E+00 0.  1.
         23    2    1    0    0    0  0.21750540123E+02 -0.14789257779E+02  0.12904826090E+02  0.95702514140E+02  0.91107785260E+02 0.  0.
         13    1    3    3    0    0  0.55942447000E+02 -0.12814237106E+02 -0.39570088059E+01  0.57527655364E+02  0.10566000000E+00 0. -1.
         22    1    1    0    0    0 -0.21750540123E+02  0.14789257779E+02 -0.12904826090E+02  0.29297485860E+02  0.00000000000E+00 0. -1.
</event>
<event>
 5    1  0.1758480E-003  0.9118800E+02  0.7818608E-02  0.1130116E+00
         25   -1    0    0    0    0  0.00000000000E+00  0.00000000000E+00  0.99999998245E-14  0.12500000000E+03  0.12500000000E+03 0.  0.
        -13    1    3    3    0    0 -0.25895099240E+02  0.25409708544E+02 -0.42961046939E+02  0.56230527039E+02  0.10566000000E+00 0. -1.
         23    2    1    0    0    0 -0.16950794199E+02 -0.52771685186E+01 -0.28748006401E+02  0.91212046473E+02  0.84723146885E+02 0.  0.
         13    1    3    3    0    0  0.89443050411E+01 -0.30686877063E+02  0.14213040538E+02  0.34981519434E+02  0.10566000000E+00 0.  1.
         22    1    1    0    0    0  0.16950794199E+02  0.52771685186E+01  0.28748006401E+02  0.33787953527E+02  0.00000000000E+00 0. -1.
</event>
<event>
 5    1  0.1758480E-003  0.9118800E+02  0.7818608E-02  0.1130116E+00
         25   -1    0    0    0    0  0.00000000000E+00  0.00000000000E+00  0.99999998245E-14  0.12500000000E+03  0.12500000000E+03 0.  0.
        -13    1    3    3    0    0 -0.20383822724E+01  0.34303362802E+02  0.44433700312E+01  0.34650114041E+02  0.10566000000E+00 0. -1.
         23    2    1    0    0    0 -0.14443416917E+02 -0.24013130856E+02 -0.86123505070E+01  0.95684213689E+02  0.91082673557E+02 0.  0.
         13    1    3    3    0    0 -0.12405034645E+02 -0.58316493658E+02 -0.13055720538E+02  0.61034099648E+02  0.10566000000E+00 0.  1.
         22    1    1    0    0    0  0.14443416917E+02  0.24013130856E+02  0.86123505070E+01  0.29315786311E+02  0.00000000000E+00 0.  1.
</event>
<event>
 5    1  0.1758480E-003  0.9118800E+02  0.7818608E-02  0.1130116E+00
         25   -1    0    0    0    0  0.00000000000E+00  0.00000000000E+00  0.99999998245E-14  0.12500000000E+03  0.12500000000E+03 0.  0.
        -13    1    3    3    0    0  0.40407519808E+01  0.42691259901E+02  0.76545248330E+01  0.43560007610E+02  0.10566000000E+00 0.  1.
         23    2    1    0    0    0  0.30807112226E+01  0.56911534704E+01 -0.28782819121E+02  0.95498632472E+02  0.90827628605E+02 0.  0.
         13    1    3    3    0    0 -0.96004075822E+00 -0.37000106431E+02 -0.36437343954E+02  0.51938624862E+02  0.10566000000E+00 0. -1.
         22    1    1    0    0    0 -0.30807112226E+01 -0.56911534704E+01  0.28782819121E+02  0.29501367528E+02  0.00000000000E+00 0. -1.
</event>
<event>
 5    1  0.1758480E-003  0.9118800E+02  0.7818608E-02  0.1130116E+00
         25   -1    0    0    0    0  0.00000000000E+00  0.00000000000E+00  0.99999998245E-14  0.12500000000E+03  0.12500000000E+03 0.  0.
        -13    1    3    3    0    0 -0.34572307200E+02 -0.44223891718E+01  0.50636046643E+01  0.35220068247E+02  0.10566000000E+00 0.  1.
         23    2    1    0    0    0  0.14815729322E+02  0.25879920394E+02 -0.69138206581E+01  0.94388286049E+02  0.89286457609E+02 0.  0.
         13    1    3    3    0    0  0.49388036522E+02  0.30302309565E+02 -0.11977425322E+02  0.59168217802E+02  0.10566000000E+00 0. -1.
         22    1    1    0    0    0 -0.14815729322E+02 -0.25879920394E+02  0.69138206581E+01  0.30611713951E+02  0.00000000000E+00 0. -1.
</event>
<event>
 5    1  0.1758480E-003  0.9118800E+02  0.7818608E-02  0.1130116E+00
         25   -1    0    0    0    0  0.00000000000E+00  0.00000000000E+00  0.99999998245E-14  0.12500000000E+03  0.12500000000E+03 0.  0.
        -13    1    3    3    0    0  0.82428086167E+01  0.38619355678E+02 -0.43870202068E+02  0.59025454851E+02  0.10566000000E+00 0.  1.
         23    2    1    0    0    0  0.19262714727E+02  0.21156839042E+02 -0.24710984817E+02  0.87193958320E+02  0.78571557067E+02 0.  0.
         13    1    3    3    0    0  0.11019906110E+02 -0.17462516636E+02  0.19159217251E+02  0.28168503468E+02  0.10566000000E+00 0. -1.
         22    1    1    0    0    0 -0.19262714727E+02 -0.21156839042E+02  0.24710984817E+02  0.37806041680E+02  0.00000000000E+00 0.  1.
</event>
<event>
 5    1  0.1758480E-003  0.9118800E+02  0.7818608E-02  0.1130116E+00
         25   -1    0    0    0    0  0.00000000000E+00  0.00000000000E+00  0.99999998245E-14  0.12500000000E+03  0.12500000000E+03 0.  0.
        -13    1    3    3    0    0 -0.28106992638E+02 -0.43026612627E+02 -0.15529015837E+02  0.53688489699E+02  0.10566000000E+00 0.  1.
         23    2    1    0    0    0 -0.16013530968E+02 -0.16613556898E+02  0.16275171280E+02  0.96763062364E+02  0.92551421334E+02 0.  0.
         13    1    3    3    0    0  0.12093461669E+02  0.26413055729E+02  0.31804187117E+02  0.43074572665E+02  0.10566000000E+00 0. -1.
         22    1    1    0    0    0  0.16013530968E+02  0.16613556898E+02 -0.16275171280E+02  0.28236937636E+02  0.00000000000E+00 0.  1.
</event>
<event>
 5    1  0.1758480E-003  0.9118800E+02  0.7818608E-02  0.1130116E+00
         25   -1    0    0    0    0  0.00000000000E+00  0.00000000000E+00  0.99999998245E-14  0.12500000000E+03  0.12500000000E+03 0.  0.
        -13    1    3    3    0    0 -0.11705781272E+02  0.21437530005E+02 -0.20666503456E+02  0.31995445567E+02  0.10566000000E+00 0.  1.
         23    2    1    0    0    0  0.13282465081E+02 -0.20287196915E+02  0.18548230902E+02  0.94470815490E+02  0.89401923203E+02 0.  0.
         13    1    3    3    0    0  0.24988246353E+02 -0.41724726919E+02  0.39214734357E+02  0.62475369923E+02  0.10566000000E+00 0. -1.
         22    1    1    0    0    0 -0.13282465081E+02  0.20287196915E+02 -0.18548230902E+02  0.30529184510E+02  0.00000000000E+00 0. -1.
</event>
<event>
 5    1  0.1758480E-003  0.9118800E+02  0.7818608E-02  0.1130116E+00
         25   -1    0    0    0    0  0.00000000000E+00  0.00000000000E+00  0.99999998245E-14  0.12500000000E+03  0.12500000000E+03 0.  0.
        -13    1    3    3    0    0  0.15658971964E+02 -0.30277398735E+02  0.88894842596E+01  0.35227239057E+02  0.10566000000E+00 0. -1.
         23    2    1    0    0    0  0.18242591288E+01  0.28120592008E+02  0.95521191636E+01  0.95245360080E+02  0.90478395322E+02 0.  0.
         13    1    3    3    0    0 -0.13834712835E+02  0.58397990743E+02  0.66263490394E+00  0.60018121023E+02  0.10566000000E+00 0.  1.
         22    1    1    0    0    0 -0.18242591288E+01 -0.28120592008E+02 -0.95521191636E+01  0.29754639920E+02  0.00000000000E+00 0.  1.
</event>
<event>
 5    1  0.1758480E-003  0.9118800E+02  0.7818608E-02  0.1130116E+00
         25   -1    0    0    0    0  0.00000000000E+00  0.00000000000E+00  0.99999998245E-14  0.12500000000E+03  0.12500000000E+03 0.  0.
        -13    1    3    3    0    0 -0.26764677754E+02 -0.31751495213E+02 -0.20181888433E+02  0.46171692717E+02  0.10566000000E+00 0.  1.
         23    2    1    0    0    0  0.17414242177E+02 -0.24651860347E+02 -0.11529127989E+01  0.94795707969E+02  0.89855033205E+02 0.  0.
         13    1    3    3    0    0  0.44178919931E+02  0.70996348665E+01  0.19028975634E+02  0.48624015252E+02  0.10566000000E+00 0. -1.
         22    1    1    0    0    0 -0.17414242177E+02  0.24651860347E+02  0.11529127989E+01  0.30204292031E+02  0.00000000000E+00 0.  1.
</event>
<event>
 5    1  0.1758480E-003  0.9118800E+02  0.7818608E-02  0.1130116E+00
         25   -1    0    0    0    0  0.00000000000E+00  0.00000000000E+00  0.99999998245E-14  0.12500000000E+03  0.12500000000E+03 0.  0.
        -13    1    3    3    0    0 -0.30140163366E+00 -0.33943802540E+02 -0.47902387512E+01  0.34281629558E+02  0.10566000000E+00 0.  1.
         23    2    1    0    0    0 -0.17448062574E+01  0.26412314531E+02 -0.13510331090E+02  0.95281592339E+02  0.90528437989E+02 0.  0.
         13    1    3    3    0    0 -0.14434046238E+01  0.60356117071E+02 -0.87200923385E+01  0.60999962781E+02  0.10566000000E+00 0. -1.
         22    1    1    0    0    0  0.17448062574E+01 -0.26412314531E+02  0.13510331090E+02  0.29718407661E+02  0.00000000000E+00 0. -1.
</event>
<event>
 5    1  0.1758480E-003  0.9118800E+02  0.7818608E-02  0.1130116E+00
         25   -1    0    0    0    0  0.00000000000E+00  0.00000000000E+00  0.99999998245E-14  0.12500000000E+03  0.12500000000E+03 0.  0.
        -13    1    3    3    0    0 -0.28999788018E+02  0.59112733659E+01  0.51474769251E+02  0.59376711693E+02  0.10566000000E+00 0.  1.
         23    2    1    0    0    0 -0.24786063932E+02  0.29788807752E+01  0.15719656834E+02  0.95498638898E+02  0.90827637448E+02 0.  0.
         13    1    3    3    0    0  0.42137240863E+01 -0.29323925907E+01 -0.35755112418E+02  0.36121927205E+02  0.10566000000E+00 0. -1.
         22    1    1    0    0    0  0.24786063932E+02 -0.29788807752E+01 -0.15719656834E+02  0.29501361102E+02  0.00000000000E+00 0.  1.
</event>
<event>
 5    1  0.1758480E-003  0.9118800E+02  0.7818608E-02  0.1130116E+00
         25   -1    0    0    0    0  0.00000000000E+00  0.00000000000E+00  0.99999998245E-14  0.12500000000E+03  0.12500000000E+03 0.  0.
        -13    1    3    3    0    0  0.35169885004E+02 -0.24608270294E+02 -0.77206113059E+01  0.43613149176E+02  0.10566000000E+00 0. -1.
         23    2    1    0    0    0 -0.17677995420E+02 -0.20151868404E+02 -0.91687866415E+01  0.96668463319E+02  0.92423567502E+02 0.  0.
         13    1    3    3    0    0 -0.52847880423E+02  0.44564018905E+01 -0.14481753357E+01  0.53055314144E+02  0.10566000000E+00 0.  1.
         22    1    1    0    0    0  0.17677995420E+02  0.20151868404E+02  0.91687866415E+01  0.28331536681E+02  0.00000000000E+00 0.  1.
</event>
<event>
 5    1  0.1758480E-003  0.9118800E+02  0.7818608E-02  0.1130116E+00
         25   -1    0    0    0    0  0.00000000000E+00  0.00000000000E+00  0.99999998245E-14  0.12500000000E+03  0.12500000000E+03 0.  0.
        -13    1    3    3    0    0 -0.24291904279E+02 -0.34025655001E+01  0.30570576854E+02  0.39194966497E+02  0.10566000000E+00 0.  1.
         23    2    1    0    0    0 -0.18196357062E+02 -0.46955277143E+01 -0.24223140004E+02  0.94341952076E+02  0.89221567006E+02 0.  0.
         13    1    3    3    0    0  0.60955472173E+01 -0.12929622141E+01 -0.54793716859E+02  0.55146985579E+02  0.10566000000E+00 0. -1.
         22    1    1    0    0    0  0.18196357062E+02  0.46955277143E+01  0.24223140004E+02  0.30658047924E+02  0.00000000000E+00 0. -1.
</event>
<event>
 5    1  0.1758480E-003  0.9118800E+02  0.7818608E-02  0.1130116E+00
         25   -1    0    0    0    0  0.00000000000E+00  0.00000000000E+00  0.99999998245E-14  0.12500000000E+03  0.12500000000E+03 0.  0.
        -13    1    3    3    0    0  0.28759867695E+02 -0.15385597918E+02  0.16752361935E+01  0.32659825374E+02  0.10566000000E+00 0.  1.
         23    2    1    0    0    0 -0.20304439461E+02  0.18300599148E+01 -0.26314974142E+02  0.91711905353E+02  0.85457453381E+02 0.  0.
         13    1    3    3    0    0 -0.49064307156E+02  0.17215657833E+02 -0.27990210335E+02  0.59052079980E+02  0.10566000000E+00 0. -1.
         22    1    1    0    0    0  0.20304439461E+02 -0.18300599148E+01  0.26314974142E+02  0.33288094647E+02  0.00000000000E+00 0. -1.
</event>
<event>
 5    1  0.1758480E-003  0.9118800E+02  0.7818608E-02  0.1130116E+00
         25   -1    0    0    0    0  0.00000000000E+00  0.00000000000E+00  0.99999998245E-14  0.12500000000E+03  0.12500000000E+03 0.  0.
        -13    1    3    3    0    0  0.50293163231E+02  0.81553133856E+01  0.21299429741E+02  0.55223077382E+02  0.10566000000E+00 0.  1.
         23    2    1    0    0    0  0.21906022052E+02  0.23051470720E+02  0.96748613283E+00  0.93185221454E+02  0.87585988397E+02 0.  0.
         13    1    3    3    0    0 -0.28387141179E+02  0.14896157335E+02 -0.20331943608E+02  0.37962144072E+02  0.10566000000E+00 0. -1.
         22    1    1    0    0    0 -0.21906022052E+02 -0.23051470720E+02 -0.96748613283E+00  0.31814778546E+02  0.00000000000E+00 0.  1.
</event>
<event>
 5    1  0.1758480E-003  0.9118800E+02  0.7818608E-02  0.1130116E+00
         25   -1    0    0    0    0  0.00000000000E+00  0.00000000000E+00  0.99999998245E-14  0.12500000000E+03  0.12500000000E+03 0.  0.
        -13    1    3    3    0    0  0.19335161082E+02  0.40954782677E+02 -0.28633472281E+02  0.53581989298E+02  0.10566000000E+00 0. -1.
         23    2    1    0    0    0  0.94438733222E+01  0.18581206119E+02  0.11954327177E+02  0.10097181026E+03  0.98071160714E+02 0.  0.
         13    1    3    3    0    0 -0.98912877602E+01 -0.22373576558E+02  0.40587799457E+02  0.47389820958E+02  0.10566000000E+00 0.  1.
         22    1    1    0    0    0 -0.94438733222E+01 -0.18581206119E+02 -0.11954327177E+02  0.24028189745E+02  0.00000000000E+00 0. -1.
</event>
<event>
 5    1  0.1758480E-003  0.9118800E+02  0.7818608E-02  0.1130116E+00
         25   -1    0    0    0    0  0.00000000000E+00  0.00000000000E+00  0.99999998245E-14  0.12500000000E+03  0.12500000000E+03 0.  0.
        -13    1    3    3    0    0 -0.17679492609E+02 -0.39050348949E+01 -0.32921468242E+02  0.37571904286E+02  0.10566000000E+00 0.  1.
         23    2    1    0    0    0  0.87939307067E+01  0.26538898460E+02  0.88786594125E+01  0.95666112742E+02  0.91057828798E+02 0.  0.
         13    1    3    3    0    0  0.26473423316E+02  0.30443933355E+02  0.41800127654E+02  0.58094208456E+02  0.10566000000E+00 0. -1.
         22    1    1    0    0    0 -0.87939307067E+01 -0.26538898460E+02 -0.88786594125E+01  0.29333887258E+02  0.00000000000E+00 0. -1.
</event>
<event>
 5    1  0.1758480E-003  0.9118800E+02  0.7818608E-02  0.1130116E+00
         25   -1    0    0    0    0  0.00000000000E+00  0.00000000000E+00  0.99999998245E-14  0.12500000000E+03  0.12500000000E+03 0.  0.
        -13    1    3    3    0    0 -0.26481228876E+02 -0.29324513255E+02  0.25373667089E+02  0.46957605412E+02  0.10566000000E+00 0.  1.
         23    2    1    0    0    0  0.16257477091E+01  0.13534789660E+02  0.22996893255E+02  0.98266300553E+02  0.94559902380E+02 0.  0.
         13    1    3    3    0    0  0.28106976585E+02  0.42859302915E+02 -0.23767738336E+01  0.51308695141E+02  0.10566000000E+00 0. -1.
         22    1    1    0    0    0 -0.16257477091E+01 -0.13534789660E+02 -0.22996893255E+02  0.26733699447E+02  0.00000000000E+00 0. -1.
</event>
<event>
 5    1  0.1758480E-003  0.9118800E+02  0.7818608E-02  0.1130116E+00
         25   -1    0    0    0    0  0.00000000000E+00  0.00000000000E+00  0.99999998245E-14  0.12500000000E+03  0.12500000000E+03 0.  0.
        -13    1    3    3    0    0  0.45562348542E+02 -0.37011797338E+01 -0.29329453996E+02  0.54312561824E+02  0.10566000000E+00 0. -1.
         23    2    1    0    0    0  0.79913562066E+01 -0.14820419548E+02 -0.26508626187E+02  0.93595957714E+02  0.88170229831E+02 0.  0.
         13    1    3    3    0    0 -0.37570992335E+02 -0.11119239814E+02  0.28208278093E+01  0.39283395890E+02  0.10566000000E+00 0.  1.
         22    1    1    0    0    0 -0.79913562066E+01  0.14820419548E+02  0.26508626187E+02  0.31404042286E+02  0.00000000000E+00 0. -1.
</event>
<event>
 5    1  0.1758480E-003  0.9118800E+02  0.7818608E-02  0.1130116E+00
         25   -1    0    0    0    0  0.00000000000E+00  0.00000000000E+00  0.99999998245E-14  0.12500000000E+03  0.12500000000E+03 0.  0.
        -13    1    3    3    0    0 -0.31759381040E+02 -0.99957321590E+01 -0.17384715943E+02  0.37560783510E+02  0.10566000000E+00 0. -1.
         23    2    1    0    0    0  0.24702231252E+02  0.38396317663E+01 -0.15218412887E+02  0.95733242548E+02  0.91149934926E+02 0.  0.
         13    1    3    3    0    0  0.56461612292E+02  0.13835363925E+02  0.21663030564E+01  0.58172459038E+02  0.10566000000E+00 0.  1.
         22    1    1    0    0    0 -0.24702231252E+02 -0.38396317663E+01  0.15218412887E+02  0.29266757452E+02  0.00000000000E+00 0.  1.
</event>
<event>
 5    1  0.1758480E-003  0.9118800E+02  0.7818608E-02  0.1130116E+00
         25   -1    0    0    0    0  0.00000000000E+00  0.00000000000E+00  0.99999998245E-14  0.12500000000E+03  0.12500000000E+03 0.  0.
        -13    1    3    3    0    0 -0.36365141055E+02  0.12740747830E+02 -0.11698148214E+02  0.40269193870E+02  0.10566000000E+00 0. -1.
         23    2    1    0    0    0  0.12381043790E+02 -0.15165563681E+02 -0.19958518963E+02  0.97042406286E+02  0.92927937519E+02 0.  0.
         13    1    3    3    0    0  0.48746184845E+02 -0.27906311511E+02 -0.82603707490E+01  0.56773212416E+02  0.10566000000E+00 0.  1.
         22    1    1    0    0    0 -0.12381043790E+02  0.15165563681E+02  0.19958518963E+02  0.27957593714E+02  0.00000000000E+00 0.  1.
</event>
<event>
 5    1  0.1758480E-003  0.9118800E+02  0.7818608E-02  0.1130116E+00
         25   -1    0    0    0    0  0.00000000000E+00  0.00000000000E+00  0.99999998245E-14  0.12500000000E+03  0.12500000000E+03 0.  0.
        -13    1    3    3    0    0  0.14494429494E+02  0.10316833674E+02  0.58727054113E+02  0.61362884484E+02  0.10566000000E+00 0.  1.
         23    2    1    0    0    0  0.51606772344E+01  0.12477789079E+02  0.23226007207E+02  0.98134125352E+02  0.94385016491E+02 0.  0.
         13    1    3    3    0    0 -0.93337522591E+01  0.21609554054E+01 -0.35501046906E+02  0.36771240868E+02  0.10566000000E+00 0. -1.
         22    1    1    0    0    0 -0.51606772344E+01 -0.12477789079E+02 -0.23226007207E+02  0.26865874648E+02  0.00000000000E+00 0.  1.
</event>
<event>
 5    1  0.1758480E-003  0.9118800E+02  0.7818608E-02  0.1130116E+00
         25   -1    0    0    0    0  0.00000000000E+00  0.00000000000E+00  0.99999998245E-14  0.12500000000E+03  0.12500000000E+03 0.  0.
        -13    1    3    3    0    0  0.80591127763E+01 -0.24412269182E+02  0.22774015001E+02  0.34344942985E+02  0.10566000000E+00 0. -1.
         23    2    1    0    0    0 -0.10741757331E+02  0.10157217129E+01 -0.28465893796E+02  0.94557855681E+02  0.89523538358E+02 0.  0.
         13    1    3    3    0    0 -0.18800870107E+02  0.25427990895E+02 -0.51239908797E+02  0.60212912696E+02  0.10566000000E+00 0.  1.
         22    1    1    0    0    0  0.10741757331E+02 -0.10157217129E+01  0.28465893796E+02  0.30442144319E+02  0.00000000000E+00 0.  1.
</event>
<event>
 5    1  0.1758480E-003  0.9118800E+02  0.7818608E-02  0.1130116E+00
         25   -1    0    0    0    0  0.00000000000E+00  0.00000000000E+00  0.99999998245E-14  0.12500000000E+03  0.12500000000E+03 0.  0.
        -13    1    3    3    0    0  0.27181010983E+02  0.27737438622E+02  0.10825744910E+02  0.40316011413E+02  0.10566000000E+00 0. -1.
         23    2    1    0    0    0 -0.22297819177E+02  0.53976802286E+01  0.18994389741E+02  0.95215532008E+02  0.90437177101E+02 0.  0.
         13    1    3    3    0    0 -0.49478830161E+02 -0.22339758393E+02  0.81686448314E+01  0.54899520595E+02  0.10566000000E+00 0.  1.
         22    1    1    0    0    0  0.22297819177E+02 -0.53976802286E+01 -0.18994389741E+02  0.29784467992E+02  0.00000000000E+00 0.  1.
</event>
<event>
 5    1  0.1758480E-003  0.9118800E+02  0.7818608E-02  0.1130116E+00
         25   -1    0    0    0    0  0.00000000000E+00  0.00000000000E+00  0.99999998245E-14  0.12500000000E+03  0.12500000000E+03 0.  0.
        -13    1    3    3    0    0 -0.17363712616E+02  0.52305316077E+02 -0.12975663478E+02  0.56619109958E+02  0.10566000000E+00 0. -1.
         23    2    1    0    0    0 -0.18593275786E+02  0.13211853919E+02 -0.17852539262E+02  0.96034915043E+02  0.91562703984E+02 0.  0.
         13    1    3    3    0    0 -0.12295631705E+01 -0.39093462158E+02 -0.48768757839E+01  0.39415805085E+02  0.10566000000E+00 0.  1.
         22    1    1    0    0    0  0.18593275786E+02 -0.13211853919E+02  0.17852539262E+02  0.28965084957E+02  0.00000000000E+00 0. -1.
</event>
<event>
 5    1  0.1758480E-003  0.9118800E+02  0.7818608E-02  0.1130116E+00
         25   -1    0    0    0    0  0.00000000000E+00  0.00000000000E+00  0.99999998245E-14  0.12500000000E+03  0.12500000000E+03 0.  0.
        -13    1    3    3    0    0 -0.44483384838E+02 -0.16966004308E+02  0.26641748537E+02  0.54556491437E+02  0.10566000000E+00 0.  1.
         23    2    1    0    0    0 -0.27813608378E+02 -0.82936325235E+01 -0.87998879021E+01  0.94671479124E+02  0.89682048265E+02 0.  0.
         13    1    3    3    0    0  0.16669776459E+02  0.86723717846E+01 -0.35441636439E+02  0.40114987686E+02  0.10566000000E+00 0. -1.
         22    1    1    0    0    0  0.27813608378E+02  0.82936325235E+01  0.87998879021E+01  0.30328520876E+02  0.00000000000E+00 0.  1.
</event>
<event>
 5    1  0.1758480E-003  0.9118800E+02  0.7818608E-02  0.1130116E+00
         25   -1    0    0    0    0  0.00000000000E+00  0.00000000000E+00  0.99999998245E-14  0.12500000000E+03  0.12500000000E+03 0.  0.
        -13    1    3    3    0    0 -0.41516183383E+02  0.25292645039E+02 -0.10637217067E+01  0.48625652116E+02  0.10566000000E+00 0.  1.
         23    2    1    0    0    0  0.24947367503E+01  0.31046551007E+02  0.51048112004E+01  0.93437821078E+02  0.87945751856E+02 0.  0.
         13    1    3    3    0    0  0.44010920133E+02  0.57539059678E+01  0.61685329071E+01  0.44812168962E+02  0.10566000000E+00 0. -1.
         22    1    1    0    0    0 -0.24947367503E+01 -0.31046551007E+02 -0.51048112004E+01  0.31562178922E+02  0.00000000000E+00 0.  1.
</event>
<event>
 5    1  0.1758480E-003  0.9118800E+02  0.7818608E-02  0.1130116E+00
         25   -1    0    0    0    0  0.00000000000E+00  0.00000000000E+00  0.99999998245E-14  0.12500000000E+03  0.12500000000E+03 0.  0.
        -13    1    3    3    0    0  0.64510714280E+01 -0.30387803238E+02  0.38296391909E+02  0.49311861712E+02  0.10566000000E+00 0.  1.
         23    2    1    0    0    0  0.16498011503E+02  0.11170747487E+02  0.22633339618E+02  0.94846425664E+02  0.89925560415E+02 0.  0.
         13    1    3    3    0    0  0.10046940075E+02  0.41558550725E+02 -0.15663052290E+02  0.45534563952E+02  0.10566000000E+00 0. -1.
         22    1    1    0    0    0 -0.16498011503E+02 -0.11170747487E+02 -0.22633339618E+02  0.30153574336E+02  0.00000000000E+00 0.  1.
</event>
<event>
 5    1  0.1758480E-003  0.9118800E+02  0.7818608E-02  0.1130116E+00
         25   -1    0    0    0    0  0.00000000000E+00  0.00000000000E+00  0.99999998245E-14  0.12500000000E+03  0.12500000000E+03 0.  0.
        -13    1    3    3    0    0 -0.18738332416E+02 -0.54578436364E+01 -0.30149872842E+02  0.35915722954E+02  0.10566000000E+00 0. -1.
         23    2    1    0    0    0 -0.94842663100E+01 -0.31773536389E+01  0.28220573248E+02  0.95059264571E+02  0.90220929626E+02 0.  0.
         13    1    3    3    0    0  0.92540661062E+01  0.22804899975E+01  0.58370446090E+02  0.59143541616E+02  0.10566000000E+00 0.  1.
         22    1    1    0    0    0  0.94842663100E+01  0.31773536389E+01 -0.28220573248E+02  0.29940735429E+02  0.00000000000E+00 0.  1.
</event>
<event>
 5    1  0.1758480E-003  0.9118800E+02  0.7818608E-02  0.1130116E+00
         25   -1    0    0    0    0  0.00000000000E+00  0.00000000000E+00  0.99999998245E-14  0.12500000000E+03  0.12500000000E+03 0.  0.
        -13    1    3    3    0    0  0.47982134467E+02  0.30122818711E+02 -0.25511747662E+02  0.62133162385E+02  0.10566000000E+00 0. -1.
         23    2    1    0    0    0  0.21511294472E+02  0.16740344266E+02 -0.79370514136E+01  0.96610359263E+02  0.92344950137E+02 0.  0.
         13    1    3    3    0    0 -0.26470839995E+02 -0.13382474444E+02  0.17574696249E+02  0.34477196878E+02  0.10566000000E+00 0.  1.
         22    1    1    0    0    0 -0.21511294472E+02 -0.16740344266E+02  0.79370514136E+01  0.28389640737E+02  0.00000000000E+00 0. -1.
</event>
<event>
 5    1  0.1758480E-003  0.9118800E+02  0.7818608E-02  0.1130116E+00
         25   -1    0    0    0    0  0.00000000000E+00  0.00000000000E+00  0.99999998245E-14  0.12500000000E+03  0.12500000000E+03 0.  0.
        -13    1    3    3    0    0 -0.35023084843E+02 -0.91002993058E+01  0.17037031079E+02  0.39996293721E+02  0.10566000000E+00 0. -1.
         23    2    1    0    0    0  0.16848311463E+02 -0.23377710007E+02  0.11085088794E+02  0.94125056796E+02  0.88917176063E+02 0.  0.
         13    1    3    3    0    0  0.51871396306E+02 -0.14277410701E+02 -0.59519422847E+01  0.54128763075E+02  0.10566000000E+00 0.  1.
         22    1    1    0    0    0 -0.16848311463E+02  0.23377710007E+02 -0.11085088794E+02  0.30874943204E+02  0.00000000000E+00 0.  1.
</event>
<event>
 5    1  0.1758480E-003  0.9118800E+02  0.7818608E-02  0.1130116E+00
         25   -1    0    0    0    0  0.00000000000E+00  0.00000000000E+00  0.99999998245E-14  0.12500000000E+03  0.12500000000E+03 0.  0.
        -13    1    3    3    0    0 -0.29399239679E+02  0.14354407781E+02 -0.14842215467E+02  0.35925851979E+02  0.10566000000E+00 0.  1.
         23    2    1    0    0    0  0.35790491056E+01 -0.10069825609E+02  0.27865880759E+02  0.95155096067E+02  0.90353605444E+02 0.  0.
         13    1    3    3    0    0  0.32978288785E+02 -0.24424233390E+02  0.42708096226E+02  0.59229244087E+02  0.10566000000E+00 0. -1.
         22    1    1    0    0    0 -0.35790491056E+01  0.10069825609E+02 -0.27865880759E+02  0.29844903933E+02  0.00000000000E+00 0. -1.
</event>
<event>
 5    1  0.1758480E-003  0.9118800E+02  0.7818608E-02  0.1130116E+00
         25   -1    0    0    0    0  0.00000000000E+00  0.00000000000E+00  0.99999998245E-14  0.12500000000E+03  0.12500000000E+03 0.  0.
        -13    1    3    3    0    0  0.47810621992E+02 -0.12572200188E+02 -0.18154265536E+02  0.52664070428E+02  0.10566000000E+00 0.  1.
         23    2    1    0    0    0  0.24657906690E+02 -0.58553344334E+01  0.16411799466E+02  0.94806549297E+02  0.89870113632E+02 0.  0.
         13    1    3    3    0    0 -0.23152715302E+02  0.67168657550E+01  0.34566065002E+02  0.42142478869E+02  0.10566000000E+00 0. -1.
         22    1    1    0    0    0 -0.24657906690E+02  0.58553344334E+01 -0.16411799466E+02  0.30193450703E+02  0.00000000000E+00 0. -1.
</event>
<event>
 5    1  0.1758480E-003  0.9118800E+02  0.7818608E-02  0.1130116E+00
         25   -1    0    0    0    0  0.00000000000E+00  0.00000000000E+00  0.99999998245E-14  0.12500000000E+03  0.12500000000E+03 0.  0.
        -13    1    3    3    0    0 -0.36294949251E+02 -0.27636956339E+02  0.15918471175E+02  0.48317011346E+02  0.10566000000E+00 0.  1.
         23    2    1    0    0    0  0.32707974024E+01 -0.13884108475E+02  0.29401139096E+02  0.92321359209E+02  0.86344309612E+02 0.  0.
         13    1    3    3    0    0  0.39565746653E+02  0.13752847865E+02  0.13482667921E+02  0.44004347864E+02  0.10566000000E+00 0. -1.
         22    1    1    0    0    0 -0.32707974024E+01  0.13884108475E+02 -0.29401139096E+02  0.32678640791E+02  0.00000000000E+00 0.  1.
</event>
<event>
 5    1  0.1758480E-003  0.9118800E+02  0.7818608E-02  0.1130116E+00
         25   -1    0    0    0    0  0.00000000000E+00  0.00000000000E+00  0.99999998245E-14  0.12500000000E+03  0.12500000000E+03 0.  0.
        -13    1    3    3    0    0 -0.13995111622E+02 -0.33902481144E+02  0.96234328589E+01  0.37919164034E+02  0.10566000000E+00 0. -1.
         23    2    1    0    0    0 -0.20882272339E+01  0.87875115970E+01 -0.27702247071E+02  0.95862471865E+02  0.91326983779E+02 0.  0.
         13    1    3    3    0    0  0.11906884388E+02  0.42689992741E+02 -0.37325679930E+02  0.57943307830E+02  0.10566000000E+00 0.  1.
         22    1    1    0    0    0  0.20882272339E+01 -0.87875115970E+01  0.27702247071E+02  0.29137528135E+02  0.00000000000E+00 0.  1.
</event>
<event>
 5    1  0.1758480E-003  0.9118800E+02  0.7818608E-02  0.1130116E+00
         25   -1    0    0    0    0  0.00000000000E+00  0.00000000000E+00  0.99999998245E-14  0.12500000000E+03  0.12500000000E+03 0.  0.
        -13    1    3    3    0    0  0.23784642388E+01 -0.31461205067E+02  0.53712720182E+02  0.62293916154E+02  0.10566000000E+00 0.  1.
         23    2    1    0    0    0  0.97314428773E+00 -0.11059163158E+02  0.25942667498E+02  0.96781670913E+02  0.92576550639E+02 0.  0.
         13    1    3    3    0    0 -0.14053199511E+01  0.20402041908E+02 -0.27770052685E+02  0.34487754759E+02  0.10566000000E+00 0. -1.
         22    1    1    0    0    0 -0.97314428773E+00  0.11059163158E+02 -0.25942667498E+02  0.28218329087E+02  0.00000000000E+00 0.  1.
</event>
<event>
 5    1  0.1758480E-003  0.9118800E+02  0.7818608E-02  0.1130116E+00
         25   -1    0    0    0    0  0.00000000000E+00  0.00000000000E+00  0.99999998245E-14  0.12500000000E+03  0.12500000000E+03 0.  0.
        -13    1    3    3    0    0 -0.34036508970E+02  0.41262218487E+01 -0.68504609661E+01  0.34963547147E+02  0.10566000000E+00 0. -1.
         23    2    1    0    0    0  0.42548978774E+01 -0.24144500497E+02 -0.28630371487E+02  0.87307040025E+02  0.78751253998E+02 0.  0.
         13    1    3    3    0    0  0.38291406848E+02 -0.28270722345E+02 -0.21779910521E+02  0.52343492878E+02  0.10566000000E+00 0.  1.
         22    1    1    0    0    0 -0.42548978774E+01  0.24144500497E+02  0.28630371487E+02  0.37692959975E+02  0.00000000000E+00 0.  1.
</event>
<event>
 5    1  0.1758480E-003  0.9118800E+02  0.7818608E-02  0.1130116E+00
         25   -1    0    0    0    0  0.00000000000E+00  0.00000000000E+00  0.99999998245E-14  0.12500000000E+03  0.12500000000E+03 0.  0.
        -13    1    3    3    0    0 -0.35051602067E+02 -0.43222556720E+02 -0.23409059371E+02  0.60372174398E+02  0.10566000000E+00 0. -1.
         23    2    1    0    0    0 -0.64021211557E+01 -0.26037378806E+02 -0.96430289111E+01  0.96505785553E+02  0.92203288381E+02 0.  0.
         13    1    3    3    0    0  0.28649480912E+02  0.17185177914E+02  0.13766030460E+02  0.36133611155E+02  0.10566000000E+00 0.  1.
         22    1    1    0    0    0  0.64021211557E+01  0.26037378806E+02  0.96430289111E+01  0.28494214447E+02  0.00000000000E+00 0. -1.
</event>
<event>
 5    1  0.1758480E-003  0.9118800E+02  0.7818608E-02  0.1130116E+00
         25   -1    0    0    0    0  0.00000000000E+00  0.00000000000E+00  0.99999998245E-14  0.12500000000E+03  0.12500000000E+03 0.  0.
        -13    1    3    3    0    0  0.37608707310E+02  0.19398445477E+02 -0.10892195738E+02  0.43696288681E+02  0.10566000000E+00 0. -1.
         23    2    1    0    0    0 -0.98330134463E+01  0.97701227217E+01 -0.26945878195E+02  0.94697792108E+02  0.89718716147E+02 0.  0.
         13    1    3    3    0    0 -0.47441720756E+02 -0.96283227553E+01 -0.16053682456E+02  0.51001503427E+02  0.10566000000E+00 0.  1.
         22    1    1    0    0    0  0.98330134463E+01 -0.97701227217E+01  0.26945878195E+02  0.30302207892E+02  0.00000000000E+00 0. -1.
</event>
<event>
 5    1  0.1758480E-003  0.9118800E+02  0.7818608E-02  0.1130116E+00
         25   -1    0    0    0    0  0.00000000000E+00  0.00000000000E+00  0.99999998245E-14  0.12500000000E+03  0.12500000000E+03 0.  0.
        -13    1    3    3    0    0 -0.97076807761E+01  0.34261063873E+02  0.17745042523E+02  0.39786395438E+02  0.10566000000E+00 0. -1.
         23    2    1    0    0    0 -0.21106554895E+02 -0.11262318226E+02 -0.14775164573E+02  0.96881821547E+02  0.92711678804E+02 0.  0.
         13    1    3    3    0    0 -0.11398874119E+02 -0.45523382099E+02 -0.32520207096E+02  0.57095426109E+02  0.10566000000E+00 0.  1.
         22    1    1    0    0    0  0.21106554895E+02  0.11262318226E+02  0.14775164573E+02  0.28118178453E+02  0.00000000000E+00 0.  1.
</event>
<event>
 5    1  0.1758480E-003  0.9118800E+02  0.7818608E-02  0.1130116E+00
         25   -1    0    0    0    0  0.00000000000E+00  0.00000000000E+00  0.99999998245E-14  0.12500000000E+03  0.12500000000E+03 0.  0.
        -13    1    3    3    0    0 -0.87081170158E+00  0.39265341169E+02 -0.46877162137E+02  0.61155578848E+02  0.10566000000E+00 0. -1.
         23    2    1    0    0    0 -0.57063391734E+01  0.12767892453E+02 -0.26870001736E+02  0.94708443788E+02  0.89733555301E+02 0.  0.
         13    1    3    3    0    0 -0.48355274719E+01 -0.26497448715E+02  0.20007160402E+02  0.33552864941E+02  0.10566000000E+00 0.  1.
         22    1    1    0    0    0  0.57063391734E+01 -0.12767892453E+02  0.26870001736E+02  0.30291556212E+02  0.00000000000E+00 0. -1.
</event>
<event>
 5    1  0.1758480E-003  0.9118800E+02  0.7818608E-02  0.1130116E+00
         25   -1    0    0    0    0  0.00000000000E+00  0.00000000000E+00  0.99999998245E-14  0.12500000000E+03  0.12500000000E+03 0.  0.
        -13    1    3    3    0    0 -0.49329375931E+02 -0.37912174690E+00  0.21311474264E+02  0.53737520992E+02  0.10566000000E+00 0. -1.
         23    2    1    0    0    0 -0.30228992322E+02 -0.64228560673E+01 -0.11370118862E+02  0.92070914683E+02  0.85980978541E+02 0.  0.
         13    1    3    3    0    0  0.19100383610E+02 -0.60437343204E+01 -0.32681593126E+02  0.38333393691E+02  0.10566000000E+00 0.  1.
         22    1    1    0    0    0  0.30228992322E+02  0.64228560673E+01  0.11370118862E+02  0.32929085317E+02  0.00000000000E+00 0. -1.
</event>
<event>
 5    1  0.1758480E-003  0.9118800E+02  0.7818608E-02  0.1130116E+00
         25   -1    0    0    0    0  0.00000000000E+00  0.00000000000E+00  0.99999998245E-14  0.12500000000E+03  0.12500000000E+03 0.  0.
        -13    1    3    3    0    0  0.14730642080E+02  0.70136807155E+00  0.56304828386E+02  0.58204197417E+02  0.10566000000E+00 0.  1.
         23    2    1    0    0    0 -0.64079303182E+01 -0.96763628846E+01  0.25535844051E+02  0.96950527616E+02  0.92804266626E+02 0.  0.
         13    1    3    3    0    0 -0.21138572398E+02 -0.10377730956E+02 -0.30768984335E+02  0.38746330199E+02  0.10566000000E+00 0. -1.
         22    1    1    0    0    0  0.64079303182E+01  0.96763628846E+01 -0.25535844051E+02  0.28049472384E+02  0.00000000000E+00 0.  1.
</event>
<event>
 5    1  0.1758480E-003  0.9118800E+02  0.7818608E-02  0.1130116E+00
         25   -1    0    0    0    0  0.00000000000E+00  0.00000000000E+00  0.99999998245E-14  0.12500000000E+03  0.12500000000E+03 0.  0.
        -13    1    3    3    0    0 -0.31761226204E+02  0.15071978533E+02  0.15431798840E+02  0.38393900640E+02  0.10566000000E+00 0.  1.
         23    2    1    0    0    0  0.23503560035E+02 -0.17501222797E+00  0.17398132030E+02  0.95757172474E+02  0.91182745728E+02 0.  0.
         13    1    3    3    0    0  0.55264786238E+02 -0.15246990761E+02  0.19663331905E+01  0.57363271834E+02  0.10566000000E+00 0. -1.
         22    1    1    0    0    0 -0.23503560035E+02  0.17501222797E+00 -0.17398132030E+02  0.29242827526E+02  0.00000000000E+00 0. -1.
</event>
<event>
 5    1  0.1758480E-003  0.9118800E+02  0.7818608E-02  0.1130116E+00
         25   -1    0    0    0    0  0.00000000000E+00  0.00000000000E+00  0.99999998245E-14  0.12500000000E+03  0.12500000000E+03 0.  0.
        -13    1    3    3    0    0 -0.90216968180E+01  0.39406769100E+02  0.13611025559E+02  0.42656249779E+02  0.10566000000E+00 0.  1.
         23    2    1    0    0    0 -0.22366703481E+02 -0.66814339190E+01 -0.13767262270E+02  0.97899289783E+02  0.94073494916E+02 0.  0.
         13    1    3    3    0    0 -0.13345006663E+02 -0.46088203019E+02 -0.27378287830E+02  0.55243040004E+02  0.10566000000E+00 0. -1.
         22    1    1    0    0    0  0.22366703481E+02  0.66814339190E+01  0.13767262270E+02  0.27100710217E+02  0.00000000000E+00 0. -1.
</event>
<event>
 5    1  0.1758480E-003  0.9118800E+02  0.7818608E-02  0.1130116E+00
         25   -1    0    0    0    0  0.00000000000E+00  0.00000000000E+00  0.99999998245E-14  0.12500000000E+03  0.12500000000E+03 0.  0.
        -13    1    3    3    0    0  0.11634408157E+01  0.42799491504E+02 -0.96310724795E+01  0.43885291256E+02  0.10566000000E+00 0. -1.
         23    2    1    0    0    0 -0.11609649611E+02  0.13808917060E+02  0.27133560887E+02  0.92416257414E+02  0.86481583898E+02 0.  0.
         13    1    3    3    0    0 -0.12773090427E+02 -0.28990574443E+02  0.36764633367E+02  0.48530966158E+02  0.10566000000E+00 0.  1.
         22    1    1    0    0    0  0.11609649611E+02 -0.13808917060E+02 -0.27133560887E+02  0.32583742586E+02  0.00000000000E+00 0.  1.
</event>
<event>
 5    1  0.1758480E-003  0.9118800E+02  0.7818608E-02  0.1130116E+00
         25   -1    0    0    0    0  0.00000000000E+00  0.00000000000E+00  0.99999998245E-14  0.12500000000E+03  0.12500000000E+03 0.  0.
        -13    1    3    3    0    0 -0.15049858723E+02 -0.13729174849E+02  0.61916539691E+01  0.21291693980E+02  0.10566000000E+00 0. -1.
         23    2    1    0    0    0 -0.33609003762E+01  0.42926628942E+02  0.14129649504E+02  0.79682915818E+02  0.65541810735E+02 0.  0.
         13    1    3    3    0    0  0.11688958347E+02  0.56655803792E+02  0.79379955351E+01  0.58391221838E+02  0.10566000000E+00 0.  1.
         22    1    1    0    0    0  0.33609003762E+01 -0.42926628942E+02 -0.14129649504E+02  0.45317084182E+02  0.00000000000E+00 0.  1.
</event>
<event>
 5    1  0.1758480E-003  0.9118800E+02  0.7818608E-02  0.1130116E+00
         25   -1    0    0    0    0  0.00000000000E+00  0.00000000000E+00  0.99999998245E-14  0.12500000000E+03  0.12500000000E+03 0.  0.
        -13    1    3    3    0    0 -0.24166282087E+02 -0.51048985791E+02  0.26316900196E+02  0.62310501043E+02  0.10566000000E+00 0.  1.
         23    2    1    0    0    0 -0.14002322621E+02 -0.21772092642E+02  0.12823041605E+02  0.96111949654E+02  0.91667810128E+02 0.  0.
         13    1    3    3    0    0  0.10163959466E+02  0.29276893150E+02 -0.13493858592E+02  0.33801448612E+02  0.10566000000E+00 0. -1.
         22    1    1    0    0    0  0.14002322621E+02  0.21772092642E+02 -0.12823041605E+02  0.28888050346E+02  0.00000000000E+00 0.  1.
</event>
<event>
 5    1  0.1758480E-003  0.9118800E+02  0.7818608E-02  0.1130116E+00
         25   -1    0    0    0    0  0.00000000000E+00  0.00000000000E+00  0.99999998245E-14  0.12500000000E+03  0.12500000000E+03 0.  0.
        -13    1    3    3    0    0 -0.17281308651E+02  0.13750696313E+02  0.23519854192E+02  0.32263291571E+02  0.10566000000E+00 0.  1.
         23    2    1    0    0    0 -0.19791801454E+02 -0.12965051676E+02 -0.26775143810E+02  0.89268832992E+02  0.81805918172E+02 0.  0.
         13    1    3    3    0    0 -0.25104928031E+01 -0.26715747988E+02 -0.50294998001E+02  0.57005541421E+02  0.10566000000E+00 0. -1.
         22    1    1    0    0    0  0.19791801454E+02  0.12965051676E+02  0.26775143810E+02  0.35731167008E+02  0.00000000000E+00 0. -1.
</event>
<event>
 5    1  0.1758480E-003  0.9118800E+02  0.7818608E-02  0.1130116E+00
         25   -1    0    0    0    0  0.00000000000E+00  0.00000000000E+00  0.99999998245E-14  0.12500000000E+03  0.12500000000E+03 0.  0.
        -13    1    3    3    0    0  0.30590982098E+02  0.15145816761E+02 -0.69773269890E+01  0.34841041992E+02  0.10566000000E+00 0.  1.
         23    2    1    0    0    0 -0.25731163599E+02 -0.41103003487E+01  0.10545255489E+02  0.96889685835E+02  0.92722281350E+02 0.  0.
         13    1    3    3    0    0 -0.56322145698E+02 -0.19256117110E+02  0.17522582478E+02  0.62048643844E+02  0.10566000000E+00 0. -1.
         22    1    1    0    0    0  0.25731163599E+02  0.41103003487E+01 -0.10545255489E+02  0.28110314165E+02  0.00000000000E+00 0. -1.
</event>
<event>
 5    1  0.1758480E-003  0.9118800E+02  0.7818608E-02  0.1130116E+00
         25   -1    0    0    0    0  0.00000000000E+00  0.00000000000E+00  0.99999998245E-14  0.12500000000E+03  0.12500000000E+03 0.  0.
        -13    1    3    3    0    0  0.27452681000E+02 -0.25936508337E+02 -0.86206524729E+01  0.38738597960E+02  0.10566000000E+00 0. -1.
         23    2    1    0    0    0  0.98133786222E+01  0.27025065798E+02  0.40057093702E+01  0.95970665027E+02  0.91474948794E+02 0.  0.
         13    1    3    3    0    0 -0.17639302378E+02  0.52961574136E+02  0.12626361843E+02  0.57232067067E+02  0.10566000000E+00 0.  1.
         22    1    1    0    0    0 -0.98133786222E+01 -0.27025065798E+02 -0.40057093702E+01  0.29029334973E+02  0.00000000000E+00 0.  1.
</event>
<event>
 5    1  0.1758480E-003  0.9118800E+02  0.7818608E-02  0.1130116E+00
         25   -1    0    0    0    0  0.00000000000E+00  0.00000000000E+00  0.99999998245E-14  0.12500000000E+03  0.12500000000E+03 0.  0.
        -13    1    3    3    0    0  0.48083362560E+01 -0.32252095431E+02 -0.50250541268E+02  0.59903637778E+02  0.10566000000E+00 0.  1.
         23    2    1    0    0    0  0.33036143440E+01 -0.28806661833E+01 -0.27676740771E+02  0.96978328296E+02  0.92841704390E+02 0.  0.
         13    1    3    3    0    0 -0.15047219119E+01  0.29371429248E+02  0.22573800497E+02  0.37074690518E+02  0.10566000000E+00 0. -1.
         22    1    1    0    0    0 -0.33036143440E+01  0.28806661833E+01  0.27676740771E+02  0.28021671704E+02  0.00000000000E+00 0.  1.
</event>
<event>
 5    1  0.1758480E-003  0.9118800E+02  0.7818608E-02  0.1130116E+00
         25   -1    0    0    0    0  0.00000000000E+00  0.00000000000E+00  0.99999998245E-14  0.12500000000E+03  0.12500000000E+03 0.  0.
        -13    1    3    3    0    0 -0.15868390565E+02 -0.28855614244E+02 -0.10813822920E+02  0.34661249584E+02  0.10566000000E+00 0.  1.
         23    2    1    0    0    0  0.93403532745E+01  0.26890758932E+02 -0.47097297724E+01  0.96146288458E+02  0.91714623232E+02 0.  0.
         13    1    3    3    0    0  0.25208743840E+02  0.55746373175E+02  0.61040931476E+01  0.61485038874E+02  0.10566000000E+00 0. -1.
         22    1    1    0    0    0 -0.93403532745E+01 -0.26890758932E+02  0.47097297724E+01  0.28853711542E+02  0.00000000000E+00 0. -1.
</event>
<event>
 5    1  0.1758480E-003  0.9118800E+02  0.7818608E-02  0.1130116E+00
         25   -1    0    0    0    0  0.00000000000E+00  0.00000000000E+00  0.99999998245E-14  0.12500000000E+03  0.12500000000E+03 0.  0.
        -13    1    3    3    0    0  0.23055935209E+02  0.57635698681E+02  0.23738360369E+01  0.62121624032E+02  0.10566000000E+00 0. -1.
         23    2    1    0    0    0  0.14048711388E+02  0.27731561104E+02 -0.28332051402E+01  0.93784093408E+02  0.88436549865E+02 0.  0.
         13    1    3    3    0    0 -0.90072238209E+01 -0.29904137576E+02 -0.52070411771E+01  0.31662469376E+02  0.10566000000E+00 0.  1.
         22    1    1    0    0    0 -0.14048711388E+02 -0.27731561104E+02  0.28332051402E+01  0.31215906592E+02  0.00000000000E+00 0. -1.
</event>
<event>
 5    1  0.1758480E-003  0.9118800E+02  0.7818608E-02  0.1130116E+00
         25   -1    0    0    0    0  0.00000000000E+00  0.00000000000E+00  0.99999998245E-14  0.12500000000E+03  0.12500000000E+03 0.  0.
        -13    1    3    3    0    0  0.19932609663E+02 -0.14186925426E+02  0.43807177975E+02  0.50176267171E+02  0.10566000000E+00 0.  1.
         23    2    1    0    0    0  0.69135771233E+00  0.20104185988E+02  0.22196771527E+02  0.95044150222E+02  0.90199986449E+02 0.  0.
         13    1    3    3    0    0 -0.19241251951E+02  0.34291111414E+02 -0.21610406447E+02  0.44867883051E+02  0.10566000000E+00 0. -1.
         22    1    1    0    0    0 -0.69135771233E+00 -0.20104185988E+02 -0.22196771527E+02  0.29955849778E+02  0.00000000000E+00 0.  1.
</event>
<event>
 5    1  0.1758480E-003  0.9118800E+02  0.7818608E-02  0.1130116E+00
         25   -1    0    0    0    0  0.00000000000E+00  0.00000000000E+00  0.99999998245E-14  0.12500000000E+03  0.12500000000E+03 0.  0.
        -13    1    3    3    0    0  0.28329559076E+02 -0.16445787657E+02 -0.10106468614E+02  0.34280894401E+02  0.10566000000E+00 0.  1.
         23    2    1    0    0    0  0.27536182756E+01  0.98737897545E+01  0.32738070087E+02  0.90694674309E+02  0.83956349237E+02 0.  0.
         13    1    3    3    0    0 -0.25575940800E+02  0.26319577412E+02  0.42844538701E+02  0.56413779908E+02  0.10566000000E+00 0. -1.
         22    1    1    0    0    0 -0.27536182756E+01 -0.98737897545E+01 -0.32738070087E+02  0.34305325691E+02  0.00000000000E+00 0. -1.
</event>
<event>
 5    1  0.1758480E-003  0.9118800E+02  0.7818608E-02  0.1130116E+00
         25   -1    0    0    0    0  0.00000000000E+00  0.00000000000E+00  0.99999998245E-14  0.12500000000E+03  0.12500000000E+03 0.  0.
        -13    1    3    3    0    0 -0.53090791087E+01 -0.28805118053E+02 -0.53798309780E+02  0.61255125877E+02  0.10566000000E+00 0.  1.
         23    2    1    0    0    0 -0.10167874748E+02 -0.95131695825E+01 -0.26881832884E+02  0.94725935000E+02  0.89757917478E+02 0.  0.
         13    1    3    3    0    0 -0.48587956397E+01  0.19291948470E+02  0.26916476896E+02  0.33470809123E+02  0.10566000000E+00 0. -1.
         22    1    1    0    0    0  0.10167874748E+02  0.95131695825E+01  0.26881832884E+02  0.30274065000E+02  0.00000000000E+00 0.  1.
</event>
<event>
 5    1  0.1758480E-003  0.9118800E+02  0.7818608E-02  0.1130116E+00
         25   -1    0    0    0    0  0.00000000000E+00  0.00000000000E+00  0.99999998245E-14  0.12500000000E+03  0.12500000000E+03 0.  0.
        -13    1    3    3    0    0  0.25718682600E+02  0.52838054886E+01  0.17296521066E+02  0.31441215628E+02  0.10566000000E+00 0. -1.
         23    2    1    0    0    0 -0.18581639127E+02 -0.14098633530E+02 -0.21378320422E+02  0.93360130150E+02  0.87835257941E+02 0.  0.
         13    1    3    3    0    0 -0.44300321727E+02 -0.19382439018E+02 -0.38674841488E+02  0.61918914522E+02  0.10566000000E+00 0.  1.
         22    1    1    0    0    0  0.18581639127E+02  0.14098633530E+02  0.21378320422E+02  0.31639869850E+02  0.00000000000E+00 0.  1.
</event>
<event>
 5    1  0.1758480E-003  0.9118800E+02  0.7818608E-02  0.1130116E+00
         25   -1    0    0    0    0  0.00000000000E+00  0.00000000000E+00  0.99999998245E-14  0.12500000000E+03  0.12500000000E+03 0.  0.
        -13    1    3    3    0    0 -0.38052266481E+02  0.79125891590E+00  0.37295976724E+02  0.53287917194E+02  0.10566000000E+00 0.  1.
         23    2    1    0    0    0  0.80651158846E+00 -0.13961924630E+02  0.24519469577E+02  0.96772527767E+02  0.92564204431E+02 0.  0.
         13    1    3    3    0    0  0.38858778070E+02 -0.14753183546E+02 -0.12776507147E+02  0.43484610573E+02  0.10566000000E+00 0. -1.
         22    1    1    0    0    0 -0.80651158846E+00  0.13961924630E+02 -0.24519469577E+02  0.28227472233E+02  0.00000000000E+00 0.  1.
</event>
<event>
 5    1  0.1758480E-003  0.9118800E+02  0.7818608E-02  0.1130116E+00
         25   -1    0    0    0    0  0.00000000000E+00  0.00000000000E+00  0.99999998245E-14  0.12500000000E+03  0.12500000000E+03 0.  0.
        -13    1    3    3    0    0 -0.30403794561E+02 -0.48519391981E+02 -0.18671722827E+02  0.60225962170E+02  0.10566000000E+00 0. -1.
         23    2    1    0    0    0 -0.22276552660E+02 -0.22607797042E+02  0.13856366613E+00  0.93260805218E+02  0.87693792851E+02 0.  0.
         13    1    3    3    0    0  0.81272419017E+01  0.25911594939E+02  0.18810286493E+02  0.33034843048E+02  0.10566000000E+00 0.  1.
         22    1    1    0    0    0  0.22276552660E+02  0.22607797042E+02 -0.13856366613E+00  0.31739194782E+02  0.00000000000E+00 0. -1.
</event>
<event>
 4    1  0.1758480E-003  0.9118800E+02  0.7818608E-02  0.1130116E+00
         25   -1    0    0    0    0  0.00000000000E+00  0.00000000000E+00  0.99999998245E-14  0.12500000000E+03  0.12500000000E+03 0.  0.
        -13    1    1    0    0    0  0.31419338884E+02  0.44898457362E+02 -0.10515878156E+02  0.55800010635E+02  0.10566000000E+00 0.  1.
         13    1    1    0    0    0  0.57102967329E+01 -0.90866696894E+01  0.13832329002E+02  0.17507699577E+02  0.10566000000E+00 0. -1.
         22    1    1    0    0    0 -0.37129635617E+02 -0.35811787673E+02 -0.33164508464E+01  0.51692289788E+02  0.00000000000E+00 0.  1.
</event>
<event>
 5    1  0.1758480E-003  0.9118800E+02  0.7818608E-02  0.1130116E+00
         25   -1    0    0    0    0  0.00000000000E+00  0.00000000000E+00  0.99999998245E-14  0.12500000000E+03  0.12500000000E+03 0.  0.
        -13    1    3    3    0    0 -0.33481632151E+02 -0.23714000836E+02  0.29886952857E+02  0.50760364875E+02  0.10566000000E+00 0.  1.
         23    2    1    0    0    0 -0.84512516684E+01  0.13994814277E+02  0.23357983306E+02  0.96489057091E+02  0.92180606815E+02 0.  0.
         13    1    3    3    0    0  0.25030380483E+02  0.37708815113E+02 -0.65289695511E+01  0.45728692216E+02  0.10566000000E+00 0. -1.
         22    1    1    0    0    0  0.84512516684E+01 -0.13994814277E+02 -0.23357983306E+02  0.28510942909E+02  0.00000000000E+00 0.  1.
</event>
<event>
 5    1  0.1758480E-003  0.9118800E+02  0.7818608E-02  0.1130116E+00
         25   -1    0    0    0    0  0.00000000000E+00  0.00000000000E+00  0.99999998245E-14  0.12500000000E+03  0.12500000000E+03 0.  0.
        -13    1    3    3    0    0  0.52330829868E+02 -0.22442715107E+02  0.61949272504E+01  0.57276343317E+02  0.10566000000E+00 0.  1.
         23    2    1    0    0    0  0.15330634383E+02 -0.24135041414E+02 -0.50074460193E+01  0.95972373671E+02  0.91477283616E+02 0.  0.
         13    1    3    3    0    0 -0.37000195486E+02 -0.16923263074E+01 -0.11202373270E+02  0.38696030355E+02  0.10566000000E+00 0. -1.
         22    1    1    0    0    0 -0.15330634383E+02  0.24135041414E+02  0.50074460193E+01  0.29027626329E+02  0.00000000000E+00 0.  1.
</event>
<event>
 5    1  0.1758480E-003  0.9118800E+02  0.7818608E-02  0.1130116E+00
         25   -1    0    0    0    0  0.00000000000E+00  0.00000000000E+00  0.99999998245E-14  0.12500000000E+03  0.12500000000E+03 0.  0.
        -13    1    3    3    0    0 -0.57777038310E+02  0.60706935169E+01 -0.11818309109E+02  0.59285099898E+02  0.10566000000E+00 0.  1.
         23    2    1    0    0    0 -0.23226129343E+02  0.74449259610E+01 -0.18353623516E+02  0.94475657207E+02  0.89408692540E+02 0.  0.
         13    1    3    3    0    0  0.34550908967E+02  0.13742324441E+01 -0.65353144066E+01  0.35190557309E+02  0.10566000000E+00 0. -1.
         22    1    1    0    0    0  0.23226129343E+02 -0.74449259610E+01  0.18353623516E+02  0.30524342793E+02  0.00000000000E+00 0.  1.
</event>
<event>
 5    1  0.1758480E-003  0.9118800E+02  0.7818608E-02  0.1130116E+00
         25   -1    0    0    0    0  0.00000000000E+00  0.00000000000E+00  0.99999998245E-14  0.12500000000E+03  0.12500000000E+03 0.  0.
        -13    1    3    3    0    0  0.82255562834E+01 -0.53313065143E+02  0.23966342029E+02  0.59028293262E+02  0.10566000000E+00 0.  1.
         23    2    1    0    0    0 -0.77326199503E+01 -0.20050548842E+02  0.19115599583E+02  0.96238496778E+02  0.91840210118E+02 0.  0.
         13    1    3    3    0    0 -0.15958176234E+02  0.33262516301E+02 -0.48507424464E+01  0.37210203516E+02  0.10566000000E+00 0. -1.
         22    1    1    0    0    0  0.77326199503E+01  0.20050548842E+02 -0.19115599583E+02  0.28761503222E+02  0.00000000000E+00 0.  1.
</event>
<event>
 5    1  0.1758480E-003  0.9118800E+02  0.7818608E-02  0.1130116E+00
         25   -1    0    0    0    0  0.00000000000E+00  0.00000000000E+00  0.99999998245E-14  0.12500000000E+03  0.12500000000E+03 0.  0.
        -13    1    3    3    0    0 -0.34968065562E+01 -0.36938217871E+02  0.29187986704E+02  0.47208148952E+02  0.10566000000E+00 0. -1.
         23    2    1    0    0    0 -0.12660730659E+02 -0.20953232564E+02 -0.15826996831E+02  0.95848226737E+02  0.91307484273E+02 0.  0.
         13    1    3    3    0    0 -0.91639241025E+01  0.15984985307E+02 -0.45014983536E+02  0.48640077785E+02  0.10566000000E+00 0.  1.
         22    1    1    0    0    0  0.12660730659E+02  0.20953232564E+02  0.15826996831E+02  0.29151773263E+02  0.00000000000E+00 0. -1.
</event>
<event>
 5    1  0.1758480E-003  0.9118800E+02  0.7818608E-02  0.1130116E+00
         25   -1    0    0    0    0  0.00000000000E+00  0.00000000000E+00  0.99999998245E-14  0.12500000000E+03  0.12500000000E+03 0.  0.
        -13    1    3    3    0    0  0.47472637353E+02 -0.86180543028E+01 -0.73063133097E+01  0.48798724732E+02  0.10566000000E+00 0.  1.
         23    2    1    0    0    0  0.25339109887E+02  0.22279830105E+02  0.88806924244E+01  0.90109771894E+02  0.83080942300E+02 0.  0.
         13    1    3    3    0    0 -0.22133527466E+02  0.30897884407E+02  0.16187005734E+02  0.41311047162E+02  0.10566000000E+00 0. -1.
         22    1    1    0    0    0 -0.25339109887E+02 -0.22279830105E+02 -0.88806924244E+01  0.34890228106E+02  0.00000000000E+00 0.  1.
</event>
<event>
 5    1  0.1758480E-003  0.9118800E+02  0.7818608E-02  0.1130116E+00
         25   -1    0    0    0    0  0.00000000000E+00  0.00000000000E+00  0.99999998245E-14  0.12500000000E+03  0.12500000000E+03 0.  0.
        -13    1    3    3    0    0 -0.24831878715E+02  0.16313855956E+02 -0.12876261940E+02  0.32381682820E+02  0.10566000000E+00 0.  1.
         23    2    1    0    0    0  0.23199442019E+02 -0.12674287679E+02  0.14546418180E+02  0.94826336649E+02  0.89897631572E+02 0.  0.
         13    1    3    3    0    0  0.48031320734E+02 -0.28988143634E+02  0.27422680120E+02  0.62444653829E+02  0.10566000000E+00 0. -1.
         22    1    1    0    0    0 -0.23199442019E+02  0.12674287679E+02 -0.14546418180E+02  0.30173663351E+02  0.00000000000E+00 0. -1.
</event>
<event>
 5    1  0.1758480E-003  0.9118800E+02  0.7818608E-02  0.1130116E+00
         25   -1    0    0    0    0  0.00000000000E+00  0.00000000000E+00  0.99999998245E-14  0.12500000000E+03  0.12500000000E+03 0.  0.
        -13    1    3    3    0    0  0.49742261709E+02 -0.23410846095E+01 -0.34826916986E+02  0.60767578427E+02  0.10566000000E+00 0.  1.
         23    2    1    0    0    0  0.22839687487E+02 -0.11400404788E+02 -0.15015771395E+02  0.95384228114E+02  0.90670044825E+02 0.  0.
         13    1    3    3    0    0 -0.26902574222E+02 -0.90593201785E+01  0.19811145592E+02  0.34616649687E+02  0.10566000000E+00 0. -1.
         22    1    1    0    0    0 -0.22839687487E+02  0.11400404788E+02  0.15015771395E+02  0.29615771886E+02  0.00000000000E+00 0.  1.
</event>
<event>
 5    1  0.1758480E-003  0.9118800E+02  0.7818608E-02  0.1130116E+00
         25   -1    0    0    0    0  0.00000000000E+00  0.00000000000E+00  0.99999998245E-14  0.12500000000E+03  0.12500000000E+03 0.  0.
        -13    1    3    3    0    0  0.22556698798E+02 -0.48252101202E+01  0.55452988911E+02  0.60059407727E+02  0.10566000000E+00 0.  1.
         23    2    1    0    0    0  0.49686614438E+01 -0.13269568844E+02  0.26029975139E+02  0.95363389877E+02  0.90641312155E+02 0.  0.
         13    1    3    3    0    0 -0.17588037354E+02 -0.84443587238E+01 -0.29423013771E+02  0.35303982150E+02  0.10566000000E+00 0. -1.
         22    1    1    0    0    0 -0.49686614438E+01  0.13269568844E+02 -0.26029975139E+02  0.29636610123E+02  0.00000000000E+00 0.  1.
</event>
<event>
 5    1  0.1758480E-003  0.9118800E+02  0.7818608E-02  0.1130116E+00
         25   -1    0    0    0    0  0.00000000000E+00  0.00000000000E+00  0.99999998245E-14  0.12500000000E+03  0.12500000000E+03 0.  0.
        -13    1    3    3    0    0  0.15450036544E+02 -0.49238593418E+02 -0.20531879145E+02  0.55540183077E+02  0.10566000000E+00 0.  1.
         23    2    1    0    0    0  0.26028276203E+02 -0.15849460239E+02 -0.40210083506E+01  0.94261667903E+02  0.89109017364E+02 0.  0.
         13    1    3    3    0    0  0.10578239659E+02  0.33389133178E+02  0.16510870794E+02  0.38721484826E+02  0.10566000000E+00 0. -1.
         22    1    1    0    0    0 -0.26028276203E+02  0.15849460239E+02  0.40210083506E+01  0.30738332097E+02  0.00000000000E+00 0.  1.
</event>
<event>
 5    1  0.1758480E-003  0.9118800E+02  0.7818608E-02  0.1130116E+00
         25   -1    0    0    0    0  0.00000000000E+00  0.00000000000E+00  0.99999998245E-14  0.12500000000E+03  0.12500000000E+03 0.  0.
        -13    1    3    3    0    0 -0.32151642935E+02  0.11757436569E+02  0.41940461585E+02  0.54138516235E+02  0.10566000000E+00 0. -1.
         23    2    1    0    0    0 -0.19865127294E+02  0.21698306220E+02  0.39092293682E+01  0.95323041775E+02  0.90585652527E+02 0.  0.
         13    1    3    3    0    0  0.12286515641E+02  0.99408696512E+01 -0.38031232217E+02  0.41184525541E+02  0.10566000000E+00 0.  1.
         22    1    1    0    0    0  0.19865127294E+02 -0.21698306220E+02 -0.39092293682E+01  0.29676958225E+02  0.00000000000E+00 0. -1.
</event>
<event>
 5    1  0.1758480E-003  0.9118800E+02  0.7818608E-02  0.1130116E+00
         25   -1    0    0    0    0  0.00000000000E+00  0.00000000000E+00  0.99999998245E-14  0.12500000000E+03  0.12500000000E+03 0.  0.
        -13    1    3    3    0    0  0.65408209441E+01  0.13523652738E+02 -0.29370225196E+02  0.32989283322E+02  0.10566000000E+00 0.  1.
         23    2    1    0    0    0  0.86589425536E+00  0.90910952188E+00  0.30518980780E+02  0.94455205995E+02  0.89380095652E+02 0.  0.
         13    1    3    3    0    0 -0.56749266887E+01 -0.12614543217E+02  0.59889205976E+02  0.61465922672E+02  0.10566000000E+00 0. -1.
         22    1    1    0    0    0 -0.86589425536E+00 -0.90910952188E+00 -0.30518980780E+02  0.30544794005E+02  0.00000000000E+00 0. -1.
</event>
<event>
 5    1  0.1758480E-003  0.9118800E+02  0.7818608E-02  0.1130116E+00
         25   -1    0    0    0    0  0.00000000000E+00  0.00000000000E+00  0.99999998245E-14  0.12500000000E+03  0.12500000000E+03 0.  0.
        -13    1    3    3    0    0  0.27270454576E+01 -0.59018111996E+02 -0.17682815695E+02  0.61670636898E+02  0.10566000000E+00 0. -1.
         23    2    1    0    0    0 -0.59089828031E+01 -0.27374788162E+02 -0.77596354376E+01  0.95939596582E+02  0.91432484082E+02 0.  0.
         13    1    3    3    0    0 -0.86360282607E+01  0.31643323833E+02  0.99231802576E+01  0.34268959684E+02  0.10566000000E+00 0.  1.
         22    1    1    0    0    0  0.59089828031E+01  0.27374788162E+02  0.77596354376E+01  0.29060403418E+02  0.00000000000E+00 0. -1.
</event>
<event>
 5    1  0.1758480E-003  0.9118800E+02  0.7818608E-02  0.1130116E+00
         25   -1    0    0    0    0  0.00000000000E+00  0.00000000000E+00  0.99999998245E-14  0.12500000000E+03  0.12500000000E+03 0.  0.
        -13    1    3    3    0    0 -0.40085619103E+02  0.21962446642E+02  0.32221913751E+02  0.55923776796E+02  0.10566000000E+00 0. -1.
         23    2    1    0    0    0 -0.27419483473E+02 -0.70104315506E+01  0.85123895929E+01  0.95446066234E+02  0.90755256368E+02 0.  0.
         13    1    3    3    0    0  0.12666135630E+02 -0.28972878192E+02 -0.23709524158E+02  0.39522289438E+02  0.10566000000E+00 0.  1.
         22    1    1    0    0    0  0.27419483473E+02  0.70104315506E+01 -0.85123895929E+01  0.29553933766E+02  0.00000000000E+00 0. -1.
</event>
<event>
 5    1  0.1758480E-003  0.9118800E+02  0.7818608E-02  0.1130116E+00
         25   -1    0    0    0    0  0.00000000000E+00  0.00000000000E+00  0.99999998245E-14  0.12500000000E+03  0.12500000000E+03 0.  0.
        -13    1    3    3    0    0 -0.39859606891E+01 -0.34232277759E+02 -0.20970256830E+02  0.40342280039E+02  0.10566000000E+00 0.  1.
         23    2    1    0    0    0  0.19345162271E+02  0.16024934829E+02 -0.14147793958E+02  0.96169566194E+02  0.91746343515E+02 0.  0.
         13    1    3    3    0    0  0.23331122960E+02  0.50257212588E+02  0.68224628714E+01  0.55827286155E+02  0.10566000000E+00 0. -1.
         22    1    1    0    0    0 -0.19345162271E+02 -0.16024934829E+02  0.14147793958E+02  0.28830433806E+02  0.00000000000E+00 0. -1.
</event>
<event>
 5    1  0.1758480E-003  0.9118800E+02  0.7818608E-02  0.1130116E+00
         25   -1    0    0    0    0  0.00000000000E+00  0.00000000000E+00  0.99999998245E-14  0.12500000000E+03  0.12500000000E+03 0.  0.
        -13    1    3    3    0    0  0.13230838669E+02 -0.61055309833E+01  0.10890342526E+02  0.18191847758E+02  0.10566000000E+00 0.  1.
         23    2    1    0    0    0 -0.46158220409E+02 -0.61769987571E+01  0.87217325428E+01  0.77620624281E+02  0.61482973825E+02 0.  0.
         13    1    3    3    0    0 -0.59389059078E+02 -0.71467773729E-01 -0.21686099830E+01  0.59428776524E+02  0.10566000000E+00 0. -1.
         22    1    1    0    0    0  0.46158220409E+02  0.61769987571E+01 -0.87217325428E+01  0.47379375719E+02  0.00000000000E+00 0. -1.
</event>
<event>
 5    1  0.1758480E-003  0.9118800E+02  0.7818608E-02  0.1130116E+00
         25   -1    0    0    0    0  0.00000000000E+00  0.00000000000E+00  0.99999998245E-14  0.12500000000E+03  0.12500000000E+03 0.  0.
        -13    1    3    3    0    0  0.14890815444E+02  0.45548317598E+01 -0.33926781389E+02  0.37329887977E+02  0.10566000000E+00 0.  1.
         23    2    1    0    0    0  0.11220621693E+02 -0.10915585993E+02  0.23414359028E+02  0.96834691952E+02  0.92648113785E+02 0.  0.
         13    1    3    3    0    0 -0.36701937513E+01 -0.15470417753E+02  0.57341140418E+02  0.59504803974E+02  0.10566000000E+00 0. -1.
         22    1    1    0    0    0 -0.11220621693E+02  0.10915585993E+02 -0.23414359028E+02  0.28165308048E+02  0.00000000000E+00 0. -1.
</event>
<event>
 5    1  0.1758480E-003  0.9118800E+02  0.7818608E-02  0.1130116E+00
         25   -1    0    0    0    0  0.00000000000E+00  0.00000000000E+00  0.99999998245E-14  0.12500000000E+03  0.12500000000E+03 0.  0.
        -13    1    3    3    0    0  0.20471068549E+02 -0.32666986384E+02 -0.35827136926E+02  0.52628809138E+02  0.10566000000E+00 0. -1.
         23    2    1    0    0    0  0.18869166685E+02 -0.10417651674E+02  0.81633326600E+01  0.10195194329E+03  0.99312566292E+02 0.  0.
         13    1    3    3    0    0 -0.16019018638E+01  0.22249334710E+02  0.43990469586E+02  0.49323134156E+02  0.10566000000E+00 0.  1.
         22    1    1    0    0    0 -0.18869166685E+02  0.10417651674E+02 -0.81633326600E+01  0.23048056706E+02  0.00000000000E+00 0.  1.
</event>
<event>
 5    1  0.1758480E-003  0.9118800E+02  0.7818608E-02  0.1130116E+00
         25   -1    0    0    0    0  0.00000000000E+00  0.00000000000E+00  0.99999998245E-14  0.12500000000E+03  0.12500000000E+03 0.  0.
        -13    1    3    3    0    0  0.30262707228E+02  0.36983705951E+02 -0.12770526459E+02  0.49464365605E+02  0.10566000000E+00 0.  1.
         23    2    1    0    0    0 -0.17063234304E+01  0.22093700809E+02  0.18141963116E+02  0.96361320198E+02  0.92007228246E+02 0.  0.
         13    1    3    3    0    0 -0.31969030659E+02 -0.14890005142E+02  0.30912489574E+02  0.46896954593E+02  0.10566000000E+00 0. -1.
         22    1    1    0    0    0  0.17063234304E+01 -0.22093700809E+02 -0.18141963116E+02  0.28638679802E+02  0.00000000000E+00 0. -1.
</event>
<event>
 5    1  0.1758480E-003  0.9118800E+02  0.7818608E-02  0.1130116E+00
         25   -1    0    0    0    0  0.00000000000E+00  0.00000000000E+00  0.99999998245E-14  0.12500000000E+03  0.12500000000E+03 0.  0.
        -13    1    3    3    0    0 -0.40555086767E+02  0.32887550311E+01  0.14783483326E+02  0.43290801744E+02  0.10566000000E+00 0.  1.
         23    2    1    0    0    0  0.12670912775E+02  0.20586898713E+02  0.72527310973E+01  0.99761645506E+02  0.96516378799E+02 0.  0.
         13    1    3    3    0    0  0.53225999542E+02  0.17298143682E+02 -0.75307522290E+01  0.56470843763E+02  0.10566000000E+00 0. -1.
         22    1    1    0    0    0 -0.12670912775E+02 -0.20586898713E+02 -0.72527310973E+01  0.25238354494E+02  0.00000000000E+00 0. -1.
</event>
<event>
 5    1  0.1758480E-003  0.9118800E+02  0.7818608E-02  0.1130116E+00
         25   -1    0    0    0    0  0.00000000000E+00  0.00000000000E+00  0.99999998245E-14  0.12500000000E+03  0.12500000000E+03 0.  0.
        -13    1    3    3    0    0  0.87424524548E+01 -0.42815550648E+02  0.41603494125E+02  0.60336255599E+02  0.10566000000E+00 0.  1.
         23    2    1    0    0    0  0.85329908706E+01 -0.25208462586E+02  0.98939748218E+01  0.96606880113E+02  0.92340240569E+02 0.  0.
         13    1    3    3    0    0 -0.20946158417E+00  0.17607088062E+02 -0.31709519304E+02  0.36270624515E+02  0.10566000000E+00 0. -1.
         22    1    1    0    0    0 -0.85329908706E+01  0.25208462586E+02 -0.98939748218E+01  0.28393119887E+02  0.00000000000E+00 0.  1.
</event>
<event>
 5    1  0.1758480E-003  0.9118800E+02  0.7818608E-02  0.1130116E+00
         25   -1    0    0    0    0  0.00000000000E+00  0.00000000000E+00  0.99999998245E-14  0.12500000000E+03  0.12500000000E+03 0.  0.
        -13    1    3    3    0    0 -0.16813579733E+02 -0.10303303390E+02  0.31260448682E+02  0.36960537604E+02  0.10566000000E+00 0.  1.
         23    2    1    0    0    0  0.25541734902E+02 -0.22368602952E+02  0.27767486389E+02  0.81139221163E+02  0.68262766503E+02 0.  0.
         13    1    3    3    0    0  0.42355314635E+02 -0.12065299562E+02 -0.34929622926E+01  0.44178683558E+02  0.10566000000E+00 0. -1.
         22    1    1    0    0    0 -0.25541734902E+02  0.22368602952E+02 -0.27767486389E+02  0.43860778837E+02  0.00000000000E+00 0.  1.
</event>
<event>
 5    1  0.1758480E-003  0.9118800E+02  0.7818608E-02  0.1130116E+00
         25   -1    0    0    0    0  0.00000000000E+00  0.00000000000E+00  0.99999998245E-14  0.12500000000E+03  0.12500000000E+03 0.  0.
        -13    1    3    3    0    0 -0.52291694389E+02  0.49299620739E+01 -0.17270437173E+02  0.55290188934E+02  0.10566000000E+00 0.  1.
         23    2    1    0    0    0 -0.19014753806E+02  0.22613372142E+02 -0.43014710079E+01  0.95143206556E+02  0.90337155363E+02 0.  0.
         13    1    3    3    0    0  0.33276940583E+02  0.17683410068E+02  0.12968966165E+02  0.39853017623E+02  0.10566000000E+00 0. -1.
         22    1    1    0    0    0  0.19014753806E+02 -0.22613372142E+02  0.43014710079E+01  0.29856793444E+02  0.00000000000E+00 0.  1.
</event>
<event>
 5    1  0.1758480E-003  0.9118800E+02  0.7818608E-02  0.1130116E+00
         25   -1    0    0    0    0  0.00000000000E+00  0.00000000000E+00  0.99999998245E-14  0.12500000000E+03  0.12500000000E+03 0.  0.
        -13    1    3    3    0    0 -0.31358767518E+02 -0.52586760475E+01 -0.13213969277E+02  0.34433212486E+02  0.10566000000E+00 0.  1.
         23    2    1    0    0    0  0.14516034927E+02  0.16235143818E+02  0.20342000923E+02  0.95199124739E+02  0.90414496541E+02 0.  0.
         13    1    3    3    0    0  0.45874802445E+02  0.21493819865E+02  0.33555970200E+02  0.60765912253E+02  0.10566000000E+00 0. -1.
         22    1    1    0    0    0 -0.14516034927E+02 -0.16235143818E+02 -0.20342000923E+02  0.29800875261E+02  0.00000000000E+00 0. -1.
</event>
<event>
 5    1  0.1758480E-003  0.9118800E+02  0.7818608E-02  0.1130116E+00
         25   -1    0    0    0    0  0.00000000000E+00  0.00000000000E+00  0.99999998245E-14  0.12500000000E+03  0.12500000000E+03 0.  0.
        -13    1    3    3    0    0  0.53121976364E+02 -0.75060758485E+01  0.29390658195E+02  0.61172767639E+02  0.10566000000E+00 0.  1.
         23    2    1    0    0    0  0.26309367286E+02  0.54449502934E+01  0.14652127048E+02  0.94397465502E+02  0.89299307811E+02 0.  0.
         13    1    3    3    0    0 -0.26812609078E+02  0.12951026142E+02 -0.14738531147E+02  0.33224697863E+02  0.10566000000E+00 0. -1.
         22    1    1    0    0    0 -0.26309367286E+02 -0.54449502934E+01 -0.14652127048E+02  0.30602534498E+02  0.00000000000E+00 0.  1.
</event>
<event>
 5    1  0.1758480E-003  0.9118800E+02  0.7818608E-02  0.1130116E+00
         25   -1    0    0    0    0  0.00000000000E+00  0.00000000000E+00  0.99999998245E-14  0.12500000000E+03  0.12500000000E+03 0.  0.
        -13    1    3    3    0    0 -0.14563569155E+01 -0.60867505536E+02  0.11552337864E+02  0.61971298839E+02  0.10566000000E+00 0. -1.
         23    2    1    0    0    0  0.48803688834E+01 -0.28819341526E+02  0.40427500744E+01  0.95492098100E+02  0.90818635339E+02 0.  0.
         13    1    3    3    0    0  0.63367257989E+01  0.32048164010E+02 -0.75095877899E+01  0.33520799261E+02  0.10566000000E+00 0.  1.
         22    1    1    0    0    0 -0.48803688834E+01  0.28819341526E+02 -0.40427500744E+01  0.29507901900E+02  0.00000000000E+00 0. -1.
</event>
<event>
 5    1  0.1758480E-003  0.9118800E+02  0.7818608E-02  0.1130116E+00
         25   -1    0    0    0    0  0.00000000000E+00  0.00000000000E+00  0.99999998245E-14  0.12500000000E+03  0.12500000000E+03 0.  0.
        -13    1    3    3    0    0 -0.20098913876E+02 -0.31285305776E+02 -0.15052469747E+02  0.40116389494E+02  0.10566000000E+00 0. -1.
         23    2    1    0    0    0  0.28320321825E+02 -0.17084113869E+02 -0.64177251279E+01  0.91308832452E+02  0.84865824176E+02 0.  0.
         13    1    3    3    0    0  0.48419235700E+02  0.14201191908E+02  0.86347446188E+01  0.51192442959E+02  0.10566000000E+00 0.  1.
         22    1    1    0    0    0 -0.28320321825E+02  0.17084113869E+02  0.64177251279E+01  0.33691167548E+02  0.00000000000E+00 0.  1.
</event>
<event>
 5    1  0.1758480E-003  0.9118800E+02  0.7818608E-02  0.1130116E+00
         25   -1    0    0    0    0  0.00000000000E+00  0.00000000000E+00  0.99999998245E-14  0.12500000000E+03  0.12500000000E+03 0.  0.
        -13    1    3    3    0    0 -0.11855172782E+02  0.59603033576E+02 -0.71591511370E+01  0.61190941668E+02  0.10566000000E+00 0.  1.
         23    2    1    0    0    0 -0.12124797766E+02  0.49193269320E+02  0.84838069091E+00  0.74327441183E+02  0.54377019924E+02 0.  0.
         13    1    3    3    0    0 -0.26962498341E+00 -0.10409764256E+02  0.80075318279E+01  0.13136499515E+02  0.10566000000E+00 0. -1.
         22    1    1    0    0    0  0.12124797766E+02 -0.49193269320E+02 -0.84838069091E+00  0.50672558817E+02  0.00000000000E+00 0.  1.
</event>
<event>
 5    1  0.1758480E-003  0.9118800E+02  0.7818608E-02  0.1130116E+00
         25   -1    0    0    0    0  0.00000000000E+00  0.00000000000E+00  0.99999998245E-14  0.12500000000E+03  0.12500000000E+03 0.  0.
        -13    1    3    3    0    0 -0.36634587483E+02  0.29788101898E+02  0.36751181678E+02  0.59833807613E+02  0.10566000000E+00 0.  1.
         23    2    1    0    0    0 -0.11585401143E+02  0.24144691845E+02  0.11474014192E+02  0.95865129731E+02  0.91330621550E+02 0.  0.
         13    1    3    3    0    0  0.25049186341E+02 -0.56434100524E+01 -0.25277167486E+02  0.36031322117E+02  0.10566000000E+00 0. -1.
         22    1    1    0    0    0  0.11585401143E+02 -0.24144691845E+02 -0.11474014192E+02  0.29134870269E+02  0.00000000000E+00 0.  1.
</event>
<event>
 5    1  0.1758480E-003  0.9118800E+02  0.7818608E-02  0.1130116E+00
         25   -1    0    0    0    0  0.00000000000E+00  0.00000000000E+00  0.99999998245E-14  0.12500000000E+03  0.12500000000E+03 0.  0.
        -13    1    3    3    0    0  0.33928607554E+02  0.29575817556E+01 -0.21670817573E+02  0.40367476992E+02  0.10566000000E+00 0.  1.
         23    2    1    0    0    0 -0.21470769989E+02  0.11812802383E+02 -0.13379626276E+02  0.97079565488E+02  0.92977907979E+02 0.  0.
         13    1    3    3    0    0 -0.55399377543E+02  0.88552206271E+01  0.82911912971E+01  0.56712088496E+02  0.10566000000E+00 0. -1.
         22    1    1    0    0    0  0.21470769989E+02 -0.11812802383E+02  0.13379626276E+02  0.27920434512E+02  0.00000000000E+00 0. -1.
</event>
<event>
 5    1  0.1758480E-003  0.9118800E+02  0.7818608E-02  0.1130116E+00
         25   -1    0    0    0    0  0.00000000000E+00  0.00000000000E+00  0.99999998245E-14  0.12500000000E+03  0.12500000000E+03 0.  0.
        -13    1    3    3    0    0 -0.22183237194E+02 -0.34418011709E+02  0.10599681669E+01  0.40961326138E+02  0.10566000000E+00 0.  1.
         23    2    1    0    0    0 -0.36012289848E+01  0.11412097137E+02  0.26022107114E+02  0.96358162246E+02  0.92002937788E+02 0.  0.
         13    1    3    3    0    0  0.18582008209E+02  0.45830108847E+02  0.24962138947E+02  0.55396836108E+02  0.10566000000E+00 0. -1.
         22    1    1    0    0    0  0.36012289848E+01 -0.11412097137E+02 -0.26022107114E+02  0.28641837754E+02  0.00000000000E+00 0. -1.
</event>
<event>
 5    1  0.1758480E-003  0.9118800E+02  0.7818608E-02  0.1130116E+00
         25   -1    0    0    0    0  0.00000000000E+00  0.00000000000E+00  0.99999998245E-14  0.12500000000E+03  0.12500000000E+03 0.  0.
        -13    1    3    3    0    0 -0.12113572036E+02  0.95583596404E+01  0.48267242250E+02  0.50673846361E+02  0.10566000000E+00 0.  1.
         23    2    1    0    0    0 -0.16616365980E+02 -0.19648108646E+02  0.14823087303E+02  0.95303607813E+02  0.90558831448E+02 0.  0.
         13    1    3    3    0    0 -0.45027939440E+01 -0.29206468286E+02 -0.33444154948E+02  0.44629761452E+02  0.10566000000E+00 0. -1.
         22    1    1    0    0    0  0.16616365980E+02  0.19648108646E+02 -0.14823087303E+02  0.29696392187E+02  0.00000000000E+00 0. -1.
</event>
<event>
 5    1  0.1758480E-003  0.9118800E+02  0.7818608E-02  0.1130116E+00
         25   -1    0    0    0    0  0.00000000000E+00  0.00000000000E+00  0.99999998245E-14  0.12500000000E+03  0.12500000000E+03 0.  0.
        -13    1    3    3    0    0 -0.48620069563E+02  0.92263289921E+01 -0.18745030100E+02  0.52919028983E+02  0.10566000000E+00 0. -1.
         23    2    1    0    0    0 -0.59350507033E+01  0.88739939961E+01 -0.26613774076E+02  0.96324826646E+02  0.91957635146E+02 0.  0.
         13    1    3    3    0    0  0.42685018860E+02 -0.35233499594E+00 -0.78687439762E+01  0.43405797664E+02  0.10566000000E+00 0.  1.
         22    1    1    0    0    0  0.59350507033E+01 -0.88739939961E+01  0.26613774076E+02  0.28675173354E+02  0.00000000000E+00 0. -1.
</event>
<event>
 5    1  0.1758480E-003  0.9118800E+02  0.7818608E-02  0.1130116E+00
         25   -1    0    0    0    0  0.00000000000E+00  0.00000000000E+00  0.99999998245E-14  0.12500000000E+03  0.12500000000E+03 0.  0.
        -13    1    3    3    0    0 -0.54527535434E+02 -0.11994051600E+02 -0.24163023357E+02  0.60835616674E+02  0.10566000000E+00 0. -1.
         23    2    1    0    0    0 -0.28735289157E+02  0.11682734293E+01 -0.43696441225E+01  0.95910904182E+02  0.91393249453E+02 0.  0.
         13    1    3    3    0    0  0.25792246277E+02  0.13162325030E+02  0.19793379234E+02  0.35075287508E+02  0.10566000000E+00 0.  1.
         22    1    1    0    0    0  0.28735289157E+02 -0.11682734293E+01  0.43696441225E+01  0.29089095818E+02  0.00000000000E+00 0. -1.
</event>
<event>
 5    1  0.1758480E-003  0.9118800E+02  0.7818608E-02  0.1130116E+00
         25   -1    0    0    0    0  0.00000000000E+00  0.00000000000E+00  0.99999998245E-14  0.12500000000E+03  0.12500000000E+03 0.  0.
        -13    1    3    3    0    0 -0.39060862476E+02  0.34980963478E+02  0.19642008096E+02  0.55993199848E+02  0.10566000000E+00 0.  1.
         23    2    1    0    0    0 -0.10585470895E+02  0.26556622103E+02 -0.66417738302E+01  0.95650050576E+02  0.91035776725E+02 0.  0.
         13    1    3    3    0    0  0.28475391580E+02 -0.84243413750E+01 -0.26283781926E+02  0.39656850728E+02  0.10566000000E+00 0. -1.
         22    1    1    0    0    0  0.10585470895E+02 -0.26556622103E+02  0.66417738302E+01  0.29349949424E+02  0.00000000000E+00 0.  1.
</event>
<event>
 5    1  0.1758480E-003  0.9118800E+02  0.7818608E-02  0.1130116E+00
         25   -1    0    0    0    0  0.00000000000E+00  0.00000000000E+00  0.99999998245E-14  0.12500000000E+03  0.12500000000E+03 0.  0.
        -13    1    3    3    0    0  0.29687558756E+02  0.13997571096E+02 -0.11252213072E+02  0.34697357314E+02  0.10566000000E+00 0.  1.
         23    2    1    0    0    0 -0.15935034992E+02  0.46700702544E+00  0.25570345637E+02  0.94867193762E+02  0.89954424241E+02 0.  0.
         13    1    3    3    0    0 -0.45622593748E+02 -0.13530564070E+02  0.36822558709E+02  0.60169836449E+02  0.10566000000E+00 0. -1.
         22    1    1    0    0    0  0.15935034992E+02 -0.46700702544E+00 -0.25570345637E+02  0.30132806238E+02  0.00000000000E+00 0. -1.
</event>
<event>
 5    1  0.1758480E-003  0.9118800E+02  0.7818608E-02  0.1130116E+00
         25   -1    0    0    0    0  0.00000000000E+00  0.00000000000E+00  0.99999998245E-14  0.12500000000E+03  0.12500000000E+03 0.  0.
        -13    1    3    3    0    0  0.88173313548E+01  0.18971576277E+02  0.55665419813E+02  0.59466933380E+02  0.10566000000E+00 0.  1.
         23    2    1    0    0    0  0.16539362681E+02  0.35110605110E+01  0.22612870205E+02  0.96764916102E+02  0.92553924960E+02 0.  0.
         13    1    3    3    0    0  0.77220313259E+01 -0.15460515766E+02 -0.33052549608E+02  0.37297982722E+02  0.10566000000E+00 0. -1.
         22    1    1    0    0    0 -0.16539362681E+02 -0.35110605110E+01 -0.22612870205E+02  0.28235083898E+02  0.00000000000E+00 0.  1.
</event>
<event>
 5    1  0.1758480E-003  0.9118800E+02  0.7818608E-02  0.1130116E+00
         25   -1    0    0    0    0  0.00000000000E+00  0.00000000000E+00  0.99999998245E-14  0.12500000000E+03  0.12500000000E+03 0.  0.
        -13    1    3    3    0    0  0.35378059556E+02 -0.36157345660E+02  0.13451995592E+00  0.50586460666E+02  0.10566000000E+00 0. -1.
         23    2    1    0    0    0 -0.26307997057E+01 -0.22096051429E+02 -0.19311140068E+02  0.95536858168E+02  0.90880220852E+02 0.  0.
         13    1    3    3    0    0 -0.38008859261E+02  0.14061294230E+02 -0.19445660024E+02  0.44950397502E+02  0.10566000000E+00 0.  1.
         22    1    1    0    0    0  0.26307997057E+01  0.22096051429E+02  0.19311140068E+02  0.29463141832E+02  0.00000000000E+00 0.  1.
</event>
<event>
 5    1  0.1758480E-003  0.9118800E+02  0.7818608E-02  0.1130116E+00
         25   -1    0    0    0    0  0.00000000000E+00  0.00000000000E+00  0.99999998245E-14  0.12500000000E+03  0.12500000000E+03 0.  0.
        -13    1    3    3    0    0 -0.30296424435E+02  0.12235611377E+02  0.32502017983E+02  0.46086612549E+02  0.10566000000E+00 0. -1.
         23    2    1    0    0    0 -0.27120634598E+02 -0.12869903283E+01 -0.13881889256E+02  0.94505869181E+02  0.89450921153E+02 0.  0.
         13    1    3    3    0    0  0.31757898365E+01 -0.13522601705E+02 -0.46383907239E+02  0.48419256631E+02  0.10566000000E+00 0.  1.
         22    1    1    0    0    0  0.27120634598E+02  0.12869903283E+01  0.13881889256E+02  0.30494130819E+02  0.00000000000E+00 0. -1.
</event>
<event>
 5    1  0.1758480E-003  0.9118800E+02  0.7818608E-02  0.1130116E+00
         25   -1    0    0    0    0  0.00000000000E+00  0.00000000000E+00  0.99999998245E-14  0.12500000000E+03  0.12500000000E+03 0.  0.
        -13    1    3    3    0    0 -0.24241488437E+02 -0.40435101343E+02 -0.60496504268E+01  0.47531638059E+02  0.10566000000E+00 0. -1.
         23    2    1    0    0    0  0.20095116120E+02 -0.19166207267E+02 -0.53994117832E+01  0.96710234351E+02  0.92480044268E+02 0.  0.
         13    1    3    3    0    0  0.44336604557E+02  0.21268894076E+02  0.65023864362E+00  0.49178596292E+02  0.10566000000E+00 0.  1.
         22    1    1    0    0    0 -0.20095116120E+02  0.19166207267E+02  0.53994117832E+01  0.28289765649E+02  0.00000000000E+00 0.  1.
</event>
<event>
 5    1  0.1758480E-003  0.9118800E+02  0.7818608E-02  0.1130116E+00
         25   -1    0    0    0    0  0.00000000000E+00  0.00000000000E+00  0.99999998245E-14  0.12500000000E+03  0.12500000000E+03 0.  0.
        -13    1    3    3    0    0  0.48482118947E+02 -0.20571298455E+02 -0.22556367509E+02  0.57293062904E+02  0.10566000000E+00 0.  1.
         23    2    1    0    0    0  0.22296457531E+02 -0.12889842503E+00 -0.26066374924E+02  0.90698330435E+02  0.83961792554E+02 0.  0.
         13    1    3    3    0    0 -0.26185661416E+02  0.20442400030E+02 -0.35100074154E+01  0.33405267531E+02  0.10566000000E+00 0. -1.
         22    1    1    0    0    0 -0.22296457531E+02  0.12889842503E+00  0.26066374924E+02  0.34301669565E+02  0.00000000000E+00 0.  1.
</event>
<event>
 5    1  0.1758480E-003  0.9118800E+02  0.7818608E-02  0.1130116E+00
         25   -1    0    0    0    0  0.00000000000E+00  0.00000000000E+00  0.99999998245E-14  0.12500000000E+03  0.12500000000E+03 0.  0.
        -13    1    3    3    0    0  0.14304097231E+02 -0.45612778142E+02  0.40257228306E+02  0.62496306470E+02  0.10566000000E+00 0.  1.
         23    2    1    0    0    0  0.99969136091E+01 -0.31656529317E+02  0.27389799566E+02  0.81961932543E+02  0.69753015245E+02 0.  0.
         13    1    3    3    0    0 -0.43071836218E+01  0.13956248825E+02 -0.12867428740E+02  0.19465626073E+02  0.10566000000E+00 0. -1.
         22    1    1    0    0    0 -0.99969136091E+01  0.31656529317E+02 -0.27389799566E+02  0.43038067457E+02  0.00000000000E+00 0.  1.
</event>
<event>
 5    1  0.1758480E-003  0.9118800E+02  0.7818608E-02  0.1130116E+00
         25   -1    0    0    0    0  0.00000000000E+00  0.00000000000E+00  0.99999998245E-14  0.12500000000E+03  0.12500000000E+03 0.  0.
        -13    1    3    3    0    0  0.12239236738E+02  0.15418605882E+02 -0.35855976340E+02  0.40904700544E+02  0.10566000000E+00 0. -1.
         23    2    1    0    0    0  0.97428605809E+01  0.21069102387E+02  0.18318155190E+02  0.95429994635E+02  0.90733117762E+02 0.  0.
         13    1    3    3    0    0 -0.24963761576E+01  0.56504965057E+01  0.54174131530E+02  0.54525294091E+02  0.10566000000E+00 0.  1.
         22    1    1    0    0    0 -0.97428605809E+01 -0.21069102387E+02 -0.18318155190E+02  0.29570005365E+02  0.00000000000E+00 0.  1.
</event>
<event>
 5    1  0.1758480E-003  0.9118800E+02  0.7818608E-02  0.1130116E+00
         25   -1    0    0    0    0  0.00000000000E+00  0.00000000000E+00  0.99999998245E-14  0.12500000000E+03  0.12500000000E+03 0.  0.
        -13    1    3    3    0    0 -0.32220041401E+02 -0.21427937024E+01  0.27074366673E+02  0.42139709628E+02  0.10566000000E+00 0.  1.
         23    2    1    0    0    0  0.47476669294E+01 -0.29951922344E+02  0.23728364646E+01  0.94581447334E+02  0.89556472874E+02 0.  0.
         13    1    3    3    0    0  0.36967708330E+02 -0.27809128642E+02 -0.24701530208E+02  0.52441737707E+02  0.10566000000E+00 0. -1.
         22    1    1    0    0    0 -0.47476669294E+01  0.29951922344E+02 -0.23728364646E+01  0.30418552666E+02  0.00000000000E+00 0.  1.
</event>
<event>
 5    1  0.1758480E-003  0.9118800E+02  0.7818608E-02  0.1130116E+00
         25   -1    0    0    0    0  0.00000000000E+00  0.00000000000E+00  0.99999998245E-14  0.12500000000E+03  0.12500000000E+03 0.  0.
        -13    1    3    3    0    0  0.41410930774E+02 -0.38282730197E+02 -0.70982231122E+01  0.56840377851E+02  0.10566000000E+00 0.  1.
         23    2    1    0    0    0  0.28616048108E+02 -0.15986996330E+02  0.13268799605E+02  0.89637261080E+02  0.82366954964E+02 0.  0.
         13    1    3    3    0    0 -0.12794882665E+02  0.22295733868E+02  0.20367022717E+02  0.32796883229E+02  0.10566000000E+00 0. -1.
         22    1    1    0    0    0 -0.28616048108E+02  0.15986996330E+02 -0.13268799605E+02  0.35362738920E+02  0.00000000000E+00 0.  1.
</event>
<event>
 5    1  0.1758480E-003  0.9118800E+02  0.7818608E-02  0.1130116E+00
         25   -1    0    0    0    0  0.00000000000E+00  0.00000000000E+00  0.99999998245E-14  0.12500000000E+03  0.12500000000E+03 0.  0.
        -13    1    3    3    0    0  0.35603330117E+02 -0.65204026120E+01 -0.17780519640E+02  0.40327048099E+02  0.10566000000E+00 0.  1.
         23    2    1    0    0    0 -0.10365187559E+02  0.24473022504E+02 -0.11206296918E+02  0.96156507940E+02  0.91728550544E+02 0.  0.
         13    1    3    3    0    0 -0.45968517676E+02  0.30993425116E+02  0.65742227218E+01  0.55829459841E+02  0.10566000000E+00 0. -1.
         22    1    1    0    0    0  0.10365187559E+02 -0.24473022504E+02  0.11206296918E+02  0.28843492060E+02  0.00000000000E+00 0. -1.
</event>
<event>
 5    1  0.1758480E-003  0.9118800E+02  0.7818608E-02  0.1130116E+00
         25   -1    0    0    0    0  0.00000000000E+00  0.00000000000E+00  0.99999998245E-14  0.12500000000E+03  0.12500000000E+03 0.  0.
        -13    1    3    3    0    0  0.14959371227E+02 -0.41750540389E+01  0.31762305365E+02  0.35356315842E+02  0.10566000000E+00 0.  1.
         23    2    1    0    0    0 -0.11013072001E+02 -0.23820205205E+01 -0.24875696497E+02  0.97691355711E+02  0.93796795935E+02 0.  0.
         13    1    3    3    0    0 -0.25972443229E+02  0.17930335185E+01 -0.56638001863E+02  0.62335039869E+02  0.10566000000E+00 0. -1.
         22    1    1    0    0    0  0.11013072001E+02  0.23820205205E+01  0.24875696497E+02  0.27308644289E+02  0.00000000000E+00 0. -1.
</event>
<event>
 5    1  0.1758480E-003  0.9118800E+02  0.7818608E-02  0.1130116E+00
         25   -1    0    0    0    0  0.00000000000E+00  0.00000000000E+00  0.99999998245E-14  0.12500000000E+03  0.12500000000E+03 0.  0.
        -13    1    3    3    0    0 -0.30932711283E+02  0.44817892300E+02 -0.14510551175E+02  0.56356395883E+02  0.10566000000E+00 0. -1.
         23    2    1    0    0    0  0.54402869367E+01  0.24948770418E+02 -0.74559430383E+01  0.98398703906E+02  0.94734766461E+02 0.  0.
         13    1    3    3    0    0  0.36372998219E+02 -0.19869121882E+02  0.70546081366E+01  0.42042308022E+02  0.10566000000E+00 0.  1.
         22    1    1    0    0    0 -0.54402869367E+01 -0.24948770418E+02  0.74559430383E+01  0.26601296094E+02  0.00000000000E+00 0. -1.
</event>
<event>
 5    1  0.1758480E-003  0.9118800E+02  0.7818608E-02  0.1130116E+00
         25   -1    0    0    0    0  0.00000000000E+00  0.00000000000E+00  0.99999998245E-14  0.12500000000E+03  0.12500000000E+03 0.  0.
        -13    1    3    3    0    0 -0.62513893154E+01  0.15270068739E+02  0.53844151689E+02  0.56315705649E+02  0.10566000000E+00 0. -1.
         23    2    1    0    0    0  0.16403327039E+02  0.10429703444E+02  0.23137856515E+02  0.94780664204E+02  0.89834102939E+02 0.  0.
         13    1    3    3    0    0  0.22654716354E+02 -0.48403652945E+01 -0.30706295174E+02  0.38464958555E+02  0.10566000000E+00 0.  1.
         22    1    1    0    0    0 -0.16403327039E+02 -0.10429703444E+02 -0.23137856515E+02  0.30219335796E+02  0.00000000000E+00 0. -1.
</event>
<event>
 5    1  0.1758480E-003  0.9118800E+02  0.7818608E-02  0.1130116E+00
         25   -1    0    0    0    0  0.00000000000E+00  0.00000000000E+00  0.99999998245E-14  0.12500000000E+03  0.12500000000E+03 0.  0.
        -13    1    3    3    0    0  0.96414761886E+01 -0.11799454478E+02 -0.16057233573E+02  0.22136646158E+02  0.10566000000E+00 0. -1.
         23    2    1    0    0    0 -0.33618219061E+01  0.43996177190E+02 -0.38975372193E+01  0.80703767088E+02  0.67460668333E+02 0.  0.
         13    1    3    3    0    0 -0.13003298095E+02  0.55795631668E+02  0.12159696353E+02  0.58567120930E+02  0.10566000000E+00 0.  1.
         22    1    1    0    0    0  0.33618219061E+01 -0.43996177190E+02  0.38975372193E+01  0.44296232912E+02  0.00000000000E+00 0.  1.
</event>
<event>
 5    1  0.1758480E-003  0.9118800E+02  0.7818608E-02  0.1130116E+00
         25   -1    0    0    0    0  0.00000000000E+00  0.00000000000E+00  0.99999998245E-14  0.12500000000E+03  0.12500000000E+03 0.  0.
        -13    1    3    3    0    0  0.32479129966E+02  0.62449782075E+00  0.12764634567E+02  0.34903165193E+02  0.10566000000E+00 0.  1.
         23    2    1    0    0    0 -0.24312276378E+02 -0.13726343667E+02 -0.60601612223E+01  0.96430350944E+02  0.92100964903E+02 0.  0.
         13    1    3    3    0    0 -0.56791406344E+02 -0.14350841487E+02 -0.18824795789E+02  0.61527185751E+02  0.10566000000E+00 0. -1.
         22    1    1    0    0    0  0.24312276378E+02  0.13726343667E+02  0.60601612223E+01  0.28569649056E+02  0.00000000000E+00 0. -1.
</event>
<event>
 5    1  0.1758480E-003  0.9118800E+02  0.7818608E-02  0.1130116E+00
         25   -1    0    0    0    0  0.00000000000E+00  0.00000000000E+00  0.99999998245E-14  0.12500000000E+03  0.12500000000E+03 0.  0.
        -13    1    3    3    0    0  0.39887827130E+01 -0.15244346785E+02 -0.29834378180E+02  0.33740210163E+02  0.10566000000E+00 0.  1.
         23    2    1    0    0    0  0.17914907701E+02  0.26742681000E+02  0.78680163858E+01  0.91863606309E+02  0.85679061486E+02 0.  0.
         13    1    3    3    0    0  0.13926124988E+02  0.41987027785E+02  0.37702394566E+02  0.58123396145E+02  0.10566000000E+00 0. -1.
         22    1    1    0    0    0 -0.17914907701E+02 -0.26742681000E+02 -0.78680163858E+01  0.33136393691E+02  0.00000000000E+00 0. -1.
</event>
<event>
 5    1  0.1758480E-003  0.9118800E+02  0.7818608E-02  0.1130116E+00
         25   -1    0    0    0    0  0.00000000000E+00  0.00000000000E+00  0.99999998245E-14  0.12500000000E+03  0.12500000000E+03 0.  0.
        -13    1    3    3    0    0  0.35255148241E+01  0.14708796632E+02  0.55402036011E+02  0.57429737169E+02  0.10566000000E+00 0.  1.
         23    2    1    0    0    0  0.15445450690E+02 -0.39931071299E+01  0.28918254186E+02  0.91973158239E+02  0.85838741601E+02 0.  0.
         13    1    3    3    0    0  0.11919935866E+02 -0.18701903762E+02 -0.26483781825E+02  0.34543421069E+02  0.10566000000E+00 0. -1.
         22    1    1    0    0    0 -0.15445450690E+02  0.39931071299E+01 -0.28918254186E+02  0.33026841761E+02  0.00000000000E+00 0.  1.
</event>
<event>
 5    1  0.1758480E-003  0.9118800E+02  0.7818608E-02  0.1130116E+00
         25   -1    0    0    0    0  0.00000000000E+00  0.00000000000E+00  0.99999998245E-14  0.12500000000E+03  0.12500000000E+03 0.  0.
        -13    1    3    3    0    0 -0.51947526339E+02  0.16833669776E+02 -0.17103329378E+02  0.57222836095E+02  0.10566000000E+00 0. -1.
         23    2    1    0    0    0 -0.28016113934E+02 -0.53633208112E+01 -0.20254530054E+02  0.90015520044E+02  0.82939013805E+02 0.  0.
         13    1    3    3    0    0  0.23931412405E+02 -0.22196990587E+02 -0.31512006760E+01  0.32792683949E+02  0.10566000000E+00 0.  1.
         22    1    1    0    0    0  0.28016113934E+02  0.53633208112E+01  0.20254530054E+02  0.34984479956E+02  0.00000000000E+00 0. -1.
</event>
<event>
 5    1  0.1758480E-003  0.9118800E+02  0.7818608E-02  0.1130116E+00
         25   -1    0    0    0    0  0.00000000000E+00  0.00000000000E+00  0.99999998245E-14  0.12500000000E+03  0.12500000000E+03 0.  0.
        -13    1    3    3    0    0 -0.13063548282E+02 -0.47510446257E+01 -0.55423240505E+02  0.57139963868E+02  0.10566000000E+00 0.  1.
         23    2    1    0    0    0  0.11399772585E+02 -0.84507392295E+01 -0.23781233145E+02  0.97306736227E+02  0.93282817586E+02 0.  0.
         13    1    3    3    0    0  0.24463320866E+02 -0.36996946038E+01  0.31642007360E+02  0.40166772360E+02  0.10566000000E+00 0. -1.
         22    1    1    0    0    0 -0.11399772585E+02  0.84507392295E+01  0.23781233145E+02  0.27693263773E+02  0.00000000000E+00 0.  1.
</event>
<event>
 5    1  0.1758480E-003  0.9118800E+02  0.7818608E-02  0.1130116E+00
         25   -1    0    0    0    0  0.00000000000E+00  0.00000000000E+00  0.99999998245E-14  0.12500000000E+03  0.12500000000E+03 0.  0.
        -13    1    3    3    0    0  0.30977000921E+02  0.35733129870E+02  0.16716214298E+02  0.50158490217E+02  0.10566000000E+00 0.  1.
         23    2    1    0    0    0 -0.11197034432E+02  0.27050916389E+02  0.20289581619E+01  0.95653069517E+02  0.91039921898E+02 0.  0.
         13    1    3    3    0    0 -0.42174035353E+02 -0.86822134809E+01 -0.14687256136E+02  0.45494579300E+02  0.10566000000E+00 0. -1.
         22    1    1    0    0    0  0.11197034432E+02 -0.27050916389E+02 -0.20289581619E+01  0.29346930483E+02  0.00000000000E+00 0.  1.
</event>
<event>
 5    1  0.1758480E-003  0.9118800E+02  0.7818608E-02  0.1130116E+00
         25   -1    0    0    0    0  0.00000000000E+00  0.00000000000E+00  0.99999998245E-14  0.12500000000E+03  0.12500000000E+03 0.  0.
        -13    1    3    3    0    0 -0.37110397859E+02 -0.29137680240E+02  0.39092754308E+02  0.61273490536E+02  0.10566000000E+00 0.  1.
         23    2    1    0    0    0 -0.22444216057E+02 -0.16984334968E+02  0.11975274722E+02  0.94412131925E+02  0.89319835317E+02 0.  0.
         13    1    3    3    0    0  0.14666181802E+02  0.12153345272E+02 -0.27117479586E+02  0.33138641389E+02  0.10566000000E+00 0. -1.
         22    1    1    0    0    0  0.22444216057E+02  0.16984334968E+02 -0.11975274722E+02  0.30587868075E+02  0.00000000000E+00 0.  1.
</event>
<event>
 5    1  0.1758480E-003  0.9118800E+02  0.7818608E-02  0.1130116E+00
         25   -1    0    0    0    0  0.00000000000E+00  0.00000000000E+00  0.99999998245E-14  0.12500000000E+03  0.12500000000E+03 0.  0.
        -13    1    3    3    0    0  0.24550551305E+01 -0.34710557676E+02  0.47977286128E+02  0.59267877118E+02  0.10566000000E+00 0. -1.
         23    2    1    0    0    0  0.62485710424E+01 -0.25139670776E+02  0.12446290111E+02  0.96260518023E+02  0.91870177455E+02 0.  0.
         13    1    3    3    0    0  0.37935159119E+01  0.95708868992E+01 -0.35530996018E+02  0.36992640904E+02  0.10566000000E+00 0.  1.
         22    1    1    0    0    0 -0.62485710424E+01  0.25139670776E+02 -0.12446290111E+02  0.28739481977E+02  0.00000000000E+00 0. -1.
</event>
<event>
 5    1  0.1758480E-003  0.9118800E+02  0.7818608E-02  0.1130116E+00
         25   -1    0    0    0    0  0.00000000000E+00  0.00000000000E+00  0.99999998245E-14  0.12500000000E+03  0.12500000000E+03 0.  0.
        -13    1    3    3    0    0 -0.10898483978E+02 -0.26818235962E+02  0.36402564285E+02  0.46509704188E+02  0.10566000000E+00 0.  1.
         23    2    1    0    0    0  0.18628242779E+02  0.10125798254E+02  0.17748715836E+02  0.97349319482E+02  0.93339862173E+02 0.  0.
         13    1    3    3    0    0  0.29526726757E+02  0.36944034217E+02 -0.18653848449E+02  0.50839615293E+02  0.10566000000E+00 0. -1.
         22    1    1    0    0    0 -0.18628242779E+02 -0.10125798254E+02 -0.17748715836E+02  0.27650680518E+02  0.00000000000E+00 0. -1.
</event>
<event>
 5    1  0.1758480E-003  0.9118800E+02  0.7818608E-02  0.1130116E+00
         25   -1    0    0    0    0  0.00000000000E+00  0.00000000000E+00  0.99999998245E-14  0.12500000000E+03  0.12500000000E+03 0.  0.
        -13    1    3    3    0    0  0.12325613186E+02 -0.87698997604E+01 -0.57457421930E+02  0.59415472574E+02  0.10566000000E+00 0. -1.
         23    2    1    0    0    0  0.31324205782E+01 -0.16905840899E+02 -0.21145902168E+02  0.97746216893E+02  0.93869879211E+02 0.  0.
         13    1    3    3    0    0 -0.91931926079E+01 -0.81359411385E+01  0.36311519763E+02  0.38330744319E+02  0.10566000000E+00 0.  1.
         22    1    1    0    0    0 -0.31324205782E+01  0.16905840899E+02  0.21145902168E+02  0.27253783107E+02  0.00000000000E+00 0. -1.
</event>
<event>
 5    1  0.1758480E-003  0.9118800E+02  0.7818608E-02  0.1130116E+00
         25   -1    0    0    0    0  0.00000000000E+00  0.00000000000E+00  0.99999998245E-14  0.12500000000E+03  0.12500000000E+03 0.  0.
        -13    1    3    3    0    0 -0.12969397194E+02  0.67454604951E+01 -0.24359068881E+02  0.28409186923E+02  0.10566000000E+00 0. -1.
         23    2    1    0    0    0  0.10441910497E+02 -0.27981488119E+02  0.19718682300E+02  0.89211403997E+02  0.81718119161E+02 0.  0.
         13    1    3    3    0    0  0.23411307691E+02 -0.34726948615E+02  0.44077751181E+02  0.60802217074E+02  0.10566000000E+00 0.  1.
         22    1    1    0    0    0 -0.10441910497E+02  0.27981488119E+02 -0.19718682300E+02  0.35788596003E+02  0.00000000000E+00 0.  1.
</event>
<event>
 5    1  0.1758480E-003  0.9118800E+02  0.7818608E-02  0.1130116E+00
         25   -1    0    0    0    0  0.00000000000E+00  0.00000000000E+00  0.99999998245E-14  0.12500000000E+03  0.12500000000E+03 0.  0.
        -13    1    3    3    0    0 -0.29879160888E+01  0.56102187584E+02  0.99579139327E+01  0.57057464965E+02  0.10566000000E+00 0.  1.
         23    2    1    0    0    0 -0.16155803199E+02  0.21654650848E+02  0.14704488854E+02  0.94240353175E+02  0.89079112555E+02 0.  0.
         13    1    3    3    0    0 -0.13167887110E+02 -0.34447536736E+02  0.47465749212E+01  0.37182888210E+02  0.10566000000E+00 0. -1.
         22    1    1    0    0    0  0.16155803199E+02 -0.21654650848E+02 -0.14704488854E+02  0.30759646825E+02  0.00000000000E+00 0.  1.
</event>
<event>
 5    1  0.1758480E-003  0.9118800E+02  0.7818608E-02  0.1130116E+00
         25   -1    0    0    0    0  0.00000000000E+00  0.00000000000E+00  0.99999998245E-14  0.12500000000E+03  0.12500000000E+03 0.  0.
        -13    1    3    3    0    0 -0.38143846734E+02 -0.12282305147E+02 -0.44497877376E+02  0.59882220386E+02  0.10566000000E+00 0.  1.
         23    2    1    0    0    0 -0.21784079867E+02  0.59262509121E+01 -0.16719286291E+02  0.96907276394E+02  0.92745992358E+02 0.  0.
         13    1    3    3    0    0  0.16359766867E+02  0.18208556059E+02  0.27778591085E+02  0.37025056008E+02  0.10566000000E+00 0. -1.
         22    1    1    0    0    0  0.21784079867E+02 -0.59262509121E+01  0.16719286291E+02  0.28092723606E+02  0.00000000000E+00 0.  1.
</event>
<event>
 5    1  0.1758480E-003  0.9118800E+02  0.7818608E-02  0.1130116E+00
         25   -1    0    0    0    0  0.00000000000E+00  0.00000000000E+00  0.99999998245E-14  0.12500000000E+03  0.12500000000E+03 0.  0.
        -13    1    3    3    0    0 -0.23561543916E+01 -0.59749177456E+01  0.39967524754E+02  0.40480431132E+02  0.10566000000E+00 0.  1.
         23    2    1    0    0    0  0.27012150215E+02  0.14990514719E+02  0.29882334534E+00  0.94105646371E+02  0.88889884647E+02 0.  0.
         13    1    3    3    0    0  0.29368304607E+02  0.20965432465E+02 -0.39668701409E+02  0.53625215239E+02  0.10566000000E+00 0. -1.
         22    1    1    0    0    0 -0.27012150215E+02 -0.14990514719E+02 -0.29882334534E+00  0.30894353629E+02  0.00000000000E+00 0. -1.
</event>
<event>
 5    1  0.1758480E-003  0.9118800E+02  0.7818608E-02  0.1130116E+00
         25   -1    0    0    0    0  0.00000000000E+00  0.00000000000E+00  0.99999998245E-14  0.12500000000E+03  0.12500000000E+03 0.  0.
        -13    1    3    3    0    0 -0.32262349433E+02 -0.56105273184E+01 -0.12276953992E+02  0.34972445884E+02  0.10566000000E+00 0.  1.
         23    2    1    0    0    0  0.15102065867E+02  0.79336645590E+01  0.23574937304E+02  0.95900290454E+02  0.91378731735E+02 0.  0.
         13    1    3    3    0    0  0.47364415300E+02  0.13544191877E+02  0.35851891296E+02  0.60927844570E+02  0.10566000000E+00 0. -1.
         22    1    1    0    0    0 -0.15102065867E+02 -0.79336645590E+01 -0.23574937304E+02  0.29099709546E+02  0.00000000000E+00 0. -1.
</event>
<event>
 5    1  0.1758480E-003  0.9118800E+02  0.7818608E-02  0.1130116E+00
         25   -1    0    0    0    0  0.00000000000E+00  0.00000000000E+00  0.99999998245E-14  0.12500000000E+03  0.12500000000E+03 0.  0.
        -13    1    3    3    0    0  0.39739812427E+02  0.30366901622E+02 -0.31275293495E+01  0.50111815071E+02  0.10566000000E+00 0. -1.
         23    2    1    0    0    0  0.26785759628E+02 -0.12567849242E+02  0.24850669802E+01  0.95308194543E+02  0.90565162373E+02 0.  0.
         13    1    3    3    0    0 -0.12954052799E+02 -0.42934750864E+02  0.56125963297E+01  0.45196379471E+02  0.10566000000E+00 0.  1.
         22    1    1    0    0    0 -0.26785759628E+02  0.12567849242E+02 -0.24850669802E+01  0.29691805457E+02  0.00000000000E+00 0.  1.
</event>
<event>
 5    1  0.1758480E-003  0.9118800E+02  0.7818608E-02  0.1130116E+00
         25   -1    0    0    0    0  0.00000000000E+00  0.00000000000E+00  0.99999998245E-14  0.12500000000E+03  0.12500000000E+03 0.  0.
        -13    1    3    3    0    0 -0.14093908957E+02 -0.21609040818E+02 -0.53494873980E+02  0.59391090417E+02  0.10566000000E+00 0.  1.
         23    2    1    0    0    0 -0.11950596993E+02 -0.20639239968E+02 -0.17608801909E+02  0.95354344339E+02  0.90628836938E+02 0.  0.
         13    1    3    3    0    0  0.21433119647E+01  0.96980084987E+00  0.35886072071E+02  0.35963253921E+02  0.10566000000E+00 0. -1.
         22    1    1    0    0    0  0.11950596993E+02  0.20639239968E+02  0.17608801909E+02  0.29645655661E+02  0.00000000000E+00 0.  1.
</event>
<event>
 5    1  0.1758480E-003  0.9118800E+02  0.7818608E-02  0.1130116E+00
         25   -1    0    0    0    0  0.00000000000E+00  0.00000000000E+00  0.99999998245E-14  0.12500000000E+03  0.12500000000E+03 0.  0.
        -13    1    3    3    0    0 -0.27089249993E+02  0.58285909571E+01 -0.31072862365E+02  0.41633326522E+02  0.10566000000E+00 0.  1.
         23    2    1    0    0    0  0.96952672084E+01  0.26490313971E+02  0.40142451976E+01  0.96507034113E+02  0.92204981039E+02 0.  0.
         13    1    3    3    0    0  0.36784517202E+02  0.20661723014E+02  0.35087107563E+02  0.54873707591E+02  0.10566000000E+00 0. -1.
         22    1    1    0    0    0 -0.96952672084E+01 -0.26490313971E+02 -0.40142451976E+01  0.28492965887E+02  0.00000000000E+00 0. -1.
</event>
<event>
 5    1  0.1758480E-003  0.9118800E+02  0.7818608E-02  0.1130116E+00
         25   -1    0    0    0    0  0.00000000000E+00  0.00000000000E+00  0.99999998245E-14  0.12500000000E+03  0.12500000000E+03 0.  0.
        -13    1    3    3    0    0  0.13773431804E+02 -0.26126306830E+02  0.53535484560E+02  0.61142052659E+02  0.10566000000E+00 0. -1.
         23    2    1    0    0    0  0.26852468982E+00 -0.18770063823E+02  0.23169137209E+02  0.95180604962E+02  0.90388888922E+02 0.  0.
         13    1    3    3    0    0 -0.13504907114E+02  0.73562430074E+01 -0.30366347352E+02  0.34038552303E+02  0.10566000000E+00 0.  1.
         22    1    1    0    0    0 -0.26852468982E+00  0.18770063823E+02 -0.23169137209E+02  0.29819395038E+02  0.00000000000E+00 0. -1.
</event>
<event>
 5    1  0.1758480E-003  0.9118800E+02  0.7818608E-02  0.1130116E+00
         25   -1    0    0    0    0  0.00000000000E+00  0.00000000000E+00  0.99999998245E-14  0.12500000000E+03  0.12500000000E+03 0.  0.
        -13    1    3    3    0    0  0.25127023207E+02  0.15699193191E+02  0.23268616831E+02  0.37673221993E+02  0.10566000000E+00 0.  1.
         23    2    1    0    0    0 -0.25348747403E+02 -0.10298296545E+02  0.64525504548E+01  0.96888626608E+02  0.92720853382E+02 0.  0.
         13    1    3    3    0    0 -0.50475770610E+02 -0.25997489736E+02 -0.16816066377E+02  0.59215404614E+02  0.10566000000E+00 0. -1.
         22    1    1    0    0    0  0.25348747403E+02  0.10298296545E+02 -0.64525504548E+01  0.28111373392E+02  0.00000000000E+00 0. -1.
</event>
<event>
 5    1  0.1758480E-003  0.9118800E+02  0.7818608E-02  0.1130116E+00
         25   -1    0    0    0    0  0.00000000000E+00  0.00000000000E+00  0.99999998245E-14  0.12500000000E+03  0.12500000000E+03 0.  0.
        -13    1    3    3    0    0  0.15095174370E+02  0.76111368775E+01 -0.53643393813E+02  0.56244275777E+02  0.10566000000E+00 0. -1.
         23    2    1    0    0    0  0.67082071500E+01  0.23825778908E+02 -0.30662271166E+02  0.85593875390E+02  0.75983345856E+02 0.  0.
         13    1    3    3    0    0 -0.83869672198E+01  0.16214642030E+02  0.22981122647E+02  0.29349599613E+02  0.10566000000E+00 0.  1.
         22    1    1    0    0    0 -0.67082071500E+01 -0.23825778908E+02  0.30662271166E+02  0.39406124610E+02  0.00000000000E+00 0. -1.
</event>
<event>
 5    1  0.1758480E-003  0.9118800E+02  0.7818608E-02  0.1130116E+00
         25   -1    0    0    0    0  0.00000000000E+00  0.00000000000E+00  0.99999998245E-14  0.12500000000E+03  0.12500000000E+03 0.  0.
        -13    1    3    3    0    0  0.18376394554E+02  0.20774084006E+02 -0.19271514743E+02  0.33773612297E+02  0.10566000000E+00 0.  1.
         23    2    1    0    0    0 -0.93613533359E+01 -0.28487345475E+02  0.36803271957E+01  0.94788932545E+02  0.89845607217E+02 0.  0.
         13    1    3    3    0    0 -0.27737747890E+02 -0.49261429481E+02  0.22951841939E+02  0.61015320248E+02  0.10566000000E+00 0. -1.
         22    1    1    0    0    0  0.93613533359E+01  0.28487345475E+02 -0.36803271957E+01  0.30211067455E+02  0.00000000000E+00 0. -1.
</event>
<event>
 5    1  0.1758480E-003  0.9118800E+02  0.7818608E-02  0.1130116E+00
         25   -1    0    0    0    0  0.00000000000E+00  0.00000000000E+00  0.99999998245E-14  0.12500000000E+03  0.12500000000E+03 0.  0.
        -13    1    3    3    0    0  0.39469035605E+02  0.34039943251E+02  0.19179243509E+02  0.55537168218E+02  0.10566000000E+00 0. -1.
         23    2    1    0    0    0  0.11848991550E+02  0.72842828889E+01  0.26861115846E+02  0.94751381479E+02  0.89793348137E+02 0.  0.
         13    1    3    3    0    0 -0.27620044055E+02 -0.26755660362E+02  0.76818723369E+01  0.39214213260E+02  0.10566000000E+00 0.  1.
         22    1    1    0    0    0 -0.11848991550E+02 -0.72842828889E+01 -0.26861115846E+02  0.30248618521E+02  0.00000000000E+00 0. -1.
</event>
<event>
 5    1  0.1758480E-003  0.9118800E+02  0.7818608E-02  0.1130116E+00
         25   -1    0    0    0    0  0.00000000000E+00  0.00000000000E+00  0.99999998245E-14  0.12500000000E+03  0.12500000000E+03 0.  0.
        -13    1    3    3    0    0  0.28489186179E+02  0.38580528735E+00  0.27142628793E+02  0.39351188504E+02  0.10566000000E+00 0. -1.
         23    2    1    0    0    0  0.15267966050E+01  0.27307375798E+02 -0.13017644407E+02  0.94710019037E+02  0.89735749616E+02 0.  0.
         13    1    3    3    0    0 -0.26962389574E+02  0.26921570511E+02 -0.40160273200E+02  0.55358830532E+02  0.10566000000E+00 0.  1.
         22    1    1    0    0    0 -0.15267966050E+01 -0.27307375798E+02  0.13017644407E+02  0.30289980963E+02  0.00000000000E+00 0.  1.
</event>
<event>
 5    1  0.1758480E-003  0.9118800E+02  0.7818608E-02  0.1130116E+00
         25   -1    0    0    0    0  0.00000000000E+00  0.00000000000E+00  0.99999998245E-14  0.12500000000E+03  0.12500000000E+03 0.  0.
        -13    1    3    3    0    0 -0.30389755376E+02 -0.23139241572E+00  0.42499824285E+02  0.52247842085E+02  0.10566000000E+00 0.  1.
         23    2    1    0    0    0 -0.59138405123E+01  0.23926644411E+02  0.17056749918E+02  0.95026836334E+02  0.90175989507E+02 0.  0.
         13    1    3    3    0    0  0.24475914863E+02  0.24158036826E+02 -0.25443074367E+02  0.42778994249E+02  0.10566000000E+00 0. -1.
         22    1    1    0    0    0  0.59138405123E+01 -0.23926644411E+02 -0.17056749918E+02  0.29973163666E+02  0.00000000000E+00 0. -1.
</event>
<event>
 5    1  0.1758480E-003  0.9118800E+02  0.7818608E-02  0.1130116E+00
         25   -1    0    0    0    0  0.00000000000E+00  0.00000000000E+00  0.99999998245E-14  0.12500000000E+03  0.12500000000E+03 0.  0.
        -13    1    3    3    0    0  0.55264434231E-01  0.52325042028E+02 -0.14839681534E+01  0.52346216701E+02  0.10566000000E+00 0. -1.
         23    2    1    0    0    0 -0.23923858255E+02  0.15641898335E+02 -0.34091946400E+01  0.96213847332E+02  0.91806654623E+02 0.  0.
         13    1    3    3    0    0 -0.23979122689E+02 -0.36683143693E+02 -0.19252264866E+01  0.43867630631E+02  0.10566000000E+00 0.  1.
         22    1    1    0    0    0  0.23923858255E+02 -0.15641898335E+02  0.34091946400E+01  0.28786152668E+02  0.00000000000E+00 0. -1.
</event>
<event>
 5    1  0.1758480E-003  0.9118800E+02  0.7818608E-02  0.1130116E+00
         25   -1    0    0    0    0  0.00000000000E+00  0.00000000000E+00  0.99999998245E-14  0.12500000000E+03  0.12500000000E+03 0.  0.
        -13    1    3    3    0    0 -0.21254121708E+02  0.22884901554E+02 -0.52611293688E+02  0.61183460153E+02  0.10566000000E+00 0.  1.
         23    2    1    0    0    0 -0.17945796680E+02  0.10688283332E+02 -0.20322647793E+02  0.95857230187E+02  0.91319809169E+02 0.  0.
         13    1    3    3    0    0  0.33083250277E+01 -0.12196618222E+02  0.32288645895E+02  0.34673770033E+02  0.10566000000E+00 0. -1.
         22    1    1    0    0    0  0.17945796680E+02 -0.10688283332E+02  0.20322647793E+02  0.29142769813E+02  0.00000000000E+00 0.  1.
</event>
<event>
 5    1  0.1758480E-003  0.9118800E+02  0.7818608E-02  0.1130116E+00
         25   -1    0    0    0    0  0.00000000000E+00  0.00000000000E+00  0.99999998245E-14  0.12500000000E+03  0.12500000000E+03 0.  0.
        -13    1    3    3    0    0 -0.92569514292E+01  0.33895881909E+02 -0.21785734342E+02  0.41343093075E+02  0.10566000000E+00 0. -1.
         23    2    1    0    0    0 -0.43506020191E+00 -0.19442835240E+02 -0.22302774939E+02  0.95409006615E+02  0.90704198655E+02 0.  0.
         13    1    3    3    0    0  0.88218912273E+01 -0.53338717149E+02 -0.51704059686E+00  0.54065913540E+02  0.10566000000E+00 0.  1.
         22    1    1    0    0    0  0.43506020191E+00  0.19442835240E+02  0.22302774939E+02  0.29590993385E+02  0.00000000000E+00 0.  1.
</event>
<event>
 5    1  0.1758480E-003  0.9118800E+02  0.7818608E-02  0.1130116E+00
         25   -1    0    0    0    0  0.00000000000E+00  0.00000000000E+00  0.99999998245E-14  0.12500000000E+03  0.12500000000E+03 0.  0.
        -13    1    3    3    0    0  0.27424689086E+02  0.34742377774E+02  0.28534014591E+02  0.52662581949E+02  0.10566000000E+00 0.  1.
         23    2    1    0    0    0 -0.75686462960E+01  0.36801398159E+01  0.23875060183E+02  0.99685057090E+02  0.96417136820E+02 0.  0.
         13    1    3    3    0    0 -0.34993335382E+02 -0.31062237958E+02 -0.46589544084E+01  0.47022475140E+02  0.10566000000E+00 0. -1.
         22    1    1    0    0    0  0.75686462960E+01 -0.36801398159E+01 -0.23875060183E+02  0.25314942910E+02  0.00000000000E+00 0.  1.
</event>
<event>
 5    1  0.1758480E-003  0.9118800E+02  0.7818608E-02  0.1130116E+00
         25   -1    0    0    0    0  0.00000000000E+00  0.00000000000E+00  0.99999998245E-14  0.12500000000E+03  0.12500000000E+03 0.  0.
        -13    1    3    3    0    0  0.44784633114E+02 -0.41468892551E+02 -0.13252022594E+02  0.62457663096E+02  0.10566000000E+00 0.  1.
         23    2    1    0    0    0  0.20519821951E+02 -0.19552145334E+02 -0.77615908476E+01  0.95613067997E+02  0.90984982273E+02 0.  0.
         13    1    3    3    0    0 -0.24264811163E+02  0.21916747217E+02  0.54904317466E+01  0.33155404901E+02  0.10566000000E+00 0. -1.
         22    1    1    0    0    0 -0.20519821951E+02  0.19552145334E+02  0.77615908476E+01  0.29386932003E+02  0.00000000000E+00 0.  1.
</event>
<event>
 5    1  0.1758480E-003  0.9118800E+02  0.7818608E-02  0.1130116E+00
         25   -1    0    0    0    0  0.00000000000E+00  0.00000000000E+00  0.99999998245E-14  0.12500000000E+03  0.12500000000E+03 0.  0.
        -13    1    3    3    0    0 -0.37294845331E+01 -0.10763461605E+02  0.38417078264E+02  0.40070490726E+02  0.10566000000E+00 0.  1.
         23    2    1    0    0    0  0.21957116436E+02  0.18930075307E+02 -0.13817524142E+01  0.95976355276E+02  0.91482724156E+02 0.  0.
         13    1    3    3    0    0  0.25686600969E+02  0.29693536913E+02 -0.39798830678E+02  0.55905864550E+02  0.10566000000E+00 0. -1.
         22    1    1    0    0    0 -0.21957116436E+02 -0.18930075307E+02  0.13817524142E+01  0.29023644724E+02  0.00000000000E+00 0. -1.
</event>
<event>
 5    1  0.1758480E-003  0.9118800E+02  0.7818608E-02  0.1130116E+00
         25   -1    0    0    0    0  0.00000000000E+00  0.00000000000E+00  0.99999998245E-14  0.12500000000E+03  0.12500000000E+03 0.  0.
        -13    1    3    3    0    0  0.98732345610E+01 -0.35236555864E+02 -0.44319740969E+02  0.57474744310E+02  0.10566000000E+00 0. -1.
         23    2    1    0    0    0 -0.10081694995E+02 -0.26703049385E+02 -0.19570118082E+02  0.90392443857E+02  0.83505155315E+02 0.  0.
         13    1    3    3    0    0 -0.19954929556E+02  0.85335064794E+01  0.24749622886E+02  0.32917699547E+02  0.10566000000E+00 0.  1.
         22    1    1    0    0    0  0.10081694995E+02  0.26703049385E+02  0.19570118082E+02  0.34607556143E+02  0.00000000000E+00 0. -1.
</event>
<event>
 5    1  0.1758480E-003  0.9118800E+02  0.7818608E-02  0.1130116E+00
         25   -1    0    0    0    0  0.00000000000E+00  0.00000000000E+00  0.99999998245E-14  0.12500000000E+03  0.12500000000E+03 0.  0.
        -13    1    3    3    0    0  0.20484962343E+02 -0.49125139783E+02 -0.21516806577E+02  0.57409904809E+02  0.10566000000E+00 0.  1.
         23    2    1    0    0    0 -0.62617169473E+01 -0.29236273609E+02 -0.47325198134E+01  0.94728469853E+02  0.89761447533E+02 0.  0.
         13    1    3    3    0    0 -0.26746679290E+02  0.19888866174E+02  0.16784286764E+02  0.37318565044E+02  0.10566000000E+00 0. -1.
         22    1    1    0    0    0  0.62617169473E+01  0.29236273609E+02  0.47325198134E+01  0.30271530147E+02  0.00000000000E+00 0.  1.
</event>
<event>
 5    1  0.1758480E-003  0.9118800E+02  0.7818608E-02  0.1130116E+00
         25   -1    0    0    0    0  0.00000000000E+00  0.00000000000E+00  0.99999998245E-14  0.12500000000E+03  0.12500000000E+03 0.  0.
        -13    1    3    3    0    0 -0.26490575698E+02  0.15824272723E+02 -0.10191922673E+02  0.32496840767E+02  0.10566000000E+00 0.  1.
         23    2    1    0    0    0  0.25415920373E+02 -0.33471210546E+01  0.17089482424E+02  0.94190543054E+02  0.89009189208E+02 0.  0.
         13    1    3    3    0    0  0.51906496071E+02 -0.19171393777E+02  0.27281405098E+02  0.61693702287E+02  0.10566000000E+00 0. -1.
         22    1    1    0    0    0 -0.25415920373E+02  0.33471210546E+01 -0.17089482424E+02  0.30809456946E+02  0.00000000000E+00 0. -1.
</event>
<event>
 5    1  0.1758480E-003  0.9118800E+02  0.7818608E-02  0.1130116E+00
         25   -1    0    0    0    0  0.00000000000E+00  0.00000000000E+00  0.99999998245E-14  0.12500000000E+03  0.12500000000E+03 0.  0.
        -13    1    3    3    0    0  0.13363955509E+02 -0.35022161199E+01  0.59915122580E+02  0.61487347499E+02  0.10566000000E+00 0.  1.
         23    2    1    0    0    0 -0.15190396030E+01 -0.32269535916E+01  0.28800220949E+02  0.95979775371E+02  0.91487397180E+02 0.  0.
         13    1    3    3    0    0 -0.14882995112E+02  0.27526252824E+00 -0.31114901631E+02  0.34492427872E+02  0.10566000000E+00 0. -1.
         22    1    1    0    0    0  0.15190396030E+01  0.32269535916E+01 -0.28800220949E+02  0.29020224629E+02  0.00000000000E+00 0.  1.
</event>
<event>
 5    1  0.1758480E-003  0.9118800E+02  0.7818608E-02  0.1130116E+00
         25   -1    0    0    0    0  0.00000000000E+00  0.00000000000E+00  0.99999998245E-14  0.12500000000E+03  0.12500000000E+03 0.  0.
        -13    1    3    3    0    0 -0.31360848201E+02  0.32303181545E+01 -0.49321849046E+02  0.58537113976E+02  0.10566000000E+00 0. -1.
         23    2    1    0    0    0 -0.22495203431E+02  0.12965659963E+02 -0.15669668573E+02  0.94673756763E+02  0.89685222812E+02 0.  0.
         13    1    3    3    0    0  0.88656447709E+01  0.97353418085E+01  0.33652180473E+02  0.36136642787E+02  0.10566000000E+00 0.  1.
         22    1    1    0    0    0  0.22495203431E+02 -0.12965659963E+02  0.15669668573E+02  0.30326243237E+02  0.00000000000E+00 0. -1.
</event>
<event>
 5    1  0.1758480E-003  0.9118800E+02  0.7818608E-02  0.1130116E+00
         25   -1    0    0    0    0  0.00000000000E+00  0.00000000000E+00  0.99999998245E-14  0.12500000000E+03  0.12500000000E+03 0.  0.
        -13    1    3    3    0    0 -0.27004671822E+02 -0.11481416261E+02 -0.17811060357E+02  0.34326669728E+02  0.10566000000E+00 0. -1.
         23    2    1    0    0    0  0.13214243570E+02 -0.41779557920E+01  0.26797090419E+02  0.94831214763E+02  0.89904414190E+02 0.  0.
         13    1    3    3    0    0  0.40218915392E+02  0.73034604686E+01  0.44608150776E+02  0.60504545035E+02  0.10566000000E+00 0.  1.
         22    1    1    0    0    0 -0.13214243570E+02  0.41779557920E+01 -0.26797090419E+02  0.30168785237E+02  0.00000000000E+00 0.  1.
</event>
<event>
 5    1  0.1758480E-003  0.9118800E+02  0.7818608E-02  0.1130116E+00
         25   -1    0    0    0    0  0.00000000000E+00  0.00000000000E+00  0.99999998245E-14  0.12500000000E+03  0.12500000000E+03 0.  0.
        -13    1    3    3    0    0  0.32038187020E+01 -0.55289309574E+02 -0.11424816772E+02  0.56548296259E+02  0.10566000000E+00 0.  1.
         23    2    1    0    0    0  0.17285832618E+02 -0.19193129195E+02 -0.14433908713E+02  0.95410915217E+02  0.90706828873E+02 0.  0.
         13    1    3    3    0    0  0.14082013916E+02  0.36096180379E+02 -0.30090919405E+01  0.38862618958E+02  0.10566000000E+00 0. -1.
         22    1    1    0    0    0 -0.17285832618E+02  0.19193129195E+02  0.14433908713E+02  0.29589084783E+02  0.00000000000E+00 0.  1.
</event>
<event>
 5    1  0.1758480E-003  0.9118800E+02  0.7818608E-02  0.1130116E+00
         25   -1    0    0    0    0  0.00000000000E+00  0.00000000000E+00  0.99999998245E-14  0.12500000000E+03  0.12500000000E+03 0.  0.
        -13    1    3    3    0    0 -0.28794368815E+02  0.18287413588E+02 -0.23006662697E+01  0.34188439574E+02  0.10566000000E+00 0. -1.
         23    2    1    0    0    0  0.16797655832E+02 -0.20267123686E+02  0.12730656987E+02  0.95759836332E+02  0.91186397467E+02 0.  0.
         13    1    3    3    0    0  0.45592024647E+02 -0.38554537274E+02  0.15031323257E+02  0.61571396758E+02  0.10566000000E+00 0.  1.
         22    1    1    0    0    0 -0.16797655832E+02  0.20267123686E+02 -0.12730656987E+02  0.29240163668E+02  0.00000000000E+00 0.  1.
</event>
<event>
 5    1  0.1758480E-003  0.9118800E+02  0.7818608E-02  0.1130116E+00
         25   -1    0    0    0    0  0.00000000000E+00  0.00000000000E+00  0.99999998245E-14  0.12500000000E+03  0.12500000000E+03 0.  0.
        -13    1    3    3    0    0  0.11355217014E+01  0.53760983146E+02 -0.28866731400E+02  0.61031402279E+02  0.10566000000E+00 0.  1.
         23    2    1    0    0    0 -0.88143549586E+01  0.28189793360E+02 -0.12976472061E+02  0.92739402824E+02  0.86947401950E+02 0.  0.
         13    1    3    3    0    0 -0.99498766600E+01 -0.25571189786E+02  0.15890259339E+02  0.31708000544E+02  0.10566000000E+00 0. -1.
         22    1    1    0    0    0  0.88143549586E+01 -0.28189793360E+02  0.12976472061E+02  0.32260597176E+02  0.00000000000E+00 0.  1.
</event>
<event>
 5    1  0.1758480E-003  0.9118800E+02  0.7818608E-02  0.1130116E+00
         25   -1    0    0    0    0  0.00000000000E+00  0.00000000000E+00  0.99999998245E-14  0.12500000000E+03  0.12500000000E+03 0.  0.
        -13    1    3    3    0    0  0.15190602391E+02  0.10202894474E+02  0.26777309190E+02  0.32432836881E+02  0.10566000000E+00 0. -1.
         23    2    1    0    0    0 -0.22867477465E+02  0.20933900274E+02 -0.15515728840E+02  0.90331750149E+02  0.83414252602E+02 0.  0.
         13    1    3    3    0    0 -0.38058079856E+02  0.10731005800E+02 -0.42293038030E+02  0.57898913268E+02  0.10566000000E+00 0.  1.
         22    1    1    0    0    0  0.22867477465E+02 -0.20933900274E+02  0.15515728840E+02  0.34668249851E+02  0.00000000000E+00 0.  1.
</event>
<event>
 5    1  0.1758480E-003  0.9118800E+02  0.7818608E-02  0.1130116E+00
         25   -1    0    0    0    0  0.00000000000E+00  0.00000000000E+00  0.99999998245E-14  0.12500000000E+03  0.12500000000E+03 0.  0.
        -13    1    3    3    0    0 -0.38648333588E+02  0.39870589921E+02  0.20213154103E+02  0.59092642457E+02  0.10566000000E+00 0.  1.
         23    2    1    0    0    0 -0.25053431131E+02  0.93419474316E+01 -0.21483387616E+00  0.98260655452E+02  0.94552439752E+02 0.  0.
         13    1    3    3    0    0  0.13594902457E+02 -0.30528642490E+02 -0.20427987979E+02  0.39168012995E+02  0.10566000000E+00 0. -1.
         22    1    1    0    0    0  0.25053431131E+02 -0.93419474316E+01  0.21483387616E+00  0.26739344548E+02  0.00000000000E+00 0.  1.
</event>
<event>
 5    1  0.1758480E-003  0.9118800E+02  0.7818608E-02  0.1130116E+00
         25   -1    0    0    0    0  0.00000000000E+00  0.00000000000E+00  0.99999998245E-14  0.12500000000E+03  0.12500000000E+03 0.  0.
        -13    1    3    3    0    0  0.19499001147E+02 -0.37721537202E+02 -0.32379208682E+01  0.42586625955E+02  0.10566000000E+00 0.  1.
         23    2    1    0    0    0  0.21745902442E+01  0.32240328989E+01 -0.30178467904E+02  0.94572000462E+02  0.89543286267E+02 0.  0.
         13    1    3    3    0    0 -0.17324410903E+02  0.40945570101E+02 -0.26940547035E+02  0.51985374507E+02  0.10566000000E+00 0. -1.
         22    1    1    0    0    0 -0.21745902442E+01 -0.32240328989E+01  0.30178467904E+02  0.30427999538E+02  0.00000000000E+00 0. -1.
</event>
<event>
 5    1  0.1758480E-003  0.9118800E+02  0.7818608E-02  0.1130116E+00
         25   -1    0    0    0    0  0.00000000000E+00  0.00000000000E+00  0.99999998245E-14  0.12500000000E+03  0.12500000000E+03 0.  0.
        -13    1    3    3    0    0  0.35621030746E+02 -0.16238226663E+02 -0.38816929849E+02  0.55129874328E+02  0.10566000000E+00 0.  1.
         23    2    1    0    0    0  0.56397423650E+01 -0.24413831774E+02 -0.26420438837E+02  0.88587344725E+02  0.80757886186E+02 0.  0.
         13    1    3    3    0    0 -0.29981288381E+02 -0.81756051110E+01  0.12396491012E+02  0.33457470397E+02  0.10566000000E+00 0. -1.
         22    1    1    0    0    0 -0.56397423650E+01  0.24413831774E+02  0.26420438837E+02  0.36412655275E+02  0.00000000000E+00 0.  1.
</event>
<event>
 5    1  0.1758480E-003  0.9118800E+02  0.7818608E-02  0.1130116E+00
         25   -1    0    0    0    0  0.00000000000E+00  0.00000000000E+00  0.99999998245E-14  0.12500000000E+03  0.12500000000E+03 0.  0.
        -13    1    3    3    0    0 -0.63434729596E+01 -0.85551259141E+01 -0.43565793966E+02  0.44848850560E+02  0.10566000000E+00 0. -1.
         23    2    1    0    0    0 -0.14818983363E+02  0.25600646760E+02 -0.92372668819E+01  0.94010929638E+02  0.88756590795E+02 0.  0.
         13    1    3    3    0    0 -0.84755104033E+01  0.34155772674E+02  0.34328527084E+02  0.49162079079E+02  0.10566000000E+00 0.  1.
         22    1    1    0    0    0  0.14818983363E+02 -0.25600646760E+02  0.92372668819E+01  0.30989070362E+02  0.00000000000E+00 0.  1.
</event>
<event>
 5    1  0.1758480E-003  0.9118800E+02  0.7818608E-02  0.1130116E+00
         25   -1    0    0    0    0  0.00000000000E+00  0.00000000000E+00  0.99999998245E-14  0.12500000000E+03  0.12500000000E+03 0.  0.
        -13    1    3    3    0    0  0.20255033129E+02  0.33782688952E+01  0.29271904555E+02  0.35756602581E+02  0.10566000000E+00 0.  1.
         23    2    1    0    0    0 -0.16873880454E+02  0.25032357880E+02 -0.91991454655E+01  0.93440990828E+02  0.87950257003E+02 0.  0.
         13    1    3    3    0    0 -0.37128913584E+02  0.21654088985E+02 -0.38471050021E+02  0.57684388247E+02  0.10566000000E+00 0. -1.
         22    1    1    0    0    0  0.16873880454E+02 -0.25032357880E+02  0.91991454655E+01  0.31559009172E+02  0.00000000000E+00 0. -1.
</event>
<event>
 5    1  0.1758480E-003  0.9118800E+02  0.7818608E-02  0.1130116E+00
         25   -1    0    0    0    0  0.00000000000E+00  0.00000000000E+00  0.99999998245E-14  0.12500000000E+03  0.12500000000E+03 0.  0.
        -13    1    3    3    0    0 -0.57048221201E+02  0.75866585097E+01 -0.16786266079E+02  0.59948701591E+02  0.10566000000E+00 0. -1.
         23    2    1    0    0    0 -0.24373571359E+02  0.12626882553E+02  0.10800167252E+01  0.97528640734E+02  0.93579699633E+02 0.  0.
         13    1    3    3    0    0  0.32674649842E+02  0.50402240433E+01  0.17866282804E+02  0.37579939142E+02  0.10566000000E+00 0.  1.
         22    1    1    0    0    0  0.24373571359E+02 -0.12626882553E+02 -0.10800167252E+01  0.27471359266E+02  0.00000000000E+00 0. -1.
</event>
<event>
 5    1  0.1758480E-003  0.9118800E+02  0.7818608E-02  0.1130116E+00
         25   -1    0    0    0    0  0.00000000000E+00  0.00000000000E+00  0.99999998245E-14  0.12500000000E+03  0.12500000000E+03 0.  0.
        -13    1    3    3    0    0 -0.16771461545E+02 -0.13836481552E+02  0.38555013066E+02  0.44263193972E+02  0.10566000000E+00 0. -1.
         23    2    1    0    0    0  0.20784378479E+02  0.13209697553E+02  0.14476190859E+02  0.96433470634E+02  0.92105198868E+02 0.  0.
         13    1    3    3    0    0  0.37555840024E+02  0.27046179105E+02 -0.24078822207E+02  0.52170276662E+02  0.10566000000E+00 0.  1.
         22    1    1    0    0    0 -0.20784378479E+02 -0.13209697553E+02 -0.14476190859E+02  0.28566529366E+02  0.00000000000E+00 0. -1.
</event>
<event>
 5    1  0.1758480E-003  0.9118800E+02  0.7818608E-02  0.1130116E+00
         25   -1    0    0    0    0  0.00000000000E+00  0.00000000000E+00  0.99999998245E-14  0.12500000000E+03  0.12500000000E+03 0.  0.
        -13    1    3    3    0    0  0.43276671525E+02  0.11358582610E+02 -0.39586643842E+02  0.59741118435E+02  0.10566000000E+00 0.  1.
         23    2    1    0    0    0  0.14049112582E+02  0.16734263229E+02 -0.13271987380E+02  0.99435204300E+02  0.96092669206E+02 0.  0.
         13    1    3    3    0    0 -0.29227558943E+02  0.53756806190E+01  0.26314656462E+02  0.39694085865E+02  0.10566000000E+00 0. -1.
         22    1    1    0    0    0 -0.14049112582E+02 -0.16734263229E+02  0.13271987380E+02  0.25564795700E+02  0.00000000000E+00 0.  1.
</event>
<event>
 5    1  0.1758480E-003  0.9118800E+02  0.7818608E-02  0.1130116E+00
         25   -1    0    0    0    0  0.00000000000E+00  0.00000000000E+00  0.99999998245E-14  0.12500000000E+03  0.12500000000E+03 0.  0.
        -13    1    3    3    0    0  0.32415590894E+02 -0.10049117393E+02  0.16046853507E+02  0.37540217965E+02  0.10566000000E+00 0. -1.
         23    2    1    0    0    0 -0.18915366713E+02 -0.18346956862E+02 -0.11343535253E+02  0.96310668951E+02  0.91938388270E+02 0.  0.
         13    1    3    3    0    0 -0.51330957607E+02 -0.82978394696E+01 -0.27390388760E+02  0.58770450986E+02  0.10566000000E+00 0.  1.
         22    1    1    0    0    0  0.18915366713E+02  0.18346956862E+02  0.11343535253E+02  0.28689331049E+02  0.00000000000E+00 0.  1.
</event>
<event>
 5    1  0.1758480E-003  0.9118800E+02  0.7818608E-02  0.1130116E+00
         25   -1    0    0    0    0  0.00000000000E+00  0.00000000000E+00  0.99999998245E-14  0.12500000000E+03  0.12500000000E+03 0.  0.
        -13    1    3    3    0    0 -0.19052412766E+02  0.25340751617E+02  0.10662576697E+02  0.33449212705E+02  0.10566000000E+00 0.  1.
         23    2    1    0    0    0  0.15618300442E+02 -0.63598881518E+01 -0.26663568307E+02  0.93451222513E+02  0.87964797666E+02 0.  0.
         13    1    3    3    0    0  0.34670713209E+02 -0.31700639769E+02 -0.37326145004E+02  0.60002009808E+02  0.10566000000E+00 0. -1.
         22    1    1    0    0    0 -0.15618300442E+02  0.63598881518E+01  0.26663568307E+02  0.31548777487E+02  0.00000000000E+00 0. -1.
</event>
<event>
 5    1  0.1758480E-003  0.9118800E+02  0.7818608E-02  0.1130116E+00
         25   -1    0    0    0    0  0.00000000000E+00  0.00000000000E+00  0.99999998245E-14  0.12500000000E+03  0.12500000000E+03 0.  0.
        -13    1    3    3    0    0 -0.41959009331E+02  0.11303356698E+02  0.16707043108E+02  0.46555996285E+02  0.10566000000E+00 0.  1.
         23    2    1    0    0    0  0.27356272185E+01 -0.77041114520E+01  0.27501008000E+02  0.96309541123E+02  0.91936854856E+02 0.  0.
         13    1    3    3    0    0  0.44694636550E+02 -0.19007468150E+02  0.10793964892E+02  0.49753544838E+02  0.10566000000E+00 0. -1.
         22    1    1    0    0    0 -0.27356272185E+01  0.77041114520E+01 -0.27501008000E+02  0.28690458877E+02  0.00000000000E+00 0.  1.
</event>
<event>
 5    1  0.1758480E-003  0.9118800E+02  0.7818608E-02  0.1130116E+00
         25   -1    0    0    0    0  0.00000000000E+00  0.00000000000E+00  0.99999998245E-14  0.12500000000E+03  0.12500000000E+03 0.  0.
        -13    1    3    3    0    0 -0.27303475663E+02 -0.24710985981E+02 -0.99294543585E+01  0.38140763487E+02  0.10566000000E+00 0. -1.
         23    2    1    0    0    0  0.11517080329E+02 -0.41298822125E+00  0.26136972492E+02  0.96435073436E+02  0.92107374075E+02 0.  0.
         13    1    3    3    0    0  0.38820555992E+02  0.24297997760E+02  0.36066426851E+02  0.58294309949E+02  0.10566000000E+00 0.  1.
         22    1    1    0    0    0 -0.11517080329E+02  0.41298822125E+00 -0.26136972492E+02  0.28564926564E+02  0.00000000000E+00 0.  1.
</event>
<event>
 5    1  0.1758480E-003  0.9118800E+02  0.7818608E-02  0.1130116E+00
         25   -1    0    0    0    0  0.00000000000E+00  0.00000000000E+00  0.99999998245E-14  0.12500000000E+03  0.12500000000E+03 0.  0.
        -13    1    3    3    0    0  0.35339285932E+02  0.14943307049E+02  0.42162707718E+02  0.57007654240E+02  0.10566000000E+00 0. -1.
         23    2    1    0    0    0  0.26555472150E+02  0.11921867022E+02  0.48121540100E+01  0.95496087706E+02  0.90824126346E+02 0.  0.
         13    1    3    3    0    0 -0.87838137822E+01 -0.30214400268E+01 -0.37350553708E+02  0.38488433467E+02  0.10566000000E+00 0.  1.
         22    1    1    0    0    0 -0.26555472150E+02 -0.11921867022E+02 -0.48121540100E+01  0.29503912294E+02  0.00000000000E+00 0. -1.
</event>
<event>
 5    1  0.1758480E-003  0.9118800E+02  0.7818608E-02  0.1130116E+00
         25   -1    0    0    0    0  0.00000000000E+00  0.00000000000E+00  0.99999998245E-14  0.12500000000E+03  0.12500000000E+03 0.  0.
        -13    1    3    3    0    0 -0.32525377111E+02  0.48284809771E+01  0.38989937367E+02  0.51004321039E+02  0.10566000000E+00 0.  1.
         23    2    1    0    0    0  0.25866407016E+01  0.22789369628E+02  0.18980288549E+02  0.95229252083E+02  0.90456138657E+02 0.  0.
         13    1    3    3    0    0  0.35112017812E+02  0.17960888651E+02 -0.20009648818E+02  0.44224931044E+02  0.10566000000E+00 0. -1.
         22    1    1    0    0    0 -0.25866407016E+01 -0.22789369628E+02 -0.18980288549E+02  0.29770747917E+02  0.00000000000E+00 0.  1.
</event>
<event>
 5    1  0.1758480E-003  0.9118800E+02  0.7818608E-02  0.1130116E+00
         25   -1    0    0    0    0  0.00000000000E+00  0.00000000000E+00  0.99999998245E-14  0.12500000000E+03  0.12500000000E+03 0.  0.
        -13    1    3    3    0    0  0.47852653419E+00  0.35937281428E+02 -0.12823417941E+01  0.35963491886E+02  0.10566000000E+00 0.  1.
         23    2    1    0    0    0  0.23741880395E+02 -0.16974763968E+02  0.85351006642E+01  0.94591655096E+02  0.89570719400E+02 0.  0.
         13    1    3    3    0    0  0.23263353861E+02 -0.52912045397E+02  0.98174424583E+01  0.58628163210E+02  0.10566000000E+00 0. -1.
         22    1    1    0    0    0 -0.23741880395E+02  0.16974763968E+02 -0.85351006642E+01  0.30408344904E+02  0.00000000000E+00 0. -1.
</event>
<event>
 5    1  0.1758480E-003  0.9118800E+02  0.7818608E-02  0.1130116E+00
         25   -1    0    0    0    0  0.00000000000E+00  0.00000000000E+00  0.99999998245E-14  0.12500000000E+03  0.12500000000E+03 0.  0.
        -13    1    3    3    0    0  0.29354843766E+02  0.12898106449E+02 -0.38067386277E+02  0.49771528653E+02  0.10566000000E+00 0.  1.
         23    2    1    0    0    0 -0.13774108916E+02  0.36051756662E+01 -0.25746999382E+02  0.95578386428E+02  0.90937322410E+02 0.  0.
         13    1    3    3    0    0 -0.43128952682E+02 -0.92929307823E+01  0.12320386895E+02  0.45806857775E+02  0.10566000000E+00 0. -1.
         22    1    1    0    0    0  0.13774108916E+02 -0.36051756662E+01  0.25746999382E+02  0.29421613572E+02  0.00000000000E+00 0.  1.
</event>
<event>
 5    1  0.1758480E-003  0.9118800E+02  0.7818608E-02  0.1130116E+00
         25   -1    0    0    0    0  0.00000000000E+00  0.00000000000E+00  0.99999998245E-14  0.12500000000E+03  0.12500000000E+03 0.  0.
        -13    1    3    3    0    0  0.33758571029E+02 -0.23862433476E+02  0.10780854833E+02  0.42723469479E+02  0.10566000000E+00 0. -1.
         23    2    1    0    0    0  0.13903777182E+02  0.25109608086E+02  0.29007964438E+01  0.96151740813E+02  0.91722054072E+02 0.  0.
         13    1    3    3    0    0 -0.19854793847E+02  0.48972041562E+02 -0.78800583891E+01  0.53428271334E+02  0.10566000000E+00 0.  1.
         22    1    1    0    0    0 -0.13903777182E+02 -0.25109608086E+02 -0.29007964438E+01  0.28848259187E+02  0.00000000000E+00 0.  1.
</event>
<event>
 5    1  0.1758480E-003  0.9118800E+02  0.7818608E-02  0.1130116E+00
         25   -1    0    0    0    0  0.00000000000E+00  0.00000000000E+00  0.99999998245E-14  0.12500000000E+03  0.12500000000E+03 0.  0.
        -13    1    3    3    0    0 -0.36393822335E+02 -0.50494748063E+01 -0.18021222206E+02  0.40924114087E+02  0.10566000000E+00 0. -1.
         23    2    1    0    0    0  0.55187502102E+01  0.28128089882E+02 -0.66056766546E+01  0.95584340763E+02  0.90945506710E+02 0.  0.
         13    1    3    3    0    0  0.41912572545E+02  0.33177564688E+02  0.11415545552E+02  0.54660226676E+02  0.10566000000E+00 0.  1.
         22    1    1    0    0    0 -0.55187502102E+01 -0.28128089882E+02  0.66056766546E+01  0.29415659237E+02  0.00000000000E+00 0. -1.
</event>
<event>
 5    1  0.1758480E-003  0.9118800E+02  0.7818608E-02  0.1130116E+00
         25   -1    0    0    0    0  0.00000000000E+00  0.00000000000E+00  0.99999998245E-14  0.12500000000E+03  0.12500000000E+03 0.  0.
        -13    1    3    3    0    0 -0.48127648337E+02 -0.85629785167E+01  0.23853161117E+02  0.54392826686E+02  0.10566000000E+00 0.  1.
         23    2    1    0    0    0 -0.28756816258E+02  0.64558731960E+01 -0.78818802047E+01  0.94491692679E+02  0.89431108512E+02 0.  0.
         13    1    3    3    0    0  0.19370832079E+02  0.15018851713E+02 -0.31735041322E+02  0.40098865993E+02  0.10566000000E+00 0. -1.
         22    1    1    0    0    0  0.28756816258E+02 -0.64558731960E+01  0.78818802047E+01  0.30508307321E+02  0.00000000000E+00 0. -1.
</event>
<event>
 5    1  0.1758480E-003  0.9118800E+02  0.7818608E-02  0.1130116E+00
         25   -1    0    0    0    0  0.00000000000E+00  0.00000000000E+00  0.99999998245E-14  0.12500000000E+03  0.12500000000E+03 0.  0.
        -13    1    3    3    0    0  0.31256631428E+02  0.27488847189E+02  0.38044170951E+02  0.56391345395E+02  0.10566000000E+00 0. -1.
         23    2    1    0    0    0  0.87699410508E+00  0.56710628683E+01  0.29748869298E+02  0.94702717990E+02  0.89725578836E+02 0.  0.
         13    1    3    3    0    0 -0.30379637323E+02 -0.21817784321E+02 -0.82953016533E+01  0.38311372595E+02  0.10566000000E+00 0.  1.
         22    1    1    0    0    0 -0.87699410508E+00 -0.56710628683E+01 -0.29748869298E+02  0.30297282010E+02  0.00000000000E+00 0. -1.
</event>
<event>
 5    1  0.1758480E-003  0.9118800E+02  0.7818608E-02  0.1130116E+00
         25   -1    0    0    0    0  0.00000000000E+00  0.00000000000E+00  0.99999998245E-14  0.12500000000E+03  0.12500000000E+03 0.  0.
        -13    1    3    3    0    0 -0.47072704416E+02 -0.13433664576E+02  0.18617957207E+02  0.52373107026E+02  0.10566000000E+00 0.  1.
         23    2    1    0    0    0 -0.26593685274E+02  0.16028551492E+02 -0.22275894935E+01  0.93869617504E+02  0.88557350774E+02 0.  0.
         13    1    3    3    0    0  0.20479019142E+02  0.29462216068E+02 -0.20845546701E+02  0.41496510479E+02  0.10566000000E+00 0. -1.
         22    1    1    0    0    0  0.26593685274E+02 -0.16028551492E+02  0.22275894935E+01  0.31130382496E+02  0.00000000000E+00 0.  1.
</event>
<event>
 5    1  0.1758480E-003  0.9118800E+02  0.7818608E-02  0.1130116E+00
         25   -1    0    0    0    0  0.00000000000E+00  0.00000000000E+00  0.99999998245E-14  0.12500000000E+03  0.12500000000E+03 0.  0.
        -13    1    3    3    0    0  0.73104392626E+01 -0.33496008447E+01 -0.21019798164E+02  0.22505675438E+02  0.10566000000E+00 0. -1.
         23    2    1    0    0    0 -0.39882184601E+02 -0.14276613311E+02  0.11810484046E+02  0.81023894333E+02  0.68051257029E+02 0.  0.
         13    1    3    3    0    0 -0.47192623864E+02 -0.10927012467E+02  0.32830282210E+02  0.58518218895E+02  0.10566000000E+00 0.  1.
         22    1    1    0    0    0  0.39882184601E+02  0.14276613311E+02 -0.11810484046E+02  0.43976105667E+02  0.00000000000E+00 0.  1.
</event>
<event>
 5    1  0.1758480E-003  0.9118800E+02  0.7818608E-02  0.1130116E+00
         25   -1    0    0    0    0  0.00000000000E+00  0.00000000000E+00  0.99999998245E-14  0.12500000000E+03  0.12500000000E+03 0.  0.
        -13    1    3    3    0    0 -0.16979567270E+02  0.11446187327E+02  0.37001834189E+02  0.42290280283E+02  0.10566000000E+00 0. -1.
         23    2    1    0    0    0 -0.24245238078E+02  0.61472342970E+01 -0.15511586564E+02  0.95568225050E+02  0.90923353780E+02 0.  0.
         13    1    3    3    0    0 -0.72656708082E+01 -0.52989530303E+01 -0.52513420752E+02  0.53277944768E+02  0.10566000000E+00 0.  1.
         22    1    1    0    0    0  0.24245238078E+02 -0.61472342970E+01  0.15511586564E+02  0.29431774950E+02  0.00000000000E+00 0.  1.
</event>
<event>
 5    1  0.1758480E-003  0.9118800E+02  0.7818608E-02  0.1130116E+00
         25   -1    0    0    0    0  0.00000000000E+00  0.00000000000E+00  0.99999998245E-14  0.12500000000E+03  0.12500000000E+03 0.  0.
        -13    1    3    3    0    0  0.39504170641E+02 -0.32069916120E+01 -0.19749363644E+02  0.44282195312E+02  0.10566000000E+00 0. -1.
         23    2    1    0    0    0  0.21710752287E+02 -0.13919473886E+02  0.22122290909E+02  0.91022003102E+02  0.84442292576E+02 0.  0.
         13    1    3    3    0    0 -0.17793418354E+02 -0.10712482274E+02  0.41871654554E+02  0.46739807791E+02  0.10566000000E+00 0.  1.
         22    1    1    0    0    0 -0.21710752287E+02  0.13919473886E+02 -0.22122290909E+02  0.33977996898E+02  0.00000000000E+00 0.  1.
</event>
<event>
 5    1  0.1758480E-003  0.9118800E+02  0.7818608E-02  0.1130116E+00
         25   -1    0    0    0    0  0.00000000000E+00  0.00000000000E+00  0.99999998245E-14  0.12500000000E+03  0.12500000000E+03 0.  0.
        -13    1    3    3    0    0 -0.28177441070E+01  0.36423820408E+02  0.19858674879E+02  0.41581396164E+02  0.10566000000E+00 0.  1.
         23    2    1    0    0    0  0.41846692141E+00  0.26471233695E+02 -0.25565987924E+02  0.88196181360E+02  0.80150142483E+02 0.  0.
         13    1    3    3    0    0  0.32362110284E+01 -0.99525867128E+01 -0.45424662803E+02  0.46614785196E+02  0.10566000000E+00 0. -1.
         22    1    1    0    0    0 -0.41846692141E+00 -0.26471233695E+02  0.25565987924E+02  0.36803818640E+02  0.00000000000E+00 0. -1.
</event>
<event>
 5    1  0.1758480E-003  0.9118800E+02  0.7818608E-02  0.1130116E+00
         25   -1    0    0    0    0  0.00000000000E+00  0.00000000000E+00  0.99999998245E-14  0.12500000000E+03  0.12500000000E+03 0.  0.
        -13    1    3    3    0    0 -0.39049948752E+02  0.14155858880E+02  0.46382897284E+02  0.62262919644E+02  0.10566000000E+00 0.  1.
         23    2    1    0    0    0 -0.20757501759E+02  0.52489996167E+01  0.19019871726E+02  0.96361190725E+02  0.92007052345E+02 0.  0.
         13    1    3    3    0    0  0.18292446992E+02 -0.89068592634E+01 -0.27363025559E+02  0.34098271080E+02  0.10566000000E+00 0. -1.
         22    1    1    0    0    0  0.20757501759E+02 -0.52489996167E+01 -0.19019871726E+02  0.28638809275E+02  0.00000000000E+00 0.  1.
</event>
<event>
 5    1  0.1758480E-003  0.9118800E+02  0.7818608E-02  0.1130116E+00
         25   -1    0    0    0    0  0.00000000000E+00  0.00000000000E+00  0.99999998245E-14  0.12500000000E+03  0.12500000000E+03 0.  0.
        -13    1    3    3    0    0 -0.38331737827E+02 -0.35121786499E+02  0.87410514414E+01  0.52718869071E+02  0.10566000000E+00 0.  1.
         23    2    1    0    0    0 -0.79557853690E+01 -0.72933940602E+01  0.25589679221E+02  0.97227355178E+02  0.93176385391E+02 0.  0.
         13    1    3    3    0    0  0.30375952458E+02  0.27828392439E+02  0.16848627780E+02  0.44508486108E+02  0.10566000000E+00 0. -1.
         22    1    1    0    0    0  0.79557853690E+01  0.72933940602E+01 -0.25589679221E+02  0.27772644822E+02  0.00000000000E+00 0.  1.
</event>
<event>
 5    1  0.1758480E-003  0.9118800E+02  0.7818608E-02  0.1130116E+00
         25   -1    0    0    0    0  0.00000000000E+00  0.00000000000E+00  0.99999998245E-14  0.12500000000E+03  0.12500000000E+03 0.  0.
        -13    1    3    3    0    0  0.39251050484E+02 -0.17610446584E+02 -0.80087713227E+01  0.43759848893E+02  0.10566000000E+00 0. -1.
         23    2    1    0    0    0  0.59732029233E+01  0.92566526051E+01  0.24930594894E+02  0.97743820290E+02  0.93866687768E+02 0.  0.
         13    1    3    3    0    0 -0.33277847561E+02  0.26867099189E+02  0.32939366216E+02  0.53983971398E+02  0.10566000000E+00 0.  1.
         22    1    1    0    0    0 -0.59732029233E+01 -0.92566526051E+01 -0.24930594894E+02  0.27256179710E+02  0.00000000000E+00 0. -1.
</event>
<event>
 5    1  0.1758480E-003  0.9118800E+02  0.7818608E-02  0.1130116E+00
         25   -1    0    0    0    0  0.00000000000E+00  0.00000000000E+00  0.99999998245E-14  0.12500000000E+03  0.12500000000E+03 0.  0.
        -13    1    3    3    0    0  0.32073950343E+02 -0.95932228064E+01  0.94765036815E+00  0.33491452934E+02  0.10566000000E+00 0. -1.
         23    2    1    0    0    0 -0.29354030669E+02 -0.43977359431E+01 -0.23386672491E+01  0.95226378077E+02  0.90452167023E+02 0.  0.
         13    1    3    3    0    0 -0.61427981011E+02  0.51954868633E+01 -0.32863176173E+01  0.61734925143E+02  0.10566000000E+00 0.  1.
         22    1    1    0    0    0  0.29354030669E+02  0.43977359431E+01  0.23386672491E+01  0.29773621923E+02  0.00000000000E+00 0.  1.
</event>
<event>
 5    1  0.1758480E-003  0.9118800E+02  0.7818608E-02  0.1130116E+00
         25   -1    0    0    0    0  0.00000000000E+00  0.00000000000E+00  0.99999998245E-14  0.12500000000E+03  0.12500000000E+03 0.  0.
        -13    1    3    3    0    0  0.39201279177E+02 -0.36325452423E+02  0.67182326647E+01  0.53864873499E+02  0.10566000000E+00 0. -1.
         23    2    1    0    0    0  0.27964505263E+02  0.16467531924E+00 -0.96640536225E+01  0.95412255832E+02  0.90708676310E+02 0.  0.
         13    1    3    3    0    0 -0.11236773914E+02  0.36490127743E+02 -0.16382286287E+02  0.41547382333E+02  0.10566000000E+00 0.  1.
         22    1    1    0    0    0 -0.27964505263E+02 -0.16467531924E+00  0.96640536225E+01  0.29587744168E+02  0.00000000000E+00 0. -1.
</event>
<event>
 5    1  0.1758480E-003  0.9118800E+02  0.7818608E-02  0.1130116E+00
         25   -1    0    0    0    0  0.00000000000E+00  0.00000000000E+00  0.99999998245E-14  0.12500000000E+03  0.12500000000E+03 0.  0.
        -13    1    3    3    0    0 -0.10908625448E+02 -0.38374708313E+02 -0.53852048320E+01  0.40257023516E+02  0.10566000000E+00 0.  1.
         23    2    1    0    0    0  0.21146793833E+02  0.69260361770E+01  0.13613103627E+02  0.98914113837E+02  0.95412412501E+02 0.  0.
         13    1    3    3    0    0  0.32055419281E+02  0.45300744489E+02  0.18998308459E+02  0.58657090321E+02  0.10566000000E+00 0. -1.
         22    1    1    0    0    0 -0.21146793833E+02 -0.69260361770E+01 -0.13613103627E+02  0.26085886163E+02  0.00000000000E+00 0. -1.
</event>
<event>
 5    1  0.1758480E-003  0.9118800E+02  0.7818608E-02  0.1130116E+00
         25   -1    0    0    0    0  0.00000000000E+00  0.00000000000E+00  0.99999998245E-14  0.12500000000E+03  0.12500000000E+03 0.  0.
        -13    1    3    3    0    0  0.40558344195E+02  0.36998082960E+02 -0.28422484811E+02  0.61819788364E+02  0.10566000000E+00 0. -1.
         23    2    1    0    0    0  0.15561521808E+02  0.22620643011E+02 -0.11698776012E+02  0.95155137605E+02  0.90353662910E+02 0.  0.
         13    1    3    3    0    0 -0.24996822387E+02 -0.14377439949E+02  0.16723708799E+02  0.33335349240E+02  0.10566000000E+00 0.  1.
         22    1    1    0    0    0 -0.15561521808E+02 -0.22620643011E+02  0.11698776012E+02  0.29844862395E+02  0.00000000000E+00 0. -1.
</event>
<event>
 5    1  0.1758480E-003  0.9118800E+02  0.7818608E-02  0.1130116E+00
         25   -1    0    0    0    0  0.00000000000E+00  0.00000000000E+00  0.99999998245E-14  0.12500000000E+03  0.12500000000E+03 0.  0.
        -13    1    3    3    0    0 -0.10526943901E+01 -0.24550073676E+02  0.36911070633E+02  0.44342446733E+02  0.10566000000E+00 0.  1.
         23    2    1    0    0    0 -0.66327818700E+00 -0.24607065365E+02 -0.14946515030E+02  0.96201633460E+02  0.91790023232E+02 0.  0.
         13    1    3    3    0    0  0.38941620306E+00 -0.56991689035E-01 -0.51857585664E+02  0.51859186726E+02  0.10566000000E+00 0. -1.
         22    1    1    0    0    0  0.66327818700E+00  0.24607065365E+02  0.14946515030E+02  0.28798366540E+02  0.00000000000E+00 0.  1.
</event>
<event>
 5    1  0.1758480E-003  0.9118800E+02  0.7818608E-02  0.1130116E+00
         25   -1    0    0    0    0  0.00000000000E+00  0.00000000000E+00  0.99999998245E-14  0.12500000000E+03  0.12500000000E+03 0.  0.
        -13    1    3    3    0    0  0.30952802478E+02  0.20081146956E+02  0.16075195042E+02  0.40246136510E+02  0.10566000000E+00 0. -1.
         23    2    1    0    0    0 -0.23051799549E+02  0.12672648585E+02 -0.41128430515E+01  0.98374880985E+02  0.94703327535E+02 0.  0.
         13    1    3    3    0    0 -0.54004602026E+02 -0.74084983713E+01 -0.20188038094E+02  0.58128744475E+02  0.10566000000E+00 0.  1.
         22    1    1    0    0    0  0.23051799549E+02 -0.12672648585E+02  0.41128430515E+01  0.26625119015E+02  0.00000000000E+00 0.  1.
</event>
<event>
 5    1  0.1758480E-003  0.9118800E+02  0.7818608E-02  0.1130116E+00
         25   -1    0    0    0    0  0.00000000000E+00  0.00000000000E+00  0.99999998245E-14  0.12500000000E+03  0.12500000000E+03 0.  0.
        -13    1    3    3    0    0  0.16831512193E+02  0.98724739761E+00 -0.35274548806E+02  0.39097051265E+02  0.10566000000E+00 0. -1.
         23    2    1    0    0    0  0.20243580332E+02  0.27017156309E+01  0.21119794154E+02  0.95620627694E+02  0.90995367593E+02 0.  0.
         13    1    3    3    0    0  0.34120681389E+01  0.17144682332E+01  0.56394342960E+02  0.56523576429E+02  0.10566000000E+00 0.  1.
         22    1    1    0    0    0 -0.20243580332E+02 -0.27017156309E+01 -0.21119794154E+02  0.29379372306E+02  0.00000000000E+00 0.  1.
</event>
<event>
 5    1  0.1758480E-003  0.9118800E+02  0.7818608E-02  0.1130116E+00
         25   -1    0    0    0    0  0.00000000000E+00  0.00000000000E+00  0.99999998245E-14  0.12500000000E+03  0.12500000000E+03 0.  0.
        -13    1    3    3    0    0 -0.85325254816E+01 -0.50393393083E+01  0.41843217219E+02  0.43000754912E+02  0.10566000000E+00 0.  1.
         23    2    1    0    0    0  0.25359833069E+02 -0.12687694328E+02  0.99653480819E+00  0.96625860325E+02  0.92365930306E+02 0.  0.
         13    1    3    3    0    0  0.33892358551E+02 -0.76483550200E+01 -0.40846682410E+02  0.53625105413E+02  0.10566000000E+00 0. -1.
         22    1    1    0    0    0 -0.25359833069E+02  0.12687694328E+02 -0.99653480819E+00  0.28374139675E+02  0.00000000000E+00 0. -1.
</event>
<event>
 5    1  0.1758480E-003  0.9118800E+02  0.7818608E-02  0.1130116E+00
         25   -1    0    0    0    0  0.00000000000E+00  0.00000000000E+00  0.99999998245E-14  0.12500000000E+03  0.12500000000E+03 0.  0.
        -13    1    3    3    0    0  0.32182561832E+00  0.22798443572E+02  0.27454909862E+02  0.35688315183E+02  0.10566000000E+00 0.  1.
         23    2    1    0    0    0  0.14410685967E+02 -0.27697572508E+02  0.27073935765E+01  0.93660673701E+02  0.88261930782E+02 0.  0.
         13    1    3    3    0    0  0.14088860349E+02 -0.50496016080E+02 -0.24747516285E+02  0.57972358519E+02  0.10566000000E+00 0. -1.
         22    1    1    0    0    0 -0.14410685967E+02  0.27697572508E+02 -0.27073935765E+01  0.31339326299E+02  0.00000000000E+00 0. -1.
</event>
<event>
 5    1  0.1758480E-003  0.9118800E+02  0.7818608E-02  0.1130116E+00
         25   -1    0    0    0    0  0.00000000000E+00  0.00000000000E+00  0.99999998245E-14  0.12500000000E+03  0.12500000000E+03 0.  0.
        -13    1    3    3    0    0  0.12769694357E+01  0.33011599422E+00 -0.39384986058E+02  0.39407206427E+02  0.10566000000E+00 0.  1.
         23    2    1    0    0    0  0.30983557450E+02  0.13542102542E+02  0.89880726543E+00  0.91174311122E+02  0.84667454081E+02 0.  0.
         13    1    3    3    0    0  0.29706588015E+02  0.13211986548E+02  0.40283793324E+02  0.51767104696E+02  0.10566000000E+00 0. -1.
         22    1    1    0    0    0 -0.30983557450E+02 -0.13542102542E+02 -0.89880726543E+00  0.33825688878E+02  0.00000000000E+00 0. -1.
</event>
<event>
 5    1  0.1758480E-003  0.9118800E+02  0.7818608E-02  0.1130116E+00
         25   -1    0    0    0    0  0.00000000000E+00  0.00000000000E+00  0.99999998245E-14  0.12500000000E+03  0.12500000000E+03 0.  0.
        -13    1    3    3    0    0  0.36924778471E+02 -0.38260578546E+00 -0.24783471775E+02  0.44472657775E+02  0.10566000000E+00 0. -1.
         23    2    1    0    0    0 -0.14603904402E+02 -0.58747581284E+01 -0.23998880256E+02  0.96299249829E+02  0.91922861450E+02 0.  0.
         13    1    3    3    0    0 -0.51528682873E+02 -0.54921523430E+01  0.78459151906E+00  0.51826592054E+02  0.10566000000E+00 0.  1.
         22    1    1    0    0    0  0.14603904402E+02  0.58747581284E+01  0.23998880256E+02  0.28700750171E+02  0.00000000000E+00 0.  1.
</event>
<event>
 5    1  0.1758480E-003  0.9118800E+02  0.7818608E-02  0.1130116E+00
         25   -1    0    0    0    0  0.00000000000E+00  0.00000000000E+00  0.99999998245E-14  0.12500000000E+03  0.12500000000E+03 0.  0.
        -13    1    3    3    0    0 -0.27760643452E+02  0.17369501471E+02  0.38484207953E+02  0.50531161989E+02  0.10566000000E+00 0.  1.
         23    2    1    0    0    0 -0.21814421929E+02 -0.17749877017E+02  0.16286649173E+02  0.92501044948E+02  0.86604048618E+02 0.  0.
         13    1    3    3    0    0  0.59462215230E+01 -0.35119378488E+02 -0.22197558779E+02  0.41969882959E+02  0.10566000000E+00 0. -1.
         22    1    1    0    0    0  0.21814421929E+02  0.17749877017E+02 -0.16286649173E+02  0.32498955052E+02  0.00000000000E+00 0. -1.
</event>
<event>
 5    1  0.1758480E-003  0.9118800E+02  0.7818608E-02  0.1130116E+00
         25   -1    0    0    0    0  0.00000000000E+00  0.00000000000E+00  0.99999998245E-14  0.12500000000E+03  0.12500000000E+03 0.  0.
        -13    1    3    3    0    0  0.34753824175E+02 -0.10709356383E+02  0.88414039454E+01  0.37425929470E+02  0.10566000000E+00 0. -1.
         23    2    1    0    0    0 -0.16247039426E+02 -0.18123398366E+02 -0.17226825579E+02  0.95180754906E+02  0.90389096281E+02 0.  0.
         13    1    3    3    0    0 -0.51000863601E+02 -0.74140419835E+01 -0.26068229524E+02  0.57754825436E+02  0.10566000000E+00 0.  1.
         22    1    1    0    0    0  0.16247039426E+02  0.18123398366E+02  0.17226825579E+02  0.29819245094E+02  0.00000000000E+00 0.  1.
</event>
<event>
 5    1  0.1758480E-003  0.9118800E+02  0.7818608E-02  0.1130116E+00
         25   -1    0    0    0    0  0.00000000000E+00  0.00000000000E+00  0.99999998245E-14  0.12500000000E+03  0.12500000000E+03 0.  0.
        -13    1    3    3    0    0  0.11861160973E+02 -0.30841034969E+02 -0.19886188926E+02  0.38565894929E+02  0.10566000000E+00 0.  1.
         23    2    1    0    0    0 -0.20758323871E+02  0.16387153914E+02 -0.95144802660E+01  0.96893556645E+02  0.92727499487E+02 0.  0.
         13    1    3    3    0    0 -0.32619484844E+02  0.47228188883E+02  0.10371708660E+02  0.58327661716E+02  0.10566000000E+00 0. -1.
         22    1    1    0    0    0  0.20758323871E+02 -0.16387153914E+02  0.95144802660E+01  0.28106443355E+02  0.00000000000E+00 0. -1.
</event>
<event>
 5    1  0.1758480E-003  0.9118800E+02  0.7818608E-02  0.1130116E+00
         25   -1    0    0    0    0  0.00000000000E+00  0.00000000000E+00  0.99999998245E-14  0.12500000000E+03  0.12500000000E+03 0.  0.
        -13    1    3    3    0    0  0.18005405335E+02  0.16989613845E+02  0.35233084629E+02  0.43060689920E+02  0.10566000000E+00 0. -1.
         23    2    1    0    0    0  0.21254599231E+02 -0.19256226267E+02 -0.33813263022E+01  0.96121052546E+02  0.91680222166E+02 0.  0.
         13    1    3    3    0    0  0.32491938961E+01 -0.36245840112E+02 -0.38614410931E+02  0.53060362626E+02  0.10566000000E+00 0.  1.
         22    1    1    0    0    0 -0.21254599231E+02  0.19256226267E+02  0.33813263022E+01  0.28878947454E+02  0.00000000000E+00 0.  1.
</event>
<event>
 5    1  0.1758480E-003  0.9118800E+02  0.7818608E-02  0.1130116E+00
         25   -1    0    0    0    0  0.00000000000E+00  0.00000000000E+00  0.99999998245E-14  0.12500000000E+03  0.12500000000E+03 0.  0.
        -13    1    3    3    0    0 -0.40106754962E+02 -0.22122094439E+02  0.39173814558E+01  0.45970598185E+02  0.10566000000E+00 0.  1.
         23    2    1    0    0    0  0.40944369082E+01 -0.23612393958E+02 -0.17709562654E+02  0.95201708582E+02  0.90418068690E+02 0.  0.
         13    1    3    3    0    0  0.44201191870E+02 -0.14902995185E+01 -0.21626944110E+02  0.49231110397E+02  0.10566000000E+00 0. -1.
         22    1    1    0    0    0 -0.40944369082E+01  0.23612393958E+02  0.17709562654E+02  0.29798291418E+02  0.00000000000E+00 0. -1.
</event>
<event>
 5    1  0.1758480E-003  0.9118800E+02  0.7818608E-02  0.1130116E+00
         25   -1    0    0    0    0  0.00000000000E+00  0.00000000000E+00  0.99999998245E-14  0.12500000000E+03  0.12500000000E+03 0.  0.
        -13    1    3    3    0    0 -0.15559172510E+02 -0.93353065826E+01 -0.50888254528E+02  0.54026488051E+02  0.10566000000E+00 0. -1.
         23    2    1    0    0    0 -0.55683228400E+01 -0.25313435430E+02 -0.13779373845E+02  0.95646169311E+02  0.91030447257E+02 0.  0.
         13    1    3    3    0    0  0.99908496699E+01 -0.15978128848E+02  0.37108880683E+02  0.41619681260E+02  0.10566000000E+00 0.  1.
         22    1    1    0    0    0  0.55683228400E+01  0.25313435430E+02  0.13779373845E+02  0.29353830689E+02  0.00000000000E+00 0. -1.
</event>
<event>
 5    1  0.1758480E-003  0.9118800E+02  0.7818608E-02  0.1130116E+00
         25   -1    0    0    0    0  0.00000000000E+00  0.00000000000E+00  0.99999998245E-14  0.12500000000E+03  0.12500000000E+03 0.  0.
        -13    1    3    3    0    0  0.23747297527E+02 -0.35537767734E+02  0.79125138060E+01  0.43468219588E+02  0.10566000000E+00 0. -1.
         23    2    1    0    0    0  0.50779205379E+01  0.68178809730E+01  0.29324215486E+02  0.94468403386E+02  0.89398550583E+02 0.  0.
         13    1    3    3    0    0 -0.18669376989E+02  0.42355648707E+02  0.21411701680E+02  0.51000183798E+02  0.10566000000E+00 0.  1.
         22    1    1    0    0    0 -0.50779205379E+01 -0.68178809730E+01 -0.29324215486E+02  0.30531596614E+02  0.00000000000E+00 0.  1.
</event>
<event>
 5    1  0.1758480E-003  0.9118800E+02  0.7818608E-02  0.1130116E+00
         25   -1    0    0    0    0  0.00000000000E+00  0.00000000000E+00  0.99999998245E-14  0.12500000000E+03  0.12500000000E+03 0.  0.
        -13    1    3    3    0    0  0.22762913745E+02 -0.28510986201E+02  0.46982786239E+02  0.59484619383E+02  0.10566000000E+00 0.  1.
         23    2    1    0    0    0  0.41295653778E+01 -0.25168888374E+02  0.19327418767E+02  0.92998822391E+02  0.87319560225E+02 0.  0.
         13    1    3    3    0    0 -0.18633348367E+02  0.33420978274E+01 -0.27655367472E+02  0.33514203009E+02  0.10566000000E+00 0. -1.
         22    1    1    0    0    0 -0.41295653778E+01  0.25168888374E+02 -0.19327418767E+02  0.32001177609E+02  0.00000000000E+00 0.  1.
</event>
<event>
 5    1  0.1758480E-003  0.9118800E+02  0.7818608E-02  0.1130116E+00
         25   -1    0    0    0    0  0.00000000000E+00  0.00000000000E+00  0.99999998245E-14  0.12500000000E+03  0.12500000000E+03 0.  0.
        -13    1    3    3    0    0 -0.32866092733E+02 -0.29884991086E+02 -0.40700537720E+02  0.60248134232E+02  0.10566000000E+00 0. -1.
         23    2    1    0    0    0 -0.23597698840E+02 -0.13470892548E+02 -0.10457006069E+02  0.95885307618E+02  0.91358233917E+02 0.  0.
         13    1    3    3    0    0  0.92683938931E+01  0.16414098538E+02  0.30243531651E+02  0.35637173385E+02  0.10566000000E+00 0.  1.
         22    1    1    0    0    0  0.23597698840E+02  0.13470892548E+02  0.10457006069E+02  0.29114692382E+02  0.00000000000E+00 0. -1.
</event>
<event>
 5    1  0.1758480E-003  0.9118800E+02  0.7818608E-02  0.1130116E+00
         25   -1    0    0    0    0  0.00000000000E+00  0.00000000000E+00  0.99999998245E-14  0.12500000000E+03  0.12500000000E+03 0.  0.
        -13    1    3    3    0    0  0.60921914433E+00  0.34447982473E+02  0.33891809618E+02  0.48329086145E+02  0.10566000000E+00 0.  1.
         23    2    1    0    0    0 -0.97222743710E+01 -0.93736207524E+01  0.28228807973E+02  0.93706981856E+02  0.88327489855E+02 0.  0.
         13    1    3    3    0    0 -0.10331493515E+02 -0.43821603225E+02 -0.56630016449E+01  0.45377895711E+02  0.10566000000E+00 0. -1.
         22    1    1    0    0    0  0.97222743710E+01  0.93736207524E+01 -0.28228807973E+02  0.31293018144E+02  0.00000000000E+00 0. -1.
</event>
<event>
 5    1  0.1758480E-003  0.9118800E+02  0.7818608E-02  0.1130116E+00
         25   -1    0    0    0    0  0.00000000000E+00  0.00000000000E+00  0.99999998245E-14  0.12500000000E+03  0.12500000000E+03 0.  0.
        -13    1    3    3    0    0  0.11272031957E+02  0.35349453680E+02 -0.34458681632E+02  0.50636493596E+02  0.10566000000E+00 0.  1.
         23    2    1    0    0    0  0.19738116921E+01  0.28317118508E+02  0.86751452631E+01  0.95318132159E+02  0.90578877449E+02 0.  0.
         13    1    3    3    0    0 -0.92982202647E+01 -0.70323351720E+01  0.43133826895E+02  0.44681638563E+02  0.10566000000E+00 0. -1.
         22    1    1    0    0    0 -0.19738116921E+01 -0.28317118508E+02 -0.86751452631E+01  0.29681867841E+02  0.00000000000E+00 0. -1.
</event>
<event>
 5    1  0.1758480E-003  0.9118800E+02  0.7818608E-02  0.1130116E+00
         25   -1    0    0    0    0  0.00000000000E+00  0.00000000000E+00  0.99999998245E-14  0.12500000000E+03  0.12500000000E+03 0.  0.
        -13    1    3    3    0    0 -0.11878019634E+02  0.30366172848E+02  0.31967008610E+02  0.45662814273E+02  0.10566000000E+00 0. -1.
         23    2    1    0    0    0 -0.29946189065E+02 -0.49310331117E+00 -0.19995030291E+01  0.94983081392E+02  0.90115316944E+02 0.  0.
         13    1    3    3    0    0 -0.18068169431E+02 -0.30859276159E+02 -0.33966511639E+02  0.49320267118E+02  0.10566000000E+00 0.  1.
         22    1    1    0    0    0  0.29946189065E+02  0.49310331117E+00  0.19995030291E+01  0.30016918608E+02  0.00000000000E+00 0.  1.
</event>
<event>
 5    1  0.1758480E-003  0.9118800E+02  0.7818608E-02  0.1130116E+00
         25   -1    0    0    0    0  0.00000000000E+00  0.00000000000E+00  0.99999998245E-14  0.12500000000E+03  0.12500000000E+03 0.  0.
        -13    1    3    3    0    0 -0.30510095917E+02  0.40650216493E+02 -0.15796488217E+02  0.53224489268E+02  0.10566000000E+00 0. -1.
         23    2    1    0    0    0  0.23066340158E+01  0.29952846374E+02  0.64299200997E+01  0.94278062579E+02  0.89132012458E+02 0.  0.
         13    1    3    3    0    0  0.32816729933E+02 -0.10697370119E+02  0.22226408317E+02  0.41053573312E+02  0.10566000000E+00 0.  1.
         22    1    1    0    0    0 -0.23066340158E+01 -0.29952846374E+02 -0.64299200997E+01  0.30721937421E+02  0.00000000000E+00 0. -1.
</event>
<event>
 5    1  0.1758480E-003  0.9118800E+02  0.7818608E-02  0.1130116E+00
         25   -1    0    0    0    0  0.00000000000E+00  0.00000000000E+00  0.99999998245E-14  0.12500000000E+03  0.12500000000E+03 0.  0.
        -13    1    3    3    0    0 -0.25474899965E+01 -0.31645809476E+02  0.10330514717E+02  0.33386788720E+02  0.10566000000E+00 0.  1.
         23    2    1    0    0    0 -0.62701142666E+01  0.29032562058E+02 -0.12468664953E+01  0.95271921209E+02  0.90515083286E+02 0.  0.
         13    1    3    3    0    0 -0.37226242701E+01  0.60678371534E+02 -0.11577381212E+02  0.61885132489E+02  0.10566000000E+00 0. -1.
         22    1    1    0    0    0  0.62701142666E+01 -0.29032562058E+02  0.12468664953E+01  0.29728078791E+02  0.00000000000E+00 0. -1.
</event>
<event>
 5    1  0.1758480E-003  0.9118800E+02  0.7818608E-02  0.1130116E+00
         25   -1    0    0    0    0  0.00000000000E+00  0.00000000000E+00  0.99999998245E-14  0.12500000000E+03  0.12500000000E+03 0.  0.
        -13    1    3    3    0    0  0.33426082283E+02 -0.19840674194E+02 -0.30220320900E+02  0.49236513774E+02  0.10566000000E+00 0.  1.
         23    2    1    0    0    0 -0.45130827989E+01 -0.28386673618E+02 -0.43888542677E+01  0.95923666029E+02  0.91410702367E+02 0.  0.
         13    1    3    3    0    0 -0.37939165082E+02 -0.85459994239E+01  0.25831466632E+02  0.46687152255E+02  0.10566000000E+00 0. -1.
         22    1    1    0    0    0  0.45130827989E+01  0.28386673618E+02  0.43888542677E+01  0.29076333971E+02  0.00000000000E+00 0.  1.
</event>
<event>
 5    1  0.1758480E-003  0.9118800E+02  0.7818608E-02  0.1130116E+00
         25   -1    0    0    0    0  0.00000000000E+00  0.00000000000E+00  0.99999998245E-14  0.12500000000E+03  0.12500000000E+03 0.  0.
        -13    1    3    3    0    0  0.23659131809E+02 -0.42510058960E+02 -0.13767936738E+02  0.50561120209E+02  0.10566000000E+00 0.  1.
         23    2    1    0    0    0 -0.16887136995E+02 -0.21945902455E+02 -0.53193168592E+01  0.96802603626E+02  0.92604810385E+02 0.  0.
         13    1    3    3    0    0 -0.40546268804E+02  0.20564156505E+02  0.84486198790E+01  0.46241483417E+02  0.10566000000E+00 0. -1.
         22    1    1    0    0    0  0.16887136995E+02  0.21945902455E+02  0.53193168592E+01  0.28197396374E+02  0.00000000000E+00 0.  1.
</event>
<event>
 5    1  0.1758480E-003  0.9118800E+02  0.7818608E-02  0.1130116E+00
         25   -1    0    0    0    0  0.00000000000E+00  0.00000000000E+00  0.99999998245E-14  0.12500000000E+03  0.12500000000E+03 0.  0.
        -13    1    3    3    0    0  0.22972806668E+02 -0.20387777204E+02  0.51767889276E+02  0.60194159431E+02  0.10566000000E+00 0. -1.
         23    2    1    0    0    0  0.20191282726E+02 -0.30779102791E+01  0.20378758454E+02  0.96147699815E+02  0.91716546783E+02 0.  0.
         13    1    3    3    0    0 -0.27815239415E+01  0.17309866925E+02 -0.31389130822E+02  0.35953540384E+02  0.10566000000E+00 0.  1.
         22    1    1    0    0    0 -0.20191282726E+02  0.30779102791E+01 -0.20378758454E+02  0.28852300185E+02  0.00000000000E+00 0. -1.
</event>
<event>
 5    1  0.1758480E-003  0.9118800E+02  0.7818608E-02  0.1130116E+00
         25   -1    0    0    0    0  0.00000000000E+00  0.00000000000E+00  0.99999998245E-14  0.12500000000E+03  0.12500000000E+03 0.  0.
        -13    1    3    3    0    0 -0.54383714253E+00  0.31681614711E+02 -0.50451161340E+02  0.59576432540E+02  0.10566000000E+00 0.  1.
         23    2    1    0    0    0  0.39153293421E+01  0.24492733614E+02 -0.15021372163E+02  0.96002320344E+02  0.91518195382E+02 0.  0.
         13    1    3    3    0    0  0.44591664846E+01 -0.71888810969E+01  0.35429789177E+02  0.36425887804E+02  0.10566000000E+00 0. -1.
         22    1    1    0    0    0 -0.39153293421E+01 -0.24492733614E+02  0.15021372163E+02  0.28997679656E+02  0.00000000000E+00 0.  1.
</event>
<event>
 5    1  0.1758480E-003  0.9118800E+02  0.7818608E-02  0.1130116E+00
         25   -1    0    0    0    0  0.00000000000E+00  0.00000000000E+00  0.99999998245E-14  0.12500000000E+03  0.12500000000E+03 0.  0.
        -13    1    3    3    0    0 -0.28332970303E+02 -0.16409881740E+02  0.45094634920E+02  0.55727719202E+02  0.10566000000E+00 0.  1.
         23    2    1    0    0    0 -0.10829578846E+02 -0.24198981083E+02  0.82863524658E+01  0.97223497329E+02  0.93171209783E+02 0.  0.
         13    1    3    3    0    0  0.17503391457E+02 -0.77890993431E+01 -0.36808282454E+02  0.41495778127E+02  0.10566000000E+00 0. -1.
         22    1    1    0    0    0  0.10829578846E+02  0.24198981083E+02 -0.82863524658E+01  0.27776502671E+02  0.00000000000E+00 0.  1.
</event>
<event>
 5    1  0.1758480E-003  0.9118800E+02  0.7818608E-02  0.1130116E+00
         25   -1    0    0    0    0  0.00000000000E+00  0.00000000000E+00  0.99999998245E-14  0.12500000000E+03  0.12500000000E+03 0.  0.
        -13    1    3    3    0    0  0.34791263808E+01 -0.49474951918E+02 -0.26563242423E+02  0.56262707007E+02  0.10566000000E+00 0.  1.
         23    2    1    0    0    0  0.17419867615E+02 -0.14444144272E+02 -0.20530690433E+02  0.94445223923E+02  0.89366134417E+02 0.  0.
         13    1    3    3    0    0  0.13940741234E+02  0.35030807646E+02  0.60325519908E+01  0.38182516916E+02  0.10566000000E+00 0. -1.
         22    1    1    0    0    0 -0.17419867615E+02  0.14444144272E+02  0.20530690433E+02  0.30554776077E+02  0.00000000000E+00 0.  1.
</event>
<event>
 5    1  0.1758480E-003  0.9118800E+02  0.7818608E-02  0.1130116E+00
         25   -1    0    0    0    0  0.00000000000E+00  0.00000000000E+00  0.99999998245E-14  0.12500000000E+03  0.12500000000E+03 0.  0.
        -13    1    3    3    0    0  0.46535653639E+02 -0.22852841768E+02 -0.27631834144E+02  0.58748181748E+02  0.10566000000E+00 0. -1.
         23    2    1    0    0    0  0.16783076427E+02 -0.40078875035E+01 -0.25732127236E+02  0.94018115153E+02  0.88766709910E+02 0.  0.
         13    1    3    3    0    0 -0.29752577212E+02  0.18844954264E+02  0.18997069082E+01  0.35269933404E+02  0.10566000000E+00 0.  1.
         22    1    1    0    0    0 -0.16783076427E+02  0.40078875035E+01  0.25732127236E+02  0.30981884847E+02  0.00000000000E+00 0. -1.
</event>
<event>
 5    1  0.1758480E-003  0.9118800E+02  0.7818608E-02  0.1130116E+00
         25   -1    0    0    0    0  0.00000000000E+00  0.00000000000E+00  0.99999998245E-14  0.12500000000E+03  0.12500000000E+03 0.  0.
        -13    1    3    3    0    0 -0.33748213796E+02  0.86152930891E+01 -0.22096108026E+02  0.41248204365E+02  0.10566000000E+00 0. -1.
         23    2    1    0    0    0 -0.30156962719E+01  0.14782438218E+02  0.23796513302E+02  0.96823964988E+02  0.92633639931E+02 0.  0.
         13    1    3    3    0    0  0.30732517524E+02  0.61671451292E+01  0.45892621328E+02  0.55575760623E+02  0.10566000000E+00 0.  1.
         22    1    1    0    0    0  0.30156962719E+01 -0.14782438218E+02 -0.23796513302E+02  0.28176035012E+02  0.00000000000E+00 0.  1.
</event>
<event>
 5    1  0.1758480E-003  0.9118800E+02  0.7818608E-02  0.1130116E+00
         25   -1    0    0    0    0  0.00000000000E+00  0.00000000000E+00  0.99999998245E-14  0.12500000000E+03  0.12500000000E+03 0.  0.
        -13    1    3    3    0    0  0.27194178524E+02  0.46602008372E+02  0.18745288337E+02  0.57119764783E+02  0.10566000000E+00 0.  1.
         23    2    1    0    0    0  0.11602119971E+02  0.23937505886E+02 -0.96942893500E+01  0.96687588908E+02  0.92449430647E+02 0.  0.
         13    1    3    3    0    0 -0.15592058554E+02 -0.22664502487E+02 -0.28439577687E+02  0.39567824125E+02  0.10566000000E+00 0. -1.
         22    1    1    0    0    0 -0.11602119971E+02 -0.23937505886E+02  0.96942893500E+01  0.28312411092E+02  0.00000000000E+00 0.  1.
</event>
<event>
 5    1  0.1758480E-003  0.9118800E+02  0.7818608E-02  0.1130116E+00
         25   -1    0    0    0    0  0.00000000000E+00  0.00000000000E+00  0.99999998245E-14  0.12500000000E+03  0.12500000000E+03 0.  0.
        -13    1    3    3    0    0 -0.38270075566E+02 -0.37888308808E+01 -0.19540102197E+02  0.43136767161E+02  0.10566000000E+00 0. -1.
         23    2    1    0    0    0 -0.35422714471E+01 -0.25180861679E+02  0.14025192610E+02  0.95959863815E+02  0.91460187807E+02 0.  0.
         13    1    3    3    0    0  0.34727804118E+02 -0.21392030798E+02  0.33565294807E+02  0.52823096654E+02  0.10566000000E+00 0.  1.
         22    1    1    0    0    0  0.35422714471E+01  0.25180861679E+02 -0.14025192610E+02  0.29040136185E+02  0.00000000000E+00 0.  1.
</event>
<event>
 5    1  0.1758480E-003  0.9118800E+02  0.7818608E-02  0.1130116E+00
         25   -1    0    0    0    0  0.00000000000E+00  0.00000000000E+00  0.99999998245E-14  0.12500000000E+03  0.12500000000E+03 0.  0.
        -13    1    3    3    0    0  0.20403673329E+02 -0.26900907499E+02 -0.18643491869E+02  0.38568895015E+02  0.10566000000E+00 0. -1.
         23    2    1    0    0    0 -0.15978006394E+02 -0.10538042820E+02  0.22218025833E+02  0.95674453002E+02  0.91069277204E+02 0.  0.
         13    1    3    3    0    0 -0.36381679723E+02  0.16362864680E+02  0.40861517702E+02  0.57105557987E+02  0.10566000000E+00 0.  1.
         22    1    1    0    0    0  0.15978006394E+02  0.10538042820E+02 -0.22218025833E+02  0.29325546998E+02  0.00000000000E+00 0.  1.
</event>
<event>
 5    1  0.1758480E-003  0.9118800E+02  0.7818608E-02  0.1130116E+00
         25   -1    0    0    0    0  0.00000000000E+00  0.00000000000E+00  0.99999998245E-14  0.12500000000E+03  0.12500000000E+03 0.  0.
        -13    1    3    3    0    0 -0.28950859647E+02 -0.18800863378E+02 -0.20025548949E+02  0.39908125900E+02  0.10566000000E+00 0. -1.
         23    2    1    0    0    0  0.16046866708E+02  0.14869469284E+02 -0.18852052976E+02  0.96120890780E+02  0.91680001609E+02 0.  0.
         13    1    3    3    0    0  0.44997726355E+02  0.33670332662E+02  0.11734959738E+01  0.56212764881E+02  0.10566000000E+00 0.  1.
         22    1    1    0    0    0 -0.16046866708E+02 -0.14869469284E+02  0.18852052976E+02  0.28879109220E+02  0.00000000000E+00 0.  1.
</event>
<event>
 5    1  0.1758480E-003  0.9118800E+02  0.7818608E-02  0.1130116E+00
         25   -1    0    0    0    0  0.00000000000E+00  0.00000000000E+00  0.99999998245E-14  0.12500000000E+03  0.12500000000E+03 0.  0.
        -13    1    3    3    0    0  0.18002334997E+02  0.19729421786E+02 -0.49674454828E+02  0.56399439500E+02  0.10566000000E+00 0.  1.
         23    2    1    0    0    0  0.18279992905E+02 -0.77050043659E+01 -0.19474963806E+02  0.97200729360E+02  0.93140658898E+02 0.  0.
         13    1    3    3    0    0  0.27765790792E+00 -0.27434426152E+02  0.30199491022E+02  0.40801289860E+02  0.10566000000E+00 0. -1.
         22    1    1    0    0    0 -0.18279992905E+02  0.77050043659E+01  0.19474963806E+02  0.27799270640E+02  0.00000000000E+00 0.  1.
</event>
<event>
 5    1  0.1758480E-003  0.9118800E+02  0.7818608E-02  0.1130116E+00
         25   -1    0    0    0    0  0.00000000000E+00  0.00000000000E+00  0.99999998245E-14  0.12500000000E+03  0.12500000000E+03 0.  0.
        -13    1    3    3    0    0  0.32627951785E+02 -0.36733732416E+02  0.14936684072E+02  0.51352371221E+02  0.10566000000E+00 0.  1.
         23    2    1    0    0    0 -0.30688105388E+01 -0.28130344172E+02 -0.91425482216E+01  0.95262480780E+02  0.90502045254E+02 0.  0.
         13    1    3    3    0    0 -0.35696762324E+02  0.86033882442E+01 -0.24079232293E+02  0.43910109560E+02  0.10566000000E+00 0. -1.
         22    1    1    0    0    0  0.30688105388E+01  0.28130344172E+02  0.91425482216E+01  0.29737519220E+02  0.00000000000E+00 0.  1.
</event>
<event>
 5    1  0.1758480E-003  0.9118800E+02  0.7818608E-02  0.1130116E+00
         25   -1    0    0    0    0  0.00000000000E+00  0.00000000000E+00  0.99999998245E-14  0.12500000000E+03  0.12500000000E+03 0.  0.
        -13    1    3    3    0    0 -0.26169898570E+02  0.59041452001E+01  0.53190334715E+02  0.59573025716E+02  0.10566000000E+00 0.  1.
         23    2    1    0    0    0 -0.37564983172E+01 -0.29185237343E+01  0.34794730028E+02  0.89881596020E+02  0.82736926490E+02 0.  0.
         13    1    3    3    0    0  0.22413400253E+02 -0.88226689344E+01 -0.18395604687E+02  0.30308570304E+02  0.10566000000E+00 0. -1.
         22    1    1    0    0    0  0.37564983172E+01  0.29185237343E+01 -0.34794730028E+02  0.35118403980E+02  0.00000000000E+00 0.  1.
</event>
<event>
 5    1  0.1758480E-003  0.9118800E+02  0.7818608E-02  0.1130116E+00
         25   -1    0    0    0    0  0.00000000000E+00  0.00000000000E+00  0.99999998245E-14  0.12500000000E+03  0.12500000000E+03 0.  0.
        -13    1    3    3    0    0 -0.11133850642E+02  0.61923186005E+01  0.38238551212E+02  0.40305153549E+02  0.10566000000E+00 0. -1.
         23    2    1    0    0    0 -0.62151582612E+01  0.29674668539E+02 -0.90735136499E+01  0.93352839068E+02  0.87824881253E+02 0.  0.
         13    1    3    3    0    0  0.49186923810E+01  0.23482349938E+02 -0.47312064862E+02  0.53047685519E+02  0.10566000000E+00 0.  1.
         22    1    1    0    0    0  0.62151582612E+01 -0.29674668539E+02  0.90735136499E+01  0.31647160932E+02  0.00000000000E+00 0.  1.
</event>
<event>
 5    1  0.1758480E-003  0.9118800E+02  0.7818608E-02  0.1130116E+00
         25   -1    0    0    0    0  0.00000000000E+00  0.00000000000E+00  0.99999998245E-14  0.12500000000E+03  0.12500000000E+03 0.  0.
        -13    1    3    3    0    0 -0.27566282613E+02 -0.27708422934E+02 -0.94681021080E+01  0.40215827234E+02  0.10566000000E+00 0.  1.
         23    2    1    0    0    0  0.18935070317E+02 -0.17182048190E+02  0.16561243016E+02  0.94536342338E+02  0.89493494649E+02 0.  0.
         13    1    3    3    0    0  0.46501352929E+02  0.10526374744E+02  0.26029345124E+02  0.54320515104E+02  0.10566000000E+00 0. -1.
         22    1    1    0    0    0 -0.18935070317E+02  0.17182048190E+02 -0.16561243016E+02  0.30463657662E+02  0.00000000000E+00 0. -1.
</event>
<event>
 5    1  0.1758480E-003  0.9118800E+02  0.7818608E-02  0.1130116E+00
         25   -1    0    0    0    0  0.00000000000E+00  0.00000000000E+00  0.99999998245E-14  0.12500000000E+03  0.12500000000E+03 0.  0.
        -13    1    3    3    0    0  0.28957482511E+02 -0.27852343072E+02  0.51325872597E+01  0.40504856795E+02  0.10566000000E+00 0. -1.
         23    2    1    0    0    0  0.12022821767E+02  0.25264138145E+02  0.65136727914E+01  0.96272785505E+02  0.91886867267E+02 0.  0.
         13    1    3    3    0    0 -0.16934660744E+02  0.53116481216E+02  0.13810855317E+01  0.55767928710E+02  0.10566000000E+00 0.  1.
         22    1    1    0    0    0 -0.12022821767E+02 -0.25264138145E+02 -0.65136727914E+01  0.28727214495E+02  0.00000000000E+00 0. -1.
</event>
<event>
 5    1  0.1758480E-003  0.9118800E+02  0.7818608E-02  0.1130116E+00
         25   -1    0    0    0    0  0.00000000000E+00  0.00000000000E+00  0.99999998245E-14  0.12500000000E+03  0.12500000000E+03 0.  0.
        -13    1    3    3    0    0  0.13264309034E+02 -0.21780606282E+00  0.55592792115E+02  0.57153819057E+02  0.10566000000E+00 0. -1.
         23    2    1    0    0    0  0.14532089303E+02  0.13979874228E+02  0.15924617448E+02  0.99305410223E+02  0.95923680892E+02 0.  0.
         13    1    3    3    0    0  0.12677802689E+01  0.14197680291E+02 -0.39668174667E+02  0.42151591167E+02  0.10566000000E+00 0.  1.
         22    1    1    0    0    0 -0.14532089303E+02 -0.13979874228E+02 -0.15924617448E+02  0.25694589777E+02  0.00000000000E+00 0. -1.
</event>
<event>
 5    1  0.1758480E-003  0.9118800E+02  0.7818608E-02  0.1130116E+00
         25   -1    0    0    0    0  0.00000000000E+00  0.00000000000E+00  0.99999998245E-14  0.12500000000E+03  0.12500000000E+03 0.  0.
        -13    1    3    3    0    0  0.75129907129E+01 -0.38613396951E+02  0.97090383347E+01  0.40518095253E+02  0.10566000000E+00 0.  1.
         23    2    1    0    0    0 -0.18339432654E+02 -0.40841422005E+01 -0.23468744392E+02  0.94936783756E+02  0.90051074058E+02 0.  0.
         13    1    3    3    0    0 -0.25852423367E+02  0.34529254751E+02 -0.33177782727E+02  0.54418688502E+02  0.10566000000E+00 0. -1.
         22    1    1    0    0    0  0.18339432654E+02  0.40841422005E+01  0.23468744392E+02  0.30063216244E+02  0.00000000000E+00 0. -1.
</event>
<event>
 5    1  0.1758480E-003  0.9118800E+02  0.7818608E-02  0.1130116E+00
         25   -1    0    0    0    0  0.00000000000E+00  0.00000000000E+00  0.99999998245E-14  0.12500000000E+03  0.12500000000E+03 0.  0.
        -13    1    3    3    0    0  0.30968855146E+01  0.30101271798E+02 -0.16926305425E+02  0.34672586334E+02  0.10566000000E+00 0. -1.
         23    2    1    0    0    0 -0.12002522238E+02 -0.13494090017E+02  0.23049098004E+02  0.95718402977E+02  0.91129582158E+02 0.  0.
         13    1    3    3    0    0 -0.15099407752E+02 -0.43595361815E+02  0.39975403429E+02  0.61045816642E+02  0.10566000000E+00 0.  1.
         22    1    1    0    0    0  0.12002522238E+02  0.13494090017E+02 -0.23049098004E+02  0.29281597023E+02  0.00000000000E+00 0.  1.
</event>
<event>
 5    1  0.1758480E-003  0.9118800E+02  0.7818608E-02  0.1130116E+00
         25   -1    0    0    0    0  0.00000000000E+00  0.00000000000E+00  0.99999998245E-14  0.12500000000E+03  0.12500000000E+03 0.  0.
        -13    1    3    3    0    0 -0.66553377291E+01  0.22105607655E+02  0.43740735885E+02  0.49459221080E+02  0.10566000000E+00 0.  1.
         23    2    1    0    0    0 -0.28601152062E+02  0.11087284987E+01  0.10434629324E+02  0.94534664498E+02  0.89491151096E+02 0.  0.
         13    1    3    3    0    0 -0.21945814333E+02 -0.20996879156E+02 -0.33306106560E+02  0.45075443417E+02  0.10566000000E+00 0. -1.
         22    1    1    0    0    0  0.28601152062E+02 -0.11087284987E+01 -0.10434629324E+02  0.30465335502E+02  0.00000000000E+00 0. -1.
</event>
<event>
 5    1  0.1758480E-003  0.9118800E+02  0.7818608E-02  0.1130116E+00
         25   -1    0    0    0    0  0.00000000000E+00  0.00000000000E+00  0.99999998245E-14  0.12500000000E+03  0.12500000000E+03 0.  0.
        -13    1    3    3    0    0  0.49630738462E+02  0.31438231029E+02  0.21086373356E+02  0.62419699422E+02  0.10566000000E+00 0. -1.
         23    2    1    0    0    0  0.22422300813E+02  0.16846178973E+02  0.10186084517E+02  0.95161943135E+02  0.90363077546E+02 0.  0.
         13    1    3    3    0    0 -0.27208437650E+02 -0.14592052056E+02 -0.10900288840E+02  0.32742243713E+02  0.10566000000E+00 0.  1.
         22    1    1    0    0    0 -0.22422300813E+02 -0.16846178973E+02 -0.10186084517E+02  0.29838056865E+02  0.00000000000E+00 0. -1.
</event>
<event>
 5    1  0.1758480E-003  0.9118800E+02  0.7818608E-02  0.1130116E+00
         25   -1    0    0    0    0  0.00000000000E+00  0.00000000000E+00  0.99999998245E-14  0.12500000000E+03  0.12500000000E+03 0.  0.
        -13    1    3    3    0    0 -0.13997903241E+02 -0.16090085516E+02  0.46948970628E+02  0.51565968954E+02  0.10566000000E+00 0. -1.
         23    2    1    0    0    0  0.15484251146E+02 -0.14733209151E+02  0.36171248446E+02  0.82985851197E+02  0.71564396171E+02 0.  0.
         13    1    3    3    0    0  0.29482154387E+02  0.13568763643E+01 -0.10777722182E+02  0.31419882244E+02  0.10566000000E+00 0.  1.
         22    1    1    0    0    0 -0.15484251146E+02  0.14733209151E+02 -0.36171248446E+02  0.42014148803E+02  0.00000000000E+00 0. -1.
</event>
<event>
 5    1  0.1758480E-003  0.9118800E+02  0.7818608E-02  0.1130116E+00
         25   -1    0    0    0    0  0.00000000000E+00  0.00000000000E+00  0.99999998245E-14  0.12500000000E+03  0.12500000000E+03 0.  0.
        -13    1    3    3    0    0  0.44527353663E+01 -0.23162501296E+02 -0.25013880459E+02  0.34380716952E+02  0.10566000000E+00 0. -1.
         23    2    1    0    0    0  0.16778562345E+02  0.23012198721E+02  0.11255900509E+02  0.94376859393E+02  0.89270458990E+02 0.  0.
         13    1    3    3    0    0  0.12325826978E+02  0.46174700017E+02  0.36269780968E+02  0.59996142441E+02  0.10566000000E+00 0.  1.
         22    1    1    0    0    0 -0.16778562345E+02 -0.23012198721E+02 -0.11255900509E+02  0.30623140607E+02  0.00000000000E+00 0.  1.
</event>
<event>
 5    1  0.1758480E-003  0.9118800E+02  0.7818608E-02  0.1130116E+00
         25   -1    0    0    0    0  0.00000000000E+00  0.00000000000E+00  0.99999998245E-14  0.12500000000E+03  0.12500000000E+03 0.  0.
        -13    1    3    3    0    0 -0.46489203256E+02  0.54077013306E+01  0.28936385048E+02  0.55025583111E+02  0.10566000000E+00 0. -1.
         23    2    1    0    0    0  0.20930310632E+00  0.76105273269E+01  0.21280166480E+02  0.10239890668E+03  0.99873553403E+02 0.  0.
         13    1    3    3    0    0  0.46698506363E+02  0.22028259963E+01 -0.76562185680E+01  0.47373323566E+02  0.10566000000E+00 0.  1.
         22    1    1    0    0    0 -0.20930310632E+00 -0.76105273269E+01 -0.21280166480E+02  0.22601093323E+02  0.00000000000E+00 0. -1.
</event>
<event>
 5    1  0.1758480E-003  0.9118800E+02  0.7818608E-02  0.1130116E+00
         25   -1    0    0    0    0  0.00000000000E+00  0.00000000000E+00  0.99999998245E-14  0.12500000000E+03  0.12500000000E+03 0.  0.
        -13    1    3    3    0    0 -0.21177440552E+02  0.12253497968E+02 -0.50948060813E+02  0.56518565671E+02  0.10566000000E+00 0.  1.
         23    2    1    0    0    0  0.77658502483E+01 -0.62856852130E+00 -0.28777443137E+02  0.95186500340E+02  0.90397041351E+02 0.  0.
         13    1    3    3    0    0  0.28943290800E+02 -0.12882066489E+02  0.22170617676E+02  0.38667934669E+02  0.10566000000E+00 0. -1.
         22    1    1    0    0    0 -0.77658502483E+01  0.62856852130E+00  0.28777443137E+02  0.29813499660E+02  0.00000000000E+00 0.  1.
</event>
<event>
 5    1  0.1758480E-003  0.9118800E+02  0.7818608E-02  0.1130116E+00
         25   -1    0    0    0    0  0.00000000000E+00  0.00000000000E+00  0.99999998245E-14  0.12500000000E+03  0.12500000000E+03 0.  0.
        -13    1    3    3    0    0  0.37987495910E+02  0.27737529798E+02  0.23517637702E+02  0.52588124628E+02  0.10566000000E+00 0.  1.
         23    2    1    0    0    0  0.41093779247E+01  0.26731961243E+02 -0.57271918281E+01  0.97354286678E+02  0.93346513965E+02 0.  0.
         13    1    3    3    0    0 -0.33878117986E+02 -0.10055685542E+01 -0.29244829530E+02  0.44766162050E+02  0.10566000000E+00 0. -1.
         22    1    1    0    0    0 -0.41093779247E+01 -0.26731961243E+02  0.57271918281E+01  0.27645713322E+02  0.00000000000E+00 0.  1.
</event>
